Membrane in water
40347
    1TMC1    C1    1   0.761   2.301  11.211  0.6032 -0.1518 -0.4504
    1TMC1    C2    2   0.705   2.418  11.162 -0.3795  0.2686 -0.6790
    1TMC1    C3    3   0.748   2.536  11.218  0.1297  0.7473 -0.5993
    1TMC1    C4    4   0.835   2.307  11.322 -0.5888  0.2794  0.4112
    1TMC1    C5    5   0.863   2.426  11.382 -0.3560 -0.1850  0.5936
    1TMC1    C6    6   0.818   2.542  11.335  0.5802  0.3956 -0.3494
    1TMC1     C    7   0.669   2.186  11.210 -0.4595  1.6809 -0.1761
    1TMC1     O    8   0.552   2.202  11.173  0.3729  0.5556  0.3015
    1TMC1     H    9   0.653   2.416  11.066 -1.4558 -2.1751 -0.0625
    1TMC1    H1   10   0.856   2.216  11.377  1.3736 -0.3488 -1.3736
    1TMC1    H2   11   0.844   2.641  11.369 -0.2577  0.3249  0.5181
    1TMC1    C7   12   0.916   2.428  11.513  0.0438  0.2367  0.2865
    1TMC1    C8   13   0.692   2.661  11.170 -0.5428  0.4947 -0.0452
    1TMC1    O1   14   1.009   2.355  11.547  0.0818  0.3096  0.0944
    1TMC1    O2   15   0.667   2.753  11.249  0.1181 -0.4577  0.5405
    1TMC1    O3   16   0.842   2.509  11.587 -0.2090 -0.2694 -0.0562
    1TMC1    H3   17   0.752   2.532  11.555  0.0662 -1.2427 -1.5797
    1TMC1    O5   18   0.771   2.680  11.058 -0.5795 -0.1043  0.6251
    1TMC1    H5   19   0.785   2.598  11.006 -0.6968  1.6546 -2.1544
    2MPD2     C   20   0.563   1.696  11.330 -0.2412 -0.3076  0.3547
    2MPD2    C1   21   0.485   1.808  11.351 -0.1622 -0.1645 -0.6711
    2MPD2    C2   22   0.538   1.930  11.312  0.3996  0.2363 -0.6950
    2MPD2    C3   23   0.665   1.945  11.271 -0.4557 -0.2695  0.4046
    2MPD2    C4   24   0.743   1.832  11.237  0.2963  0.2027 -0.7306
    2MPD2    C5   25   0.686   1.709  11.274 -0.3914  0.6189 -0.4055
    2MPD2     H   26   0.470   2.015  11.304  0.3101  0.2216 -0.0911
    2MPD2    H1   27   0.843   1.837  11.196 -0.5635  0.9341 -2.7196
    2MPD2    H2   28   0.548   1.593  11.363  0.0507 -0.8017 -1.0475
    2MPD2    H3   29   0.750   1.624  11.252  0.5799  1.5601 -1.2139
    2MPD2     N   30   0.730   2.067  11.238  0.4591  0.9273  0.0957
    2MPD2    H5   31   0.832   2.068  11.231  0.6245 -1.0157  2.3806
    2MPD2    N1   32   0.359   1.811  11.424 -0.1514  0.1213  0.1806
    2MPD2    H7   33   0.309   1.898  11.410  3.0799  1.7228 -1.7280
    3TMC1    C1   34   0.224   3.921  11.180  0.2792  0.3260 -0.2101
    3TMC1    C2   35   0.331   3.968  11.117  0.4555 -0.1263 -0.0983
    3TMC1    C3   36   0.353   4.098  11.118  0.8454 -0.5062  0.4380
    3TMC1    C4   37   0.130   3.993  11.251 -0.2206  0.5889  0.3523
    3TMC1    C5   38   0.168   4.127  11.260 -0.4557 -0.9752  0.8333
    3TMC1    C6   39   0.276   4.184  11.195 -0.3011  0.6707  0.3766
    3TMC1     C   40   0.190   3.783  11.143  0.2677  0.0744 -0.1520
    3TMC1     O   41   0.282   3.708  11.118  0.7905  0.0496 -0.6133
    3TMC1     H   42   0.374   3.906  11.039 -1.3938  1.4141 -2.3715
    3TMC1    H1   43   0.050   3.958  11.316 -2.7907  1.6647 -2.1962
    3TMC1    H2   44   0.296   4.290  11.204 -1.8703  0.9198  0.9696
    3TMC1    C7   45   0.082   4.216  11.337 -0.5354  0.8823  0.1003
    3TMC1    C8   46   0.441   4.160  11.018  0.3095  0.4979 -0.0714
    3TMC1    O1   47   0.119   4.313  11.403 -0.4286 -0.1459 -0.1260
    3TMC1    O2   48   0.538   4.107  10.973 -0.2827 -0.1283 -0.7437
    3TMC1    O3   49   4.685   4.194  11.302  0.5539  0.1557  0.3942
    3TMC1    H3   50   4.671   4.117  11.242  0.7770  0.1770  0.3115
    3TMC1    O5   51   0.365   4.263  10.962 -0.6336 -0.2089  0.1106
    3TMC1    H5   52   0.282   4.293  11.004 -1.7570 -1.7622 -0.9876
    4MPD2     C   53   4.617   3.369  11.114 -0.4700  0.3081  0.6587
    4MPD2    C1   54   4.540   3.487  11.104 -0.0130  0.3606  0.1091
    4MPD2    C2   55   4.598   3.614  11.113 -0.9601  0.2919  0.0558
    4MPD2    C3   56   0.006   3.625  11.129 -0.1792 -0.3608 -0.1940
    4MPD2    C4   57   0.082   3.507  11.129 -0.4316 -0.5854  0.4122
    4MPD2    C5   58   0.021   3.390  11.128 -0.9076 -0.1953  0.2148
    4MPD2     H   59   4.536   3.702  11.107 -1.2200 -0.1198 -3.3836
    4MPD2    H1   60   0.182   3.507  11.171 -0.5563 -3.0918  0.7292
    4MPD2    H2   61   4.578   3.271  11.090  0.9425 -0.3016  0.8204
    4MPD2    H3   62   0.083   3.301  11.129 -0.1146  0.3411 -0.6252
    4MPD2     N   63   0.059   3.755  11.147 -0.4770 -0.2347  0.2910
    4MPD2    H5   64   4.735   3.837  11.156  0.4646  0.5748 -0.9098
    4MPD2    N1   65   4.393   3.486  11.089 -0.1103  0.5183  0.1002
    4MPD2    H7   66   4.346   3.576  11.083 -0.2167  0.5028  0.7889
    5TCq1    O1   67   0.641   0.982  10.079 -0.2707 -0.5084 -0.0916
    5TCq1    C1   68   0.602   0.876   9.999  0.0784 -0.1567  0.7452
    5TCq1    O2   69   0.682   0.796   9.948 -0.2086 -0.3374  0.1592
    5TCq1    C2   70   0.466   0.844  10.038 -0.2025  0.5502  0.3407
    5TCq1    C3   71   0.366   0.925  10.001 -0.4633  0.6607 -0.3585
    5TCq1    C4   72   0.239   0.883  10.013 -0.3728  0.2610  0.1802
    5TCq1    C5   73   0.212   0.755  10.050  0.2385  0.0594 -0.7406
    5TCq1    C6   74   0.320   0.671  10.077 -0.1499 -0.2361 -0.2100
    5TCq1    C7   75   0.447   0.710  10.074 -0.3282  0.0559 -1.3188
    5TCq1    C8   76   0.293   0.539  10.125 -0.2217  0.2800 -0.2542
    5TCq1    O4   77   0.389   0.464  10.143  0.0241  0.0164  0.2967
    5TCq1    C9   78   0.128   0.969   9.986  0.4225 -0.2288 -0.4997
    5TCq1    O5   79   0.014   0.916   9.976  0.0216  0.1335  0.2116
    5TCq1    O6   80   0.142   1.096  10.006 -0.1769  0.1308 -0.0935
    5TCq1    H1   81   0.568   1.018  10.133 -0.2209 -1.5463  0.6704
    5TCq1    H2   82   0.375   1.023   9.957 -3.3885  0.8427 -0.5602
    5TCq1    H3   83   0.112   0.722  10.024 -0.0089 -0.2219  0.5372
    5TCq1    H4   84   0.530   0.645  10.098 -0.0922  0.7490 -0.2767
    6MPD2     C   85   4.703   0.426  10.230  0.0372 -0.3262 -0.0657
    6MPD2    C1   86   0.107   0.423  10.230 -0.0360  0.0061  0.3434
    6MPD2    C2   87   0.175   0.308  10.280 -0.1141  0.7583 -0.4419
    6MPD2    C3   88   0.107   0.197  10.317 -1.0918 -0.4581 -0.0980
    6MPD2    C4   89   4.703   0.204  10.317 -0.0426 -0.2034 -0.2328
    6MPD2    C5   90   4.639   0.321  10.291  0.2312 -0.5040 -1.0428
    6MPD2     H   91   0.283   0.315  10.284 -0.1736  0.7561  1.1795
    6MPD2    H1   92   4.638   0.118  10.334  0.4469 -0.3809  0.7731
    6MPD2    H2   93   4.649   0.515  10.199  2.0427  0.5746 -0.9208
    6MPD2    H3   94   4.531   0.322  10.297  0.4265  0.8672  2.4043
    6MPD2     N   95   0.181   0.084  10.361  0.4430  0.2382 -0.5711
    6MPD2    H5   96   0.282   0.082  10.364  0.4236  0.8056  0.5456
    6MPD2    N1   97   0.164   0.534  10.171 -0.0198 -0.1842  0.1109
    6MPD2    H7   98   0.103   0.612  10.148  0.8665  0.9172  1.5436
    7TCq1    O1   99   2.041   4.557  12.790 -0.4522  0.2767 -0.3423
    7TCq1    C1  100   2.058   4.629  12.903  0.1948 -0.7586  0.6975
    7TCq1    O2  101   1.967   4.627  12.987 -0.1265 -0.1200 -0.4581
    7TCq1    C2  102   2.187   4.591  12.942 -0.4098 -0.6278  0.7223
    7TCq1    C3  103   2.290   4.653  12.880 -0.5182  0.2826  0.1345
    7TCq1    C4  104   2.421   4.648  12.938 -0.4472  0.2366  0.8934
    7TCq1    C5  105   2.445   4.569  13.047 -0.4401  0.4661  0.3307
    7TCq1    C6  106   2.338   4.496  13.099  0.2051 -0.3228  0.2854
    7TCq1    C7  107   2.208   4.509  13.052 -0.1278 -0.7397 -0.5135
    7TCq1    C8  108   2.363   4.373  13.176  0.4545  0.1382  0.0943
    7TCq1    O4  109   2.287   4.280  13.168  0.2886 -0.0207  0.3555
    7TCq1    C9  110   2.532   4.723  12.887  0.4530 -0.3742  0.3119
    7TCq1    O5  111   2.625   0.017  12.967 -0.8235 -0.5389 -0.3233
    7TCq1    O6  112   2.509   0.049  12.776 -0.5188 -0.2859 -0.2371
    7TCq1    H1  113   2.126   4.528  12.751 -0.7402  0.0573 -0.7942
    7TCq1    H2  114   2.265   4.728  12.805 -1.3561  2.6306  2.7635
    7TCq1    H3  115   2.543   4.557  13.091  0.4985  1.7481 -1.4194
    7TCq1    H4  116   2.126   4.454  13.095 -1.5433  1.8154  0.0864
    8MPD2     C  117   2.636   4.122  13.545  0.0236  0.1744  0.2242
    8MPD2    C1  118   2.530   4.080  13.470 -0.1726 -0.7424 -0.1766
    8MPD2    C2  119   2.468   4.164  13.375 -0.2015 -0.5152 -0.2575
    8MPD2    C3  120   2.520   4.292  13.353  0.3164  0.0406 -0.2399
    8MPD2    C4  121   2.632   4.325  13.428  0.1556  0.0824  0.7237
    8MPD2    C5  122   2.689   4.244  13.522  0.4224  0.6559  0.5027
    8MPD2     H  123   2.380   4.129  13.321  0.6728  1.0164 -2.6797
    8MPD2    H1  124   2.682   4.419  13.408 -0.6035  0.3415  0.0602
    8MPD2    H2  125   2.693   4.068  13.619  0.7828 -0.5950 -0.9088
    8MPD2    H3  126   2.787   4.266  13.563  0.5523 -1.1854  1.1854
    8MPD2     N  127   2.474   4.388  13.262 -0.0779 -0.1722  0.0755
    8MPD2    H5  128   2.510   4.482  13.274 -0.7726  0.2275 -0.9866
    8MPD2    N1  129   2.479   3.952  13.505  0.4250 -0.1332 -0.2178
    8MPD2    H7  130   2.534   3.910  13.579  1.4084  0.4797 -0.6079
    9TMC1    C1  131   0.816   2.570  10.381 -0.1093 -0.4391 -0.2995
    9TMC1    C2  132   0.713   2.476  10.396  0.1320  0.4506 -0.4492
    9TMC1    C3  133   0.720   2.375  10.319 -0.2012 -0.8800 -0.1566
    9TMC1    C4  134   0.923   2.560  10.306 -1.3956 -1.1758  0.3946
    9TMC1    C5  135   0.926   2.446  10.235  0.9448  0.3890  0.1306
    9TMC1    C6  136   0.827   2.357  10.238 -0.0198  0.1002  0.6666
    9TMC1     C  137   0.813   2.695  10.462  0.4554  0.3169  0.4006
    9TMC1     O  138   0.900   2.776  10.431  0.0617 -0.5158  0.0519
    9TMC1     H  139   0.621   2.487  10.453  0.5754 -1.0846  0.5709
    9TMC1    H1  140   1.002   2.634  10.309 -0.4479 -2.1105 -1.0413
    9TMC1    H2  141   0.833   2.280  10.163  1.1173  1.0044 -0.1683
    9TMC1    C7  142   1.033   2.425  10.141  0.3819  0.1998  0.6811
    9TMC1    C8  143   0.616   2.280  10.305 -0.2732 -1.0465  0.5168
    9TMC1    O1  144   1.032   2.332  10.060  0.5420  0.2876 -0.0259
    9TMC1    O2  145   0.636   2.170  10.253  0.2844 -0.1067 -0.4606
    9TMC1    O3  146   1.130   2.517  10.153  0.4171 -0.1675 -0.0065
    9TMC1    H3  147   1.138   2.558  10.242 -0.4962 -1.0606  0.4910
    9TMC1    O5  148   0.497   2.334  10.319  0.4453  0.6875  0.9669
    9TMC1    H5  149   0.491   2.425  10.353 -1.5176  0.8794  0.0721
   10MPD2     C  150   0.730   2.942  10.608 -0.1466 -0.5706 -0.4781
   10MPD2    C1  151   0.675   2.822  10.625  0.1302 -0.0903 -0.2086
   10MPD2    C2  152   0.586   2.810  10.729  0.1707  0.3515  0.5653
   10MPD2    C3  153   0.544   2.917  10.800  0.0114  0.3785 -0.2159
   10MPD2    C4  154   0.612   3.036  10.787  0.3091  0.0753 -0.0307
   10MPD2    C5  155   0.712   3.048  10.691 -0.4391 -0.1494  0.1739
   10MPD2     H  156   0.544   2.712  10.751  2.2009 -0.6422  0.0168
   10MPD2    H1  157   0.593   3.121  10.851 -2.0979 -2.1448  2.2378
   10MPD2    H2  158   0.790   2.958  10.519  1.2745  0.4668  0.6862
   10MPD2    H3  159   0.772   3.136  10.670  2.5925 -2.0192  0.9034
   10MPD2     N  160   0.464   2.915  10.918 -0.2068  0.5921  0.3936
   10MPD2    H5  161   0.456   3.001  10.971 -0.2834  0.3234  0.8235
   10MPD2    N1  162   0.705   2.709  10.551 -0.2930  0.7847 -0.0173
   10MPD2    H7  163   0.646   2.630  10.575 -0.3126 -0.1217 -3.1420
   11TCq1    O1  164   4.723   2.271  13.385 -0.0015 -0.0876  0.5351
   11TCq1    C1  165   4.677   2.292  13.508  0.2537  0.0970 -0.1424
   11TCq1    O2  166   4.569   2.330  13.552 -0.4175 -0.5084  0.0933
   11TCq1    C2  167   0.047   2.249  13.605 -0.2737  0.1921  0.1307
   11TCq1    C3  168   0.180   2.257  13.566  0.5658  0.8912 -0.7928
   11TCq1    C4  169   0.270   2.198  13.649 -0.0245  0.7090  0.5328
   11TCq1    C5  170   0.231   2.136  13.766  0.0571 -0.0299  0.4363
   11TCq1    C6  171   0.095   2.129  13.787 -0.1491  0.2677 -0.5920
   11TCq1    C7  172   4.735   2.188  13.717 -0.3780 -0.8202 -0.1125
   11TCq1    C8  173   0.047   2.038  13.877  0.1286 -0.4568  0.0061
   11TCq1    O4  174   4.668   2.050  13.916  0.2582 -0.1963 -0.2027
   11TCq1    C9  175   0.401   2.187  13.612  0.1185 -0.7559 -0.3465
   11TCq1    O5  176   0.439   2.280  13.535  0.7774 -0.2347  0.1238
   11TCq1    O6  177   0.468   2.101  13.675 -0.9316  0.2589 -0.3494
   11TCq1    H1  178   0.059   2.203  13.393  0.0043 -0.3102 -1.3903
   11TCq1    H2  179   0.209   2.320  13.482  0.9302 -0.7441 -1.9040
   11TCq1    H3  180   0.297   2.107  13.847  1.2683  0.0335 -0.5429
   11TCq1    H4  181   4.629   2.178  13.736 -1.0607 -0.3728 -3.5790
   12MPD2     C  182   0.038   1.904  14.129  0.3316 -0.7209  0.0312
   12MPD2    C1  183   0.134   1.875  14.036 -0.5667 -0.0278  0.2969
   12MPD2    C2  184   0.244   1.808  14.080 -0.2957 -0.2425  0.0130
   12MPD2    C3  185   0.235   1.730  14.193 -0.2274  0.6993  0.1535
   12MPD2    C4  186   0.120   1.727  14.264  0.4593  1.0863 -0.0337
   12MPD2    C5  187   0.030   1.821  14.239 -0.2982 -0.5509 -0.5416
   12MPD2     H  188   0.317   1.793  14.001  0.6432  0.1737  0.8069
   12MPD2    H1  189   0.117   1.665  14.353 -2.5507  0.3171 -0.6817
   12MPD2    H2  190   4.699   1.981  14.115 -0.7657 -1.7192  0.3281
   12MPD2    H3  191   4.673   1.824  14.296  0.8161 -3.5904  1.4400
   12MPD2     N  192   0.335   1.637  14.224  0.1684  0.2476 -0.5736
   12MPD2    H5  193   0.320   1.560  14.289  1.3171 -0.7373 -1.4824
   12MPD2    N1  194   0.143   1.950  13.918 -0.6101  0.1008 -0.0814
   12MPD2    H7  195   0.232   1.952  13.869 -1.7543 -1.3480 -2.2319
   13TCq1    O1  196   1.146   3.061  10.822  0.2915 -0.2831  0.1174
   13TCq1    C1  197   1.141   2.934  10.869  0.7503  0.2909  0.7545
   13TCq1    O2  198   1.141   2.903  10.987 -0.2899 -0.3781 -0.3830
   13TCq1    C2  199   1.093   2.854  10.758 -0.9450 -0.3267  0.4174
   13TCq1    C3  200   1.169   2.849  10.640  0.6542  0.0338  0.9865
   13TCq1    C4  201   1.167   2.738  10.560  0.9735  0.9467 -0.1598
   13TCq1    C5  202   1.100   2.621  10.598 -0.5613 -0.5236 -0.6121
   13TCq1    C6  203   1.034   2.627  10.715 -0.0985  1.0391  0.1943
   13TCq1    C7  204   1.027   2.740  10.797  1.0417  0.5349 -0.0657
   13TCq1    C8  205   0.952   2.515  10.762  0.6804 -0.5092  0.9146
   13TCq1    O4  206   0.864   2.549  10.839  0.0538 -0.3136  0.0836
   13TCq1    C9  207   1.232   2.735  10.428  0.2694 -0.1182 -0.0843
   13TCq1    O5  208   1.220   2.627  10.368  0.2537 -0.0291  0.3949
   13TCq1    O6  209   1.340   2.805  10.419 -0.4155 -0.3227 -0.2726
   13TCq1    H1  210   1.131   3.063  10.725 -0.0875  0.4478  0.1949
   13TCq1    H2  211   1.222   2.939  10.612  0.8197 -0.1962  0.5675
   13TCq1    H3  212   1.117   2.529  10.543  0.4211 -0.8615  0.2747
   13TCq1    H4  213   0.999   2.730  10.901  0.1161 -1.1874 -0.4774
   14MPD2     C  214   0.887   2.172  10.641  0.4170  0.5533 -0.3596
   14MPD2    C1  215   0.855   2.301  10.677 -0.4167  0.1900  0.4480
   14MPD2    C2  216   0.720   2.332  10.688  0.2117 -0.1318  0.1959
   14MPD2    C3  217   0.623   2.236  10.649 -0.2883 -0.4459 -0.1903
   14MPD2    C4  218   0.661   2.106  10.618  0.0130 -0.1322  0.1266
   14MPD2    C5  219   0.788   2.082  10.612 -0.3336  0.2705 -0.2118
   14MPD2     H  220   0.703   2.434  10.720 -1.7843 -0.5611  0.4826
   14MPD2    H1  221   0.591   2.035  10.576  1.9407 -0.9881 -1.6783
   14MPD2    H2  222   0.989   2.137  10.633  0.1226 -0.4848  0.3663
   14MPD2    H3  223   0.827   1.986  10.580 -0.5562  0.5179 -1.2280
   14MPD2     N  224   0.483   2.270  10.657 -0.0175  0.3106 -0.0105
   14MPD2    H5  225   0.418   2.194  10.644 -0.7462  0.6237  1.7711
   14MPD2    N1  226   0.960   2.396  10.694  0.0924 -0.0479 -0.3123
   14MPD2    H7  227   1.051   2.369  10.657 -0.0690 -0.8935 -0.1029
   15TCq1    O1  228   1.944   2.487   1.951  0.8576  0.2669  0.6575
   15TCq1    C1  229   1.916   2.365   1.997  0.7209  0.5243  0.2583
   15TCq1    O2  230   1.813   2.306   1.965  0.2990  0.5432 -0.0684
   15TCq1    C2  231   2.044   2.305   1.986 -0.0521 -0.1046 -0.3840
   15TCq1    C3  232   2.155   2.365   2.041 -0.0747 -0.1113 -0.2163
   15TCq1    C4  233   2.281   2.333   2.010  0.4229  0.3586  0.4946
   15TCq1    C5  234   2.301   2.232   1.920  0.1524 -0.3286 -0.0781
   15TCq1    C6  235   2.192   2.162   1.869 -0.4267  0.1740 -0.3164
   15TCq1    C7  236   2.062   2.201   1.898  0.1391 -0.0625  0.2219
   15TCq1    C8  237   2.213   2.054   1.787  0.2702 -0.4630  0.2417
   15TCq1    O4  238   2.305   1.975   1.809 -0.4518 -0.2903 -0.0810
   15TCq1    C9  239   2.396   2.389   2.078  0.1391 -0.1688  0.1020
   15TCq1    O5  240   2.512   2.356   2.033  0.0180 -0.3659  0.1974
   15TCq1    O6  241   2.366   2.487   2.150 -0.4122  0.2590  0.5147
   15TCq1    H1  242   2.037   2.516   1.964  0.4068  2.3084 -0.5772
   15TCq1    H2  243   2.131   2.439   2.117 -0.2133  0.0294 -0.3960
   15TCq1    H3  244   2.401   2.192   1.913  0.0361 -1.0974  2.5400
   15TCq1    H4  245   1.976   2.146   1.863  0.1203  1.7787 -2.6605
   16MPD2     C  246   1.977   1.933   1.526 -1.3454 -0.5424 -0.0509
   16MPD2    C1  247   2.100   1.932   1.593  0.0407  0.1299 -0.0284
   16MPD2    C2  248   2.201   1.844   1.545 -0.5758 -0.8722 -0.8544
   16MPD2    C3  249   2.177   1.749   1.445 -0.1962 -0.4645  0.7579
   16MPD2    C4  250   2.057   1.760   1.369  0.2502 -0.2727  0.4612
   16MPD2    C5  251   1.964   1.849   1.412  0.5100 -0.2513  0.1786
   16MPD2     H  252   2.301   1.842   1.588 -1.1542  0.6821  0.5674
   16MPD2    H1  253   2.032   1.694   1.286  1.4130  1.0163 -0.9194
   16MPD2    H2  254   1.886   1.991   1.538  0.2729  2.7623 -3.5362
   16MPD2    H3  255   1.869   1.843   1.360  0.8203  0.1734 -0.4354
   16MPD2     N  256   2.280   1.654   1.413  0.2155 -0.1160  0.2317
   16MPD2    H5  257   2.359   1.652   1.476  0.6928 -0.9432 -0.3969
   16MPD2    N1  258   2.114   2.033   1.696 -0.3663 -0.7947 -0.4352
   16MPD2    H7  259   2.030   2.091   1.695 -0.0272 -0.3362 -1.9722
   17TMC1    C1  260   4.410   1.190   9.970 -0.2969 -0.0794  0.3311
   17TMC1    C2  261   4.406   1.110   9.858 -0.6647  0.0634 -0.7346
   17TMC1    C3  262   4.446   0.980   9.871  0.4953  0.5930 -0.0964
   17TMC1    C4  263   4.451   1.146  10.092  0.1340 -0.2635  0.1942
   17TMC1    C5  264   4.484   1.012  10.105 -0.1280  0.2960  0.0536
   17TMC1    C6  265   4.479   0.932   9.992  0.0949  0.0340 -0.2321
   17TMC1     C  266   4.412   1.336   9.943 -0.0168 -0.4643 -0.5845
   17TMC1     O  267   4.410   1.363   9.825  0.0025  0.0513  0.7114
   17TMC1     H  268   4.377   1.147   9.760 -2.0881 -0.8614 -0.6605
   17TMC1    H1  269   4.436   1.190  10.190 -1.3840 -2.0868  0.7903
   17TMC1    H2  270   4.507   0.827   9.992  0.9464  0.2571  1.4066
   17TMC1    C7  271   4.543   0.957  10.227  0.2245  0.2850 -0.4411
   17TMC1    C8  272   4.468   0.892   9.758 -0.0288 -0.5314 -1.0326
   17TMC1    O1  273   4.507   0.984  10.344 -0.0077  0.0543  0.2118
   17TMC1    O2  274   4.398   0.899   9.660 -0.1255  0.2380 -0.0268
   17TMC1    O3  275   4.641   0.871  10.194 -0.8451 -0.4162 -0.5830
   17TMC1    H3  276   4.678   0.894  10.107 -1.2030 -0.8522 -0.8514
   17TMC1    O5  277   4.604   0.878   9.758 -0.1362  0.1529  0.1462
   17TMC1    H5  278   4.651   0.884   9.844 -0.5062  0.9997  0.2908
   18MPD2     C  279   4.433   1.627   9.931  0.2990 -0.4223  0.2414
   18MPD2    C1  280   4.465   1.555  10.044 -0.1160  0.9353  0.0432
   18MPD2    C2  281   4.507   1.617  10.160 -0.1494 -0.4925 -0.1264
   18MPD2    C3  282   4.518   1.755  10.163  0.1375 -0.0567  0.7405
   18MPD2    C4  283   4.499   1.821  10.044 -0.6606 -0.4013  0.1799
   18MPD2    C5  284   4.454   1.762   9.935 -0.0350 -0.3776 -0.7800
   18MPD2     H  285   4.523   1.557  10.249 -2.1501 -1.4929 -0.4276
   18MPD2    H1  286   4.526   1.926  10.036 -1.8164 -0.0567  0.7246
   18MPD2    H2  287   4.389   1.579   9.844  2.6408 -3.1331  0.5329
   18MPD2    H3  288   4.437   1.815   9.843 -0.9741 -2.4547 -1.7998
   18MPD2     N  289   4.567   1.826  10.281 -0.2255 -0.1986  0.0189
   18MPD2    H5  290   4.577   1.926  10.268  0.7537 -0.3302 -0.2289
   18MPD2    N1  291   4.445   1.415  10.052  0.2553 -0.1228  0.2737
   18MPD2    H7  292   4.462   1.376  10.144  1.8818  0.5762  0.2756
   19TMC2    C1  293   1.459   2.702  14.212  0.0622  0.2209 -0.6509
   19TMC2    C2  294   1.346   2.773  14.253 -0.3708  0.1664  0.5012
   19TMC2    C3  295   1.221   2.732  14.209  0.8047  0.1064  0.2373
   19TMC2    C4  296   1.449   2.592  14.131  0.4026 -0.2041 -0.6681
   19TMC2    C5  297   1.316   2.549  14.095  0.4522  0.1352  0.6580
   19TMC2    C6  298   1.207   2.618  14.139 -0.2519  0.5560 -0.3482
   19TMC2     C  299   1.583   2.736  14.285 -0.2641  0.1282  0.2833
   19TMC2     O  300   1.583   2.832  14.364 -0.4402 -0.1729 -0.1540
   19TMC2     H  301   1.357   2.859  14.319  0.9700  1.3931 -1.3499
   19TMC2    H1  302   1.535   2.540  14.091  0.9229  2.5738 -3.1683
   19TMC2    H2  303   1.111   2.593  14.095  0.0359 -2.2263  0.6127
   19TMC2    C7  304   1.309   2.411  14.055  0.7007 -0.5346 -0.3168
   19TMC2    C8  305   1.114   2.821  14.218  0.0624  0.5146 -0.5601
   19TMC2    O1  306   1.418   2.366  14.029  0.0452 -0.1930  0.0337
   19TMC2    O2  307   1.019   2.809  14.142 -0.9640 -0.2098  0.2683
   19TMC2    O5  308   1.104   2.828  14.349 -0.6659  0.1423 -0.3279
   19TMC2    H5  309   1.189   2.821  14.397  0.0091 -1.0354 -1.6645
   20MPD2     C  310   1.857   2.748  14.383 -0.1710  0.6172 -0.2156
   20MPD2    C1  311   1.805   2.637  14.322  0.2607 -0.1522  0.1056
   20MPD2    C2  312   1.877   2.522  14.330 -0.1387 -0.0861  0.2617
   20MPD2    C3  313   2.000   2.514  14.392 -0.5856 -0.5609 -0.3106
   20MPD2    C4  314   2.046   2.626  14.456  0.2330 -0.4077 -0.4247
   20MPD2    C5  315   1.974   2.745  14.443  0.7931 -0.4599 -0.0213
   20MPD2     H  316   1.836   2.435  14.280  0.5417  0.3789 -1.0975
   20MPD2    H1  317   2.129   2.631  14.525  0.9785 -0.6131 -1.3031
   20MPD2    H2  318   1.809   2.845  14.389  0.8293  1.1538 -0.8821
   20MPD2    H3  319   2.016   2.834  14.490 -0.3588 -0.0096  0.1505
   20MPD2     N  320   2.066   2.387  14.415 -0.4191  0.4873 -0.3576
   20MPD2    H5  321   2.148   2.394  14.475  1.7621 -2.4049 -2.9797
   20MPD2    N1  322   1.676   2.635  14.269  0.0215  0.0713 -0.3873
   20MPD2    H7  323   1.652   2.550  14.220  2.1132 -0.4174 -0.5377
   21TMC2    C1  324   4.017   2.475  14.885  0.3758 -0.8043 -0.0338
   21TMC2    C2  325   3.972   2.349  14.905 -0.2516 -0.6787 -0.0985
   21TMC2    C3  326   3.855   2.331  14.985 -0.4357  0.5252  0.6577
   21TMC2    C4  327   3.964   2.590  14.938 -0.2072 -0.0431 -0.4166
   21TMC2    C5  328   3.853   2.565  15.013  0.1455  0.5068  0.1810
   21TMC2    C6  329   3.797   2.443  15.035 -0.2362  0.2007  0.3842
   21TMC2     C  330   4.132   2.483  14.804  0.1049 -0.0154 -0.3050
   21TMC2     O  331   4.215   2.394  14.816 -0.6649  0.7123  0.1526
   21TMC2     H  332   4.029   2.272  14.855 -1.6942 -0.6042 -1.8771
   21TMC2    H1  333   4.019   2.684  14.946 -0.6099  0.2292 -0.9127
   21TMC2    H2  334   3.698   2.435  15.078  0.9487 -1.1636  2.9024
   21TMC2    C7  335   3.821   2.674  15.104  0.2725 -0.0366  0.0010
   21TMC2    C8  336   3.839   2.203  15.052 -0.9109  0.1492 -0.7644
   21TMC2    O1  337   3.780   2.660  15.217 -0.1435 -0.4728 -0.2944
   21TMC2    O2  338   3.835   2.201  15.177  0.8202 -0.0751  0.0006
   21TMC2    O5  339   3.822   2.092  14.975 -0.7800 -0.2255 -0.7086
   21TMC2    H5  340   3.805   2.117  14.882  1.0144 -0.2509 -1.0490
   22MPD2     C  341   4.447   2.763  14.507 -0.3743 -0.1409  0.9159
   22MPD2    C1  342   4.452   2.631  14.540  0.7463  0.0719  0.0125
   22MPD2    C2  343   4.351   2.573  14.618 -0.1201 -0.6941  0.2109
   22MPD2    C3  344   4.240   2.645  14.655  0.1315 -0.2930 -0.3493
   22MPD2    C4  345   4.226   2.775  14.612 -0.7141 -0.6046 -0.6630
   22MPD2    C5  346   4.338   2.829  14.549 -0.1301 -0.3337 -0.1072
   22MPD2     H  347   4.369   2.478  14.668  0.6376 -0.3741  0.5548
   22MPD2    H1  348   4.133   2.828  14.631 -0.1538  1.5322 -3.9343
   22MPD2    H2  349   4.516   2.815  14.442  0.0761 -1.8458  0.0220
   22MPD2    H3  350   4.334   2.934  14.521  1.7158 -0.2497 -0.0574
   22MPD2     N  351   4.140   2.604  14.749 -0.2132  0.2963 -0.3665
   22MPD2    H5  352   4.054   2.654  14.766 -0.2763  0.4641 -1.1943
   22MPD2    N1  353   4.550   2.545  14.503  0.5205  0.1822 -0.2992
   22MPD2    H7  354   4.547   2.453  14.544 -2.4623  0.9150  1.1104
   23TMC2    C1  355   1.156   3.821  14.365  0.0681  0.1032  0.2028
   23TMC2    C2  356   1.253   3.800  14.272  0.5394 -0.0868 -0.6614
   23TMC2    C3  357   1.214   3.772  14.141  0.8206 -1.1008 -0.3547
   23TMC2    C4  358   1.025   3.820  14.335 -0.5917  0.4258  0.3374
   23TMC2    C5  359   0.996   3.811  14.198 -0.2408  0.6599 -0.5487
   23TMC2    C6  360   1.085   3.796  14.098 -0.2696 -0.1000 -0.1587
   23TMC2     C  361   1.197   3.847  14.499 -0.2156 -0.1390  0.6822
   23TMC2     O  362   1.117   3.822  14.588  0.3267  0.1806 -0.0707
   23TMC2     H  363   1.361   3.796  14.286  0.5044 -1.2745 -0.7691
   23TMC2    H1  364   0.954   3.843  14.414 -0.3547  0.2599  0.5969
   23TMC2    H2  365   1.058   3.754  14.002  1.5914 -0.1736 -0.6581
   23TMC2    C7  366   0.856   3.805  14.156  0.4635 -0.3020  0.2623
   23TMC2    C8  367   1.320   3.785  14.041  0.2796 -0.6992  0.3741
   23TMC2    O1  368   0.835   3.756  14.046 -0.1231  0.0353  0.4374
   23TMC2    O2  369   1.435   3.768  14.076  0.2078  0.1505  0.4622
   23TMC2    O5  370   1.277   3.835  13.927  0.2789 -0.1911  0.3020
   23TMC2    H5  371   1.181   3.850  13.916  0.2887  1.1834  2.0160
   24MPD2     C  372   1.628   3.807  14.805 -0.2395 -0.1105  1.4351
   24MPD2    C1  373   1.493   3.775  14.829 -0.0695  0.4167  0.1900
   24MPD2    C2  374   1.394   3.806  14.736 -0.0037 -0.4347  0.2420
   24MPD2    C3  375   1.426   3.856  14.611 -0.0111 -0.2681  0.9708
   24MPD2    C4  376   1.558   3.886  14.591 -0.1111  0.5690 -0.3023
   24MPD2    C5  377   1.658   3.870  14.684  0.3371  0.3925  0.2965
   24MPD2     H  378   1.293   3.784  14.769  0.5278  0.1248  2.2679
   24MPD2    H1  379   1.598   3.913  14.494 -1.1814 -0.9486 -1.1757
   24MPD2    H2  380   1.710   3.789  14.874 -0.8246 -0.3679  2.0570
   24MPD2    H3  381   1.763   3.885  14.666  0.2420  0.5414 -0.1271
   24MPD2     N  382   1.333   3.868  14.501 -0.4777  0.2813  0.3885
   24MPD2    H5  383   1.373   3.903  14.415 -1.7730 -0.3413 -0.4713
   24MPD2    N1  384   1.452   3.723  14.957  0.2023 -0.0415  0.5735
   24MPD2    H7  385   1.360   3.681  14.962 -0.0466  0.1927 -1.8547
   25TMC2    C1  386   0.162   1.322  11.632 -0.0452 -0.2708 -0.2124
   25TMC2    C2  387   0.288   1.341  11.683  0.4294  0.1379 -0.2941
   25TMC2    C3  388   0.299   1.372  11.819  0.1465  0.4749 -0.8128
   25TMC2    C4  389   0.049   1.350  11.704 -0.6131 -0.2293 -0.2339
   25TMC2    C5  390   0.068   1.399  11.826 -0.2658 -0.1557 -0.0665
   25TMC2    C6  391   0.187   1.405  11.887  0.0053  0.0478  0.2204
   25TMC2     C  392   0.156   1.293  11.488  0.3556  0.4427 -0.3172
   25TMC2     O  393   0.258   1.300  11.422  0.1668  0.3006  0.0909
   25TMC2     H  394   0.373   1.312  11.622  0.4295 -1.2705  0.3996
   25TMC2    H1  395   4.683   1.321  11.677 -0.5533 -1.0766  0.4659
   25TMC2    H2  396   0.191   1.427  11.993  0.7520  2.2077 -0.2435
   25TMC2    C7  397   4.687   1.455  11.894  0.5181  0.7419 -0.1207
   25TMC2    C8  398   0.414   1.462  11.840 -0.6051  0.0658  0.4594
   25TMC2    O1  399   4.688   1.458  12.017 -0.3199  0.0332  0.1066
   25TMC2    O2  400   0.396   1.572  11.888 -0.1908  0.2308 -0.6912
   25TMC2    O5  401   0.519   1.377  11.836  0.6364 -0.2743  0.0021
   25TMC2    H5  402   0.497   1.283  11.820  1.4715 -0.4236 -0.3210
   26MPD2     C  403   4.647   1.124  11.067  1.2214  0.0984 -0.3080
   26MPD2    C1  404   4.560   1.100  11.173  0.7656 -0.5988 -0.1646
   26MPD2    C2  405   4.604   1.134  11.297  0.4677 -0.1248  1.3011
   26MPD2    C3  406   4.727   1.200  11.317 -0.0451  0.3529  0.1939
   26MPD2    C4  407   0.069   1.236  11.211  0.2223  0.2430  0.5293
   26MPD2    C5  408   0.032   1.192  11.086  0.1515  0.4588  0.3228
   26MPD2     H  409   4.535   1.125  11.380 -1.8861 -1.8659 -0.8312
   26MPD2    H1  410   0.155   1.301  11.227 -0.7649  1.9540 -1.1554
   26MPD2    H2  411   4.622   1.091  10.966  1.0733  3.0686 -1.2735
   26MPD2    H3  412   0.083   1.208  10.992  2.0209 -0.4017  1.1814
   26MPD2     N  413   0.033   1.240  11.453 -0.0495 -0.3614  0.5897
   26MPD2    H5  414   4.707   1.221  11.532  0.6230  1.6011  1.5900
   26MPD2    N1  415   4.445   1.026  11.145  0.1336 -0.1515 -0.0898
   26MPD2    H7  416   4.431   0.988  11.051  1.0044 -0.8015  0.0459
   27TMC2    C1  417   3.077   3.416  11.899  0.0396  0.0565 -0.4296
   27TMC2    C2  418   3.130   3.430  11.773 -1.1251  0.2969  0.1355
   27TMC2    C3  419   3.247   3.370  11.741  0.1364  0.2130  0.1189
   27TMC2    C4  420   3.139   3.356  12.001  0.1999  0.2255  0.1263
   27TMC2    C5  421   3.260   3.293  11.971 -0.1033 -0.1523  0.1970
   27TMC2    C6  422   3.311   3.299  11.844 -0.1247 -0.3476 -0.6174
   27TMC2     C  423   2.948   3.471  11.911 -0.8754  0.0929 -0.1668
   27TMC2     O  424   2.889   3.507  11.809  0.3862 -0.1029 -0.2202
   27TMC2     H  425   3.071   3.480  11.698  1.6278  0.0778 -2.1805
   27TMC2    H1  426   3.083   3.335  12.092  0.5394 -2.3943 -0.2451
   27TMC2    H2  427   3.402   3.245  11.824  0.4157  0.1860  0.4379
   27TMC2    C7  428   3.290   3.183  12.055 -0.3426 -0.4670  0.0346
   27TMC2    C8  429   3.293   3.343  11.604  0.6837  0.3181 -0.8109
   27TMC2    O1  430   3.342   3.087  11.996 -0.1088 -0.1230  0.4685
   27TMC2    O2  431   3.344   3.238  11.570 -0.7576  0.3101  0.4936
   27TMC2    O5  432   3.230   3.425  11.515  0.1532 -0.1552  0.3596
   27TMC2    H5  433   3.192   3.500  11.565  1.1291 -0.2299  1.2107
   28MPD2     C  434   2.588   3.709  12.206 -0.6075 -0.1789  0.2670
   28MPD2    C1  435   2.684   3.648  12.286 -0.5082 -1.1211  0.2793
   28MPD2    C2  436   2.789   3.578  12.230  0.3214  0.0111  0.3116
   28MPD2    C3  437   2.797   3.564  12.093  0.3752  0.5441 -0.2736
   28MPD2    C4  438   2.696   3.611  12.014 -0.5342 -0.1006  0.0465
   28MPD2    C5  439   2.586   3.677  12.071 -0.1618  0.2418  0.3730
   28MPD2     H  440   2.870   3.535  12.288  1.0486 -0.2546 -0.9041
   28MPD2    H1  441   2.696   3.591  11.907  0.3461  1.0553 -0.1693
   28MPD2    H2  442   2.501   3.759  12.248 -0.4002  0.5816 -0.1988
   28MPD2    H3  443   2.511   3.709  12.000 -0.1566  0.0461  0.2793
   28MPD2     N  444   2.910   3.491  12.049 -0.1467  0.5416  0.2319
   28MPD2    H5  445   2.975   3.459  12.120  0.1758 -1.3196 -0.8969
   28MPD2    N1  446   2.678   3.670  12.421 -0.1396 -0.3496 -0.0298
   28MPD2    H7  447   2.593   3.716  12.452  0.5678  1.6130 -0.9946
   29TMC2    C1  448   2.792   1.169  14.557  0.0853  0.6426  0.0836
   29TMC2    C2  449   2.708   1.213  14.659  0.0379 -0.2985  0.1782
   29TMC2    C3  450   2.710   1.346  14.687  0.4378  0.4951  0.5393
   29TMC2    C4  451   2.861   1.260  14.480  0.3198  0.2354 -0.0704
   29TMC2    C5  452   2.848   1.398  14.513  0.0500  0.0290 -0.4020
   29TMC2    C6  453   2.787   1.439  14.627  0.4374 -0.9331  0.0274
   29TMC2     C  454   2.811   1.025  14.530 -0.4238  0.0079  0.0592
   29TMC2     O  455   2.910   0.993  14.460 -0.0183 -0.5024  0.1511
   29TMC2     H  456   2.645   1.142  14.711  0.5561 -1.2661 -0.5175
   29TMC2    H1  457   2.943   1.230  14.416 -0.5052 -0.0307 -1.0109
   29TMC2    H2  458   2.782   1.544  14.654 -2.7373 -0.9142 -0.6207
   29TMC2    C7  459   2.941   1.481  14.439 -0.1321  0.0436  0.7024
   29TMC2    C8  460   2.632   1.377  14.801 -0.1429  0.4940 -0.1992
   29TMC2    O1  461   2.987   1.433  14.338  0.1389  0.3400  0.4942
   29TMC2    O2  462   2.605   1.300  14.891  0.0152  0.2221  0.0901
   29TMC2    O5  463   2.567   1.497  14.777 -0.9325 -0.8193  0.6890
   29TMC2    H5  464   2.597   1.546  14.697  1.7614 -0.3648  1.9950
   30MPD2     C  465   2.695   0.528  14.590  0.8426  0.0988 -0.4859
   30MPD2    C1  466   2.810   0.591  14.549 -0.3140  1.0576 -0.3007
   30MPD2    C2  467   2.821   0.732  14.547 -0.0859 -0.4473 -0.2255
   30MPD2    C3  468   2.712   0.808  14.582 -0.6723 -0.0172 -0.2708
   30MPD2    C4  469   2.598   0.748  14.635 -0.4854  0.3355  0.0971
   30MPD2    C5  470   2.592   0.611  14.635  0.1524  0.9236  0.2390
   30MPD2     H  471   2.910   0.774  14.504 -0.5224  1.2435  0.5446
   30MPD2    H1  472   2.517   0.809  14.675 -0.1196  0.4761  0.6256
   30MPD2    H2  473   2.683   0.420  14.591  0.8199  0.1002 -1.4448
   30MPD2    H3  474   2.505   0.566  14.681  1.1390  1.1504  2.3320
   30MPD2     N  475   2.712   0.950  14.581  0.0075  0.0160  0.4958
   30MPD2    H5  476   2.628   0.997  14.612  0.8785  2.2457 -0.5021
   30MPD2    N1  477   2.913   0.511  14.494 -0.0123 -0.5611 -0.3295
   30MPD2    H7  478   2.990   0.564  14.456 -0.4027  0.1036 -0.1936
   31TMC2    C1  479   0.355   4.431  15.590  0.0390 -0.2610  0.7974
   31TMC2    C2  480   0.240   4.472  15.657 -0.1398  0.3430 -0.3626
   31TMC2    C3  481   0.206   4.417  15.777 -0.2837  0.4318 -0.1124
   31TMC2    C4  482   0.451   4.357  15.653  0.2948  0.4732 -0.1830
   31TMC2    C5  483   0.413   4.319  15.781  0.1046  0.2378 -0.3024
   31TMC2    C6  484   0.298   4.354  15.846  0.0812 -0.2403 -0.1847
   31TMC2     C  485   0.386   4.484  15.458  0.4056  0.6435 -0.4847
   31TMC2     O  486   0.509   4.490  15.427 -0.1290 -0.1967  0.5257
   31TMC2     H  487   0.149   4.506  15.608 -0.8764 -2.0065 -0.5869
   31TMC2    H1  488   0.544   4.327  15.605 -0.0647 -0.9336 -0.0051
   31TMC2    H2  489   0.276   4.314  15.944 -0.0898  0.9543  0.2654
   31TMC2    C7  490   0.514   4.295  15.876  0.4598 -0.3357 -0.1446
   31TMC2    C8  491   0.080   4.464  15.831  0.3286  0.6961 -0.2724
   31TMC2    O1  492   0.594   4.206  15.847 -0.1720 -0.1849 -0.8276
   31TMC2    O2  493   0.025   4.561  15.787  0.0414  0.6198 -0.0405
   31TMC2    O5  494   0.068   4.425  15.961 -0.0890 -0.0197  0.1827
   31TMC2    H5  495   0.094   4.330  15.965  0.5205  0.0848 -1.3337
   32MPD2     C  496   0.257   0.117  15.129 -0.5442  0.4207  0.2014
   32MPD2    C1  497   0.374   0.054  15.139  0.4187 -0.6633  0.1623
   32MPD2    C2  498   0.391   4.688  15.234 -0.3760 -0.3534 -0.7327
   32MPD2    C3  499   0.282   4.644  15.303 -0.3639 -0.1686  0.7694
   32MPD2    C4  500   0.159   4.701  15.279 -0.6768  0.6553  0.5830
   32MPD2    C5  501   0.153   0.073  15.200  0.6698  0.4413 -0.4499
   32MPD2     H  502   0.489   4.642  15.242 -0.3314  0.0253  0.8674
   32MPD2    H1  503   0.066   4.681  15.331  0.8986  0.2537  3.2559
   32MPD2    H2  504   0.241   0.201  15.063  0.6489 -0.3192 -1.0469
   32MPD2    H3  505   0.058   0.126  15.199  0.3140 -0.2175 -1.8159
   32MPD2     N  506   0.278   4.542  15.400 -0.1655 -0.1153 -0.1715
   32MPD2    H5  507   0.187   4.517  15.438 -0.0438 -1.2525 -0.6210
   32MPD2    N1  508   0.476   0.097  15.047  0.1146 -0.2513 -0.1249
   32MPD2    H7  509   0.459   0.169  14.977  0.5822 -0.2505 -0.2443
   33TMC2    C1  510   0.433   2.796  10.281  0.0120  0.1465  0.0259
   33TMC2    C2  511   0.369   2.912  10.321 -0.2238 -0.5990  0.4831
   33TMC2    C3  512   0.425   3.034  10.296  0.6063 -0.8113  0.0650
   33TMC2    C4  513   0.561   2.801  10.230  0.4123  0.9359 -0.2142
   33TMC2    C5  514   0.614   2.924  10.203  0.6432  0.0539  0.1354
   33TMC2    C6  515   0.545   3.041  10.233 -0.8222 -0.0620  0.4124
   33TMC2     C  516   0.373   2.668  10.298  0.2577  0.1636 -0.5534
   33TMC2     O  517   0.434   2.569  10.340 -0.0534 -0.0423 -0.0236
   33TMC2     H  518   0.269   2.916  10.363 -1.3931 -0.7683 -2.2999
   33TMC2    H1  519   0.619   2.712  10.208 -0.4375  0.5421 -0.8500
   33TMC2    H2  520   0.585   3.138  10.203  1.2247 -0.2058  2.6508
   33TMC2    C7  521   0.745   2.943  10.146  0.1748 -0.3079 -0.4337
   33TMC2    C8  522   0.337   3.150  10.288  0.4499 -0.2566 -0.0401
   33TMC2    O1  523   0.798   3.050  10.169 -0.1798 -0.1211 -0.8564
   33TMC2    O2  524   0.218   3.142  10.250 -0.1088  0.0923  0.2138
   33TMC2    O5  525   0.421   3.260  10.300 -0.7362 -0.0145  0.3615
   33TMC2    H5  526   0.512   3.240  10.331 -0.1327 -0.5199 -1.7118
   34MPD2     C  527   4.660   2.411  10.241  0.5070 -0.6097  0.0705
   34MPD2    C1  528   0.036   2.369  10.317  0.0211 -0.1395  0.3430
   34MPD2    C2  529   0.152   2.452  10.314 -0.5966 -0.1790 -0.2083
   34MPD2    C3  530   0.148   2.574  10.249  0.1018 -0.8616 -0.0373
   34MPD2    C4  531   0.039   2.618  10.186 -0.3017  0.0821  0.2841
   34MPD2    C5  532   4.676   2.525  10.173 -0.3628  0.4126  0.9394
   34MPD2     H  533   0.242   2.407  10.355 -1.0109 -1.1072 -0.3182
   34MPD2    H1  534   0.043   2.704  10.119 -0.3307 -0.1562 -0.0239
   34MPD2    H2  535   4.564   2.360  10.238  0.9342 -1.3530 -0.9016
   34MPD2    H3  536   4.593   2.557  10.112  0.0489  1.0589  0.7306
   34MPD2     N  537   0.247   2.674  10.243 -0.2040  0.6004  0.5088
   34MPD2    H5  538   0.227   2.754  10.183  1.9695  1.2816  0.7156
   34MPD2    N1  539   0.022   2.240  10.376  0.0188  0.8758 -0.1894
   34MPD2    H7  540   4.673   2.186  10.353  0.3572  0.4584 -0.4495
   35TMC2    C1  541   1.599   3.948  11.372  0.3186 -0.3829  0.1479
   35TMC2    C2  542   1.592   3.992  11.243 -0.0174 -0.2933  0.3117
   35TMC2    C3  543   1.554   3.907  11.144  0.0413 -0.0965  0.5539
   35TMC2    C4  544   1.570   3.817  11.407  0.4996  0.0144  0.4626
   35TMC2    C5  545   1.519   3.735  11.308 -0.0837  0.3018 -0.4777
   35TMC2    C6  546   1.512   3.779  11.180  0.3913  0.5494  0.1042
   35TMC2     C  547   1.571   4.056  11.465 -1.0974  0.5660 -0.6572
   35TMC2     O  548   1.527   4.153  11.409  0.2841 -0.1091 -0.0054
   35TMC2     H  549   1.615   4.094  11.215 -0.1099  0.3056  2.3767
   35TMC2    H1  550   1.569   3.778  11.508  0.6382 -2.2668 -0.4169
   35TMC2    H2  551   1.483   3.718  11.095 -2.1172  0.3750  1.0536
   35TMC2    C7  552   1.469   3.601  11.343  0.0811 -0.5045 -0.4194
   35TMC2    C8  553   1.538   3.959  11.016  0.3724 -0.2426  0.5773
   35TMC2    O1  554   1.537   3.543  11.427 -0.0573 -0.2171  0.2622
   35TMC2    O2  555   1.605   4.051  10.974 -0.3079  0.9157  0.5520
   35TMC2    O5  556   1.412   3.941  10.981  0.0949 -0.0651 -0.6226
   35TMC2    H5  557   1.359   3.885  11.042 -0.1996  1.4335  0.5051
   36MPD2     C  558   1.602   4.291  11.914 -0.2801  0.4123  0.3156
   36MPD2    C1  559   1.656   4.165  11.934  0.0620 -0.5399 -0.7078
   36MPD2    C2  560   1.659   4.086  11.822 -0.9623  0.2345  0.6994
   36MPD2    C3  561   1.610   4.124  11.697 -0.0283 -0.5596 -0.4019
   36MPD2    C4  562   1.544   4.248  11.689 -0.1175  0.0244 -0.3161
   36MPD2    C5  563   1.538   4.335  11.798 -0.4220  0.6203 -0.0280
   36MPD2     H  564   1.703   3.987  11.822 -0.7064  0.3386 -1.8820
   36MPD2    H1  565   1.501   4.286  11.597 -2.8567  0.9196  1.3179
   36MPD2    H2  566   1.597   4.367  11.992 -0.0714 -0.5944  1.3176
   36MPD2    H3  567   1.493   4.433  11.799 -3.5036 -0.8300  1.7458
   36MPD2     N  568   1.601   4.024  11.594  0.3790 -0.4608 -0.0051
   36MPD2    H5  569   1.624   3.930  11.623  0.1774 -0.4681  0.1378
   36MPD2    N1  570   1.727   4.133  12.055 -0.2438  0.2891  0.6426
   36MPD2    H7  571   1.734   4.199  12.132  1.9728 -0.1327  0.8000
   37TMC2    C1  572   3.771   3.866  11.926 -0.1375  0.2102  0.6243
   37TMC2    C2  573   3.777   4.005  11.911  0.9311 -0.4952  0.3893
   37TMC2    C3  574   3.856   4.045  11.804  0.3556 -0.1186 -0.3331
   37TMC2    C4  575   3.817   3.772  11.833 -0.7470  0.1451 -0.3316
   37TMC2    C5  576   3.860   3.828  11.713  0.3920  0.2671  0.3904
   37TMC2    C6  577   3.903   3.956  11.708  0.3683 -0.3923 -0.4857
   37TMC2     C  578   3.696   3.816  12.040 -0.3556  0.1210 -0.3759
   37TMC2     O  579   3.639   3.900  12.104 -0.0547 -0.0572 -0.5834
   37TMC2     H  580   3.732   4.075  11.980  2.1537 -1.4563  2.1809
   37TMC2    H1  581   3.797   3.667  11.848 -1.2065  0.3336  0.3949
   37TMC2    H2  582   3.923   3.993  11.609 -0.8269  0.2371 -0.4895
   37TMC2    C7  583   3.933   3.723  11.648  0.1476 -0.0708  0.2125
   37TMC2    C8  584   3.889   4.182  11.776 -0.8135  0.8151  0.4565
   37TMC2    O1  585   3.901   3.605  11.666  0.4536 -0.3626 -0.3291
   37TMC2    O2  586   3.835   4.277  11.832  0.6462 -0.1214  0.4857
   37TMC2    O5  587   4.021   4.190  11.744 -0.3306 -0.2260  0.3095
   37TMC2    H5  588   4.048   4.104  11.704 -0.5586 -0.1500 -0.0071
   38MPD2     C  589   3.511   3.459  12.348 -0.2213  0.3624  0.2574
   38MPD2    C1  590   3.615   3.400  12.282 -0.0175  0.2367  0.8433
   38MPD2    C2  591   3.678   3.471  12.184 -0.0484  0.0236  0.1035
   38MPD2    C3  592   3.647   3.603  12.159 -0.5373  0.5383  0.0116
   38MPD2    C4  593   3.541   3.658  12.237  0.3209 -0.4757 -0.3305
   38MPD2    C5  594   3.469   3.580  12.320 -0.9775  0.0412 -1.2471
   38MPD2     H  595   3.759   3.428  12.127 -0.4267 -0.8902  0.2480
   38MPD2    H1  596   3.511   3.762  12.235 -1.9794 -1.1179  0.3071
   38MPD2    H2  597   3.462   3.398  12.423  1.8347 -0.9609  0.5117
   38MPD2    H3  598   3.391   3.620  12.384  0.1209 -1.1485  0.8096
   38MPD2     N  599   3.709   3.683  12.061  0.1134 -0.3203 -0.1019
   38MPD2    H5  600   3.777   3.626  12.010  1.6613  2.8496 -1.5538
   38MPD2    N1  601   3.657   3.265  12.313 -0.1578 -0.2803 -0.5056
   38MPD2    H7  602   3.723   3.229  12.245  1.1552  2.0053 -0.4626
   39TMC2    C1  603   2.698   1.203   1.995 -0.7280  0.0394  0.3722
   39TMC2    C2  604   2.644   1.172   2.111  0.3848  0.3930 -0.5046
   39TMC2    C3  605   2.695   1.238   2.218  0.4265  0.1218  0.5630
   39TMC2    C4  606   2.792   1.295   1.969  0.2696  0.5959  0.1065
   39TMC2    C5  607   2.840   1.361   2.081 -0.0071  0.1652  0.4260
   39TMC2    C6  608   2.795   1.334   2.209 -0.1291 -0.1399 -0.0388
   39TMC2     C  609   2.617   1.163   1.886 -0.0265  0.1120  0.9316
   39TMC2     O  610   2.496   1.181   1.895  0.2856 -0.0470  0.3636
   39TMC2     H  611   2.565   1.099   2.125  0.5896  0.3028  0.1871
   39TMC2    H1  612   2.827   1.321   1.870 -1.1479 -0.9500 -0.7922
   39TMC2    H2  613   2.835   1.370   2.302  2.9011 -0.7231 -1.1213
   39TMC2    C7  614   2.918   1.487   2.069 -0.4210 -0.0539 -1.0317
   39TMC2    C8  615   2.647   1.198   2.346  0.0953 -0.0917  0.4042
   39TMC2    O1  616   2.977   1.533   2.169 -0.2703 -0.4964  0.3986
   39TMC2    O2  617   2.605   1.281   2.424  0.2975 -0.4609  0.4500
   39TMC2    O5  618   2.701   1.077   2.381 -0.3123 -0.1298  0.5283
   39TMC2    H5  619   2.743   1.044   2.299 -2.2189  1.5978 -1.1397
   40MPD2     C  620   2.758   1.094   1.559 -0.4704  0.4336 -0.8514
   40MPD2    C1  621   2.660   1.127   1.648 -1.2529  0.7021 -0.7193
   40MPD2    C2  622   2.532   1.148   1.603 -0.0287 -0.4358 -0.4572
   40MPD2    C3  623   2.511   1.117   1.472  0.2659  0.5051 -0.1400
   40MPD2    C4  624   2.599   1.052   1.390 -0.2871  0.6933 -0.3275
   40MPD2    C5  625   2.726   1.048   1.433 -0.1379  0.2116  0.1086
   40MPD2     H  626   2.451   1.183   1.666  0.5328 -1.1087  0.6344
   40MPD2    H1  627   2.583   1.035   1.284  0.0851  0.8792 -0.4136
   40MPD2    H2  628   2.857   1.084   1.602 -2.0057 -3.6017  1.7487
   40MPD2    H3  629   2.805   1.008   1.371 -2.4905 -1.1933 -1.9595
   40MPD2     N  630   2.385   1.134   1.406  0.2528 -0.0258 -1.0399
   40MPD2    H5  631   2.376   1.121   1.306  0.2744  0.6409 -1.1318
   40MPD2    N1  632   2.699   1.135   1.781 -0.3264  0.0530  0.1323
   40MPD2    H7  633   2.796   1.115   1.801 -0.8122 -1.9742  0.5240
   41TMC2    C1  634   1.686   3.851  13.053  0.5298  0.1916  0.4527
   41TMC2    C2  635   1.780   3.945  13.092  0.3868 -0.6431 -0.0149
   41TMC2    C3  636   1.810   4.048  13.003  0.3312  1.0014  0.2123
   41TMC2    C4  637   1.626   3.854  12.931  0.1529  0.7784  0.7588
   41TMC2    C5  638   1.658   3.955  12.849  0.5724 -0.5121 -0.3428
   41TMC2    C6  639   1.745   4.055  12.885  0.7164  0.2775 -0.4389
   41TMC2     C  640   1.617   3.776  13.155 -0.3462  0.2072 -0.1198
   41TMC2     O  641   1.541   3.685  13.117  0.4882  0.1420 -0.8591
   41TMC2     H  642   1.814   3.948  13.195 -1.7300 -2.6566  0.7436
   41TMC2    H1  643   1.539   3.793  12.906  0.5313  0.6971 -0.3741
   41TMC2    H2  644   1.773   4.132  12.814  0.6757  0.6378 -0.0681
   41TMC2    C7  645   1.615   3.955  12.712  0.3824 -0.0132 -0.0728
   41TMC2    C8  646   1.900   4.159  13.027 -0.2419 -0.3336  0.6838
   41TMC2    O1  647   1.617   4.063  12.657  0.4855  0.6130 -0.4221
   41TMC2    O2  648   1.889   4.272  12.976 -0.3512 -0.7564 -0.2911
   41TMC2    O5  649   1.977   4.132  13.135 -0.3605 -0.1505 -0.5987
   41TMC2    H5  650   1.974   4.038  13.164  2.9698 -0.3038 -0.7118
   42MPD2     C  651   1.527   3.635  13.398 -0.2413  0.1045  0.5409
   42MPD2    C1  652   1.599   3.753  13.402 -0.4673  0.2212 -0.7564
   42MPD2    C2  653   1.641   3.810  13.523 -0.1261 -0.4129 -0.7608
   42MPD2    C3  654   1.595   3.763  13.639  0.4670 -0.4696  0.1275
   42MPD2    C4  655   1.519   3.647  13.636  0.6507  0.5777  0.9714
   42MPD2    C5  656   1.487   3.589  13.522  0.1683  0.2491 -0.1289
   42MPD2     H  657   1.712   3.892  13.530  0.9725 -1.4127 -0.0995
   42MPD2    H1  658   1.477   3.608  13.728 -0.6738  0.3606  0.2711
   42MPD2    H2  659   1.510   3.572  13.312 -1.1593  0.6622  0.3054
   42MPD2    H3  660   1.433   3.495  13.528  1.2643 -0.3932 -0.4781
   42MPD2     N  661   1.635   3.804  13.767  0.1017 -0.0348 -0.1050
   42MPD2    H5  662   1.594   3.756  13.847 -1.5007  1.0184 -0.3123
   42MPD2    N1  663   1.652   3.811  13.283  0.5055  0.3664 -0.4966
   42MPD2    H7  664   1.716   3.888  13.299 -0.2816  1.3287 -1.9882
   43TMC2    C1  665   2.640   2.242   0.523  0.3197 -0.5678  0.0973
   43TMC2    C2  666   2.515   2.282   0.500  0.2926 -0.1437 -0.0417
   43TMC2    C3  667   2.457   2.371   0.591 -0.0307 -0.9024 -0.6794
   43TMC2    C4  668   2.703   2.280   0.635  0.2813  0.2273  0.6526
   43TMC2    C5  669   2.639   2.357   0.731 -0.0828  0.2527  0.0851
   43TMC2    C6  670   2.517   2.412   0.705 -0.0060  0.0472  0.2257
   43TMC2     C  671   2.713   2.160   0.435  0.2364  0.1540  0.5119
   43TMC2     O  672   2.837   2.159   0.440  0.0214 -0.4205 -0.5629
   43TMC2     H  673   2.455   2.240   0.420 -1.5426  1.9961  0.2188
   43TMC2    H1  674   2.802   2.244   0.656  0.7605  1.9615  1.4195
   43TMC2    H2  675   2.470   2.486   0.769  1.8454  1.7329 -0.3563
   43TMC2    C7  676   2.732   2.424   0.821  0.0861  0.2462  0.6088
   43TMC2    C8  677   2.322   2.420   0.573  0.1517  0.4639  0.0920
   43TMC2    O1  678   2.835   2.451   0.763  0.0378 -0.2295  0.0308
   43TMC2    O2  679   2.240   2.361   0.505  0.1775 -0.2089 -0.1320
   43TMC2    O5  680   2.320   2.553   0.598  0.5669 -0.0162  0.3374
   43TMC2    H5  681   2.406   2.599   0.594  1.3487 -1.6226 -1.1502
   44MPD2     C  682   2.732   1.771   0.107  0.0485  0.2329 -0.4577
   44MPD2    C1  683   2.826   1.824   0.192  0.9587 -0.1379  0.0596
   44MPD2    C2  684   2.801   1.937   0.266  0.1429 -0.1135  0.4026
   44MPD2    C3  685   2.673   1.998   0.271 -0.3900  0.0365  0.0760
   44MPD2    C4  686   2.577   1.948   0.180 -0.4015  0.2751 -0.0085
   44MPD2    C5  687   2.607   1.836   0.105 -0.6411  0.9382 -0.4214
   44MPD2     H  688   2.884   1.980   0.322 -0.9022  1.1552  1.0001
   44MPD2    H1  689   2.479   1.994   0.167 -1.5885 -2.4608 -0.7388
   44MPD2    H2  690   2.752   1.682   0.049 -0.4440 -1.2659  1.6794
   44MPD2    H3  691   2.528   1.806   0.036 -0.8177  2.0766 -0.7152
   44MPD2     N  692   2.628   2.097   0.349  0.0956 -0.4343  0.1519
   44MPD2    H5  693   2.528   2.115   0.349  0.0442 -0.7111 -0.2197
   44MPD2    N1  694   2.955   1.766   0.203 -0.1848  0.1756  0.1343
   44MPD2    H7  695   3.014   1.804   0.276 -1.1624  0.3303  0.8388
   45TMC2    C1  696   3.788   3.678  10.148  0.5820  0.5572 -0.5113
   45TMC2    C2  697   3.888   3.622  10.209 -0.6430  0.1791 -0.4442
   45TMC2    C3  698   3.994   3.696  10.237  0.1237  0.2813 -0.3729
   45TMC2    C4  699   3.778   3.818  10.140  0.2367  0.4860 -0.4031
   45TMC2    C5  700   3.892   3.889  10.167  0.5994  0.5124  0.4620
   45TMC2    C6  701   4.011   3.824  10.196  0.7830 -0.1460 -1.8639
   45TMC2     C  702   3.681   3.583  10.107 -0.3487  0.5409  0.4871
   45TMC2     O  703   3.661   3.482  10.170  0.1743 -0.4464 -0.0147
   45TMC2     H  704   3.890   3.514  10.212 -2.0751  0.0891 -2.6109
   45TMC2    H1  705   3.684   3.865  10.116  0.0100  0.2809  0.1017
   45TMC2    H2  706   4.100   3.879  10.224  0.6596 -0.8342 -0.1247
   45TMC2    C7  707   3.890   4.038  10.171 -0.1245 -0.6311 -0.0001
   45TMC2    C8  708   4.086   3.658  10.346  0.1538 -0.5865  0.1709
   45TMC2    O1  709   3.963   4.096  10.245 -0.3748  0.2402  0.0639
   45TMC2    O2  710   4.201   3.685  10.338 -0.7034 -0.3495 -0.2906
   45TMC2    O5  711   4.027   3.544  10.393  0.0710 -0.5208 -0.6704
   45TMC2    H5  712   3.929   3.550  10.401  0.0121 -1.2555 -0.8664
   46MPD2     C  713   3.456   3.433   9.975 -0.3098  0.4106  0.4918
   46MPD2    C1  714   3.478   3.568   9.961 -0.0971  0.4887 -0.1467
   46MPD2    C2  715   3.404   3.635   9.865 -0.5662  0.7738  0.6925
   46MPD2    C3  716   3.299   3.575   9.806  0.1311 -0.5827 -0.1213
   46MPD2    C4  717   3.267   3.446   9.838  0.6329 -0.5485 -0.5464
   46MPD2    C5  718   3.351   3.370   9.915 -0.1838 -0.3897 -0.5028
   46MPD2     H  719   3.428   3.739   9.842  1.4476 -0.4431 -2.6522
   46MPD2    H1  720   3.181   3.400   9.790  0.2060 -0.2565 -0.0597
   46MPD2    H2  721   3.509   3.370  10.046  0.0595  0.9482  0.6958
   46MPD2    H3  722   3.327   3.266   9.934 -1.0361 -0.1743 -0.3983
   46MPD2     N  723   3.224   3.645   9.713 -0.2155 -0.5836  0.1978
   46MPD2    H5  724   3.262   3.737   9.690 -0.1934 -0.5644  0.3092
   46MPD2    N1  725   3.585   3.639  10.022 -0.1262  0.3375 -0.2080
   46MPD2    H7  726   3.621   3.722   9.975  0.6580  0.3566  0.4370
   47TMC2    C1  727   1.434   3.912   9.679  0.0807 -0.0507  0.1102
   47TMC2    C2  728   1.434   3.772   9.672 -0.1140 -0.0321  1.4226
   47TMC2    C3  729   1.318   3.710   9.660  0.4782 -0.2676  0.4893
   47TMC2    C4  730   1.315   3.982   9.672 -0.2324  0.0550  0.4120
   47TMC2    C5  731   1.197   3.911   9.649  0.1779 -0.0150 -0.9318
   47TMC2    C6  732   1.198   3.771   9.640 -0.3263  0.0648  0.2175
   47TMC2     C  733   1.563   3.987   9.679 -0.3476  0.2800  0.2143
   47TMC2     O  734   1.554   4.105   9.648  0.3749 -0.1337 -0.0343
   47TMC2     H  735   1.516   3.708   9.700 -1.5422 -2.3294  0.3314
   47TMC2    H1  736   1.313   4.090   9.664 -2.9416  0.2049  3.3018
   47TMC2    H2  737   1.103   3.723   9.622 -0.5964  0.6374  0.1331
   47TMC2    C7  738   1.074   3.963   9.697 -1.0775 -0.3059 -1.0243
   47TMC2    C8  739   1.330   3.573   9.623 -0.1152  0.2010  0.4208
   47TMC2    O1  740   0.962   3.909   9.690 -0.9097 -0.2509 -0.4109
   47TMC2    O2  741   1.425   3.538   9.553  0.1564  0.4041 -0.0261
   47TMC2    O5  742   1.205   3.524   9.616 -0.0374 -0.0389  0.1703
   47TMC2    H5  743   1.149   3.558   9.690  0.9205  1.9966 -0.0424
   48MPD2     C  744   1.841   4.100   9.699  0.9624  0.8931 -0.1843
   48MPD2    C1  745   1.810   3.962   9.688 -0.5688  0.1303  1.0722
   48MPD2    C2  746   1.922   3.879   9.701  0.2093  0.3124  0.2137
   48MPD2    C3  747   2.047   3.931   9.719 -0.1815 -0.1039  0.5559
   48MPD2    C4  748   2.076   4.061   9.736  0.4600 -0.7217  0.2922
   48MPD2    C5  749   1.967   4.147   9.727 -0.2233 -0.8817  0.1172
   48MPD2     H  750   1.918   3.771   9.706 -2.0994  0.3545 -0.4331
   48MPD2    H1  751   2.177   4.100   9.738  0.1141  0.0852  1.7930
   48MPD2    H2  752   1.764   4.176   9.701 -0.3839 -0.4704 -0.2605
   48MPD2    H3  753   1.988   4.253   9.730 -0.6566 -0.7497 -1.2854
   48MPD2     N  754   2.146   3.834   9.740  0.5046 -0.1364  0.3505
   48MPD2    H5  755   2.113   3.738   9.744 -1.0471  0.3445 -0.6823
   48MPD2    N1  756   1.678   3.913   9.696  0.0679  0.2461 -0.5087
   48MPD2    H7  757   1.664   3.813   9.707 -3.3114  0.7225 -0.4725
   49TMC2    C1  758   4.193   1.886  10.168  0.4893 -0.4835 -0.1999
   49TMC2    C2  759   4.176   1.919  10.035  0.2991 -0.6139 -0.1327
   49TMC2    C3  760   4.106   1.834   9.960 -0.6044 -0.0803 -0.3290
   49TMC2    C4  761   4.158   1.758  10.224  0.2812  0.6539 -0.3478
   49TMC2    C5  762   4.103   1.673  10.135  0.2089  0.2497  0.2267
   49TMC2    C6  763   4.086   1.705  10.003 -0.2782  0.2475  0.4625
   49TMC2     C  764   4.243   1.992  10.252  0.4678  0.1004 -0.0589
   49TMC2     O  765   4.279   2.097  10.199  0.0430 -0.6115  0.2782
   49TMC2     H  766   4.201   2.016   9.994  0.9120 -0.6697  0.0993
   49TMC2    H1  767   4.197   1.727  10.320 -0.9617  1.1446  0.3083
   49TMC2    H2  768   4.057   1.628   9.932  1.3010 -2.1516  2.3997
   49TMC2    C7  769   4.108   1.530  10.167  0.2268 -0.0742 -0.3972
   49TMC2    C8  770   4.091   1.849   9.815 -0.1950 -0.4300 -0.1896
   49TMC2    O1  771   4.059   1.463  10.078 -0.0912  0.1805  0.2598
   49TMC2    O2  772   4.167   1.918   9.752  0.7108  0.9788  0.6748
   49TMC2    O5  773   3.960   1.827   9.788 -0.7575  0.2856 -0.3736
   49TMC2    H5  774   3.913   1.775   9.857 -2.0558 -0.8378 -2.1064
   50MPD2     C  775   4.379   2.147  10.468  0.3823  0.0154  0.6723
   50MPD2    C1  776   4.284   2.049  10.484  0.5876  0.1071 -0.3063
   50MPD2    C2  777   4.235   2.020  10.607 -0.0207  0.4141 -0.3294
   50MPD2    C3  778   4.274   2.093  10.718  0.8614 -0.6560  0.0368
   50MPD2    C4  779   4.376   2.184  10.702 -0.3085 -0.3214 -0.3935
   50MPD2    C5  780   4.433   2.209  10.577  0.5897  0.6023 -0.5087
   50MPD2     H  781   4.153   1.949  10.606  0.1733  0.2126 -1.5239
   50MPD2    H1  782   4.399   2.258  10.778 -1.0597 -1.1070  0.6159
   50MPD2    H2  783   4.406   2.182  10.369  0.0273  0.9425  0.8989
   50MPD2    H3  784   4.517   2.277  10.569 -0.2585  1.8622  1.2510
   50MPD2     N  785   4.214   2.079  10.847 -0.1865 -0.3742 -0.2703
   50MPD2    H5  786   4.273   2.108  10.924 -1.3605 -0.4687  0.6684
   50MPD2    N1  787   4.235   1.965  10.385  0.4262 -0.5288  0.2935
   50MPD2    H7  788   4.169   1.896  10.419 -1.4894 -0.1707 -2.6823
   51TMC2    C1  789   0.220   1.349   1.389 -0.2602 -0.8118 -0.1868
   51TMC2    C2  790   0.299   1.268   1.311  0.4992 -0.7006  0.6431
   51TMC2    C3  791   0.426   1.237   1.354  0.7862 -0.5376 -0.2973
   51TMC2    C4  792   0.274   1.399   1.502  0.5831  0.4697  0.1528
   51TMC2    C5  793   0.407   1.384   1.531  0.2148 -0.2585 -0.2105
   51TMC2    C6  794   0.487   1.296   1.461  0.4526  0.0819 -0.1783
   51TMC2     C  795   0.071   1.330   1.374  0.1666  0.3358 -0.1416
   51TMC2     O  796   0.036   1.219   1.335  0.2650  0.0708 -0.4578
   51TMC2     H  797   0.262   1.207   1.229 -0.3972  1.1427 -0.3205
   51TMC2    H1  798   0.211   1.469   1.556  0.7200  0.8319 -0.1519
   51TMC2    H2  799   0.587   1.266   1.492  1.0196  2.1234  0.0020
   51TMC2    C7  800   0.468   1.474   1.626 -0.0271  0.4714  0.2499
   51TMC2    C8  801   0.505   1.147   1.270 -0.7245 -0.2450  0.1739
   51TMC2    O1  802   0.391   1.548   1.687 -0.7530 -0.5691  0.7188
   51TMC2    O2  803   0.451   1.050   1.212  0.1989 -0.0031  0.2698
   51TMC2    O5  804   0.640   1.173   1.274 -0.0512  0.4665 -0.2596
   51TMC2    H5  805   0.651   1.252   1.330 -0.5438  0.4604 -0.1528
   52MPD2     C  806   4.370   1.530   1.197  0.4989  0.1229  0.3360
   52MPD2    C1  807   4.417   1.401   1.218 -0.6985 -0.4014  0.0034
   52MPD2    C2  808   4.535   1.380   1.276 -0.3566  0.3153  0.0274
   52MPD2    C3  809   4.623   1.483   1.317  0.0108  0.3858 -0.1605
   52MPD2    C4  810   4.583   1.613   1.290 -0.2276  0.3300 -0.0960
   52MPD2    C5  811   4.458   1.634   1.232  0.1620 -0.3059 -0.1974
   52MPD2     H  812   4.555   1.275   1.290  0.7153  0.5733  0.4203
   52MPD2    H1  813   4.645   1.700   1.305  0.0916 -0.1184  1.1351
   52MPD2    H2  814   4.283   1.560   1.140  1.6000  1.3007 -0.7094
   52MPD2    H3  815   4.436   1.734   1.195 -1.1130 -0.3582  0.4475
   52MPD2     N  816   0.017   1.455   1.360  0.0101  0.4207 -0.3637
   52MPD2    H5  817   0.083   1.528   1.387 -0.0966  0.2238  0.4265
   52MPD2    N1  818   4.340   1.291   1.168  0.8359  0.6392  0.8730
   52MPD2    H7  819   4.385   1.201   1.173 -1.5539 -0.5300  1.1695
   53TMC2    C1  820   4.362   3.161  11.696  0.2521 -0.2183  0.2820
   53TMC2    C2  821   4.437   3.050  11.676 -0.4375  0.1161  0.3704
   53TMC2    C3  822   4.439   2.953  11.773  0.1768  0.7756  1.1126
   53TMC2    C4  823   4.292   3.188  11.812 -0.7128  0.3923 -0.1508
   53TMC2    C5  824   4.306   3.094  11.909 -0.4240  0.3911  0.0787
   53TMC2    C6  825   4.376   2.975  11.896  0.0788 -0.1062  0.3534
   53TMC2     C  826   4.385   3.269  11.610 -0.4963  0.2837 -0.9813
   53TMC2     O  827   4.488   3.275  11.544 -0.2868  0.1173 -0.0208
   53TMC2     H  828   4.502   3.046  11.590  0.1197 -0.6299  0.8267
   53TMC2    H1  829   4.238   3.278  11.838  1.1828  1.3435  0.5091
   53TMC2    H2  830   4.383   2.904  11.978 -0.9501  1.1220  1.4933
   53TMC2    C7  831   4.214   3.110  12.025 -0.3352  0.3752 -0.7331
   53TMC2    C8  832   4.537   2.844  11.764  0.2715 -0.6229 -0.0083
   53TMC2    O1  833   4.102   3.145  12.001  0.5264  0.2786 -0.1166
   53TMC2    O2  834   4.609   2.834  11.865 -0.0265  0.5566  0.0923
   53TMC2    O5  835   4.584   2.832  11.638 -0.0381 -0.6302 -0.3298
   53TMC2    H5  836   4.507   2.848  11.580 -1.9138 -0.2692  2.2258
   54MPD2     C  837   4.366   3.546  11.457  0.5068  0.3258 -0.2875
   54MPD2    C1  838   4.278   3.495  11.552 -0.2025 -0.0893  0.5648
   54MPD2    C2  839   4.173   3.574  11.598  0.6098  0.1610  0.1846
   54MPD2    C3  840   4.147   3.695  11.537 -0.2433  0.6018 -0.4587
   54MPD2    C4  841   4.233   3.748  11.445 -0.3470 -0.0356 -0.4603
   54MPD2    C5  842   4.340   3.670  11.401 -0.4533 -0.0159  0.2680
   54MPD2     H  843   4.119   3.533  11.682  1.1853  2.5796  1.7350
   54MPD2    H1  844   4.223   3.842  11.393  0.2089  0.5688  0.5326
   54MPD2    H2  845   4.451   3.494  11.414 -0.8260  0.0408 -2.5633
   54MPD2    H3  846   4.405   3.707  11.322  0.3578 -1.0558  0.4432
   54MPD2     N  847   4.036   3.768  11.569 -0.3913  0.1364 -0.0287
   54MPD2    H5  848   4.043   3.863  11.534 -0.8977  0.9483  2.0719
   54MPD2    N1  849   4.283   3.365  11.610  0.0666  0.9356 -0.2300
   54MPD2    H7  850   4.212   3.334  11.676 -0.6633  1.2645 -0.8494
   55TMC2    C1  851   0.940   2.438   0.158  0.1783  0.2291  0.2782
   55TMC2    C2  852   1.021   2.460   0.050 -0.3342 -0.4271 -0.6907
   55TMC2    C3  853   1.095   2.358  17.737  0.2691  0.8069 -0.9014
   55TMC2    C4  854   0.935   2.313   0.213 -0.1848  0.4570  0.5374
   55TMC2    C5  855   1.014   2.213   0.160 -0.1998 -0.8209 -0.1474
   55TMC2    C6  856   1.104   2.235   0.059  0.1093 -0.9624  0.3703
   55TMC2     C  857   0.864   2.538   0.223 -0.7680  0.5401 -0.3548
   55TMC2     O  858   0.801   2.504   0.321  0.3446  0.3389  0.5457
   55TMC2     H  859   1.029   2.550  17.730  1.8998 -0.5278 -0.5440
   55TMC2    H1  860   0.870   2.297   0.298 -0.1788 -3.0344 -0.1161
   55TMC2    H2  861   1.139   2.149   0.003 -2.0136 -0.6036 -1.4959
   55TMC2    C7  862   1.040   2.086   0.234  0.2711 -0.0766 -0.3816
   55TMC2    C8  863   1.141   2.372  17.601  1.0720 -0.1940  0.5578
   55TMC2    O1  864   1.152   2.037   0.218 -0.0916  0.2785 -0.3991
   55TMC2    O2  865   1.068   2.426  17.519 -0.1986  0.3553  0.3645
   55TMC2    O5  866   1.275   2.365  17.601 -0.0518 -0.3964  1.1662
   55TMC2    H5  867   1.324   2.366  17.685  0.8000  1.4389  0.6450
   56MPD2     C  868   0.813   2.894   0.142  0.3189  0.4180  0.8412
   56MPD2    C1  869   0.799   2.774   0.212  0.2766 -0.4936 -0.2716
   56MPD2    C2  870   0.692   2.767   0.295  0.2820  0.2412  0.5714
   56MPD2    C3  871   0.595   2.867   0.300 -0.4484 -0.0396 -0.7250
   56MPD2    C4  872   0.614   2.987   0.233  0.6673 -0.1278  0.9096
   56MPD2    C5  873   0.728   2.999   0.156 -0.5293  0.3683 -0.0636
   56MPD2     H  874   0.673   2.678   0.353 -0.0940 -0.1164 -0.0986
   56MPD2    H1  875   0.546   3.071   0.225 -0.5407 -1.1532  0.3606
   56MPD2    H2  876   0.906   2.908   0.088  0.2232 -1.2804  0.2362
   56MPD2    H3  877   0.748   3.098   0.116 -0.9175  0.1307 -0.8455
   56MPD2     N  878   0.475   2.825   0.360  0.6085 -0.1404  0.6322
   56MPD2    H5  879   0.486   2.734   0.403 -1.1186 -0.9791 -0.6991
   56MPD2    N1  880   0.875   2.665   0.171 -0.0335  0.4271  0.5719
   56MPD2    H7  881   0.920   2.672   0.080  0.9120  1.1086  1.0883
   57TMC2    C1  882   0.182   2.689  13.847  0.9504  0.7253 -0.1561
   57TMC2    C2  883   0.189   2.584  13.940 -0.4087  0.1223 -0.4901
   57TMC2    C3  884   0.282   2.488  13.917 -0.3962 -0.2411 -0.6887
   57TMC2    C4  885   0.264   2.695  13.735  0.4443  0.4592 -0.1172
   57TMC2    C5  886   0.356   2.593  13.721  0.0945 -0.1137  0.0457
   57TMC2    C6  887   0.370   2.496  13.816 -0.5506 -0.4318 -0.0415
   57TMC2     C  888   0.097   2.806  13.860  0.9183  1.3074 -0.4175
   57TMC2     O  889   0.087   2.871  13.756 -0.6071 -0.4202 -0.5971
   57TMC2     H  890   0.117   2.569  14.019  2.1471 -1.2157  1.5729
   57TMC2    H1  891   0.261   2.774  13.661  1.0631  0.6634  0.0686
   57TMC2    H2  892   0.452   2.427  13.805 -0.7453 -0.3846 -1.8737
   57TMC2    C7  893   0.466   2.634  13.632 -0.2783  0.2013 -0.0339
   57TMC2    C8  894   0.328   2.421  14.032 -0.2771 -0.3036  0.8765
   57TMC2    O1  895   0.483   2.752  13.596 -0.1995  0.0750  0.6709
   57TMC2    O2  896   0.445   2.395  14.036  0.0424 -0.3390  0.0937
   57TMC2    O5  897   0.225   2.348  14.076 -0.0249  0.1319  0.1456
   57TMC2    H5  898   0.135   2.381  14.056  0.2489  0.0420 -1.2373
   58MPD2     C  899   4.478   3.082  14.093 -0.6571 -0.6774  0.9833
   58MPD2    C1  900   4.507   3.082  13.957 -1.0891 -0.2342 -0.2130
   58MPD2    C2  901   4.618   3.002  13.917 -0.0312 -0.3680 -0.5179
   58MPD2    C3  902   4.693   2.934  14.015 -0.5065  0.1130 -0.4909
   58MPD2    C4  903   4.662   2.944  14.146 -0.1133  0.2232  0.5155
   58MPD2    C5  904   4.557   3.017  14.192 -1.4784 -0.0350  0.2978
   58MPD2     H  905   4.637   3.001  13.810 -2.2471  0.6141 -0.9232
   58MPD2    H1  906   4.727   2.904  14.224  2.1280  0.9673 -0.9750
   58MPD2    H2  907   4.396   3.139  14.136 -0.3770 -0.0916  0.7381
   58MPD2    H3  908   4.536   3.027  14.297 -0.3416  0.4002  0.4823
   58MPD2     N  909   0.060   2.843  13.987  0.1940 -0.0017 -0.3877
   58MPD2    H5  910   0.083   2.786  14.068 -1.4799 -0.0153  0.0878
   58MPD2    N1  911   4.438   3.151  13.863  0.2262  0.1256  0.7617
   58MPD2    H7  912   4.471   3.145  13.767  1.7168 -2.9459  1.4853
   59TMC2    C1  913   2.405   3.336  13.060 -0.2274  0.5691 -0.6286
   59TMC2    C2  914   2.464   3.219  13.076 -0.6018 -0.1082 -0.3600
   59TMC2    C3  915   2.423   3.115  13.004 -0.8843 -0.0278  0.2092
   59TMC2    C4  916   2.312   3.360  12.961 -0.4016 -0.1863 -0.6373
   59TMC2    C5  917   2.268   3.259  12.890  0.3648  0.6737  0.2944
   59TMC2    C6  918   2.331   3.132  12.906  0.4192  0.3697 -0.8499
   59TMC2     C  919   2.447   3.451  13.137 -0.5489  0.1341  0.0628
   59TMC2     O  920   2.445   3.557  13.076  0.3152  0.1430 -1.0006
   59TMC2     H  921   2.545   3.204  13.145  0.2607 -0.7868 -1.5263
   59TMC2    H1  922   2.264   3.456  12.953 -1.6479 -0.8185 -0.7877
   59TMC2    H2  923   2.295   3.040  12.861  1.7345  0.6009 -2.4003
   59TMC2    C7  924   2.142   3.250  12.818  0.0691 -0.1198 -0.0449
   59TMC2    C8  925   2.489   2.989  13.032 -0.0842  0.7394 -0.4869
   59TMC2    O1  926   2.081   3.143  12.834 -0.0164  0.1041 -0.3127
   59TMC2    O2  927   2.536   2.952  13.137 -0.2633 -0.0406 -0.0973
   59TMC2    O5  928   2.465   2.910  12.930 -0.0650 -0.1935 -0.1980
   59TMC2    H5  929   2.448   2.958  12.845  2.4473  0.0690 -0.5518
   60MPD2     C  930   2.627   3.631  13.313  0.6128  0.1107  0.7140
   60MPD2    C1  931   2.587   3.501  13.340  0.1782 -0.3403  0.4848
   60MPD2    C2  932   2.619   3.448  13.464 -0.8415  0.8952  0.2174
   60MPD2    C3  933   2.689   3.523  13.555  0.4132  0.0798 -0.4806
   60MPD2    C4  934   2.736   3.647  13.523 -0.8364  0.4760  0.4542
   60MPD2    C5  935   2.696   3.706  13.405 -0.0677 -0.2676 -0.3751
   60MPD2     H  936   2.585   3.347  13.482  2.1078 -0.1764 -0.2768
   60MPD2    H1  937   2.802   3.703  13.589 -1.7342 -0.0086  1.7457
   60MPD2    H2  938   2.598   3.671  13.216 -0.2407 -0.5897  0.6877
   60MPD2    H3  939   2.731   3.806  13.381  0.4151 -0.3524 -0.0082
   60MPD2     N  940   2.736   3.468  13.675  0.3812  0.0257  0.4931
   60MPD2    H5  941   2.814   3.515  13.718 -0.6253  3.6472 -1.6334
   60MPD2    N1  942   2.518   3.419  13.247  0.4697  0.1363  0.2480
   60MPD2    H7  943   2.504   3.324  13.279  1.2807  0.5661  1.8727
   61TMC2    C1  944   1.628   4.435  15.417 -0.0108  0.3721  0.7993
   61TMC2    C2  945   1.571   4.350  15.503  0.1301  0.1061 -0.2354
   61TMC2    C3  946   1.620   4.342  15.634 -0.3920  0.5299  0.2462
   61TMC2    C4  947   1.709   4.533  15.465 -0.0372 -0.1792  0.3626
   61TMC2    C5  948   1.757   4.522  15.595  0.4079  0.1686  0.8708
   61TMC2    C6  949   1.711   4.428  15.682 -0.3336  0.2087  0.4266
   61TMC2     C  950   1.630   4.397  15.277 -0.0028 -0.5764 -0.4162
   61TMC2     O  951   1.521   4.376  15.217 -0.5384  0.1610  1.0783
   61TMC2     H  952   1.509   4.271  15.462  3.0685 -1.3330 -1.8556
   61TMC2    H1  953   1.744   4.613  15.401 -3.5119  1.0521  0.0277
   61TMC2    H2  954   1.759   4.408  15.777 -2.1665 -1.3076  1.0260
   61TMC2    C7  955   1.872   4.602  15.626  0.6541  0.1786 -0.0208
   61TMC2    C8  956   1.576   4.234  15.730 -1.0040  0.3446 -0.1715
   61TMC2    O1  957   1.920   4.668  15.540 -0.4227  0.1762 -0.0616
   61TMC2    O2  958   1.638   4.189  15.823 -0.0908 -0.2954 -0.0220
   61TMC2    O5  959   1.457   4.195  15.689 -0.1023 -0.2105 -0.0881
   61TMC2    H5  960   1.401   4.259  15.641  0.8085  0.0351 -0.8286
   62MPD2     C  961   1.712   4.433  14.999 -0.1518 -0.2757  0.3314
   62MPD2    C1  962   1.802   4.426  15.103 -1.3455 -0.5589  0.3538
   62MPD2    C2  963   1.932   4.421  15.077  0.1318  0.4553  0.1998
   62MPD2    C3  964   1.984   4.432  14.947  0.1216 -0.7189  0.0737
   62MPD2    C4  965   1.899   4.440  14.849 -0.6234  0.1951 -0.1160
   62MPD2    C5  966   1.765   4.431  14.872  0.3268  0.4377  0.1930
   62MPD2     H  967   1.989   4.413  15.169 -1.3302 -1.4090  0.9228
   62MPD2    H1  968   1.931   4.456  14.747 -1.4017 -0.5059 -0.4670
   62MPD2    H2  969   1.606   4.451  15.014 -0.0739 -0.7540  1.4601
   62MPD2    H3  970   1.709   4.439  14.780  0.1836  0.3441  0.2725
   62MPD2     N  971   2.122   4.456  14.919 -0.0128 -0.3990  0.5773
   62MPD2    H5  972   2.153   4.451  14.823  0.2357 -0.0612  0.6383
   62MPD2    N1  973   1.759   4.422  15.235  0.4198  0.4293  0.0683
   62MPD2    H7  974   1.826   4.430  15.310 -0.7344  0.7160  1.0675
   63TMC2    C1  975   2.104   4.093  11.023  0.0703  0.3766  0.0640
   63TMC2    C2  976   2.167   4.082  11.143  0.3623  0.2673 -0.1692
   63TMC2    C3  977   2.228   4.193  11.184 -0.1681 -0.0689  0.0849
   63TMC2    C4  978   2.128   4.196  10.942  0.5510 -0.8090 -0.6915
   63TMC2    C5  979   2.196   4.308  10.984 -0.2966  0.3892  0.5684
   63TMC2    C6  980   2.236   4.310  11.114  0.4074 -0.5252 -0.3184
   63TMC2     C  981   2.038   3.978  10.959  0.3955 -0.5260 -0.4319
   63TMC2     O  982   2.024   3.977  10.839 -0.8124  0.3215 -0.3076
   63TMC2     H  983   2.163   3.986  11.194  1.7528  1.1066  1.5295
   63TMC2    H1  984   2.092   4.193  10.839 -0.2152  3.5875 -0.5539
   63TMC2    H2  985   2.277   4.398  11.161  2.1659  0.5604 -3.8833
   63TMC2    C7  986   2.134   4.431  10.928  0.2249  0.6395 -0.3649
   63TMC2    C8  987   2.291   4.186  11.309 -0.6307  1.3228 -0.0095
   63TMC2    O1  988   2.023   4.412  10.878 -0.6661  0.1308  0.0930
   63TMC2    O2  989   2.235   4.131  11.402 -0.2760 -0.0424  0.1925
   63TMC2    O5  990   2.399   4.273  11.323 -0.0139  0.4057 -0.4711
   63TMC2    H5  991   2.432   4.302  11.236  0.5557 -1.4770 -0.8798
   64MPD2     C  992   1.727   3.554  10.969  0.3749 -0.0801 -0.5207
   64MPD2    C1  993   1.773   3.641  10.873  0.4186 -0.5400 -0.0288
   64MPD2    C2  994   1.846   3.753  10.895  0.0298 -0.2914  0.4917
   64MPD2    C3  995   1.892   3.786  11.020  0.2689  0.3633 -0.1862
   64MPD2    C4  996   1.854   3.693  11.115  0.3439 -1.0813  0.0623
   64MPD2    C5  997   1.773   3.587  11.093 -0.5936  0.6429 -0.4046
   64MPD2     H  998   1.848   3.828  10.816 -1.5909  1.8835  2.5322
   64MPD2    H1  999   1.883   3.711  11.217 -2.2625 -0.7363  0.7560
   64MPD2    H2 1000   1.664   3.466  10.956 -1.8393  1.5658 -0.9375
   64MPD2    H3 1001   1.740   3.529  11.178 -0.5919 -0.9636 -1.4976
   64MPD2     N 1002   1.985   3.891  11.053 -0.2772 -0.2134  0.0494
   64MPD2    H5 1003   2.009   3.893  11.152  3.8842  0.9052 -0.9954
   64MPD2    N1 1004   1.730   3.627  10.736  0.2753 -0.1744 -1.4436
   64MPD2    H7 1005   1.769   3.687  10.665  0.7810 -0.2730 -1.2474
   65TMC2    C1 1006   2.867   4.029  15.911  0.8400  0.7632 -1.3478
   65TMC2    C2 1007   2.917   3.966  15.800 -0.2354 -0.0154  0.0173
   65TMC2    C3 1008   2.955   4.055  15.701 -0.4901 -0.8550 -0.1774
   65TMC2    C4 1009   2.869   4.157  15.938 -0.0551  0.0859  0.3549
   65TMC2    C5 1010   2.906   4.237  15.838  0.1575  0.1937 -0.5096
   65TMC2    C6 1011   2.948   4.187  15.719 -1.4428  0.0235 -0.2102
   65TMC2     C 1012   2.809   3.937  16.004  0.2761 -0.0023  0.3053
   65TMC2     O 1013   2.807   3.978  16.121  0.4092 -1.1162 -0.2953
   65TMC2     H 1014   2.924   3.858  15.790  0.5064 -0.1163  1.6549
   65TMC2    H1 1015   2.845   4.185  16.040  0.4941 -3.6789  1.5038
   65TMC2    H2 1016   2.981   4.258  15.644 -1.5077  1.5275  1.1832
   65TMC2    C7 1017   2.872   4.378  15.852  0.1657  0.6379  0.6843
   65TMC2    C8 1018   2.999   4.011  15.575 -0.6055 -0.5561  0.6101
   65TMC2    O1 1019   2.886   4.441  15.750 -0.2030 -0.0104  0.2790
   65TMC2    O2 1020   3.049   4.083  15.489  0.1666  0.3558 -0.3228
   65TMC2    O5 1021   2.960   3.883  15.553 -0.0730  0.5402  0.2225
   65TMC2    H5 1022   2.891   3.844  15.610 -0.2281  1.5779  0.7399
   66MPD2     C 1023   2.718   3.693  16.173  0.3345 -0.0079 -0.0318
   66MPD2    C1 1024   2.716   3.705  16.035  0.0575  1.1253  0.0758
   66MPD2    C2 1025   2.668   3.595  15.963 -0.3324  0.2277 -0.9766
   66MPD2    C3 1026   2.626   3.481  16.031 -0.1614 -0.0902  0.4731
   66MPD2    C4 1027   2.625   3.471  16.165  0.1781 -0.2587 -0.7094
   66MPD2    C5 1028   2.678   3.578  16.238  0.3026  0.0072  0.5368
   66MPD2     H 1029   2.655   3.621  15.859  0.2001  1.5849 -0.7070
   66MPD2    H1 1030   2.568   3.393  16.215 -1.6104  1.4947 -0.0088
   66MPD2    H2 1031   2.763   3.764  16.242  0.8447 -1.3728  1.0279
   66MPD2    H3 1032   2.691   3.585  16.346 -1.8794  1.2120  0.7047
   66MPD2     N 1033   2.566   3.383  15.960 -0.2276 -0.1753  0.4555
   66MPD2    H5 1034   2.536   3.302  16.015  0.0810 -0.6641 -0.0918
   66MPD2    N1 1035   2.765   3.815  15.956 -0.4326 -0.0260 -0.5582
   66MPD2    H7 1036   2.754   3.811  15.855 -0.4436  0.1195 -0.5614
   67TMC2    C1 1037   2.465   3.180  14.809 -0.4182  0.0512  0.0027
   67TMC2    C2 1038   2.457   3.169  14.671 -0.3297 -0.2067  0.1699
   67TMC2    C3 1039   2.581   3.169  14.609 -0.8377 -0.1060 -0.2027
   67TMC2    C4 1040   2.588   3.181  14.884  0.5079 -0.5538 -0.2091
   67TMC2    C5 1041   2.703   3.175  14.809 -0.0985  0.4785 -0.0641
   67TMC2    C6 1042   2.703   3.165  14.675  0.3525 -0.2197 -0.3861
   67TMC2     C 1043   2.341   3.181  14.875 -0.1242  1.3354 -0.5593
   67TMC2     O 1044   2.350   3.219  14.992  0.3800  0.3131  0.6312
   67TMC2     H 1045   2.367   3.175  14.612 -0.6371 -0.1322  0.6502
   67TMC2    H1 1046   2.575   3.194  14.991  0.8164 -0.0280 -0.2373
   67TMC2    H2 1047   2.799   3.151  14.628  1.0628  0.7304  0.7673
   67TMC2    C7 1048   2.825   3.203  14.876 -1.3211 -0.0939  0.2078
   67TMC2    C8 1049   2.570   3.158  14.465  0.1488  0.4781  0.6185
   67TMC2    O1 1050   2.929   3.217  14.812  0.3824  0.8091 -0.4970
   67TMC2    O2 1051   2.475   3.111  14.410  0.2186  0.5599  0.0086
   67TMC2    O5 1052   2.658   3.250  14.413 -0.4029  0.6613 -0.1560
   67TMC2    H5 1053   2.728   3.284  14.472 -0.2991 -1.5413  0.9947
   68MPD2     C 1054   2.060   3.171  14.964 -0.3983  0.6770  0.2656
   68MPD2    C1 1055   2.106   3.139  14.842 -0.4422  0.1795 -0.7056
   68MPD2    C2 1056   2.015   3.109  14.742  0.5233  0.6577  0.7727
   68MPD2    C3 1057   1.879   3.120  14.763  0.1528  0.4578  0.1922
   68MPD2    C4 1058   1.837   3.154  14.888  0.5985 -0.6589  0.0751
   68MPD2    C5 1059   1.927   3.170  14.989 -0.1526 -0.1558 -0.3919
   68MPD2     H 1060   2.054   3.095  14.642 -1.5630  0.6125 -0.0245
   68MPD2    H1 1061   1.732   3.158  14.913  1.2491  2.9678  2.2143
   68MPD2    H2 1062   2.134   3.199  15.038 -0.0530  1.5360 -0.4050
   68MPD2    H3 1063   1.883   3.204  15.082  1.8644  0.2154  0.4379
   68MPD2     N 1064   1.780   3.101  14.666 -0.9863 -0.3609 -0.3548
   68MPD2    H5 1065   1.687   3.127  14.697  0.6710  2.7441  1.9823
   68MPD2    N1 1066   2.240   3.138  14.797 -0.0426 -0.5151 -0.0381
   68MPD2    H7 1067   2.253   3.107  14.701 -0.6178 -2.0504  0.3778
   69TMC2    C1 1068   4.476   3.666  11.786  0.0035  0.1319  0.5210
   69TMC2    C2 1069   4.375   3.763  11.788 -0.8758 -0.9406  0.5793
   69TMC2    C3 1070   4.406   3.879  11.730  0.2921  0.8228  0.1707
   69TMC2    C4 1071   4.597   3.680  11.726  0.1225 -0.8187  0.3767
   69TMC2    C5 1072   4.611   3.794  11.655 -0.6605 -0.1524 -0.7444
   69TMC2    C6 1073   4.522   3.905  11.664  0.1550 -0.1783  0.7680
   69TMC2     C 1074   4.455   3.551  11.869  0.4281  0.1059  0.4262
   69TMC2     O 1075   4.383   3.565  11.970  0.0385 -0.3517  0.2256
   69TMC2     H 1076   4.279   3.752  11.838 -0.0192 -2.7759  1.8087
   69TMC2    H1 1077   4.674   3.605  11.727 -1.8026 -2.8308 -2.9121
   69TMC2    H2 1078   4.533   3.998  11.610  1.4652 -0.0176  1.2966
   69TMC2    C7 1079   0.007   3.821  11.592 -0.6347  0.0148 -0.0009
   69TMC2    C8 1080   4.313   3.988  11.757 -0.1494  0.0819 -0.1965
   69TMC2    O1 1081   0.031   3.939  11.569  0.6299 -0.0708  0.0184
   69TMC2    O2 1082   4.194   3.966  11.779 -0.7192 -0.0289 -0.2160
   69TMC2    O5 1083   4.395   4.075  11.829  0.2649  0.5452 -0.3675
   69TMC2    H5 1084   4.491   4.059  11.826  0.1167 -0.5035  0.3344
   70MPD2     C 1085   4.659   3.236  11.865 -0.4112  0.3944 -0.4146
   70MPD2    C1 1086   4.574   3.329  11.924 -0.2149  0.3246 -0.1319
   70MPD2    C2 1087   4.553   3.320  12.060  0.1469 -0.0065 -0.5073
   70MPD2    C3 1088   4.615   3.225  12.135 -0.1430 -0.2383  0.6415
   70MPD2    C4 1089   4.696   3.131  12.065 -0.2212  0.2536  0.1665
   70MPD2    C5 1090   4.721   3.137  11.935 -0.2764 -0.4094  0.7195
   70MPD2     H 1091   4.489   3.392  12.109  0.0573  2.5399 -4.3650
   70MPD2    H1 1092   0.018   3.059  12.122 -0.5775  2.2243  3.0241
   70MPD2    H2 1093   4.684   3.230  11.760  0.3671 -1.3980 -0.1236
   70MPD2    H3 1094   0.056   3.073  11.883 -0.5926  0.4171 -0.7222
   70MPD2     N 1095   4.600   3.206  12.277 -0.0944  0.1732  0.8686
   70MPD2    H5 1096   4.660   3.137  12.320  0.2272  0.0927  0.2845
   70MPD2    N1 1097   4.534   3.441  11.838  0.1926  0.1720  0.3251
   70MPD2    H7 1098   4.586   3.433  11.751 -0.4418  2.2678 -0.2410
   71TMC2    C1 1099   2.146   0.928   1.797  0.0569  0.3391  0.0621
   71TMC2    C2 1100   2.266   0.926   1.866  0.1356 -0.1559  0.1386
   71TMC2    C3 1101   2.260   0.897   1.997  0.0189 -0.8051 -0.2716
   71TMC2    C4 1102   2.025   0.898   1.863  0.1162 -0.8659 -0.5105
   71TMC2    C5 1103   2.029   0.866   1.999  0.0960  0.2682  0.2675
   71TMC2    C6 1104   2.146   0.864   2.071  0.1656  0.2552 -0.2256
   71TMC2     C 1105   2.155   0.903   1.657 -0.4532  0.0164 -0.6962
   71TMC2     O 1106   2.251   0.840   1.617  0.3276 -0.2698  0.2604
   71TMC2     H 1107   2.350   0.972   1.814  0.0334 -0.8255 -0.6207
   71TMC2    H1 1108   1.927   0.895   1.816 -1.0446 -0.8714  1.9047
   71TMC2    H2 1109   2.156   0.812   2.166  0.2681 -1.4864 -1.2020
   71TMC2    C7 1110   1.908   0.809   2.073 -0.0937  0.3404  0.0432
   71TMC2    C8 1111   2.377   0.859   2.061  0.1535 -0.4593  0.5092
   71TMC2    O1 1112   1.934   0.797   2.192  0.5228 -0.4276  0.1886
   71TMC2    O2 1113   2.398   0.873   2.181 -0.2426  0.0506 -0.0119
   71TMC2    O5 1114   2.475   0.846   1.967  0.4303 -0.4301  0.3178
   71TMC2    H5 1115   2.450   0.805   1.881 -1.0885 -0.5990  0.8343
   72MPD2     C 1116   1.913   0.798   1.227  0.0486 -0.2130  0.2810
   72MPD2    C1 1117   2.042   0.763   1.263  0.8556 -0.4358 -0.5317
   72MPD2    C2 1118   2.091   0.814   1.379 -0.6600  0.8072 -0.0000
   72MPD2    C3 1119   2.011   0.891   1.463  0.4291 -0.3148  0.1678
   72MPD2    C4 1120   1.889   0.917   1.423  0.0773  0.0899  0.7216
   72MPD2    C5 1121   1.835   0.873   1.307 -0.2121  0.5570  0.3739
   72MPD2     H 1122   2.189   0.792   1.421  0.2509 -0.0718 -2.6335
   72MPD2    H1 1123   1.827   0.987   1.478  0.2101 -1.1843  2.5320
   72MPD2    H2 1124   1.869   0.768   1.132 -1.4207  2.0843  0.2331
   72MPD2    H3 1125   1.733   0.893   1.276  0.0418  2.9393  1.0498
   72MPD2     N 1126   2.047   0.943   1.586 -1.7232  0.1241  0.2687
   72MPD2    H5 1127   1.984   1.002   1.640 -1.4577  0.0329  0.6822
   72MPD2    N1 1128   2.126   0.678   1.187  0.0411  0.3695 -0.2913
   72MPD2    H7 1129   2.221   0.679   1.223 -0.1784 -1.8513  0.3264
   73TMC2    C1 1130   1.927   2.109  13.970 -0.1170 -0.2023  0.0262
   73TMC2    C2 1131   1.827   2.075  14.061  0.2887 -0.0021 -0.1376
   73TMC2    C3 1132   1.849   1.965  14.141  0.2472 -0.1421  0.9780
   73TMC2    C4 1133   2.037   2.029  13.959 -0.9866  0.1971 -0.1104
   73TMC2    C5 1134   2.069   1.932  14.054  0.4764  0.4197  0.1563
   73TMC2    C6 1135   1.970   1.897  14.145  0.7002  0.7507 -0.5562
   73TMC2     C 1136   1.944   2.244  13.948  0.5260  0.3127  0.2717
   73TMC2     O 1137   2.057   2.280  13.968 -0.4759  0.0688 -0.1271
   73TMC2     H 1138   1.733   2.127  14.068  0.1313 -0.3892  0.6141
   73TMC2    H1 1139   2.101   2.046  13.873  0.8397  0.9123  1.3826
   73TMC2    H2 1140   1.978   1.809  14.209  0.6210 -0.3161 -2.0099
   73TMC2    C7 1141   2.198   1.955  14.114  0.3146 -0.0324 -0.0108
   73TMC2    C8 1142   1.762   1.938  14.253 -0.7254 -0.1695 -0.3460
   73TMC2    O1 1143   2.255   1.871  14.182  0.0937  0.4706 -0.4470
   73TMC2    O2 1144   1.717   1.830  14.296  0.2576 -0.0738  0.8011
   73TMC2    O5 1145   1.727   2.062  14.294 -0.2812  0.6803  0.1297
   73TMC2    H5 1146   1.790   2.133  14.270 -1.3206  1.8149  0.7369
   74MPD2     C 1147   1.815   2.735  13.913  1.0701 -0.1896 -0.7745
   74MPD2    C1 1148   1.926   2.677  13.962 -0.3837 -0.3002 -0.3785
   74MPD2    C2 1149   1.927   2.540  13.990 -0.3296  0.3130 -0.3985
   74MPD2    C3 1150   1.815   2.467  13.942  1.2827  0.1122 -0.1682
   74MPD2    C4 1151   1.704   2.534  13.894 -0.1754  0.4214 -0.4596
   74MPD2    C5 1152   1.708   2.667  13.880  0.3864 -0.1890  0.1952
   74MPD2     H 1153   1.991   2.486  14.059  2.3456  1.4349 -2.0313
   74MPD2    H1 1154   1.623   2.474  13.855 -0.5843 -0.3544  1.5746
   74MPD2    H2 1155   1.825   2.840  13.888  1.2547 -0.1878 -0.6933
   74MPD2    H3 1156   1.626   2.716  13.828  0.4624 -0.2080  0.0566
   74MPD2     N 1157   1.826   2.323  13.931  0.1557  0.4470 -0.3118
   74MPD2    H5 1158   1.737   2.274  13.925  1.5496 -1.9616 -1.4461
   74MPD2    N1 1159   2.025   2.767  14.002  0.5439 -0.1277  0.8661
   74MPD2    H7 1160   2.006   2.866  13.993  3.1961  0.4079  1.0325
   75TMC2    C1 1161   1.679   3.128  14.455  0.9936  0.4881 -0.7322
   75TMC2    C2 1162   1.557   3.113  14.517  0.1285 -0.9554 -0.0372
   75TMC2    C3 1163   1.458   3.171  14.439  0.2825  0.2324  0.4975
   75TMC2    C4 1164   1.699   3.174  14.329 -0.4994 -0.2431 -0.0566
   75TMC2    C5 1165   1.596   3.224  14.259  0.0666 -0.6954 -0.4477
   75TMC2    C6 1166   1.470   3.223  14.313 -0.0429  0.3112 -0.2215
   75TMC2     C 1167   1.793   3.090  14.531  0.3296 -0.2512 -0.6412
   75TMC2     O 1168   1.900   3.085  14.467 -0.2917 -0.2759  0.1779
   75TMC2     H 1169   1.534   3.053  14.604  0.6919 -0.5795  0.3748
   75TMC2    H1 1170   1.792   3.162  14.275 -0.6272 -1.1047 -0.0834
   75TMC2    H2 1171   1.399   3.281  14.254 -0.4862 -0.2520 -0.2438
   75TMC2    C7 1172   1.622   3.325  14.154  0.0370  0.0866  0.0831
   75TMC2    C8 1173   1.318   3.144  14.480  0.3417 -0.1847  0.3632
   75TMC2    O1 1174   1.524   3.352  14.084  0.3567 -0.0235  0.3944
   75TMC2    O2 1175   1.275   3.127  14.593 -0.5270 -0.4723 -0.3964
   75TMC2    O5 1176   1.255   3.101  14.370  0.0001 -0.0082  0.3436
   75TMC2    H5 1177   1.298   3.127  14.286  0.1472  0.6952  0.6393
   76TMC2    C1 1178   0.942   3.234  11.377 -0.2529 -0.3479  0.1269
   76TMC2    C2 1179   0.897   3.201  11.249 -0.3808 -0.2273 -0.4284
   76TMC2    C3 1180   0.897   3.075  11.210 -0.7536  0.1240  0.1484
   76TMC2    C4 1181   0.968   3.137  11.464  0.5758  0.1766  0.0397
   76TMC2    C5 1182   0.961   3.009  11.419  0.1345  0.0880  0.0536
   76TMC2    C6 1183   0.934   2.975  11.294 -0.0085  0.0036  0.4563
   76TMC2     C 1184   0.942   3.376  11.408 -0.4284 -0.0328  0.1807
   76TMC2     O 1185   0.858   3.436  11.341  0.0479 -0.0914  0.0942
   76TMC2     H 1186   0.857   3.267  11.173 -0.5252  0.0265 -0.1347
   76TMC2    H1 1187   0.981   3.160  11.569  0.0189  1.3378 -0.1460
   76TMC2    H2 1188   0.936   2.872  11.261 -0.2576 -0.2439  1.2329
   76TMC2    C7 1189   1.010   2.905  11.512  0.3412 -0.6128  0.4013
   76TMC2    C8 1190   0.859   3.050  11.077 -0.4141  0.7713 -0.0423
   76TMC2    O1 1191   0.998   2.787  11.469 -0.1390 -0.1866  0.0704
   76TMC2    O2 1192   0.883   3.143  11.002  0.1428  0.2893  0.2208
   76TMC2    O5 1193   0.738   2.995  11.086  0.5055  0.6548  0.0890
   76TMC2    H5 1194   0.725   2.937  11.164 -1.8709  3.3510  1.6971
   77MPD2     C 1195   1.176   3.807  11.542  0.7465 -0.2177 -0.2220
   77MPD2    C1 1196   1.055   3.786  11.472  0.4590 -0.5886  0.3520
   77MPD2    C2 1197   1.016   3.652  11.447 -0.4048 -0.1814 -0.9917
   77MPD2    C3 1198   1.101   3.548  11.483 -0.2707 -0.7082  0.5060
   77MPD2    C4 1199   1.218   3.573  11.550 -0.6128  0.1524  0.2337
   77MPD2    C5 1200   1.252   3.700  11.579  0.3169  0.5744 -0.9016
   77MPD2     H 1201   0.919   3.637  11.402 -1.4079 -0.0232  1.1525
   77MPD2    H1 1202   1.273   3.490  11.592  0.8165  1.3673  0.7723
   77MPD2    H2 1203   1.193   3.911  11.569  2.3509 -0.7199  0.6666
   77MPD2    H3 1204   1.333   3.723  11.647  0.8275  2.7888 -2.2524
   77MPD2     N 1205   1.056   3.415  11.471 -0.1367 -0.1774  0.4599
   77MPD2    H5 1206   1.115   3.340  11.504  1.7081  0.4296 -1.5124
   77MPD2    N1 1207   0.953   3.887  11.453 -0.2006 -0.4080 -0.0060
   77MPD2    H7 1208   0.860   3.857  11.423  0.1281 -1.2121 -0.2251
   78TMC2    C1 1209   1.828   0.563   1.534  0.9044 -0.0098  0.0438
   78TMC2    C2 1210   1.733   0.469   1.503 -0.1057 -0.1525 -0.2013
   78TMC2    C3 1211   1.778   0.347   1.474  0.3964  0.4676  0.3946
   78TMC2    C4 1212   1.962   0.544   1.512  0.0077 -0.2901  0.4587
   78TMC2    C5 1213   1.997   0.420   1.464 -0.2042  0.0506 -0.4908
   78TMC2    C6 1214   1.908   0.314   1.444  0.2543 -0.6112 -1.0218
   78TMC2     C 1215   1.780   0.672   1.615 -0.0915 -0.3354 -0.0846
   78TMC2     O 1216   1.836   0.697   1.722 -0.2775 -0.0679  0.0948
   78TMC2     H 1217   1.627   0.481   1.524 -0.2106 -2.7511  0.7135
   78TMC2    H1 1218   2.044   0.615   1.518  0.4024 -0.5796 -1.4993
   78TMC2    H2 1219   1.926   0.210   1.419  1.0705 -0.5160 -0.8194
   78TMC2    C7 1220   2.138   0.396   1.428 -0.0310  0.4600  0.1558
   78TMC2    C8 1221   1.687   0.258   1.409  0.3305  0.0754 -0.9317
   78TMC2    O1 1222   2.225   0.470   1.466 -0.0727 -0.0621  0.3443
   78TMC2    O2 1223   1.698   0.135   1.397 -0.1543  0.4753  0.2608
   78TMC2    O5 1224   1.594   0.335   1.347 -0.1572  0.1953 -0.1136
   78TMC2    H5 1225   1.628   0.427   1.350 -2.7231  1.1758 -1.2626
   79MPD1     C 1226   1.380   1.006   1.676 -0.4064  0.1419 -0.3293
   79MPD1    C1 1227   1.484   0.979   1.762  0.6810  0.1399  0.3037
   79MPD1    C2 1228   1.590   0.892   1.717  0.1483  0.1284  0.1128
   79MPD1    C3 1229   1.576   0.828   1.602  0.4555  0.0563 -0.1723
   79MPD1    C4 1230   1.466   0.847   1.522 -0.3134 -0.2800  0.0688
   79MPD1    C5 1231   1.371   0.940   1.555  0.1473  0.2376 -0.0871
   79MPD1     H 1232   1.676   0.881   1.781  0.8156  1.7351 -0.4984
   79MPD1    H1 1233   1.448   0.803   1.424  0.3808 -1.1312  0.3252
   79MPD1    H2 1234   1.295   1.061   1.715  1.2121  3.4467 -1.5525
   79MPD1    H3 1235   1.278   0.949   1.500 -0.7297 -0.3632  1.3119
   79MPD1     N 1236   1.663   0.725   1.555  0.2692 -0.1785  0.6335
   79MPD1    H5 1237   1.639   0.698   1.461 -2.0802 -0.0184  1.1854
   79MPD1    N1 1238   1.494   1.055   1.886 -0.0296  0.4770 -0.2729
   79MPD1    H6 1239   1.550   1.007   1.956 -0.1860  0.3630 -0.2253
   79MPD1    H7 1240   1.407   1.085   1.930  1.7779  2.1111  2.1923
   80TMC2    C1 1241   4.000   2.286  11.762  0.0967 -0.0996 -0.1797
   80TMC2    C2 1242   4.039   2.212  11.648 -0.1014  1.0504 -0.5253
   80TMC2    C3 1243   4.126   2.112  11.674 -0.7397  0.5940 -0.2116
   80TMC2    C4 1244   4.030   2.256  11.890 -0.5616 -0.3467 -0.2143
   80TMC2    C5 1245   4.118   2.155  11.899 -0.6067  0.2921  0.0339
   80TMC2    C6 1246   4.168   2.084  11.802  0.3597  0.4304 -0.1909
   80TMC2     C 1247   3.998   2.425  11.734  0.1252  0.4844  0.1390
   80TMC2     O 1248   4.014   2.458  11.614  0.3944 -0.7275 -0.5324
   80TMC2     H 1249   4.000   2.239  11.550  1.0788  2.9839 -0.4576
   80TMC2    H1 1250   3.998   2.302  11.983 -0.5652 -0.4113 -0.1833
   80TMC2    H2 1251   4.236   2.003  11.827 -0.2447 -0.3229 -0.9705
   80TMC2    C7 1252   4.164   2.106  12.033 -0.1267 -0.6818  0.5406
   80TMC2    C8 1253   4.188   2.033  11.570  0.0245  0.0732 -0.3334
   80TMC2    O1 1254   4.186   1.990  12.049 -0.5856 -0.1233  0.3473
   80TMC2    O2 1255   4.134   1.965  11.484  0.1037  0.0978 -0.1792
   80TMC2    O5 1256   4.316   2.028  11.605 -0.0050 -0.3060  0.0481
   80TMC2    H5 1257   4.340   2.088  11.679 -1.0913 -0.4029  0.4694
   81MPD2     C 1258   3.977   2.724  11.746 -0.3780  0.2004 -0.9169
   81MPD2    C1 1259   3.939   2.637  11.853  0.3132 -0.1312 -0.2005
   81MPD2    C2 1260   3.899   2.684  11.967 -0.0297 -0.1814 -0.8401
   81MPD2    C3 1261   3.879   2.822  11.987 -0.3587  0.2922  0.8674
   81MPD2    C4 1262   3.907   2.911  11.884 -0.1581 -0.6171 -0.4108
   81MPD2    C5 1263   3.960   2.861  11.771  0.0571  0.7395  0.9116
   81MPD2     H 1264   3.886   2.611  12.046  0.7047 -2.3509 -2.7181
   81MPD2    H1 1265   3.898   3.019  11.894 -0.1580 -0.6716  0.1957
   81MPD2    H2 1266   4.009   2.699  11.645 -2.7422 -2.0849 -1.0997
   81MPD2    H3 1267   3.998   2.931  11.697  2.0198  1.2227  2.3909
   81MPD2     N 1268   3.838   2.884  12.111  0.0663 -0.2395 -0.0947
   81MPD2    H5 1269   3.844   2.984  12.124 -1.1593 -0.3581  1.4322
   81MPD2    N1 1270   3.946   2.495  11.844 -0.2957 -0.3036 -0.2206
   81MPD2    H7 1271   3.902   2.438  11.915 -0.1276  1.3584  1.1927
   82TMC2    C1 1272   2.559   2.550  11.026  0.4328 -0.1794 -0.4117
   82TMC2    C2 1273   2.557   2.445  10.944  0.2714 -0.8245  0.0318
   82TMC2    C3 1274   2.522   2.328  11.003 -0.3350  1.0718  0.0727
   82TMC2    C4 1275   2.496   2.562  11.151  0.0132 -0.6216 -0.2070
   82TMC2    C5 1276   2.451   2.441  11.203  0.1122 -0.7659 -0.0071
   82TMC2    C6 1277   2.469   2.323  11.132 -0.0562 -0.1525  0.3649
   82TMC2     C 1278   2.599   2.671  10.961 -0.2571  0.3237  0.4038
   82TMC2     O 1279   2.642   2.675  10.846 -0.1869  0.1360 -0.2789
   82TMC2     H 1280   2.585   2.457  10.840 -1.5797  1.1031 -0.2220
   82TMC2    H1 1281   2.487   2.654  11.207  0.1599 -0.8509  0.1946
   82TMC2    H2 1282   2.427   2.228  11.163  0.9528 -0.7096  0.0299
   82TMC2    C7 1283   2.407   2.422  11.344  0.0994 -0.5529  0.1643
   82TMC2    C8 1284   2.498   2.201  10.931  0.3783 -0.0511  0.3337
   82TMC2    O1 1285   2.368   2.309  11.372  0.0397 -0.3224  0.1808
   82TMC2    O2 1286   2.414   2.120  10.967 -0.3313  0.0117  0.0008
   82TMC2    O5 1287   2.532   2.232  10.803  0.5147 -0.3637  0.3489
   82TMC2    H5 1288   2.612   2.288  10.790  1.6700 -1.8914  0.8397
   83MPD2     C 1289   2.662   3.172  10.900  0.1763 -0.4128 -0.2521
   83MPD2    C1 1290   2.616   3.076  10.808 -0.3722  0.2849 -0.1910
   83MPD2    C2 1291   2.587   2.950  10.852  0.0523 -0.1082  0.6001
   83MPD2    C3 1292   2.614   2.914  10.988  0.1273  0.8172  0.3058
   83MPD2    C4 1293   2.652   3.022  11.068 -0.0744 -0.5744 -0.2903
   83MPD2    C5 1294   2.674   3.145  11.030  0.2589  0.2255  0.0702
   83MPD2     H 1295   2.549   2.874  10.784 -1.2531  2.1086 -1.1501
   83MPD2    H1 1296   2.663   2.997  11.173  0.0885 -0.7137 -0.3413
   83MPD2    H2 1297   2.689   3.269  10.860 -0.4367  0.0809  0.5357
   83MPD2    H3 1298   2.721   3.219  11.094 -0.4185  2.3568 -1.8766
   83MPD2     N 1299   2.592   2.783  11.040  0.1707  0.1376  0.1970
   83MPD2    H5 1300   2.572   2.764  11.137  0.6314 -2.2082 -0.1687
   83MPD2    N1 1301   2.616   3.123  10.673  0.1647  0.0313 -0.3663
   83MPD2    H7 1302   2.678   3.201  10.650  0.7317 -0.4776 -0.5521
   84TMC2    C1 1303   3.931   1.928  11.177  0.0851 -0.6032  0.6006
   84TMC2    C2 1304   4.029   1.847  11.236 -0.5260  0.2956  0.2059
   84TMC2    C3 1305   4.148   1.837  11.170  0.1368 -0.6350  0.5074
   84TMC2    C4 1306   3.945   1.982  11.050 -0.3329 -0.1170  0.5272
   84TMC2    C5 1307   4.069   1.976  10.998  0.0322 -0.3402  0.2100
   84TMC2    C6 1308   4.175   1.902  11.059  0.3321 -0.0618  0.5496
   84TMC2     C 1309   3.818   1.960  11.260  0.4293  0.2768 -0.9303
   84TMC2     O 1310   3.718   1.998  11.201 -0.3998  0.8732 -0.4623
   84TMC2     H 1311   3.995   1.785  11.317 -0.7717  0.0173 -0.1094
   84TMC2    H1 1312   3.870   2.051  11.012 -0.4666  0.2902  1.5361
   84TMC2    H2 1313   4.276   1.890  11.021  0.0288  2.8152 -1.0768
   84TMC2    C7 1314   4.092   2.021  10.868 -0.6562 -0.3476 -0.4310
   84TMC2    C8 1315   4.240   1.743  11.225 -0.0727 -0.0985  0.6633
   84TMC2    O1 1316   4.003   2.016  10.788 -0.0975  0.3053  0.2090
   84TMC2    O2 1317   4.323   1.678  11.159 -0.3306  0.5632  0.0794
   84TMC2    O5 1318   4.254   1.763  11.359  0.3937  0.8412  0.3535
   84TMC2    H5 1319   4.197   1.832  11.400 -0.2129  0.2685  0.4813
   85TMC2    C1 1320   0.361   0.234  15.987 -0.9107  0.1132 -0.3680
   85TMC2    C2 1321   0.265   0.288  15.913 -0.3870  0.2023  0.0258
   85TMC2    C3 1322   0.302   0.376  15.818  0.3389 -0.2481  0.1638
   85TMC2    C4 1323   0.494   0.257  15.960  0.3221  0.0347  0.1352
   85TMC2    C5 1324   0.524   0.334  15.848 -0.0307  0.4750  1.2078
   85TMC2    C6 1325   0.428   0.390  15.775  0.0174  0.6035 -0.7761
   85TMC2     C 1326   0.343   0.176  16.112  0.2024 -0.0575  0.0222
   85TMC2     O 1327   0.423   0.200  16.200  0.8284  0.0111 -0.5633
   85TMC2     H 1328   0.164   0.288  15.951 -0.0244 -1.6380  1.0371
   85TMC2    H1 1329   0.573   0.209  16.017 -0.4368 -0.0904  1.0762
   85TMC2    H2 1330   0.457   0.437  15.681  0.5607  1.9907  0.0895
   85TMC2    C7 1331   0.651   0.301  15.786 -0.4064 -1.2116 -0.8669
   85TMC2    C8 1332   0.204   0.453  15.749 -0.3872  0.1442  0.4635
   85TMC2    O1 1333   0.729   0.235  15.855 -0.2409 -0.9512  0.5783
   85TMC2    O2 1334   0.082   0.440  15.756 -0.5271 -0.3337  0.3321
   85TMC2    O5 1335   0.263   0.568  15.706 -0.4206  0.3815  0.4529
   85TMC2    H5 1336   0.353   0.580  15.743 -0.3179  0.7791  0.0706
   86MPD2     C 1337   0.107   4.553  16.406  0.1065  0.4290 -0.9304
   86MPD2    C1 1338   0.047   4.562  16.283  0.5885 -0.0096 -0.0265
   86MPD2    C2 1339   0.098   4.656  16.200  0.1329 -0.3684  0.2314
   86MPD2    C3 1340   0.210   4.732  16.216  0.1536  0.5051 -0.1569
   86MPD2    C4 1341   0.255   0.004  16.346 -0.5485  0.1669 -0.5715
   86MPD2    C5 1342   0.204   4.643  16.434 -0.9433 -0.0540 -0.6049
   86MPD2     H 1343   0.054   4.674  16.103  0.7166  4.0634  0.7564
   86MPD2    H1 1344   0.339   0.063  16.381  0.0869 -0.8740 -0.3385
   86MPD2    H2 1345   0.083   4.476  16.478  0.3399 -0.9144 -2.2754
   86MPD2    H3 1346   0.239   4.643  16.537  1.1218 -1.1950 -1.3009
   86MPD2     N 1347   0.249   0.081  16.111 -0.5279  0.0751 -0.2731
   86MPD2    H5 1348   0.203   0.068  16.021 -1.4758 -0.5242  0.2988
   86MPD2    N1 1349   4.667   4.480  16.248  0.2846  0.0118  0.0851
   86MPD2    H7 1350   4.614   4.495  16.163 -0.0541 -0.3850  0.2235
   87TMC2    C1 1351   1.878   3.285   1.011  0.2471  0.8877 -0.5326
   87TMC2    C2 1352   1.792   3.183   1.047  0.0097 -0.4354  1.3161
   87TMC2    C3 1353   1.685   3.219   1.122 -0.4214  0.0268  0.3101
   87TMC2    C4 1354   1.856   3.419   1.037  0.2695  1.2816 -0.0321
   87TMC2    C5 1355   1.756   3.449   1.126 -0.3563  0.2404 -0.5776
   87TMC2    C6 1356   1.669   3.346   1.168 -0.2868 -0.3249 -0.3923
   87TMC2     C 1357   1.983   3.252   0.923  0.0863 -0.0644  0.7453
   87TMC2     O 1358   2.019   3.330   0.838 -0.1356  0.0313 -0.6204
   87TMC2     H 1359   1.794   3.079   1.016  0.2504  0.0792 -0.3711
   87TMC2    H1 1360   1.918   3.497   0.993 -0.3514  1.3751 -0.7389
   87TMC2    H2 1361   1.583   3.365   1.231 -0.3794 -1.4483 -0.1876
   87TMC2    C7 1362   1.716   3.583   1.141 -0.1044  0.1737  0.2388
   87TMC2    C8 1363   1.617   3.117   1.193  1.1783  0.1377  0.0707
   87TMC2    O1 1364   1.731   3.659   1.049 -0.6687  0.2983 -0.6998
   87TMC2    O2 1365   1.679   3.013   1.213  0.2468  0.3296 -0.2135
   87TMC2    O5 1366   1.485   3.130   1.162  0.0805  0.0292  0.1119
   87TMC2    H5 1367   1.452   3.219   1.138 -1.7318 -0.1147  2.0319
   88MPD2     C 1368   1.586   3.758   1.452  0.5685 -0.0565  0.6051
   88MPD2    C1 1369   1.608   3.733   1.315 -0.0992 -0.5515  0.5317
   88MPD2    C2 1370   1.560   3.822   1.225 -0.1189 -0.2382  0.0402
   88MPD2    C3 1371   1.501   3.938   1.271 -0.1796 -0.5372 -0.9759
   88MPD2    C4 1372   1.479   3.958   1.406  0.0932  0.5714 -0.4303
   88MPD2    C5 1373   1.521   3.865   1.499  0.5471  0.1465  0.2291
   88MPD2     H 1374   1.575   3.804   1.119 -0.3263 -2.5167  0.3806
   88MPD2    H1 1375   1.432   4.048   1.443  0.5564  0.6031  0.0883
   88MPD2    H2 1376   1.610   3.684   1.528 -0.5163  0.5262  1.5160
   88MPD2    H3 1377   1.505   3.883   1.605 -1.9119 -1.0838  0.0509
   88MPD2     N 1378   1.463   4.040   1.179  0.1724 -0.1011  0.3137
   88MPD2    H5 1379   1.430   4.126   1.221  0.4415  0.1228  0.0625
   88MPD2    N1 1380   1.666   3.610   1.267  0.2410  0.6189 -0.4934
   88MPD2    H7 1381   1.672   3.531   1.330  0.8338 -0.0499 -1.3840
   89TMC2    C1 1382   2.857   2.064   1.474 -0.7987 -0.1142 -0.5657
   89TMC2    C2 1383   2.745   2.132   1.516  0.1281 -0.0841  0.2748
   89TMC2    C3 1384   2.680   2.197   1.415 -0.8401  0.3292 -0.2043
   89TMC2    C4 1385   2.909   2.082   1.346 -0.2687  0.1898 -0.3091
   89TMC2    C5 1386   2.844   2.165   1.252 -0.3364  0.5409  0.2477
   89TMC2    C6 1387   2.721   2.210   1.280  0.4098  0.0812  0.1837
   89TMC2     C 1388   2.948   2.015   1.576  0.0578  0.1793  0.7856
   89TMC2     O 1389   3.064   2.012   1.549 -0.0199 -0.7155  0.3203
   89TMC2     H 1390   2.722   2.122   1.621 -1.6603  0.3254 -0.0791
   89TMC2    H1 1391   2.992   2.019   1.318  1.3828  2.1677  0.1787
   89TMC2    H2 1392   2.659   2.261   1.207  1.3736  0.9120 -0.0445
   89TMC2    C7 1393   2.884   2.143   1.110 -0.3491  0.4511  0.2403
   89TMC2    C8 1394   2.558   2.263   1.453 -0.4071  0.1852 -0.2845
   89TMC2    O1 1395   2.794   2.109   1.037 -0.0592  0.4319  0.0304
   89TMC2    O2 1396   2.510   2.356   1.389 -0.7253  0.4487 -0.0243
   89TMC2    O5 1397   2.525   2.240   1.581  0.1437 -0.1932 -0.2960
   89TMC2    H5 1398   2.564   2.161   1.624 -0.5027  0.0814  0.7885
   90MPD2     C 1399   3.060   1.719   1.969 -0.2703  0.9848  0.4985
   90MPD2    C1 1400   2.945   1.670   1.909  0.1272 -0.1919  0.4915
   90MPD2    C2 1401   2.886   1.747   1.811  1.2581 -0.4396 -0.1105
   90MPD2    C3 1402   2.944   1.862   1.768  0.4253 -0.6335  0.1090
   90MPD2    C4 1403   3.060   1.912   1.834  1.0659 -0.2779  0.5098
   90MPD2    C5 1404   3.120   1.836   1.932 -0.0490 -0.8642 -0.0230
   90MPD2     H 1405   2.790   1.722   1.768  1.5797 -1.0894 -0.4703
   90MPD2    H1 1406   3.106   2.007   1.808  1.6103 -0.5041  0.6428
   90MPD2    H2 1407   3.113   1.665   2.047 -0.4704  2.5159  1.6908
   90MPD2    H3 1408   3.202   1.867   1.995 -0.6553  1.3473 -0.3027
   90MPD2     N 1409   2.879   1.928   1.658 -0.3711  0.5569 -0.2893
   90MPD2    H5 1410   2.783   1.905   1.635 -0.0270 -1.8069  0.6724
   90MPD2    N1 1411   2.884   1.552   1.955 -0.6367 -0.5851  0.0145
   90MPD2    H7 1412   2.807   1.516   1.899  0.7582 -0.6488 -1.8579
   91TMC2    C1 1413   4.608   1.035  16.011  0.0956 -0.4463  0.4645
   91TMC2    C2 1414   4.649   1.063  16.139 -0.4988  0.3031 -0.2183
   91TMC2    C3 1415   4.550   1.059  16.234 -0.3740 -0.0747 -0.1449
   91TMC2    C4 1416   4.476   1.006  15.979 -0.0810 -0.3265 -0.0703
   91TMC2    C5 1417   4.382   1.010  16.075 -0.7138 -0.2169  0.3083
   91TMC2    C6 1418   4.418   1.035  16.202  0.1089  0.9803  0.3808
   91TMC2     C 1419   4.698   1.070  15.909 -0.4222  0.1169  0.3005
   91TMC2     O 1420   4.653   1.070  15.794 -0.4417 -0.3715  0.1644
   91TMC2     H 1421   0.010   1.102  16.171 -2.1983  2.5739  2.1827
   91TMC2    H1 1422   4.452   0.985  15.876 -2.6349 -1.2872  0.7176
   91TMC2    H2 1423   4.346   1.048  16.282  0.9331 -1.4695  1.5184
   91TMC2    C7 1424   4.243   1.004  16.031 -0.7172  0.0526  0.2076
   91TMC2    C8 1425   4.594   1.077  16.372 -0.3985 -0.4774 -0.7452
   91TMC2    O1 1426   4.166   0.951  16.106  0.3897  0.8619  0.3240
   91TMC2    O2 1427   4.713   1.078  16.402  0.8688 -0.5521  0.4255
   91TMC2    O5 1428   4.499   1.151  16.433  0.1145 -0.3774 -0.1753
   91TMC2    H5 1429   4.423   1.160  16.372  0.1059 -0.1350 -0.1260
   92MPD2     C 1430   0.204   1.139  15.736 -0.4817 -0.4121  0.0642
   92MPD2    C1 1431   0.207   1.113  15.868 -0.4529 -0.4012  0.1768
   92MPD2    C2 1432   0.326   1.118  15.936 -0.4624 -0.1040 -0.2906
   92MPD2    C3 1433   0.442   1.140  15.869  0.0531 -0.4050  0.3123
   92MPD2    C4 1434   0.445   1.151  15.731 -0.9384  0.1801 -0.3722
   92MPD2    C5 1435   0.322   1.154  15.667 -0.4075 -0.1506 -0.5850
   92MPD2     H 1436   0.331   1.114  16.045  1.6956  0.8257 -0.3405
   92MPD2    H1 1437   0.532   1.184  15.675  0.5625 -0.3901  1.6147
   92MPD2    H2 1438   0.108   1.142  15.684 -0.1093  0.5382 -0.5684
   92MPD2    H3 1439   0.320   1.178  15.561 -1.1389 -0.6352 -0.6813
   92MPD2     N 1440   0.564   1.155  15.931  0.1400 -0.1253  0.5761
   92MPD2    H5 1441   0.572   1.168  16.032 -0.4306  3.0004  0.2032
   92MPD2    N1 1442   0.092   1.090  15.946 -0.2523 -0.4215  0.4454
   92MPD2    H7 1443   0.105   1.068  16.044 -2.3741 -1.5809  0.4606
   93TMC2    C1 1444   2.011   0.795  14.220  0.3951  0.2558 -0.0130
   93TMC2    C2 1445   2.069   0.691  14.283  0.3823 -0.6713 -0.3957
   93TMC2    C3 1446   2.193   0.656  14.252  0.3514  0.1139 -0.1128
   93TMC2    C4 1447   2.080   0.874  14.134  0.1421  0.1254  0.5374
   93TMC2    C5 1448   2.214   0.843  14.123  0.4896  0.4733  0.2363
   93TMC2    C6 1449   2.280   0.733  14.181  0.2239  0.7852  0.4747
   93TMC2     C 1450   1.868   0.809  14.246  0.0382 -0.4938  0.0155
   93TMC2     O 1451   1.835   0.762  14.353  0.1624 -0.3627  0.4167
   93TMC2     H 1452   2.008   0.615  14.330  0.8176 -2.0782 -2.1619
   93TMC2    H1 1453   2.037   0.968  14.100  1.5486 -0.0951 -1.8599
   93TMC2    H2 1454   2.379   0.697  14.155 -0.9085 -2.3878  0.6197
   93TMC2    C7 1455   2.299   0.929  14.033  0.4820 -0.4069  0.0903
   93TMC2    C8 1456   2.241   0.537  14.330  0.1536  0.3868  0.2719
   93TMC2    O1 1457   2.418   0.911  14.046  1.0898  0.4375  0.4946
   93TMC2    O2 1458   2.173   0.441  14.365 -0.8180 -0.0228  0.3715
   93TMC2    O5 1459   2.350   0.571  14.396 -0.2396  0.6051 -0.7679
   93TMC2    H5 1460   2.384   0.658  14.365 -2.3997  1.6042 -0.3044
   94MPD2     C 1461   1.576   0.804  14.213 -0.6104 -0.5176  0.3482
   94MPD2    C1 1462   1.667   0.834  14.109 -0.3690  0.3590 -0.4452
   94MPD2    C2 1463   1.619   0.869  13.986 -0.1729  0.6772  0.2594
   94MPD2    C3 1464   1.485   0.868  13.960 -0.3419  0.3175 -0.2569
   94MPD2    C4 1465   1.395   0.846  14.061 -0.2897  0.2842  0.2922
   94MPD2    C5 1466   1.443   0.818  14.185  0.1812 -0.0159 -0.5096
   94MPD2     H 1467   1.688   0.907  13.912  0.4638  2.9168  2.0198
   94MPD2    H1 1468   1.288   0.833  14.050 -0.2184  1.1201 -1.3235
   94MPD2    H2 1469   1.607   0.766  14.310 -2.3308 -1.4688  0.5178
   94MPD2    H3 1470   1.370   0.799  14.264  2.6039 -1.0884  1.4808
   94MPD2     N 1471   1.426   0.878  13.829  0.0254 -0.1759  0.8625
   94MPD2    H5 1472   1.326   0.866  13.830 -0.1122  0.8519 -0.8537
   94MPD2    N1 1473   1.808   0.832  14.123  0.4009  0.1122 -0.7468
   94MPD2    H7 1474   1.871   0.860  14.050  1.0529 -1.9232 -0.9753
   95TMC2    C1 1475   1.674   2.984  16.378  0.0269 -0.0198  0.0262
   95TMC2    C2 1476   1.640   2.938  16.501  0.2928  0.0410  0.1628
   95TMC2    C3 1477   1.639   3.023  16.603 -0.2743  0.5082  0.1165
   95TMC2    C4 1478   1.678   3.121  16.355  0.4435 -0.6034 -0.1847
   95TMC2    C5 1479   1.672   3.206  16.462  0.0374 -0.3062  0.9641
   95TMC2    C6 1480   1.653   3.158  16.590  0.0299 -0.6330 -0.0936
   95TMC2     C 1481   1.715   2.891  16.275  0.4351 -0.0455  0.5290
   95TMC2     O 1482   1.696   2.772  16.303  0.3657  0.4517  0.0802
   95TMC2     H 1483   1.640   2.831  16.518 -1.5302 -0.1609 -1.1088
   95TMC2    H1 1484   1.675   3.157  16.252  0.1484 -0.8599 -0.2658
   95TMC2    H2 1485   1.659   3.214  16.683 -0.5877 -1.8801  0.6939
   95TMC2    C7 1486   1.694   3.352  16.450 -1.5798 -1.1242 -0.5144
   95TMC2    C8 1487   1.617   2.971  16.739 -0.4716 -0.0622 -0.4655
   95TMC2    O1 1488   1.682   3.410  16.557  0.6276 -0.7801 -0.0876
   95TMC2    O2 1489   1.547   3.019  16.830 -0.0151  0.4813  0.0868
   95TMC2    O5 1490   1.675   2.852  16.747  0.3454 -0.0189 -0.4697
   95TMC2    H5 1491   1.754   2.852  16.689  1.0115  2.5971  0.4429
   96MPD2     C 1492   2.012   2.747  15.882 -0.1949  0.7558 -0.1529
   96MPD2    C1 1493   2.059   2.864  15.937  0.5886 -0.3225  0.6833
   96MPD2    C2 1494   1.989   2.936  16.041 -0.0208 -0.1945 -0.1490
   96MPD2    C3 1495   1.877   2.872  16.097 -0.1502 -0.3894 -0.2520
   96MPD2    C4 1496   1.840   2.751  16.046 -0.1430  0.2093 -0.1029
   96MPD2    C5 1497   1.905   2.690  15.946 -0.6544  0.5760 -0.6218
   96MPD2     H 1498   2.024   3.030  16.084 -1.3965 -0.2531  1.0742
   96MPD2    H1 1499   1.759   2.692  16.088 -0.2802  1.2267  1.0626
   96MPD2    H2 1500   2.058   2.706  15.794  0.2153  0.5657  0.1488
   96MPD2    H3 1501   1.862   2.607  15.890 -3.9343  3.8298 -2.9733
   96MPD2     N 1502   1.805   2.946  16.189  0.1461  0.9549  0.1912
   96MPD2    H5 1503   1.839   3.039  16.209  2.7235  0.0978 -0.2113
   96MPD2    N1 1504   2.171   2.920  15.875  0.7145  0.0413 -0.5451
   96MPD2    H7 1505   2.193   2.884  15.783  0.6955 -0.5443 -0.3212
   97TMC2    C1 1506   4.400   0.625   0.072 -0.1044 -0.0211 -0.6460
   97TMC2    C2 1507   4.395   0.532  17.713  0.2365  0.3268  0.0767
   97TMC2    C3 1508   4.378   0.579  17.580  0.1767 -0.8951  0.7256
   97TMC2    C4 1509   4.424   0.754   0.042  0.3557 -0.3631 -0.3243
   97TMC2    C5 1510   4.426   0.797  17.655 -0.0176  0.1608  0.5646
   97TMC2    C6 1511   4.413   0.708  17.549  0.5563 -0.4373  0.0594
   97TMC2     C 1512   4.417   0.584   0.208  0.4927 -0.3272  0.1621
   97TMC2     O 1513   4.378   0.655   0.299 -0.5865 -0.3184 -0.1197
   97TMC2     H 1514   4.366   0.430  17.737  1.9350 -0.3461 -0.7914
   97TMC2    H1 1515   4.445   0.827   0.120  0.5809 -0.8312  0.0491
   97TMC2    H2 1516   4.382   0.757  17.457  0.7116 -0.1564  0.1564
   97TMC2    C7 1517   4.454   0.937  17.638  0.4085  0.6636 -0.1565
   97TMC2    C8 1518   4.355   0.485  17.482  0.4891 -0.6667 -0.4695
   97TMC2    O1 1519   4.393   1.014  17.714 -0.7248 -0.2017 -0.6050
   97TMC2    O2 1520   4.310   0.375  17.509  0.0149 -0.3473 -0.0484
   97TMC2    O5 1521   4.438   0.513  17.380 -0.5482 -0.0001 -0.0612
   97TMC2    H5 1522   4.490   0.597  17.388  1.5688 -1.6297  3.5196
   98MPD2     C 1523   4.468   0.212   0.561  0.0752 -0.4676  0.0083
   98MPD2    C1 1524   4.387   0.321   0.557 -0.4794 -0.4691 -0.2725
   98MPD2    C2 1525   4.395   0.405   0.446  0.1954  0.8546 -0.9102
   98MPD2    C3 1526   4.478   0.379   0.335 -0.6193 -0.5693  0.4095
   98MPD2    C4 1527   4.550   0.262   0.336  0.0930 -0.2823 -0.4873
   98MPD2    C5 1528   4.543   0.182   0.450  0.2619  0.6298  0.1911
   98MPD2     H 1529   4.333   0.494   0.443 -1.6943 -0.4460 -0.4381
   98MPD2    H1 1530   4.611   0.244   0.248 -0.0567  0.4256 -0.7345
   98MPD2    H2 1531   4.467   0.142   0.644  0.4483 -1.0073 -0.4427
   98MPD2    H3 1532   4.595   0.087   0.463  2.3614  1.5235 -1.5776
   98MPD2     N 1533   4.481   0.465   0.222  0.2556 -0.5579  0.3637
   98MPD2    H5 1534   4.530   0.427   0.142  2.9685 -0.4855  1.9903
   98MPD2    N1 1535   4.297   0.338   0.663  0.5759  0.1202 -0.0659
   98MPD2    H7 1536   4.301   0.274   0.741  0.8796  2.5183  1.8995
   99TMC2    C1 1537   2.670   2.590   1.642  0.3868 -0.1849 -0.0973
   99TMC2    C2 1538   2.720   2.630   1.762 -0.0938  1.1975  0.4217
   99TMC2    C3 1539   2.628   2.639   1.862  1.1980 -0.1382 -0.1791
   99TMC2    C4 1540   2.539   2.561   1.619 -0.3852 -0.0290 -0.6300
   99TMC2    C5 1541   2.451   2.560   1.726 -0.3806  0.1195 -0.1885
   99TMC2    C6 1542   2.493   2.605   1.853  0.2568  0.4826 -0.5680
   99TMC2     C 1543   2.763   2.611   1.535  0.2652 -0.2640  0.4646
   99TMC2     O 1544   2.865   2.673   1.564  0.8052  0.3445 -0.3045
   99TMC2     H 1545   2.826   2.635   1.782  0.0936 -1.3529  0.0975
   99TMC2    H1 1546   2.502   2.549   1.518 -0.1844  0.9982 -0.8246
   99TMC2    H2 1547   2.428   2.618   1.940  1.8260 -0.7212  0.7834
   99TMC2    C7 1548   2.315   2.525   1.716 -0.4413 -0.4484 -0.1277
   99TMC2    C8 1549   2.684   2.680   1.989  0.4340 -0.1872  0.5291
   99TMC2    O1 1550   2.244   2.579   1.796  0.3831  0.2161  0.9344
   99TMC2    O2 1551   2.792   2.738   1.993 -0.1610 -0.0518  0.6365
   99TMC2    O5 1552   2.663   2.578   2.078  0.0783  0.8660 -0.7895
   99TMC2    H5 1553   2.596   2.514   2.045  2.6651 -1.4765 -1.5046
  100MPD2     C 1554   2.920   2.596   1.260 -0.3623  0.8083 -0.5203
  100MPD2    C1 1555   2.788   2.561   1.283  0.5219  0.3707 -0.0413
  100MPD2    C2 1556   2.708   2.541   1.166  0.0508 -0.1394 -0.1449
  100MPD2    C3 1557   2.768   2.525   1.044 -0.4079  0.5784 -0.1814
  100MPD2    C4 1558   2.906   2.547   1.031  0.3403  0.3946 -0.1439
  100MPD2    C5 1559   2.976   2.590   1.135 -0.3833  0.3690  0.2587
  100MPD2     H 1560   2.604   2.517   1.181 -0.1263  0.9473  0.3455
  100MPD2    H1 1561   2.956   2.528   0.937  0.2216 -0.0127 -0.1250
  100MPD2    H2 1562   2.972   2.632   1.347 -0.2981 -1.9532  0.5741
  100MPD2    H3 1563   3.080   2.619   1.124 -0.0692 -1.3738 -1.4277
  100MPD2     N 1564   2.686   2.464   0.946  0.2432  0.0967  0.2006
  100MPD2    H5 1565   2.592   2.432   0.969 -1.8028  2.9034 -4.1794
  100MPD2    N1 1566   2.725   2.551   1.412 -0.1068 -0.0234  0.1808
  100MPD2    H7 1567   2.632   2.511   1.402  0.0823 -0.2214 -0.7991
  101TMC2    C1 1568   3.218   2.790  13.223 -0.5456  0.2864 -0.3186
  101TMC2    C2 1569   3.252   2.665  13.186 -0.8416 -0.3099  0.4494
  101TMC2    C3 1570   3.300   2.652  13.059 -0.6109 -0.3787 -0.1816
  101TMC2    C4 1571   3.207   2.890  13.133  0.0013 -0.6391 -0.0499
  101TMC2    C5 1572   3.245   2.870  13.003 -0.6778  0.5294 -0.1445
  101TMC2    C6 1573   3.294   2.747  12.961 -0.0667  0.1339 -0.4510
  101TMC2     C 1574   3.165   2.819  13.361  0.5289 -0.2738  0.2017
  101TMC2     O 1575   3.134   2.936  13.386  0.3878  0.0632 -0.2233
  101TMC2     H 1576   3.258   2.578  13.251  0.1072 -1.4200 -1.0987
  101TMC2    H1 1577   3.179   2.992  13.158  2.3199  0.1043 -0.4595
  101TMC2    H2 1578   3.321   2.728  12.858  0.7648 -1.3462  0.0458
  101TMC2    C7 1579   3.276   2.983  12.913  0.3252  0.2583 -0.1139
  101TMC2    C8 1580   3.354   2.521  13.031  0.9545 -0.0763 -0.5743
  101TMC2    O1 1581   3.373   2.957  12.849 -0.0711  0.2229 -0.6659
  101TMC2    O2 1582   3.315   2.423  13.100  0.0595 -0.4900  0.0145
  101TMC2    O5 1583   3.471   2.529  12.958  0.2192  0.6673 -0.6961
  101TMC2    H5 1584   3.506   2.613  12.922  1.2191 -0.3067 -2.0385
  102MPD2     C 1585   3.092   2.594  13.644  0.3601  0.4167 -0.4657
  102MPD2    C1 1586   3.096   2.712  13.578  0.2271  0.5720 -0.3256
  102MPD2    C2 1587   3.039   2.825  13.628 -0.1934  0.4592  0.1726
  102MPD2    C3 1588   2.999   2.824  13.761 -0.8498  0.0773 -0.1253
  102MPD2    C4 1589   2.998   2.701  13.829 -0.1357  0.0964 -0.3583
  102MPD2    C5 1590   3.051   2.588  13.771  1.5504  0.0520 -0.2944
  102MPD2     H 1591   3.027   2.915  13.569  0.8005  1.9113  2.1857
  102MPD2    H1 1592   2.972   2.691  13.934 -1.7494  0.7019 -0.6947
  102MPD2    H2 1593   3.133   2.510  13.589  2.0539 -0.2869  1.8841
  102MPD2    H3 1594   3.060   2.497  13.830  2.0167 -0.5312 -1.2657
  102MPD2     N 1595   2.948   2.941  13.820  0.6498 -0.3402  0.4884
  102MPD2    H5 1596   2.960   3.034  13.781  3.4224 -0.3357  1.3372
  102MPD2    N1 1597   3.160   2.713  13.447  0.1333  0.0818 -0.2543
  102MPD2    H7 1598   3.203   2.626  13.418 -2.0293 -0.8830 -0.5641
  103TMC2    C1 1599   1.276   3.127  12.237 -0.9940 -0.2821  0.0146
  103TMC2    C2 1600   1.349   3.031  12.303  0.4715  0.5202 -0.3285
  103TMC2    C3 1601   1.440   3.073  12.402 -1.0314  0.5741 -0.1081
  103TMC2    C4 1602   1.290   3.261  12.273 -0.1272  0.4861  0.4354
  103TMC2    C5 1603   1.368   3.287  12.380  0.1496  0.0227  0.0881
  103TMC2    C6 1604   1.450   3.199  12.443 -0.0975 -0.4201  0.5945
  103TMC2     C 1605   1.229   3.086  12.102  0.2758  0.3851  0.4732
  103TMC2     O 1606   1.210   3.180  12.023 -0.2761 -0.2709  0.5632
  103TMC2     H 1607   1.310   2.930  12.303  0.6332  0.4569 -1.2621
  103TMC2    H1 1608   1.218   3.334  12.240 -0.1088 -0.1263 -0.9946
  103TMC2    H2 1609   1.521   3.224  12.521  2.6756 -0.6829 -1.8332
  103TMC2    C7 1610   1.368   3.421  12.446 -0.5435  0.0250 -0.1480
  103TMC2    C8 1611   1.524   2.977  12.461  0.0232  1.0122 -0.1680
  103TMC2    O1 1612   1.379   3.424  12.565 -0.0027  0.2615 -0.1985
  103TMC2    O2 1613   1.569   2.970  12.574  0.4205 -0.3110 -0.6842
  103TMC2    O5 1614   1.575   2.909  12.354 -0.5430 -0.2709 -0.1476
  103TMC2    H5 1615   1.535   2.942  12.271  2.4369  0.2107 -1.4119
  104MPD2     C 1616   1.150   2.748  11.972 -1.1806  0.0222 -0.0651
  104MPD2    C1 1617   1.162   2.889  11.967 -0.6767  0.1481 -0.6186
  104MPD2    C2 1618   1.140   2.951  11.846  0.3745  0.0998  1.2444
  104MPD2    C3 1619   1.097   2.881  11.743 -0.3724  0.4629 -0.1022
  104MPD2    C4 1620   1.070   2.748  11.753  0.0913  0.8388 -0.5417
  104MPD2    C5 1621   1.111   2.681  11.861  0.5004 -0.5338 -0.7162
  104MPD2     H 1622   1.135   3.059  11.847 -1.4309  0.0465 -0.9503
  104MPD2    H1 1623   1.036   2.683  11.673  0.3622 -0.5163  0.4468
  104MPD2    H2 1624   1.185   2.695  12.060  0.2474  0.8931 -0.1218
  104MPD2    H3 1625   1.115   2.573  11.850 -1.9794 -0.9607  2.3933
  104MPD2     N 1626   1.065   2.958  11.629 -0.1407 -0.2471 -0.0092
  104MPD2    H5 1627   1.087   3.055  11.646 -0.5601 -0.2121  0.3362
  104MPD2    N1 1628   1.208   2.946  12.086  0.1739  0.9253  0.3938
  104MPD2    H7 1629   1.211   2.891  12.172 -0.0731 -0.1650 -0.2982
  105TMC2    C1 1630   2.786   3.149   0.526  0.0649 -0.3195 -0.6223
  105TMC2    C2 1631   2.835   3.277   0.515  0.4429  0.1506  0.7420
  105TMC2    C3 1632   2.751   3.387   0.532  0.4014  0.0623  0.0661
  105TMC2    C4 1633   2.654   3.136   0.561  0.6469 -0.1992  0.5210
  105TMC2    C5 1634   2.583   3.241   0.606 -0.0252  0.0728  0.5717
  105TMC2    C6 1635   2.630   3.368   0.596  0.1386  0.3467 -0.2219
  105TMC2     C 1636   2.838   3.037   0.462  0.0534  0.4582 -0.1321
  105TMC2     O 1637   2.795   2.929   0.493  0.1469 -0.4858  0.3411
  105TMC2     H 1638   2.936   3.302   0.486  0.0565 -0.9304 -1.5137
  105TMC2    H1 1639   2.617   3.034   0.563 -0.0787  0.0721  1.0011
  105TMC2    H2 1640   2.578   3.455   0.633  0.6498  0.8301 -0.6412
  105TMC2    C7 1641   2.457   3.230   0.666 -0.3914 -0.1840 -0.1231
  105TMC2    C8 1642   2.808   3.518   0.521  0.4986 -0.4943  0.3930
  105TMC2    O1 1643   2.431   3.304   0.760 -0.2179  1.4489 -0.1448
  105TMC2    O2 1644   2.788   3.606   0.601  0.3828 -0.5294  0.0385
  105TMC2    O5 1645   2.852   3.536   0.393  0.1314 -0.1593  0.2048
  105TMC2    H5 1646   2.883   3.453   0.353 -2.8637 -0.9094 -0.5351
  106MPD2     C 1647   3.135   2.827   0.095 -0.0786 -0.1676 -0.2351
  106MPD2    C1 1648   3.142   2.964   0.092  0.4342  0.6801  0.1391
  106MPD2    C2 1649   3.077   3.029   0.190  0.2953  0.2838  0.5207
  106MPD2    C3 1650   2.999   2.977   0.281 -0.0731  0.3746  0.2390
  106MPD2    C4 1651   2.991   2.842   0.294 -0.5987  0.0287 -0.6902
  106MPD2    C5 1652   3.056   2.767   0.196  0.1291 -0.3362  0.7743
  106MPD2     H 1653   3.087   3.135   0.169  0.3108  0.1434 -0.1830
  106MPD2    H1 1654   2.915   2.796   0.356 -1.2388 -0.0423 -1.5339
  106MPD2    H2 1655   3.164   2.765   0.011  2.2325  1.6328 -0.7475
  106MPD2    H3 1656   3.032   2.662   0.194 -1.4488  0.0094  1.7285
  106MPD2     N 1657   2.919   3.065   0.356  0.1355 -0.1020  0.3867
  106MPD2    H5 1658   2.929   3.163   0.332  0.9387 -0.4777 -0.8331
  106MPD2    N1 1659   3.218   3.041  17.733 -0.3295 -0.2863 -0.2879
  106MPD2    H7 1660   3.228   3.140   0.012 -1.1950 -0.5451  1.5609
  107TMC2    C1 1661   3.045   2.421  11.654 -0.0078  0.3552 -0.1374
  107TMC2    C2 1662   2.995   2.399  11.524 -1.1578 -0.2205 -0.0030
  107TMC2    C3 1663   3.069   2.316  11.441 -0.4696 -0.0936  0.0085
  107TMC2    C4 1664   3.161   2.363  11.697 -0.1624 -0.3692  0.2077
  107TMC2    C5 1665   3.234   2.293  11.610 -0.0807 -0.2595  0.2299
  107TMC2    C6 1666   3.188   2.265  11.481 -0.4489  0.1209 -0.0959
  107TMC2     C 1667   2.974   2.515  11.745 -0.1571 -0.8143 -0.3739
  107TMC2     O 1668   2.984   2.495  11.865  0.2813 -0.1219 -0.8102
  107TMC2     H 1669   2.899   2.442  11.497 -1.5114 -1.6964 -1.1344
  107TMC2    H1 1670   3.202   2.395  11.792  0.4142 -0.9177  0.1376
  107TMC2    H2 1671   3.239   2.198  11.412  0.7257 -0.1038  0.9790
  107TMC2    C7 1672   3.349   2.228  11.656 -0.2679 -0.2185  0.3036
  107TMC2    C8 1673   3.052   2.320  11.295  0.0840  0.2816  0.0832
  107TMC2    O1 1674   3.357   2.239  11.778  0.1893  0.0590  0.1595
  107TMC2    O2 1675   3.150   2.307  11.220  0.1748 -0.0291  0.0206
  107TMC2    O5 1676   2.929   2.371  11.272 -0.5119  0.0287 -0.0385
  107TMC2    H5 1677   2.863   2.332  11.334  1.3650  0.2928  2.1564
  108MPD2     C 1678   2.771   2.817  11.675  0.2008  0.2209 -0.3129
  108MPD2    C1 1679   2.830   2.715  11.755  0.0535 -0.2460 -0.4329
  108MPD2    C2 1680   2.797   2.707  11.891 -0.3136  0.7921  0.4549
  108MPD2    C3 1681   2.709   2.803  11.944  0.5978  0.8060  0.8720
  108MPD2    C4 1682   2.652   2.895  11.861  0.2505  0.4922  0.1650
  108MPD2    C5 1683   2.690   2.907  11.732  1.1488  0.6937 -0.1620
  108MPD2     H 1684   2.841   2.635  11.958 -2.4669  1.0911  2.1957
  108MPD2    H1 1685   2.588   2.969  11.906 -0.9141 -0.4301  0.0087
  108MPD2    H2 1686   2.801   2.824  11.571  0.9783 -1.0202 -0.1784
  108MPD2    H3 1687   2.653   2.992  11.676 -0.5664 -0.0064 -0.1072
  108MPD2     N 1688   2.668   2.810  12.078  0.5165  0.0642 -0.3202
  108MPD2    H5 1689   2.592   2.875  12.096  0.4247  0.3578 -1.7701
  108MPD2    N1 1690   2.908   2.620  11.687 -0.1368  0.4784  0.2180
  108MPD2    H7 1691   2.923   2.635  11.588 -1.2565  0.7195  0.0819
  109TMC2    C1 1692   3.440   4.315   1.342 -0.4050 -0.4403  0.7978
  109TMC2    C2 1693   3.475   4.187   1.366 -0.9071 -0.2839 -0.3414
  109TMC2    C3 1694   3.606   4.145   1.345  0.0799 -0.0792 -1.0690
  109TMC2    C4 1695   3.537   4.402   1.317 -0.5412  0.1859 -0.3273
  109TMC2    C5 1696   3.669   4.361   1.298 -0.2047 -0.6832  0.7687
  109TMC2    C6 1697   3.704   4.233   1.312 -0.6568  0.0661  0.0424
  109TMC2     C 1698   3.309   4.355   1.392  0.4778  0.0450 -0.1069
  109TMC2     O 1699   3.235   4.271   1.435  0.2820  0.6789 -0.6930
  109TMC2     H 1700   3.398   4.124   1.408  0.0793  0.9951  3.3683
  109TMC2    H1 1701   3.519   4.508   1.299  0.8685  0.2466 -1.3592
  109TMC2    H2 1702   3.802   4.192   1.290 -1.4891 -2.0561  0.2907
  109TMC2    C7 1703   3.750   4.446   1.205 -0.8962  0.1329 -1.0122
  109TMC2    C8 1704   3.645   4.022   1.399 -0.4014 -0.0531 -0.3246
  109TMC2    O1 1705   3.700   4.548   1.161  0.0449 -0.0875  0.2674
  109TMC2    O2 1706   3.764   4.002   1.430 -0.2133  1.1189 -0.6540
  109TMC2    O5 1707   3.547   3.930   1.389 -0.0288 -0.3569 -0.0911
  109TMC2    H5 1708   3.466   3.967   1.350  0.3977 -1.9114 -2.4166
  110MPD2     C 1709   3.002   4.707   1.583  0.3173 -0.4529  0.8972
  110MPD2    C1 1710   3.065   0.031   1.478  0.3771  0.1384 -0.5298
  110MPD2    C2 1711   3.179   4.705   1.423 -0.6361 -0.1262  0.6220
  110MPD2    C3 1712   3.203   4.566   1.456 -1.0044 -0.0085  0.1547
  110MPD2    C4 1713   3.143   4.518   1.568  0.1682 -0.1771 -0.0470
  110MPD2    C5 1714   3.048   4.588   1.629  1.1197  0.6293  0.1704
  110MPD2     H 1715   3.227   0.010   1.335 -0.5596  0.1940  0.8096
  110MPD2    H1 1716   3.170   4.421   1.607 -0.5511 -0.1102  0.6270
  110MPD2    H2 1717   2.928   0.024   1.643 -0.6839 -0.6332 -0.1802
  110MPD2    H3 1718   2.992   4.546   1.712 -3.7225  1.3535 -2.6865
  110MPD2     N 1719   3.295   4.489   1.382 -0.0736 -0.4362  0.0928
  110MPD2    H5 1720   3.347   4.530   1.305 -0.5256 -2.2043 -1.1576
  110MPD2    N1 1721   3.030   0.164   1.449  0.0674  0.0768  0.4992
  110MPD2    H7 1722   2.961   0.203   1.512 -0.9774 -2.3075  0.8254
  111TMC2    C1 1723   3.666   4.580  12.129  0.5853 -0.1363  0.4971
  111TMC2    C2 1724   3.619   4.631  12.250 -0.2203  0.2977 -0.5080
  111TMC2    C3 1725   3.672   4.586  12.370  0.2304  0.4635 -0.1533
  111TMC2    C4 1726   3.756   4.471  12.132  0.3785 -0.2860  0.2051
  111TMC2    C5 1727   3.799   4.431  12.257 -0.2987  0.4246 -0.2039
  111TMC2    C6 1728   3.767   4.495  12.375  0.6477  0.4089 -0.5748
  111TMC2     C 1729   3.612   4.620  12.007 -0.6181 -0.0349  0.2462
  111TMC2     O 1730   3.669   4.578  11.908 -0.2070  0.3939  0.6145
  111TMC2     H 1731   3.549   4.712  12.263 -0.2015  0.3158 -0.5192
  111TMC2    H1 1732   3.786   4.417  12.043 -2.6062 -0.6319 -0.5921
  111TMC2    H2 1733   3.822   4.466  12.464 -1.0359  1.2829  0.7472
  111TMC2    C7 1734   3.841   4.297  12.269  0.5317 -0.0277 -0.6326
  111TMC2    C8 1735   3.591   4.600  12.482  0.1363 -0.1964 -0.4260
  111TMC2    O1 1736   3.826   4.247  12.383  1.1371 -0.0826  0.4717
  111TMC2    O2 1737   3.513   4.688  12.508 -0.2954 -0.3980 -0.3641
  111TMC2    O5 1738   3.587   4.474  12.532 -0.3710 -0.2234  0.3231
  111TMC2    H5 1739   3.602   4.408  12.461  0.8763 -1.7441  2.0263
  112MPD2     C 1740   3.436   0.301  11.749 -0.8750  0.6098  0.1510
  112MPD2    C1 1741   3.504   0.187  11.704 -0.0634 -0.1614 -0.8247
  112MPD2    C2 1742   3.546   0.088  11.791  0.4285  0.0610  0.6417
  112MPD2    C3 1743   3.509   0.095  11.928  0.0530  0.1626  0.1281
  112MPD2    C4 1744   3.430   0.201  11.967  0.2681 -0.0594  0.2375
  112MPD2    C5 1745   3.393   0.302  11.882 -0.3209 -0.3013  0.4612
  112MPD2     H 1746   3.592   0.004  11.740  2.1819  1.1453  0.4392
  112MPD2    H1 1747   3.390   0.214  12.067  1.3757  0.7805  0.5786
  112MPD2    H2 1748   3.409   0.388  11.689 -1.1912  0.2594 -0.2131
  112MPD2    H3 1749   3.330   0.379  11.924 -1.0963  0.0332 -1.2862
  112MPD2     N 1750   3.536   4.731  12.025  0.0963 -0.1825  0.3381
  112MPD2    H5 1751   3.513   0.019  12.121  0.9582  1.5566  0.1347
  112MPD2    N1 1752   3.545   0.184  11.569 -0.6611  0.3249  0.3234
  112MPD2    H7 1753   3.610   0.114  11.537 -1.0209 -0.8376  2.1806
  113TMC2    C1 1754   2.107   1.718   0.490 -0.2540  0.3597  0.3869
  113TMC2    C2 1755   2.189   1.611   0.446  0.6172  0.0336 -0.1554
  113TMC2    C3 1756   2.131   1.504   0.375 -0.2984 -0.2090 -0.2437
  113TMC2    C4 1757   1.976   1.720   0.463  0.4656 -0.4959  0.3743
  113TMC2    C5 1758   1.921   1.618   0.394 -0.0491  0.5899  0.1344
  113TMC2    C6 1759   1.999   1.514   0.336  0.1753 -0.7575  0.3465
  113TMC2     C 1760   2.164   1.840   0.544  0.3651 -0.3016  0.2040
  113TMC2     O 1761   2.079   1.916   0.588 -0.2444 -0.1828  0.0675
  113TMC2     H 1762   2.290   1.611   0.484  0.2856 -0.7342  0.7380
  113TMC2    H1 1763   1.908   1.799   0.492  1.3842  0.0058  1.1386
  113TMC2    H2 1764   1.937   1.427   0.315 -2.3115  0.9050  0.7004
  113TMC2    C7 1765   1.773   1.615   0.381 -0.1561 -0.2107 -0.7194
  113TMC2    C8 1766   2.218   1.414   0.310  0.4388 -0.0914 -0.3176
  113TMC2    O1 1767   1.731   1.579   0.274 -0.6810  0.1712  0.6559
  113TMC2    O2 1768   2.337   1.398   0.341  0.0004  0.0938  0.0125
  113TMC2    O5 1769   2.155   1.355   0.206  0.5754  0.6491 -0.2493
  113TMC2    H5 1770   2.066   1.391   0.189 -0.0472  0.0155  1.6756
  114MPD2     C 1771   2.500   2.083   0.832 -0.1071  0.4909  0.0050
  114MPD2    C1 1772   2.363   2.110   0.815 -0.7115  0.0547 -0.3274
  114MPD2    C2 1773   2.299   2.039   0.710 -0.3120 -0.6359 -0.0578
  114MPD2    C3 1774   2.366   1.936   0.638 -0.1854  0.4346 -0.3078
  114MPD2    C4 1775   2.499   1.907   0.673 -0.0258 -0.8107 -0.0217
  114MPD2    C5 1776   2.562   1.987   0.766  0.1486  0.0505 -0.2279
  114MPD2     H 1777   2.195   2.062   0.694  0.2516  1.8251 -0.2966
  114MPD2    H1 1778   2.567   1.832   0.634  1.2153  1.9737 -3.1963
  114MPD2    H2 1779   2.557   2.138   0.906  1.9406 -0.2500 -0.9871
  114MPD2    H3 1780   2.669   1.980   0.781  0.4840 -2.5597 -3.6659
  114MPD2     N 1781   2.303   1.855   0.546  0.3667  0.1055  0.3784
  114MPD2    H5 1782   2.357   1.788   0.493  0.2264  0.5996 -0.3939
  114MPD2    N1 1783   2.288   2.211   0.879  0.8254  0.1261 -0.4187
  114MPD2    H7 1784   2.195   2.230   0.844  1.2863  1.6574 -0.8261
  115TMC2    C1 1785   2.378   0.470   0.210 -0.3007 -0.4885  0.3604
  115TMC2    C2 1786   2.243   0.506   0.235 -0.1991 -0.4172  0.5144
  115TMC2    C3 1787   2.227   0.618   0.310  0.8849  0.5629  0.1132
  115TMC2    C4 1788   2.483   0.547   0.256 -0.2479 -0.4463 -0.8122
  115TMC2    C5 1789   2.450   0.654   0.332  0.4006  0.9062 -0.1366
  115TMC2    C6 1790   2.321   0.695   0.359  0.1947 -0.1176 -0.2721
  115TMC2     C 1791   2.399   0.346   0.145 -0.3654 -0.1693  0.1233
  115TMC2     O 1792   2.294   0.287   0.121 -0.0030  0.1576 -0.3210
  115TMC2     H 1793   2.163   0.464   0.175 -1.3551  1.5627  0.6743
  115TMC2    H1 1794   2.583   0.513   0.231  0.4461  1.3210 -0.4492
  115TMC2    H2 1795   2.287   0.783   0.413  2.7883  0.7457 -0.0243
  115TMC2    C7 1796   2.555   0.746   0.367  0.1469 -0.3861  0.0667
  115TMC2    C8 1797   2.088   0.656   0.331  0.0383  0.0237  0.1097
  115TMC2    O1 1798   2.542   0.805   0.477  0.2388  0.3514 -0.0269
  115TMC2    O2 1799   2.036   0.764   0.309  0.0656 -0.2737 -0.1914
  115TMC2    O5 1800   2.023   0.536   0.328 -0.6028  0.2443 -0.2111
  115TMC2    H5 1801   2.076   0.460   0.360  0.6233  0.9361 -0.6004
  116MPD2     C 1802   2.700   4.674   0.021 -0.3683 -0.5281  0.3829
  116MPD2    C1 1803   2.560   4.683   0.041  0.2958  0.3846  0.1299
  116MPD2    C2 1804   2.508   0.069   0.077 -0.0082  0.5183  0.5314
  116MPD2    C3 1805   2.589   0.185   0.084  0.9545  0.2092 -0.5792
  116MPD2    C4 1806   2.721   0.174   0.054  0.1859  0.0515  0.0165
  116MPD2    C5 1807   2.779   0.050   0.027  0.1489  0.4174  0.0150
  116MPD2     H 1808   2.403   0.073   0.104 -0.5907  0.2134 -1.7235
  116MPD2    H1 1809   2.780   0.264   0.053  0.2839 -0.0233 -1.8825
  116MPD2    H2 1810   2.741   4.575   0.002 -1.4053 -0.7832 -0.4827
  116MPD2    H3 1811   2.885   0.047   0.004 -0.0045 -2.3561 -0.3616
  116MPD2     N 1812   2.537   0.312   0.121  0.3295 -0.3829  0.0053
  116MPD2    H5 1813   2.610   0.382   0.126  1.2739 -1.4847  1.4680
  116MPD2    N1 1814   2.483   4.564   0.025 -0.2185  0.2709  0.0757
  116MPD2    H7 1815   2.536   4.487  17.724 -1.3102 -0.2950 -0.2682
  117TMC2    C1 1816   1.584   1.558  14.042  0.3193  0.9617  0.0021
  117TMC2    C2 1817   1.705   1.555  13.970 -0.2636  0.4371  0.5011
  117TMC2    C3 1818   1.741   1.678  13.927  0.3630 -0.0375  1.1483
  117TMC2    C4 1819   1.500   1.666  14.054  0.1992 -0.0237  0.0552
  117TMC2    C5 1820   1.545   1.785  14.012  0.6940  0.3610 -0.2584
  117TMC2    C6 1821   1.666   1.791  13.943 -0.4767 -0.2826  0.2798
  117TMC2     C 1822   1.525   1.427  14.067  0.1071  0.3250  0.0931
  117TMC2     O 1823   1.602   1.334  14.078  0.0624  0.0610  0.2235
  117TMC2     H 1824   1.762   1.464  13.955 -2.6693 -1.1475  0.9372
  117TMC2    H1 1825   1.404   1.657  14.103  0.6553 -0.2461  0.9204
  117TMC2    H2 1826   1.698   1.884  13.897 -0.6730 -0.4269 -0.1474
  117TMC2    C7 1827   1.461   1.903  14.015  0.3241  0.5384 -0.0430
  117TMC2    C8 1828   1.871   1.695  13.865 -0.1282  0.3202  0.6939
  117TMC2    O1 1829   1.525   2.007  14.013  0.7347 -0.0371 -1.0234
  117TMC2    O2 1830   1.890   1.782  13.778 -0.0404  0.1334  0.2177
  117TMC2    O5 1831   1.961   1.616  13.922  0.8600  0.7277 -0.3071
  117TMC2    H5 1832   1.928   1.557  13.993  3.3675  0.9568  1.0425
  118MPD2     C 1833   1.090   1.953  14.023 -0.4919  0.0262  0.3166
  118MPD2    C1 1834   1.224   1.989  14.023 -0.3400  0.6353 -0.1905
  118MPD2    C2 1835   1.252   2.121  14.039  0.1166  0.4628 -0.4320
  118MPD2    C3 1836   1.157   2.216  14.050  0.5130 -0.1756  0.3059
  118MPD2    C4 1837   1.023   2.178  14.045  0.3073 -0.2025 -0.4585
  118MPD2    C5 1838   0.989   2.046  14.034  0.2004 -0.0292  0.0863
  118MPD2     H 1839   1.355   2.155  14.047  0.3993 -0.4990  0.0715
  118MPD2    H1 1840   0.940   2.247  14.048  1.1864  0.7560  1.6587
  118MPD2    H2 1841   1.060   1.848  14.029 -1.1993  0.2962  1.6303
  118MPD2    H3 1842   0.886   2.013  14.027 -0.1079  0.6537  1.4399
  118MPD2     N 1843   1.186   2.355  14.076 -0.3270  0.1241 -0.1170
  118MPD2    H5 1844   1.105   2.410  14.101 -0.5568 -0.0678 -0.4413
  118MPD2    N1 1845   1.324   1.883  14.022 -0.1294  0.3099  0.3988
  118MPD2    H7 1846   1.288   1.789  14.014  0.3806  0.2492 -1.2999
  119TMC2    C1 1847   3.971   2.802  13.350  0.5682  0.0063  0.4863
  119TMC2    C2 1848   3.947   2.907  13.262 -0.2918  0.4502 -0.0540
  119TMC2    C3 1849   3.879   3.012  13.319 -0.1004 -0.5672  0.4823
  119TMC2    C4 1850   3.928   2.785  13.479  0.3474 -0.1577 -0.1052
  119TMC2    C5 1851   3.850   2.885  13.521 -0.1564 -0.3272 -0.5750
  119TMC2    C6 1852   3.834   3.003  13.449 -0.2660 -0.4696 -0.5133
  119TMC2     C 1853   4.043   2.678  13.303  0.6397 -0.4224  0.4799
  119TMC2     O 1854   3.982   2.574  13.327  0.2134  0.2647 -0.1054
  119TMC2     H 1855   3.968   2.901  13.156 -2.0836  0.6226 -0.4175
  119TMC2    H1 1856   3.971   2.702  13.533  3.2874  1.0839 -0.5707
  119TMC2    H2 1857   3.771   3.085  13.480  1.6240  0.6914  0.2317
  119TMC2    C7 1858   3.800   2.887  13.655  0.1507 -0.0397 -0.0443
  119TMC2    C8 1859   3.835   3.111  13.231  0.0166  0.9135  0.6452
  119TMC2    O1 1860   3.774   2.997  13.703 -0.1671 -0.0472  0.3402
  119TMC2    O2 1861   3.754   3.091  13.142  0.1700  0.5748  0.0954
  119TMC2    O5 1862   3.897   3.227  13.274  0.4210  0.5802 -0.1940
  119TMC2    H5 1863   3.974   3.193  13.324  1.3601  3.5646  0.3467
  120MPD2     C 1864   4.472   2.989  13.264 -0.0851  0.1546  0.0027
  120MPD2    C1 1865   4.355   3.022  13.321 -0.4486 -0.0229 -0.2377
  120MPD2    C2 1866   4.253   2.927  13.320  0.2335 -0.0307 -0.3619
  120MPD2    C3 1867   4.267   2.804  13.256 -0.4595 -0.2194 -0.0293
  120MPD2    C4 1868   4.388   2.775  13.194  0.3295  0.6453  0.4116
  120MPD2    C5 1869   4.488   2.867  13.202 -0.4453 -0.1685 -0.0451
  120MPD2     H 1870   4.162   2.953  13.371  0.6866 -0.5107  0.6843
  120MPD2    H1 1871   4.412   2.685  13.138 -0.8811  1.1553 -0.9235
  120MPD2    H2 1872   4.554   3.060  13.274 -0.7368  0.8703  0.2144
  120MPD2    H3 1873   4.579   2.849  13.146 -1.4678 -1.0665 -1.4098
  120MPD2     N 1874   4.178   2.691  13.262 -0.4486  0.1289  0.1910
  120MPD2    H5 1875   4.229   2.612  13.222 -2.4677 -1.6125  1.0263
  120MPD2    N1 1876   4.348   3.152  13.381 -0.2609  0.0985 -0.6215
  120MPD2    H7 1877   4.430   3.208  13.398 -1.3430  1.5099 -0.0505
  121TMC2    C1 1878   1.334   4.498  14.312  0.9011 -0.7422 -0.0899
  121TMC2    C2 1879   1.405   4.439  14.415 -0.3636  0.1843  0.6425
  121TMC2    C3 1880   1.370   4.313  14.453  0.8175 -0.1667  0.2186
  121TMC2    C4 1881   1.235   4.427  14.248 -0.2025  0.3538  0.2533
  121TMC2    C5 1882   1.213   4.299  14.285 -0.3584 -0.0527  0.3855
  121TMC2    C6 1883   1.274   4.237  14.389 -0.3306  0.8565  0.5255
  121TMC2     C 1884   1.362   4.645  14.295  0.1717  0.5989  0.5743
  121TMC2     O 1885   1.398   4.712  14.390 -0.9424 -0.1695 -0.0320
  121TMC2     H 1886   1.483   4.500  14.460  0.6705 -1.4167  0.9871
  121TMC2    H1 1887   1.196   4.477  14.161 -1.7662 -0.7197  0.3352
  121TMC2    H2 1888   1.254   4.132  14.405 -0.1260  0.8462  0.7121
  121TMC2    C7 1889   1.114   4.224  14.214  0.0333 -0.1564 -0.0573
  121TMC2    C8 1890   1.431   4.258  14.564  0.0142 -0.4272  0.1850
  121TMC2    O1 1891   1.109   4.102  14.224  0.1440 -0.2642 -0.8830
  121TMC2    O2 1892   1.539   4.302  14.607  0.1613 -0.1370 -0.0800
  121TMC2    O5 1893   1.331   4.205  14.645 -0.4637 -0.0139 -0.3549
  121TMC2    H5 1894   1.238   4.197  14.616 -1.0702  2.6702  0.8981
  122MPD2     C 1895   1.367   0.187  14.203 -0.2900  0.0753  0.4529
  122MPD2    C1 1896   1.381   0.074  14.123 -0.4027 -0.5424 -0.4875
  122MPD2    C2 1897   1.417   0.097  13.989  0.4681  0.0578  0.2575
  122MPD2    C3 1898   1.432   0.217  13.933 -0.8217  0.1272 -0.6171
  122MPD2    C4 1899   1.412   0.328  14.014  0.5958  0.8546 -1.1261
  122MPD2    C5 1900   1.380   0.312  14.151  0.3455 -1.0983 -0.2057
  122MPD2     H 1901   1.428   0.005  13.934 -1.0710  1.1142 -1.8080
  122MPD2    H1 1902   1.395   0.429  13.981 -0.9690  0.7276 -0.7286
  122MPD2    H2 1903   1.350   0.176  14.310  0.3161  0.7243  0.6117
  122MPD2    H3 1904   1.361   0.402  14.208  1.6168 -2.6438  2.6511
  122MPD2     N 1905   1.455   0.239  13.799  0.8044  0.2007  0.7328
  122MPD2    H5 1906   1.457   0.334  13.762 -0.0875  0.9811  2.7314
  122MPD2    N1 1907   1.359   4.679  14.165 -0.3407  0.0257 -0.2493
  122MPD2    H7 1908   1.363   4.604  14.096 -1.5789 -0.9114  0.6882
  123TMC2    C1 1909   4.228   2.799  10.400  0.0288  0.2273 -0.1908
  123TMC2    C2 1910   4.329   2.881  10.360  0.1044  0.3191  0.1120
  123TMC2    C3 1911   4.315   2.946  10.242 -0.9902  0.3133 -0.0221
  123TMC2    C4 1912   4.113   2.801  10.333 -0.4182  0.0834  0.0791
  123TMC2    C5 1913   4.111   2.850  10.206 -0.2094  0.3012  0.1126
  123TMC2    C6 1914   4.211   2.921  10.153 -0.6889  0.5974 -0.7601
  123TMC2     C 1915   4.244   2.703  10.510  0.3049 -0.0798  0.1258
  123TMC2     O 1916   4.346   2.712  10.575 -0.7397  0.1886  0.4660
  123TMC2     H 1917   4.412   2.893  10.429 -0.0226 -0.3194  0.3796
  123TMC2    H1 1918   4.024   2.754  10.375  0.5330 -2.3563 -0.6339
  123TMC2    H2 1919   4.204   2.977  10.061 -3.7188 -1.2075 -1.6472
  123TMC2    C7 1920   3.986   2.832  10.129 -0.0266 -0.7335  0.4342
  123TMC2    C8 1921   4.397   3.057  10.211 -0.3445 -0.2982 -0.3369
  123TMC2    O1 1922   3.900   2.777  10.187  0.4349 -0.4749  0.4339
  123TMC2    O2 1923   4.394   3.147  10.285 -0.3224  0.5125  0.4783
  123TMC2    O5 1924   4.440   3.059  10.082  0.4902 -0.0833  0.2355
  123TMC2    H5 1925   4.448   2.970  10.041  1.1800  0.1559 -0.1500
  124MPD2     C 1926   4.042   2.362  10.822 -0.1401  0.1615 -0.4662
  124MPD2    C1 1927   3.965   2.365  10.713  0.0761 -0.4881  0.0105
  124MPD2    C2 1928   4.003   2.447  10.605 -0.6979 -0.5499  0.0734
  124MPD2    C3 1929   4.113   2.531  10.620  0.1412  0.3790  0.3092
  124MPD2    C4 1930   4.176   2.534  10.744 -0.6162 -0.1041  0.4817
  124MPD2    C5 1931   4.143   2.446  10.838  0.2274  0.0401  0.0015
  124MPD2     H 1932   3.968   2.463  10.503  0.7326 -0.5820 -0.4259
  124MPD2    H1 1933   4.267   2.592  10.759  0.5552 -1.8109  0.0135
  124MPD2    H2 1934   4.027   2.297  10.908  1.4812  1.9520  1.1814
  124MPD2    H3 1935   4.193   2.452  10.935 -0.8283 -0.2984  0.5674
  124MPD2     N 1936   4.139   2.614  10.511  0.1068 -0.2475 -0.1010
  124MPD2    H5 1937   4.075   2.609  10.433  1.9611  1.1926 -1.7185
  124MPD2    N1 1938   3.857   2.274  10.697  0.0800  0.1787  0.3138
  124MPD2    H7 1939   3.864   2.188  10.752 -0.4088 -0.0921 -0.0399
  125TMC2    C1 1940   0.300   3.916  10.041 -0.0274 -0.3914 -0.1096
  125TMC2    C2 1941   0.251   4.010  10.131  0.0764  0.2491  0.3527
  125TMC2    C3 1942   0.299   4.133  10.120  0.4257  0.5049  0.1405
  125TMC2    C4 1943   0.396   3.944   9.952 -0.2899 -0.3446  0.5102
  125TMC2    C5 1944   0.459   4.063   9.958 -0.9859 -0.6777 -0.3687
  125TMC2    C6 1945   0.416   4.162  10.043 -0.1988 -0.3118 -0.0037
  125TMC2     C 1946   0.241   3.782  10.039  0.4129  0.6365  0.1506
  125TMC2     O 1947   0.300   3.706   9.965  0.7406 -0.4615  0.7478
  125TMC2     H 1948   0.184   3.976  10.209  0.5737 -0.5950  0.4154
  125TMC2    H1 1949   0.437   3.870   9.884  3.7887  2.9838 -0.6640
  125TMC2    H2 1950   0.468   4.257  10.057  1.5663 -1.6329  2.4088
  125TMC2    C7 1951   0.584   4.077   9.884  0.0201  0.6525  0.2294
  125TMC2    C8 1952   0.270   4.229  10.223 -0.0825 -0.5128 -0.2236
  125TMC2    O1 1953   0.610   3.983   9.811  0.6380  0.0034 -0.2215
  125TMC2    O2 1954   0.343   4.320  10.257  0.6495  0.3935  0.8512
  125TMC2    O5 1955   0.140   4.215  10.252  0.0765  0.1122  0.7552
  125TMC2    H5 1956   0.102   4.131  10.219  2.6569 -0.7850  0.0128
  126MPD1     C 1957   4.694   3.424  10.254 -0.1151 -0.3972  0.0510
  126MPD1    C1 1958   4.641   3.543  10.304  0.0771  0.1339  0.6638
  126MPD1    C2 1959   4.699   3.661  10.249  0.0608 -0.4475  0.1421
  126MPD1    C3 1960   0.066   3.653  10.153  0.2145  0.2627  0.0914
  126MPD1    C4 1961   0.117   3.530  10.116  0.2102  0.7641 -0.5155
  126MPD1    C5 1962   0.062   3.416  10.166 -0.4340  0.4139 -0.4239
  126MPD1     H 1963   4.665   3.763  10.264 -0.7963 -0.9423  1.5808
  126MPD1    H1 1964   0.202   3.521  10.050 -0.2188  2.6659 -1.3162
  126MPD1    H2 1965   4.646   3.330  10.276 -1.2902  0.5659  1.6175
  126MPD1    H3 1966   0.105   3.320  10.140 -0.8803 -0.5345  2.3632
  126MPD1     N 1967   0.126   3.777  10.116 -0.2886 -0.3517 -0.5189
  126MPD1    H5 1968   0.087   3.865  10.147  2.2520  0.3062  0.8018
  126MPD1    N1 1969   4.523   3.540  10.380  0.3515  0.0984  0.3104
  126MPD1    H6 1970   4.518   3.623  10.438  1.1453 -0.3542  1.0236
  126MPD1    H7 1971   4.512   3.466  10.450  2.5708 -0.6088 -0.0904
  127TMC2    C1 1972   1.688   3.098  10.149  0.2802 -0.4219  0.1082
  127TMC2    C2 1973   1.665   3.099  10.284  0.0267  0.0535 -0.4500
  127TMC2    C3 1974   1.536   3.085  10.328  0.8104 -0.4281 -0.5093
  127TMC2    C4 1975   1.585   3.093  10.060 -0.1807  0.0553  0.4032
  127TMC2    C5 1976   1.460   3.057  10.113 -0.4487 -0.3805  0.2411
  127TMC2    C6 1977   1.430   3.049  10.247  0.1131 -0.2984  0.3725
  127TMC2     C 1978   1.813   3.152  10.100 -0.3101  0.1999  0.5151
  127TMC2     O 1979   1.828   3.184   9.985 -0.3402 -0.4866 -0.2349
  127TMC2     H 1980   1.731   3.135  10.363 -2.6742 -2.2454  2.8650
  127TMC2    H1 1981   1.602   3.110   9.954 -1.3816  0.5398  0.2924
  127TMC2    H2 1982   1.329   3.048  10.287  0.5063  0.9947  1.3977
  127TMC2    C7 1983   1.390   2.955  10.034 -0.5902  0.6371 -0.1544
  127TMC2    C8 1984   1.523   3.103  10.472 -0.6184  0.6379  0.0124
  127TMC2    O1 1985   1.442   2.890   9.947  0.5103  0.3288 -0.2858
  127TMC2    O2 1986   1.589   3.183  10.542  0.1959  0.6525 -1.0363
  127TMC2    O5 1987   1.422   3.034  10.522  0.2304 -0.1549 -0.4789
  127TMC2    H5 1988   1.385   2.964  10.464  2.4226 -0.6653 -1.2508
  128MPD2     C 1989   2.126   3.129  10.288 -0.0087  0.4794 -0.0976
  128MPD2    C1 1990   2.038   3.171  10.188  0.4355 -0.7106  0.6509
  128MPD2    C2 1991   2.085   3.262  10.090  0.0169 -0.2000  0.1016
  128MPD2    C3 1992   2.216   3.304  10.087  0.3880 -0.1211  0.6376
  128MPD2    C4 1993   2.298   3.248  10.180 -0.0405 -0.3926  0.3063
  128MPD2    C5 1994   2.253   3.166  10.279 -0.9161 -0.5949 -0.1295
  128MPD2     H 1995   2.017   3.305  10.018 -0.0863  0.5726  0.6549
  128MPD2    H1 1996   2.404   3.269  10.175 -0.6892  2.7239 -0.5111
  128MPD2    H2 1997   2.103   3.057  10.365  0.3450  1.7681  1.2007
  128MPD2    H3 1998   2.329   3.139  10.351 -0.8495 -0.8956 -0.3125
  128MPD2     N 1999   2.256   3.395   9.988  0.8016  0.0973 -1.0059
  128MPD2    H5 2000   2.189   3.412   9.914 -0.6171 -1.0013  0.0235
  128MPD2    N1 2001   1.903   3.124  10.193  0.4451  0.1041 -0.4897
  128MPD2    H7 2002   1.882   3.058  10.267  0.4886  0.5832 -0.0517
  129TMC2    C1 2003   3.992   0.046   1.404 -0.2536  0.5382  1.1582
  129TMC2    C2 2004   4.104   0.048   1.330 -0.0048  0.2313 -0.5057
  129TMC2    C3 2005   4.189   4.677   1.332 -0.0158 -0.7092  0.0087
  129TMC2    C4 2006   3.956   4.667   1.474 -0.0620 -0.1339  0.0513
  129TMC2    C5 2007   4.050   4.562   1.485 -0.3802  0.1908  0.0485
  129TMC2    C6 2008   4.168   4.562   1.405 -0.2848 -0.6878 -0.1053
  129TMC2     C 2009   3.910   0.167   1.407  0.1720  1.1584  0.5841
  129TMC2     O 2010   3.800   0.157   1.462  0.2784  0.0768  0.4774
  129TMC2     H 2011   4.129   0.139   1.276 -1.3305  1.0991  0.3325
  129TMC2    H1 2012   3.856   4.663   1.515 -0.1498  1.8149 -0.0098
  129TMC2    H2 2013   4.228   4.473   1.389  1.1369  0.7794 -3.0754
  129TMC2    C7 2014   4.019   4.434   1.542 -0.4306 -0.6108  0.8984
  129TMC2    C8 2015   4.309   4.685   1.250 -0.0420  0.9052  0.2027
  129TMC2    O1 2016   3.899   4.410   1.542  0.5177 -0.2213  0.2277
  129TMC2    O2 2017   4.327   0.006   1.145  0.2889  0.1806 -0.3769
  129TMC2    O5 2018   4.387   4.715   1.353  0.2001 -0.2809  0.4162
  129TMC2    H5 2019   4.358   4.668   1.435 -0.7888 -2.5036 -1.2089
  130MPD2     C 2020   3.773   0.435   1.385 -0.5162 -0.0652  0.4860
  130MPD2    C1 2021   3.908   0.415   1.377 -0.5666  0.3973 -0.3435
  130MPD2    C2 2022   3.989   0.523   1.359  0.9797 -0.6278  0.4475
  130MPD2    C3 2023   3.936   0.651   1.341 -0.0828  0.2611  0.4314
  130MPD2    C4 2024   3.802   0.670   1.358  1.0520 -0.2240 -0.3881
  130MPD2    C5 2025   3.720   0.559   1.383  0.3961  0.1408 -0.1072
  130MPD2     H 2026   4.095   0.506   1.350  0.8720 -0.0375 -1.9721
  130MPD2    H1 2027   3.760   0.770   1.358  0.9558 -0.2645 -0.4294
  130MPD2    H2 2028   3.702   0.353   1.399  2.5490 -2.7912 -0.0053
  130MPD2    H3 2029   3.613   0.572   1.384  0.3666 -0.0104 -0.8844
  130MPD2     N 2030   4.024   0.753   1.297 -0.1683 -0.3961  1.4846
  130MPD2    H5 2031   4.124   0.742   1.284 -0.7047 -2.7298 -0.6550
  130MPD2    N1 2032   3.967   0.283   1.371  0.2451 -0.4218  0.2165
  130MPD2    H7 2033   4.065   0.285   1.346  1.2524  0.1325  4.0834
  131TMC2    C1 2034   3.412   2.843   9.946 -0.3841 -0.2223 -0.0487
  131TMC2    C2 2035   3.335   2.859   9.838  0.4267 -0.5212  1.0642
  131TMC2    C3 2036   3.359   2.970   9.764  0.2289 -0.2117 -0.0469
  131TMC2    C4 2037   3.519   2.920   9.966  0.3743  0.5253 -0.4358
  131TMC2    C5 2038   3.533   3.044   9.901  0.0026  0.0450 -0.4226
  131TMC2    C6 2039   3.450   3.067   9.796  0.0920  0.1789  0.1986
  131TMC2     C 2040   3.418   2.715  10.028  0.2764 -0.6213 -0.8289
  131TMC2     O 2041   3.515   2.701  10.102 -0.1289 -0.3341  0.3126
  131TMC2     H 2042   3.258   2.783   9.826  1.0516 -1.2766  1.8826
  131TMC2    H1 2043   3.593   2.908  10.045 -0.8689  0.2814  0.6938
  131TMC2    H2 2044   3.452   3.161   9.742  0.6335  0.4424  0.6786
  131TMC2    C7 2045   3.636   3.141   9.929 -0.3608  0.0423 -0.4638
  131TMC2    C8 2046   3.351   2.959   9.624 -0.4604  0.1414  0.7297
  131TMC2    O1 2047   3.673   3.214   9.836  0.2355 -0.8449  0.3232
  131TMC2    O2 2048   3.435   2.981   9.541  0.7248 -0.3271  0.2635
  131TMC2    O5 2049   3.246   2.876   9.605  0.3921 -0.1730 -0.5687
  131TMC2    H5 2050   3.187   2.896   9.680  0.2759 -0.1957 -0.6554
  132MPD2     C 2051   3.155   2.448  10.041  0.6663  0.3921 -0.2621
  132MPD2    C1 2052   3.277   2.509  10.069  0.1034 -0.6201 -0.9474
  132MPD2    C2 2053   3.359   2.434  10.150 -0.3034 -0.1389 -0.6647
  132MPD2    C3 2054   3.318   2.317  10.209 -0.2969  0.8516 -0.6911
  132MPD2    C4 2055   3.184   2.277  10.193  0.0568  0.3119 -0.3114
  132MPD2    C5 2056   3.103   2.336  10.094  0.2393 -0.3078 -0.5811
  132MPD2     H 2057   3.459   2.474  10.164  0.2201 -1.2990 -1.0601
  132MPD2    H1 2058   3.147   2.181  10.227 -0.4959  0.4871 -0.4281
  132MPD2    H2 2059   3.087   2.497   9.973 -2.2115  0.9959  3.0640
  132MPD2    H3 2060   3.001   2.304  10.077  0.1319  0.7903 -1.9801
  132MPD2     N 2061   3.412   2.256  10.298 -0.2766 -0.0577  0.5430
  132MPD2    H5 2062   3.496   2.305  10.325  0.1807 -0.0168 -0.9440
  132MPD2    N1 2063   3.311   2.637  10.014 -0.1497 -0.2255 -0.4747
  132MPD2    H7 2064   3.237   2.674   9.955 -0.2201  1.8834  0.9638
  133TMC2    C1 2065   3.884   4.286   9.665  0.2226  0.4476  0.3420
  133TMC2    C2 2066   3.942   4.168   9.715  0.0543  0.6468 -0.6140
  133TMC2    C3 2067   4.065   4.184   9.780 -0.1283 -0.4280 -0.6857
  133TMC2    C4 2068   3.929   4.410   9.695 -0.0775 -0.0987  0.1314
  133TMC2    C5 2069   4.037   4.420   9.777 -0.0064 -0.7329  0.0129
  133TMC2    C6 2070   4.112   4.310   9.813 -0.0986 -0.1763  0.2490
  133TMC2     C 2071   3.753   4.266   9.605  0.4704  0.0662  1.0694
  133TMC2     O 2072   3.726   4.155   9.565 -0.0398  0.1431 -0.5392
  133TMC2     H 2073   3.891   4.074   9.699  1.3794 -0.2684  0.5679
  133TMC2    H1 2074   3.889   4.500   9.650 -1.0335  1.0200  3.2028
  133TMC2    H2 2075   4.212   4.321   9.852 -0.8413  2.5199  1.3581
  133TMC2    C7 2076   4.093   4.544   9.823 -0.0844  0.0669 -0.2676
  133TMC2    C8 2077   4.113   4.079   9.864  0.4496  0.6206  0.2317
  133TMC2    O1 2078   4.063   4.645   9.764  0.7638  0.0537 -0.2594
  133TMC2    O2 2079   4.174   4.079   9.972  0.0340  0.0194 -0.2888
  133TMC2    O5 2080   4.107   3.967   9.791 -0.3364 -0.5732 -0.1740
  133TMC2    H5 2081   4.079   3.987   9.699 -0.0024 -0.4124 -0.2406
  134MPD2     C 2082   3.478   4.502   9.524 -0.3826  0.5051 -0.4290
  134MPD2    C1 2083   3.540   4.381   9.549 -0.4480 -0.0288 -0.0726
  134MPD2    C2 2084   3.466   4.266   9.541  0.2930 -0.0924  0.1068
  134MPD2    C3 2085   3.332   4.267   9.503  0.8046  0.6784  0.1131
  134MPD2    C4 2086   3.277   4.388   9.470 -1.0775  0.8298 -0.4110
  134MPD2    C5 2087   3.347   4.504   9.476 -0.4574  0.2635  0.3292
  134MPD2     H 2088   3.503   4.171   9.579 -2.5369 -0.2083  2.5996
  134MPD2    H1 2089   3.173   4.386   9.442 -1.3033 -0.8780  0.5521
  134MPD2    H2 2090   3.533   4.595   9.533  0.3961 -0.1218  1.5024
  134MPD2    H3 2091   3.306   4.597   9.438 -0.1449 -0.4004 -1.6008
  134MPD2     N 2092   3.236   4.161   9.513 -0.1625  0.1501 -0.2462
  134MPD2    H5 2093   3.140   4.183   9.491 -0.4826 -1.1019 -0.1366
  134MPD2    N1 2094   3.679   4.382   9.587  0.3365 -0.3750  0.6694
  134MPD2    H7 2095   3.728   4.471   9.589  0.5616 -0.4755 -0.2262
  135TMC2    C1 2096   0.698   0.598   9.478 -0.5647  0.4516  0.2399
  135TMC2    C2 2097   0.749   0.706   9.403 -0.5407  0.9135 -0.2529
  135TMC2    C3 2098   0.669   0.755   9.306  1.1334 -0.0910 -0.0300
  135TMC2    C4 2099   0.573   0.552   9.468 -0.2294  0.3956  0.8332
  135TMC2    C5 2100   0.490   0.633   9.387 -0.5624 -0.6546  0.1537
  135TMC2    C6 2101   0.539   0.734   9.301  0.3397 -0.5219 -0.1481
  135TMC2     C 2102   0.779   0.519   9.562  0.7941 -0.0578  0.8454
  135TMC2     O 2103   0.867   0.580   9.625  0.1206 -0.3695  0.0762
  135TMC2     H 2104   0.857   0.717   9.408 -0.4070  0.2686 -1.9068
  135TMC2    H1 2105   0.526   0.484   9.537  1.0017 -0.7588  0.5179
  135TMC2    H2 2106   0.483   0.801   9.237  0.3304 -0.5557 -0.1756
  135TMC2    C7 2107   0.356   0.591   9.354 -0.1477  0.2136  0.1046
  135TMC2    C8 2108   0.710   0.881   9.252 -0.3405  0.4735 -0.4886
  135TMC2    O1 2109   0.288   0.654   9.272 -0.2255 -0.0639 -0.0441
  135TMC2    O2 2110   0.642   0.930   9.163 -0.5274  0.5692 -0.2605
  135TMC2    O5 2111   0.725   0.939   9.368 -0.1068  0.3516 -0.1877
  135TMC2    H5 2112   0.804   0.890   9.400 -0.5773 -0.1940  0.1489
  136MPD2     C 2113   0.929   0.305   9.711  0.7059 -0.1760 -0.6403
  136MPD2    C1 2114   0.827   0.277   9.627 -0.2543  0.0108  0.1569
  136MPD2    C2 2115   0.794   0.145   9.595  0.2132 -0.6723  0.3084
  136MPD2    C3 2116   0.880   0.041   9.634 -0.6818  0.1993  0.0511
  136MPD2    C4 2117   0.985   0.076   9.716  0.2744  0.5938 -0.3148
  136MPD2    C5 2118   0.996   0.200   9.765  0.1308 -0.1281 -0.0208
  136MPD2     H 2119   0.712   0.124   9.526  0.3569 -2.4722  0.6781
  136MPD2    H1 2120   1.056   0.003   9.753 -0.8109  0.3724  1.2962
  136MPD2    H2 2121   0.953   0.404   9.748  2.9578 -1.1843  0.6154
  136MPD2    H3 2122   1.064   0.222   9.846  0.2953  1.9054 -0.7032
  136MPD2     N 2123   0.857   4.641   9.606  0.2798 -0.4626  0.1758
  136MPD2    H5 2124   0.936   4.581   9.627  0.3412  0.0788  1.5123
  136MPD2    N1 2125   0.753   0.380   9.555  0.0335 -0.4247 -0.4007
  136MPD2    H7 2126   0.676   0.345   9.500  0.9881 -0.5404 -1.6763
  137TMC2    C1 2127   0.622   3.382  10.028  0.1974 -0.5139  0.3082
  137TMC2    C2 2128   0.742   3.344   9.978  0.5322 -0.3712 -0.1511
  137TMC2    C3 2129   0.749   3.232   9.898 -0.4059 -0.8044  0.4414
  137TMC2    C4 2130   0.500   3.322  10.001 -0.3512  0.3727 -0.0038
  137TMC2    C5 2131   0.513   3.210   9.923  0.2084 -0.3171 -0.3371
  137TMC2    C6 2132   0.631   3.161   9.877  0.1760 -0.4167 -0.3478
  137TMC2     C 2133   0.609   3.496  10.116  0.1219 -0.2441  0.0034
  137TMC2     O 2134   0.709   3.561  10.134 -0.5011 -0.3995 -0.3956
  137TMC2     H 2135   0.834   3.398  10.000  0.4801 -0.2120 -0.3280
  137TMC2    H1 2136   0.401   3.357  10.027 -0.3202 -0.9003  1.8505
  137TMC2    H2 2137   0.622   3.062   9.835 -0.2807  0.3880 -2.1191
  137TMC2    C7 2138   0.396   3.122   9.909 -0.2568  0.9871 -0.6078
  137TMC2    C8 2139   0.875   3.182   9.856  0.1702 -0.3244 -0.2079
  137TMC2    O1 2140   0.409   3.001   9.918  0.6827 -0.5839 -0.3208
  137TMC2    O2 2141   0.970   3.255   9.865 -0.1767  0.2302  0.2380
  137TMC2    O5 2142   0.851   3.102   9.749  0.5253  0.2413 -0.1321
  137TMC2    H5 2143   0.759   3.066   9.744  0.9090 -0.3780 -2.4355
  138MPD2     C 2144   0.335   3.625  10.337 -0.7837  0.3365 -0.0707
  138MPD2    C1 2145   0.456   3.619  10.274  0.3814  0.0489  0.0832
  138MPD2    C2 2146   0.539   3.730  10.292 -0.0903  0.6855  0.0306
  138MPD2    C3 2147   0.507   3.836  10.373  0.5870 -0.0321 -0.4337
  138MPD2    C4 2148   0.385   3.840  10.425 -0.1961 -0.4208  0.0274
  138MPD2    C5 2149   0.298   3.738  10.409 -0.2101  0.3656  0.1718
  138MPD2     H 2150   0.638   3.730  10.250  0.3961  1.6983  1.1723
  138MPD2    H1 2151   0.351   3.922  10.487 -0.0190 -0.4469  0.1601
  138MPD2    H2 2152   0.259   3.548  10.332  0.3024 -0.8936  1.9933
  138MPD2    H3 2153   0.201   3.736  10.456  0.1486 -0.6078  0.8659
  138MPD2     N 2154   0.608   3.944  10.371 -0.2421 -0.7591 -0.0906
  138MPD2    H5 2155   0.702   3.926  10.339  0.4399  2.8014 -0.0894
  138MPD2    N1 2156   0.492   3.510  10.186 -0.0325 -0.5864  0.4875
  138MPD2    H7 2157   0.429   3.432  10.196 -0.7869 -0.1442 -0.8897
  139TMC2    C1 2158   1.231   2.761  13.775  0.2600  0.4002 -0.7598
  139TMC2    C2 2159   1.324   2.843  13.837  0.5314 -0.1797 -0.7165
  139TMC2    C3 2160   1.277   2.960  13.906  0.0640  0.8868  0.2963
  139TMC2    C4 2161   1.098   2.798  13.766  0.4638 -0.2361 -0.1106
  139TMC2    C5 2162   1.054   2.907  13.837  0.4489  0.1910  0.4944
  139TMC2    C6 2163   1.140   2.984  13.903  0.9619 -1.0389  0.6335
  139TMC2     C 2164   1.266   2.624  13.753  0.4858  0.0524 -0.2542
  139TMC2     O 2165   1.384   2.604  13.769 -0.2049  0.1314 -0.5961
  139TMC2     H 2166   1.428   2.813  13.840  0.3002 -1.0001 -0.7657
  139TMC2    H1 2167   1.028   2.733  13.714 -1.7265  0.3620  2.0953
  139TMC2    H2 2168   1.104   3.062  13.968 -1.9112 -1.3481 -0.6144
  139TMC2    C7 2169   0.911   2.945  13.835  0.2452 -0.2054  0.1213
  139TMC2    C8 2170   1.359   3.040  13.999 -0.3198 -0.4291  0.8135
  139TMC2    O1 2171   0.874   3.056  13.870 -0.2239 -0.0539 -0.3965
  139TMC2    O2 2172   1.317   3.067  14.112  0.3109 -0.5200  0.3258
  139TMC2    O5 2173   1.483   3.047  13.955 -0.3364 -0.1214  0.8913
  139TMC2    H5 2174   1.480   3.046  13.857 -0.4571  0.9475  0.8898
  140MPD2     C 2175   1.054   2.324  13.741 -0.6444 -0.2672  0.4079
  140MPD2    C1 2176   1.168   2.391  13.730  0.2991 -0.1869 -0.1156
  140MPD2    C2 2177   1.283   2.316  13.712  0.8830 -0.0102  0.5198
  140MPD2    C3 2178   1.283   2.171  13.695 -0.1931 -0.2299 -0.3058
  140MPD2    C4 2179   1.157   2.114  13.700 -0.2951 -0.4400  0.8776
  140MPD2    C5 2180   1.044   2.188  13.725  0.1772 -0.5848 -0.1872
  140MPD2     H 2181   1.376   2.371  13.705  0.2032  1.1655  0.7063
  140MPD2    H1 2182   1.150   2.007  13.687 -2.2861 -0.1794 -0.1897
  140MPD2    H2 2183   0.958   2.371  13.756 -0.0892  1.1348 -0.3456
  140MPD2    H3 2184   0.948   2.139  13.726  0.1551 -0.5151  2.2032
  140MPD2     N 2185   1.404   2.098  13.680 -0.3852  0.0321  0.5293
  140MPD2    H5 2186   1.486   2.157  13.677  0.4852 -1.1771  0.3876
  140MPD2    N1 2187   1.166   2.533  13.746  0.6090  0.1343  0.3691
  140MPD2    H7 2188   1.071   2.571  13.749 -0.2777 -1.9299 -1.7169
  141TMC2    C1 2189   1.777   3.897  13.933 -0.0423  0.6954 -0.9807
  141TMC2    C2 2190   1.737   3.807  14.024  0.3813  0.1587  0.0678
  141TMC2    C3 2191   1.803   3.818  14.149 -0.1172 -0.1366 -0.3754
  141TMC2    C4 2192   1.876   3.995  13.964  0.0149  0.4884  0.1538
  141TMC2    C5 2193   1.940   3.999  14.086  0.5277  0.5539  0.2730
  141TMC2    C6 2194   1.913   3.902  14.182  0.3955  0.4653  0.4071
  141TMC2     C 2195   1.741   3.891  13.796 -0.4658  0.5305 -0.2058
  141TMC2     O 2196   1.831   3.932  13.722 -0.2778  0.4036  0.1378
  141TMC2     H 2197   1.666   3.725  14.015 -1.7496  1.9890 -0.0082
  141TMC2    H1 2198   1.901   4.076  13.896  1.6268 -0.1654 -0.0239
  141TMC2    H2 2199   1.965   3.903  14.277  1.6128 -2.0597 -0.2631
  141TMC2    C7 2200   2.017   4.111  14.117  0.3880  0.7749 -0.1997
  141TMC2    C8 2201   1.760   3.735  14.257 -0.2707  0.1983  0.8483
  141TMC2    O1 2202   1.983   4.209  14.054 -0.7731  0.0079 -0.0580
  141TMC2    O2 2203   1.846   3.686  14.332  0.1299 -0.1220  0.3742
  141TMC2    O5 2204   1.633   3.711  14.263  1.0590 -1.1934 -0.5348
  141TMC2    H5 2205   1.572   3.745  14.194 -0.3393 -0.7532  0.9157
  142TMC2    C1 2206   3.647   2.112   9.956 -0.1306  0.1286  0.9161
  142TMC2    C2 2207   3.516   2.094   9.921 -0.7118 -0.3913 -0.7147
  142TMC2    C3 2208   3.458   2.211   9.882 -0.2296  0.5041 -0.2257
  142TMC2    C4 2209   3.716   2.234   9.942  0.2855 -0.0563  0.3963
  142TMC2    C5 2210   3.648   2.343   9.895 -0.5218  0.3153  0.0530
  142TMC2    C6 2211   3.516   2.336   9.870  0.1672  0.0011 -0.3309
  142TMC2     C 2212   3.701   2.009  10.043  0.5475  0.2257 -0.3958
  142TMC2     O 2213   3.655   1.897  10.033  0.1761 -0.2285 -0.2828
  142TMC2     H 2214   3.465   2.000   9.941  0.1329 -0.8862 -0.8853
  142TMC2    H1 2215   3.820   2.236   9.971 -0.0881  2.1582  1.5621
  142TMC2    H2 2216   3.460   2.421   9.833  1.5940  0.7537 -0.7535
  142TMC2    C7 2217   3.715   2.476   9.909 -0.1723 -0.1939 -0.1468
  142TMC2    C8 2218   3.328   2.200   9.823  0.4503 -0.2341  0.7980
  142TMC2    O1 2219   3.822   2.472   9.964 -0.0396 -0.2427  0.3057
  142TMC2    O2 2220   3.276   2.288   9.751  0.4702  0.0891 -0.6682
  142TMC2    O5 2221   3.255   2.100   9.885 -0.1110  0.2119  0.0208
  142TMC2    H5 2222   3.300   2.051   9.957 -0.8724  0.2280  0.5109
  143MPD2     C 2223   3.886   1.882  10.506 -0.1392 -0.4144 -1.0532
  143MPD2    C1 2224   3.832   1.802  10.403 -0.5248 -0.0692 -0.4867
  143MPD2    C2 2225   3.805   1.860  10.276 -0.0211 -0.2608 -0.5466
  143MPD2    C3 2226   3.828   1.993  10.250 -0.0270  0.4094  0.7240
  143MPD2    C4 2227   3.889   2.066  10.348  0.5660  0.6143 -0.1124
  143MPD2    C5 2228   3.916   2.014  10.471  0.5721  0.0378  0.0876
  143MPD2     H 2229   3.769   1.787  10.205 -0.4924 -1.6475  1.1103
  143MPD2    H1 2230   3.900   2.173  10.335 -1.1507  1.0278  1.8547
  143MPD2    H2 2231   3.884   1.840  10.606 -1.2541 -1.3238 -1.4676
  143MPD2    H3 2232   3.972   2.087  10.528  1.9896  1.2859 -2.9055
  143MPD2     N 2233   3.785   2.051  10.136  0.0027  0.1134 -0.3520
  143MPD2    H5 2234   3.798   2.151  10.127  2.2993 -0.1903 -0.3199
  143MPD2    N1 2235   3.820   1.663  10.435 -1.0259  0.6345 -0.2168
  143MPD2    H7 2236   3.845   1.632  10.529  0.0132  1.9247 -0.0684
  144TMC2    C1 2237   2.261   1.070   0.510  0.4626 -0.4220 -0.0654
  144TMC2    C2 2238   2.319   1.036   0.385 -0.3337  0.2866 -0.9049
  144TMC2    C3 2239   2.446   1.082   0.359  0.0169 -0.2495 -0.5579
  144TMC2    C4 2240   2.340   1.141   0.604  0.2368  0.4169  0.1812
  144TMC2    C5 2241   2.464   1.184   0.567  0.2465 -0.4104 -0.5241
  144TMC2    C6 2242   2.522   1.158   0.443 -0.3406 -0.2243 -0.3082
  144TMC2     C 2243   2.116   1.088   0.499  0.6036 -0.3106 -0.2490
  144TMC2     O 2244   2.068   1.081   0.385  0.2421 -0.3755  0.2952
  144TMC2     H 2245   2.259   0.987   0.310 -1.2711  1.3521 -0.8494
  144TMC2    H1 2246   2.307   1.163   0.705 -0.5350  0.8279 -0.1583
  144TMC2    H2 2247   2.613   1.195   0.399  1.4888 -2.2338  1.7485
  144TMC2    C7 2248   2.540   1.271   0.646  0.1799 -0.6633 -0.2578
  144TMC2    C8 2249   2.489   1.090   0.222 -1.0269  0.0044  0.0709
  144TMC2    O1 2250   2.654   1.303   0.613 -0.6700  0.3410 -0.1999
  144TMC2    O2 2251   2.606   1.098   0.187  0.1782  0.1034  0.0253
  144TMC2    O5 2252   2.384   1.143   0.151 -0.5663  0.0697 -0.0152
  144TMC2    H5 2253   2.324   1.173   0.223  0.6167 -1.8813  1.7949
  145MPD2     C 2254   1.653   1.250   0.654 -0.3641 -0.2474 -0.3978
  145MPD2    C1 2255   1.710   1.254   0.534  0.3366 -0.6758 -0.5600
  145MPD2    C2 2256   1.839   1.212   0.515  0.3412  0.6386  0.6962
  145MPD2    C3 2257   1.913   1.169   0.625  0.1535  0.1797 -0.1350
  145MPD2    C4 2258   1.850   1.164   0.754  0.5659  0.1772  0.1931
  145MPD2    C5 2259   1.721   1.198   0.765  0.6555 -0.5227 -0.8283
  145MPD2     H 2260   1.878   1.203   0.414  1.1607 -1.7740  1.2238
  145MPD2    H1 2261   1.909   1.131   0.838 -0.4468 -1.1370  0.3850
  145MPD2    H2 2262   1.551   1.284   0.666 -0.0838 -0.0624  1.4434
  145MPD2    H3 2263   1.668   1.192   0.859  0.5605  0.5391 -0.8109
  145MPD2     N 2264   2.048   1.120   0.617  0.0245 -0.1983 -0.1924
  145MPD2    H5 2265   2.095   1.118   0.707  0.2262  2.7290 -0.2355
  145MPD2    N1 2266   1.640   1.294   0.416 -0.1391 -0.3123  0.2709
  145MPD2    H7 2267   1.690   1.297   0.327 -2.0056  2.6434 -0.6579
  146TMC2    C1 2268   3.884   0.222  12.006  0.9801 -0.4469 -0.9753
  146TMC2    C2 2269   3.829   0.289  11.902 -0.1485  0.4138 -0.4570
  146TMC2    C3 2270   3.896   0.302  11.785 -0.4395 -0.0511 -0.5551
  146TMC2    C4 2271   4.004   0.161  11.998  0.4132 -0.2203  0.0342
  146TMC2    C5 2272   4.071   0.182  11.874  0.4066 -0.4553  0.2786
  146TMC2    C6 2273   4.017   0.249  11.766 -0.0971  0.5886 -0.5051
  146TMC2     C 2274   3.814   0.238  12.136 -0.1140 -0.4362 -0.2000
  146TMC2     O 2275   3.737   0.333  12.155 -0.1476 -0.1364  0.1951
  146TMC2     H 2276   3.729   0.330  11.916  0.4752  2.1863 -1.2444
  146TMC2    H1 2277   4.050   0.117  12.085 -1.5616 -1.8113  0.3004
  146TMC2    H2 2278   4.067   0.261  11.671  2.0259 -1.2981  0.3655
  146TMC2    C7 2279   4.204   0.120  11.857  0.0101  0.1517 -0.1304
  146TMC2    C8 2280   3.831   0.355  11.667 -0.6583 -0.4882  0.0284
  146TMC2    O1 2281   4.262   0.137  11.752 -0.7764  0.2044 -0.4555
  146TMC2    O2 2282   3.880   0.354  11.553  0.2370  0.1978  0.0555
  146TMC2    O5 2283   3.728   0.436  11.709 -0.1519 -0.5089 -0.0336
  146TMC2    H5 2284   3.710   0.460  11.802  0.1911  0.5001 -0.2331
  147MPD2     C 2285   4.565   4.519  11.988 -0.5619 -0.3641 -0.5760
  147MPD2    C1 2286   4.460   4.498  12.073 -0.6396  0.0206  0.1786
  147MPD2    C2 2287   4.358   4.595  12.068  0.3964  0.1879  0.1083
  147MPD2    C3 2288   4.358   4.691  11.971 -0.3456 -0.1847 -0.4718
  147MPD2    C4 2289   4.464   4.704  11.880 -0.6102 -0.7245 -0.4944
  147MPD2    C5 2290   4.565   4.610  11.887 -0.7003 -0.8337 -0.1203
  147MPD2     H 2291   4.266   4.590  12.124 -0.6704 -0.4693 -1.6876
  147MPD2    H1 2292   4.468   0.045  11.804 -2.4475 -1.4046 -1.2502
  147MPD2    H2 2293   4.648   4.451  12.002 -2.6181 -2.6497  0.3580
  147MPD2    H3 2294   4.655   4.624  11.828 -1.7780 -0.3904 -1.6552
  147MPD2     N 2295   4.243   0.039  11.960 -0.2159  0.6805 -0.3639
  147MPD2    H5 2296   4.169   0.018  12.026  0.7389  0.7654  0.7254
  147MPD2    N1 2297   4.449   4.380  12.146 -0.3409  0.0405  0.2030
  147MPD2    H7 2298   4.527   4.318  12.129 -0.3369  0.4305 -1.1935
  148TMC2    C1 2299   4.344   3.531  10.674 -0.3500  0.1920  0.4818
  148TMC2    C2 2300   4.465   3.516  10.739 -1.2671 -0.6162  0.6938
  148TMC2    C3 2301   4.536   3.400  10.728  0.8181 -0.1323 -0.1355
  148TMC2    C4 2302   4.291   3.423  10.617 -0.9682 -0.0796 -0.2166
  148TMC2    C5 2303   4.353   3.301  10.623  0.2430 -0.0007 -0.8680
  148TMC2    C6 2304   4.482   3.286  10.672  0.4189 -0.4750  0.0526
  148TMC2     C 2305   4.266   3.646  10.705  0.0037  2.0726  0.4390
  148TMC2     O 2306   4.323   3.747  10.749  0.0462  0.0751  0.1773
  148TMC2     H 2307   4.501   3.588  10.812 -3.3120 -1.4645  2.4988
  148TMC2    H1 2308   4.196   3.427  10.565 -1.9735 -0.5757  1.5856
  148TMC2    H2 2309   4.533   3.190  10.683 -2.0533 -1.6399  1.2712
  148TMC2    C7 2310   4.257   3.189  10.628 -0.6499  0.0402  0.0497
  148TMC2    C8 2311   4.677   3.400  10.770  0.1751 -0.3697 -0.6606
  148TMC2    O1 2312   4.156   3.195  10.560  0.1832 -0.7008 -0.5809
  148TMC2    O2 2313   0.001   3.297  10.804 -0.0241  0.7169 -0.4910
  148TMC2    O5 2314   0.004   3.504  10.713 -0.1604 -0.6508 -0.0389
  148TMC2    H5 2315   4.676   3.573  10.685 -1.3044 -1.1725  1.2753
  149MPD2     C 2316   4.040   3.837  10.778  0.6054 -0.6037  0.0013
  149MPD2    C1 2317   4.025   3.708  10.737 -0.7266  0.8743 -0.0554
  149MPD2    C2 2318   3.898   3.658  10.725  0.0114 -0.0003 -0.4676
  149MPD2    C3 2319   3.787   3.731  10.773  0.3899  0.3864 -0.2141
  149MPD2    C4 2320   3.804   3.860  10.816 -0.5139 -0.2365 -0.5255
  149MPD2    C5 2321   3.935   3.918  10.807 -0.4431 -0.0153 -0.2862
  149MPD2     H 2322   3.893   3.557  10.686  0.4055 -0.6798  1.2576
  149MPD2    H1 2323   3.720   3.919  10.852 -0.8912 -1.3009  0.3212
  149MPD2    H2 2324   4.140   3.878  10.765 -0.4754  2.1401  0.4883
  149MPD2    H3 2325   3.956   4.020  10.837  1.2750 -0.0525 -1.3508
  149MPD2     N 2326   3.656   3.673  10.777 -0.0605 -0.5831  0.1945
  149MPD2    H5 2327   3.578   3.738  10.781  0.6451  0.2151  1.2327
  149MPD2    N1 2328   4.128   3.615  10.710 -0.1165  0.2766  0.5980
  149MPD2    H7 2329   4.101   3.518  10.703 -0.7819  0.4923  0.1631
  150TMC2    C1 2330   0.807   2.987  12.025 -0.4887  0.5150  0.1381
  150TMC2    C2 2331   0.790   2.854  12.005  0.0474  0.4776  0.6795
  150TMC2    C3 2332   0.814   2.774  12.119 -0.3846 -0.0811  0.6327
  150TMC2    C4 2333   0.835   3.043  12.144  0.1884 -0.3478 -0.5075
  150TMC2    C5 2334   0.857   2.955  12.243  1.5882 -0.1415 -0.8342
  150TMC2    C6 2335   0.860   2.819  12.236  0.1609  0.0522 -0.8929
  150TMC2     C 2336   0.800   3.077  11.914 -0.3619 -1.0063 -0.2138
  150TMC2     O 2337   0.846   3.188  11.929 -0.2441 -0.0621  0.0440
  150TMC2     H 2338   0.778   2.807  11.908 -0.7944  2.0206  0.0460
  150TMC2    H1 2339   0.832   3.150  12.164 -1.1091 -0.0607 -2.1531
  150TMC2    H2 2340   0.859   2.753  12.322  2.6512  0.7456 -0.3254
  150TMC2    C7 2341   0.933   3.017  12.356 -0.4557 -0.0971  0.0245
  150TMC2    C8 2342   0.800   2.628  12.109  0.4074 -0.5228 -0.1039
  150TMC2    O1 2343   0.914   3.136  12.384 -0.0402  0.7988  0.0625
  150TMC2    O2 2344   0.858   2.546  12.180  0.2264 -0.2777 -0.0600
  150TMC2    O5 2345   0.699   2.599  12.018  0.3590 -0.1365 -0.5801
  150TMC2    H5 2346   0.636   2.671  11.995  1.6284  0.8076 -1.1285
  151MPD2     C 2347   0.579   3.203  11.471 -0.0430 -0.1034 -0.0626
  151MPD2    C1 2348   0.574   3.067  11.488 -0.4678  0.6897  0.0303
  151MPD2    C2 2349   0.626   3.006  11.598 -0.5148  0.1075  0.4755
  151MPD2    C3 2350   0.684   3.087  11.696  0.2852  1.4248  0.9079
  151MPD2    C4 2351   0.704   3.223  11.674  0.1794  0.1691  0.2537
  151MPD2    C5 2352   0.647   3.276  11.560 -0.3598  0.4150 -0.6974
  151MPD2     H 2353   0.625   2.900  11.621 -1.6818  0.7644  3.5223
  151MPD2    H1 2354   0.755   3.282  11.750  0.8136  1.9511 -1.5510
  151MPD2    H2 2355   0.531   3.247  11.384 -0.5589  0.3502  0.4480
  151MPD2    H3 2356   0.659   3.382  11.539  0.5596  0.5202  0.3248
  151MPD2     N 2357   0.730   3.020  11.811  0.4828 -0.1322  0.2913
  151MPD2    H5 2358   0.691   2.928  11.828 -0.4264  0.1329 -0.3036
  151MPD2    N1 2359   0.500   2.990  11.396  0.3028 -0.1871  0.6316
  151MPD2    H7 2360   0.484   3.043  11.310  1.3211 -0.1647  0.4548
  152TMC2    C1 2361   0.794   2.890  12.689 -0.0484  0.1510 -1.1631
  152TMC2    C2 2362   0.850   2.768  12.708  0.9004  0.1151  0.1759
  152TMC2    C3 2363   0.933   2.747  12.820  0.4806  0.0343 -0.8490
  152TMC2    C4 2364   0.827   2.993  12.777 -0.4187 -0.1134  0.2471
  152TMC2    C5 2365   0.913   2.969  12.881  0.2990 -0.0553  0.5022
  152TMC2    C6 2366   0.977   2.850  12.902 -0.2816  0.2945  0.3255
  152TMC2     C 2367   0.667   2.897  12.611 -0.1029  0.3476  0.8310
  152TMC2     O 2368   0.598   2.796  12.595  0.2058 -0.7867  0.1546
  152TMC2     H 2369   0.815   2.684  12.650  0.4736 -0.4449  1.2474
  152TMC2    H1 2370   0.774   3.086  12.763  1.4194  1.0144  0.7630
  152TMC2    H2 2371   1.051   2.835  12.980  1.0062 -0.1320 -0.9673
  152TMC2    C7 2372   0.952   3.089  12.954  0.5784  1.6417 -0.7137
  152TMC2    C8 2373   0.974   2.610  12.859  0.2032  0.0696 -0.5708
  152TMC2    O1 2374   0.877   3.185  12.959  0.0257 -0.0218 -0.2985
  152TMC2    O2 2375   1.017   2.597  12.973 -0.1782  0.7593 -0.1170
  152TMC2    O5 2376   0.884   2.527  12.801 -0.1338 -0.1483 -0.5610
  152TMC2    H5 2377   0.890   2.517  12.703  0.7584 -2.0633 -0.2997
  153MPD2     C 2378   0.486   3.148  12.413  0.5392  0.3178 -0.7641
  153MPD2    C1 2379   0.501   3.052  12.513  0.2136  0.8094  0.0337
  153MPD2    C2 2380   0.387   2.979  12.545 -0.4577  0.8378 -0.5466
  153MPD2    C3 2381   0.267   2.996  12.479  0.7118  0.1040 -0.3805
  153MPD2    C4 2382   0.262   3.089  12.380  0.3178  0.1564 -0.5099
  153MPD2    C5 2383   0.371   3.166  12.344  0.0501 -0.2342 -0.9476
  153MPD2     H 2384   0.393   2.898  12.616  1.9780  1.1511 -0.3702
  153MPD2    H1 2385   0.175   3.099  12.316 -0.1523  0.1018  0.1151
  153MPD2    H2 2386   0.570   3.212  12.387 -0.6903  2.0815 -0.3953
  153MPD2    H3 2387   0.353   3.231  12.259  0.3172  1.5344  0.3694
  153MPD2     N 2388   0.159   2.910  12.520  0.3215 -0.2104  0.3770
  153MPD2    H5 2389   0.174   2.859  12.606  0.3267  1.7642  1.5423
  153MPD2    N1 2390   0.631   3.024  12.570 -0.1883  0.5190  0.0192
  153MPD2    H7 2391   0.700   3.097  12.568  2.1409 -1.6669  0.3626
  154TMC2    C1 2392   2.588   2.890   0.229 -0.0285  0.4676  1.1519
  154TMC2    C2 2393   2.529   2.767   0.228  0.3289  0.0680 -0.5198
  154TMC2    C3 2394   2.595   2.677   0.156 -0.0088 -0.1041 -0.0772
  154TMC2    C4 2395   2.686   2.933   0.149  0.5937  0.2267  0.4934
  154TMC2    C5 2396   2.739   2.841   0.066  0.2554  0.4651 -0.5469
  154TMC2    C6 2397   2.694   2.706   0.074 -0.1364 -0.4372 -0.0691
  154TMC2     C 2398   2.498   2.986   0.287 -0.0160 -0.2416  0.3219
  154TMC2     O 2399   2.399   2.946   0.350  0.0451 -0.4671 -0.1372
  154TMC2     H 2400   2.442   2.743   0.288 -0.5294  0.2277 -1.7028
  154TMC2    H1 2401   2.735   3.030   0.156  1.1001  0.1755 -2.3270
  154TMC2    H2 2402   2.746   2.641   0.004 -0.4447 -1.8756  1.0630
  154TMC2    C7 2403   2.787   2.890  17.674  0.6511 -0.0305  0.8767
  154TMC2    C8 2404   2.575   2.532   0.170 -0.1889 -0.6912  0.4670
  154TMC2    O1 2405   2.770   3.007  17.646  0.1348  0.0241 -0.2103
  154TMC2    O2 2406   2.667   2.454   0.143 -0.3296 -0.6664  0.3064
  154TMC2    O5 2407   2.482   2.503   0.271 -0.0628 -0.0590 -0.1338
  154TMC2    H5 2408   2.410   2.565   0.294  0.5648  0.3540  0.7273
  155MPD2     C 2409   2.491   3.368   0.256  0.4946 -0.4872 -0.4758
  155MPD2    C1 2410   2.443   3.232   0.274  0.3508 -0.0037  0.6525
  155MPD2    C2 2411   2.313   3.218   0.330 -0.4256 -0.0074 -0.3957
  155MPD2    C3 2412   2.247   3.324   0.391  0.2290  0.3313 -0.0994
  155MPD2    C4 2413   2.300   3.451   0.370  0.1678  0.9161 -0.1848
  155MPD2    C5 2414   2.414   3.469   0.297  0.6923  0.0567  0.1778
  155MPD2     H 2415   2.268   3.120   0.346 -1.7371  0.5652 -0.5558
  155MPD2    H1 2416   2.260   3.544   0.407  0.8681  0.0949  2.6208
  155MPD2    H2 2417   2.589   3.395   0.217  0.6440  0.0548  0.2795
  155MPD2    H3 2418   2.445   3.572   0.286 -0.2982  0.2770 -0.5870
  155MPD2     N 2419   2.132   3.287   0.467  0.6357  0.2841  0.1827
  155MPD2    H5 2420   2.117   3.188   0.483  1.0797  0.2377  0.3163
  155MPD2    N1 2421   2.521   3.117   0.238  0.3640  1.1169 -0.2199
  155MPD2    H7 2422   2.606   3.132   0.183  0.6640  0.0864 -0.0353
  156TMC2    C1 2423   0.082   0.536  12.028  0.0386 -0.1990 -0.1470
  156TMC2    C2 2424   4.699   0.466  12.045  0.0448 -0.3718 -0.6018
  156TMC2    C3 2425   4.609   0.480  11.943 -0.0040 -0.7248 -0.2990
  156TMC2    C4 2426   0.107   0.598  11.908 -0.4142  0.3722 -0.4595
  156TMC2    C5 2427   0.008   0.619  11.817  0.1084  0.0641 -0.1941
  156TMC2    C6 2428   4.628   0.554  11.831 -0.8145  0.5964  0.1050
  156TMC2     C 2429   0.205   0.519  12.108 -0.4497 -0.2679  0.0087
  156TMC2     O 2430   0.288   0.606  12.113  0.9784  0.3814  0.0362
  156TMC2     H 2431   4.680   0.414  12.138  1.5091  0.4223  0.1554
  156TMC2    H1 2432   0.204   0.643  11.890 -0.5852  0.4347 -1.2166
  156TMC2    H2 2433   4.540   0.570  11.770  0.6059  0.6017 -1.9629
  156TMC2    C7 2434   0.041   0.678  11.693  0.5605 -0.3999 -0.3517
  156TMC2    C8 2435   4.470   0.458  11.980  0.7633  0.0397 -0.9590
  156TMC2    O1 2436   0.140   0.753  11.683 -0.6031  0.6538  0.4321
  156TMC2    O2 2437   4.433   0.543  12.061  0.0519  0.4309 -0.5676
  156TMC2    O5 2438   4.410   0.426  11.869 -0.1191  0.2804 -0.3750
  156TMC2    H5 2439   4.457   0.356  11.819  1.4586  1.1298 -0.0593
  157MPD2     C 2440   0.315   0.216  12.282 -0.2480 -0.5828 -0.1100
  157MPD2    C1 2441   0.330   0.337  12.220 -0.0822 -0.1363  0.1009
  157MPD2    C2 2442   0.453   0.398  12.206  0.6729  0.1590  0.2380
  157MPD2    C3 2443   0.564   0.327  12.228  0.2727 -0.1167  0.1952
  157MPD2    C4 2444   0.555   0.200  12.278  0.2604 -0.5403  0.0595
  157MPD2    C5 2445   0.428   0.147  12.303 -0.5275 -0.9433 -0.5110
  157MPD2     H 2446   0.476   0.495  12.163 -2.0212 -0.2135 -2.0865
  157MPD2    H1 2447   0.633   0.131  12.309 -0.0447 -0.8717  0.0890
  157MPD2    H2 2448   0.218   0.174  12.303 -0.6797  0.0386 -0.8829
  157MPD2    H3 2449   0.424   0.050  12.352  0.1006 -1.7432 -2.0736
  157MPD2     N 2450   0.693   0.381  12.209  0.6134 -0.5574  0.0744
  157MPD2    H5 2451   0.712   0.464  12.154  1.2412  1.7295  3.7387
  157MPD2    N1 2452   0.210   0.394  12.168 -0.1235 -0.2973 -0.9096
  157MPD2    H7 2453   0.128   0.335  12.168  0.7942 -1.5612  2.5368
  158TMC2    C1 2454   0.794   3.812  12.952  0.1382 -0.7956 -0.6443
  158TMC2    C2 2455   0.834   3.831  12.824 -0.0839  0.4029 -0.0227
  158TMC2    C3 2456   0.739   3.809  12.720 -0.2012 -0.8108 -0.5044
  158TMC2    C4 2457   0.675   3.755  12.978 -0.2940 -0.6279  1.0655
  158TMC2    C5 2458   0.592   3.722  12.871  0.2196 -0.2371 -0.0474
  158TMC2    C6 2459   0.619   3.757  12.737 -0.4792 -0.2926  0.5070
  158TMC2     C 2460   0.889   3.846  13.056 -0.5230  0.0121 -0.1335
  158TMC2     O 2461   0.978   3.927  13.028 -0.0311 -0.1473 -0.5267
  158TMC2     H 2462   0.932   3.872  12.800 -0.2226  0.3143 -0.7628
  158TMC2    H1 2463   0.637   3.756  13.079  1.0492 -0.8988  1.5734
  158TMC2    H2 2464   0.560   3.715  12.657  2.6449 -0.0482 -1.9333
  158TMC2    C7 2465   0.462   3.675  12.905  0.6437  0.6755  0.4774
  158TMC2    C8 2466   0.795   3.830  12.583  0.1835  0.0576  1.4402
  158TMC2    O1 2467   0.374   3.702  12.826  0.0596 -0.1290  0.5649
  158TMC2    O2 2468   0.918   3.824  12.563 -0.4638  0.2412 -0.5174
  158TMC2    O5 2469   0.702   3.815  12.491  0.0798  0.3448  0.4790
  158TMC2    H5 2470   0.610   3.846  12.507 -0.3834 -0.0759 -1.3551
  159MPD2     C 2471   1.143   3.694  13.479  0.2276  0.2599  0.0720
  159MPD2    C1 2472   1.014   3.652  13.489  0.1138  0.4803  0.6149
  159MPD2    C2 2473   0.930   3.681  13.383 -0.7507 -0.2723 -0.1682
  159MPD2    C3 2474   0.972   3.749  13.267 -0.3279  0.0595 -0.9684
  159MPD2    C4 2475   1.099   3.797  13.271 -0.4379 -0.0994  0.5240
  159MPD2    C5 2476   1.183   3.768  13.376  0.1768  0.9169 -0.1107
  159MPD2     H 2477   0.825   3.655  13.392 -0.5882 -0.9596 -0.2650
  159MPD2    H1 2478   1.148   3.862  13.199  1.2962 -1.3807  0.5266
  159MPD2    H2 2479   1.212   3.683  13.562 -3.5492  0.4491  3.2578
  159MPD2    H3 2480   1.281   3.815  13.372  0.6540  0.0677  1.6252
  159MPD2     N 2481   0.875   3.769  13.166  0.0762 -0.0064 -0.4593
  159MPD2    H5 2482   0.795   3.707  13.169 -0.0653  0.2074  0.2534
  159MPD2    N1 2483   0.978   3.581  13.606  0.1897  0.4709 -0.0466
  159MPD2    H7 2484   1.052   3.552  13.669 -0.0224  1.4287  0.6469
  160TMC2    C1 2485   0.380   2.096   1.453  0.1621 -0.3278  0.1077
  160TMC2    C2 2486   0.270   2.020   1.489 -0.1752 -0.1957 -0.1312
  160TMC2    C3 2487   0.282   1.884   1.469  0.3237  0.2405  0.7601
  160TMC2    C4 2488   0.499   2.042   1.414  0.4136 -0.0306  0.7855
  160TMC2    C5 2489   0.506   1.912   1.389 -0.3796  0.1489  0.4754
  160TMC2    C6 2490   0.394   1.832   1.414 -0.0679  0.6555  0.5797
  160TMC2     C 2491   0.369   2.233   1.439  0.3712 -0.4453 -0.4040
  160TMC2     O 2492   0.471   2.298   1.457 -0.0062 -0.5009  0.5711
  160TMC2     H 2493   0.189   2.065   1.545 -1.1378 -0.7758 -1.0535
  160TMC2    H1 2494   0.588   2.103   1.400 -0.6523  1.3219 -0.0784
  160TMC2    H2 2495   0.397   1.724   1.413  1.4679  0.7115 -0.5052
  160TMC2    C7 2496   0.606   1.859   1.297 -0.2348 -0.4394 -0.3480
  160TMC2    C8 2497   0.170   1.799   1.471  0.0061 -0.1642 -0.0596
  160TMC2    O1 2498   0.606   1.737   1.298 -0.2690 -0.3512 -0.5701
  160TMC2    O2 2499   0.167   1.696   1.405  0.2937 -0.0894  0.3377
  160TMC2    O5 2500   0.068   1.837   1.551  0.2270  0.3910  0.2414
  160TMC2    H5 2501   0.083   1.933   1.569  1.7860 -0.1646  1.9511
  161MPD2     C 2502   0.299   2.518   1.441  0.2438 -0.3814  0.2406
  161MPD2    C1 2503   0.205   2.417   1.430 -0.8932  0.3945 -0.4545
  161MPD2    C2 2504   0.074   2.454   1.420 -0.2216  0.0524  0.1997
  161MPD2    C3 2505   0.035   2.589   1.423 -0.0799  0.0126  0.7006
  161MPD2    C4 2506   0.132   2.691   1.427  0.2072  0.6365 -0.4224
  161MPD2    C5 2507   0.262   2.652   1.438 -0.0628  0.2982  0.0310
  161MPD2     H 2508   4.734   2.376   1.409 -0.4616  0.3497 -0.2759
  161MPD2    H1 2509   0.106   2.796   1.419  1.7828  1.0853  0.5037
  161MPD2    H2 2510   0.407   2.506   1.443  0.2713 -0.1764  0.0285
  161MPD2    H3 2511   0.337   2.728   1.456 -1.0454  1.4249 -0.6307
  161MPD2     N 2512   4.638   2.635   1.409 -0.1818 -0.5325 -0.0878
  161MPD2    H5 2513   4.638   2.733   1.385 -1.2805 -0.5423 -0.1312
  161MPD2    N1 2514   0.237   2.281   1.424 -0.4397 -0.4841 -0.2055
  161MPD2    H7 2515   0.160   2.217   1.406 -1.0153 -0.0141  0.5382
  162TMC2    C1 2516   2.974   4.392   1.171 -0.4856 -0.4922 -0.2247
  162TMC2    C2 2517   2.889   4.493   1.152  0.4457  0.9072  0.6322
  162TMC2    C3 2518   2.806   4.523   1.250  0.0734 -0.7133 -0.5828
  162TMC2    C4 2519   2.951   4.299   1.273 -0.1844 -0.1730 -0.4673
  162TMC2    C5 2520   2.868   4.335   1.375 -0.0522 -0.3154  1.0399
  162TMC2    C6 2521   2.791   4.449   1.360 -0.2813  0.1279 -1.3917
  162TMC2     C 2522   3.061   4.341   1.062 -0.3003 -0.0772 -0.7264
  162TMC2     O 2523   3.077   4.222   1.054  0.1648  0.0213  0.4423
  162TMC2     H 2524   2.880   4.560   1.067 -1.8384  1.0146  0.9694
  162TMC2    H1 2525   3.026   4.222   1.276  1.2786  1.3670  2.0494
  162TMC2    H2 2526   2.723   4.479   1.439  1.6690  4.1206 -1.2026
  162TMC2    C7 2527   2.871   4.262   1.499  0.3736 -0.4389 -0.2591
  162TMC2    C8 2528   2.740   4.655   1.253  0.6202  0.1162  0.1995
  162TMC2    O1 2529   2.767   4.270   1.560  0.2224  0.6255  0.6166
  162TMC2    O2 2530   2.640   4.680   1.315 -0.5858 -0.3239 -0.1597
  162TMC2    O5 2531   2.821   0.020   1.208  0.1054  0.3975  0.1269
  162TMC2    H5 2532   2.909   4.732   1.171  0.6980  0.1451  1.6921
  163MPD2     C 2533   3.277   4.438   0.593 -0.1107 -0.2419 -0.1486
  163MPD2    C1 2534   3.269   4.320   0.663 -0.1381  0.0921  0.7524
  163MPD2    C2 2535   3.208   4.320   0.793 -0.5670  0.6628 -0.4594
  163MPD2    C3 2536   3.160   4.434   0.851  0.8559  0.2080 -0.3621
  163MPD2    C4 2537   3.162   4.549   0.768  0.1380 -0.2798 -0.3062
  163MPD2    C5 2538   3.228   4.555   0.647  0.0747 -0.2180  0.5762
  163MPD2     H 2539   3.191   4.225   0.842 -2.3941  2.5599  2.5513
  163MPD2    H1 2540   3.137   4.643   0.814  3.4954  0.1242  0.6830
  163MPD2    H2 2541   3.298   4.435   0.486 -0.6954  0.7618 -0.2943
  163MPD2    H3 2542   3.228   4.654   0.601 -1.6904 -0.6628 -0.3891
  163MPD2     N 2543   3.091   4.447   0.975  0.1040  0.7630  0.1738
  163MPD2    H5 2544   3.059   4.537   1.009 -3.3556 -0.5110  0.2677
  163MPD2    N1 2545   3.324   4.205   0.603  0.0286 -0.1388 -0.2851
  163MPD2    H7 2546   3.373   4.216   0.515  0.9563  0.3733  0.2989
  164TMC2    C1 2547   4.181   3.408  11.047  0.6513  0.3089 -0.5961
  164TMC2    C2 2548   4.104   3.310  11.002  0.0755  0.6627 -0.0328
  164TMC2    C3 2549   3.970   3.328  10.982  0.2915 -0.6142 -0.3140
  164TMC2    C4 2550   4.126   3.529  11.093 -0.4490 -0.1940  0.2551
  164TMC2    C5 2551   3.988   3.534  11.096 -0.0943 -0.1656  0.7332
  164TMC2    C6 2552   3.915   3.444  11.027 -0.7475 -0.1347  0.2470
  164TMC2     C 2553   4.326   3.380  11.050 -0.1749 -0.0970  0.1558
  164TMC2     O 2554   4.362   3.272  11.013 -0.1533 -0.1073  0.5930
  164TMC2     H 2555   4.147   3.213  10.977  0.6925  0.7143  0.8091
  164TMC2    H1 2556   4.186   3.594  11.156 -0.2289 -0.3450  0.2019
  164TMC2    H2 2557   3.809   3.461  11.013 -0.4871  0.0525 -1.4211
  164TMC2    C7 2558   3.923   3.657  11.146 -0.4360  0.3520  0.5090
  164TMC2    C8 2559   3.895   3.210  10.943 -1.0109 -0.2359 -0.3627
  164TMC2    O1 2560   3.805   3.655  11.184 -0.1030  0.3260  0.7606
  164TMC2    O2 2561   3.932   3.099  10.980  0.5012  0.3211 -0.1943
  164TMC2    O5 2562   3.765   3.249  10.937 -1.0273  0.0158 -0.0503
  164TMC2    H5 2563   3.772   3.327  10.877 -2.5576 -0.2425 -0.5630
  165TMC2    C1 2564   0.578   2.092   1.893  0.5150  0.1681 -0.3022
  165TMC2    C2 2565   0.454   2.147   1.889 -0.5721 -0.0181  0.4142
  165TMC2    C3 2566   0.440   2.272   1.825 -0.0961 -0.3136 -0.2464
  165TMC2    C4 2567   0.685   2.151   1.838 -0.9774  0.6990  0.3634
  165TMC2    C5 2568   0.669   2.255   1.758  0.9161  0.0979 -0.2486
  165TMC2    C6 2569   0.551   2.326   1.757 -0.0720 -0.4843 -0.0748
  165TMC2     C 2570   0.565   1.947   1.867 -0.4042 -0.6125 -0.3985
  165TMC2     O 2571   0.460   1.900   1.832  0.0923 -0.4132 -0.1886
  165TMC2     H 2572   0.372   2.098   1.941 -1.8460 -1.1376 -2.6807
  165TMC2    H1 2573   0.779   2.097   1.831 -1.4255 -0.1191  0.7245
  165TMC2    H2 2574   0.527   2.410   1.693  1.5683 -0.8945 -1.2277
  165TMC2    C7 2575   0.765   2.273   1.645 -0.1710  0.1976 -0.1845
  165TMC2    C8 2576   0.310   2.331   1.808  0.2004 -0.1737 -0.6370
  165TMC2    O1 2577   0.854   2.189   1.652  0.7250  0.0815  0.2324
  165TMC2    O2 2578   0.219   2.272   1.863 -0.2584 -0.0240 -0.3957
  165TMC2    O5 2579   0.314   2.468   1.778  0.9671 -0.0757  0.2433
  165TMC2    H5 2580   0.400   2.515   1.771  1.1770 -0.5384 -0.2221
  166MPD2     C 2581   0.833   1.527   1.703 -0.5633 -0.6543 -0.3684
  166MPD2    C1 2582   0.696   1.565   1.688  0.1885 -0.6591  0.3481
  166MPD2    C2 2583   0.651   1.688   1.734 -0.4803 -0.5874 -0.1831
  166MPD2    C3 2584   0.734   1.766   1.807  0.3221 -0.5387 -0.2530
  166MPD2    C4 2585   0.873   1.730   1.808 -0.2522 -0.0884 -0.9480
  166MPD2    C5 2586   0.923   1.609   1.758  0.4888  0.4881 -0.0443
  166MPD2     H 2587   0.547   1.716   1.724 -0.5459 -1.3290 -1.6026
  166MPD2    H1 2588   0.936   1.792   1.872 -0.8771  0.2918 -0.6990
  166MPD2    H2 2589   0.870   1.433   1.665 -3.3352 -2.1336  0.5781
  166MPD2    H3 2590   1.029   1.591   1.771  0.2912  0.5537  1.6306
  166MPD2     N 2591   0.688   1.883   1.875 -0.3380  0.5745 -0.7463
  166MPD2    H5 2592   0.753   1.945   1.922  1.2779 -0.9314 -0.9782
  166MPD2    N1 2593   0.605   1.476   1.625 -0.3818  0.3178  0.0509
  166MPD2    H7 2594   0.641   1.415   1.551 -0.4780  0.5739 -0.2073
  167TMC2    C1 2595   3.498   2.569  12.392 -0.3821  0.0547 -0.9857
  167TMC2    C2 2596   3.433   2.456  12.429  0.0157 -0.4336 -0.4605
  167TMC2    C3 2597   3.427   2.356  12.331  0.2613 -0.1362  0.5724
  167TMC2    C4 2598   3.546   2.580  12.261  0.4486  0.5172  0.6676
  167TMC2    C5 2599   3.527   2.483  12.166 -0.0421  0.0618 -0.4932
  167TMC2    C6 2600   3.473   2.369  12.201 -0.5091  0.2306  0.7485
  167TMC2     C 2601   3.439   2.685  12.451 -0.5887  0.2071  0.0988
  167TMC2     O 2602   3.414   2.673  12.569  0.1670 -0.2941  0.0492
  167TMC2     H 2603   3.366   2.452  12.514 -0.7413 -1.9503 -1.1245
  167TMC2    H1 2604   3.588   2.675  12.229 -0.2061 -0.2500 -2.4522
  167TMC2    H2 2605   3.453   2.291  12.129 -1.2129 -0.7172  1.9781
  167TMC2    C7 2606   3.473   2.534  12.047  0.1455  0.1178  0.2715
  167TMC2    C8 2607   3.389   2.224  12.376  0.8348 -0.0047 -0.3192
  167TMC2    O1 2608   3.406   2.636  12.056  0.1524 -0.3134 -0.3150
  167TMC2    O2 2609   3.368   2.136  12.295  0.0137 -0.6249 -0.0297
  167TMC2    O5 2610   3.398   2.209  12.510 -0.7417  0.7618 -0.0739
  167TMC2    H5 2611   3.459   2.276  12.549  1.6034 -1.4535  0.0755
  168MPD2     C 2612   3.346   2.957  12.516  0.3324 -0.7293  0.6223
  168MPD2    C1 2613   3.364   2.914  12.388 -0.1878 -0.3571  0.2207
  168MPD2    C2 2614   3.346   2.994  12.278  0.4279 -0.3737 -0.1322
  168MPD2    C3 2615   3.292   3.119  12.297  0.1526  0.7244  0.2644
  168MPD2    C4 2616   3.279   3.171  12.422 -0.2128 -0.1191 -0.4854
  168MPD2    C5 2617   3.308   3.083  12.529 -0.1894  0.2075 -0.0130
  168MPD2     H 2618   3.367   2.942  12.186  0.0591  0.5804 -0.7565
  168MPD2    H1 2619   3.231   3.265  12.443 -1.1157 -0.7138  0.1154
  168MPD2    H2 2620   3.362   2.905  12.610  1.7741  0.3227  0.9701
  168MPD2    H3 2621   3.304   3.120  12.631  2.2603 -1.6374  0.7353
  168MPD2     N 2622   3.266   3.208  12.188 -0.6026  0.7587 -0.0783
  168MPD2    H5 2623   3.236   3.302  12.210  1.1837  1.1671  0.5868
  168MPD2    N1 2624   3.414   2.782  12.362 -0.0192  0.2066 -0.2533
  168MPD2    H7 2625   3.426   2.757  12.264  1.5324 -0.7632  0.1943
  169MPD1     C 2626   1.254   1.290  10.082  0.6428 -0.2984 -0.4924
  169MPD1    C1 2627   1.207   1.228   9.965  0.0446  0.1330  0.6266
  169MPD1    C2 2628   1.292   1.228   9.853 -0.7506 -0.0852 -1.0900
  169MPD1    C3 2629   1.401   1.309   9.843 -0.4036 -0.4531  0.1128
  169MPD1    C4 2630   1.439   1.373   9.954 -0.1384  0.2422 -0.4993
  169MPD1    C5 2631   1.371   1.362  10.070 -0.4818  0.2798 -0.3836
  169MPD1     H 2632   1.261   1.176   9.763 -1.0920 -0.4088 -0.7824
  169MPD1    H1 2633   1.522   1.443   9.949  0.0769  0.0703  0.8262
  169MPD1    H2 2634   1.206   1.302  10.179 -3.7715  2.1977 -2.9606
  169MPD1    H3 2635   1.403   1.414  10.160 -0.5916 -1.4055  0.6219
  169MPD1     N 2636   1.473   1.318   9.720  0.1282  0.7453 -0.3301
  169MPD1    H5 2637   1.432   1.266   9.643 -1.0003  1.4811 -0.2227
  169MPD1    N1 2638   1.102   1.133   9.974  0.4777 -0.2345  0.4173
  169MPD1    H6 2639   1.025   1.177  10.024 -0.0426 -0.0971 -0.5037
  169MPD1    H7 2640   1.137   1.058  10.035 -1.2727 -3.0089 -1.9868
  170MPD1     C 2641   4.537   0.707  13.106 -0.0987  0.3002  0.0353
  170MPD1    C1 2642   4.437   0.622  13.160  0.1869  0.2307  0.1542
  170MPD1    C2 2643   4.407   0.655  13.292 -0.9829  0.4936 -0.2565
  170MPD1    C3 2644   4.490   0.729  13.370  0.3290 -0.2021  0.3477
  170MPD1    C4 2645   4.603   0.780  13.318  0.4569  0.5812  0.1542
  170MPD1    C5 2646   4.618   0.784  13.184 -0.2036  1.0691  0.1747
  170MPD1     H 2647   4.316   0.620  13.340 -1.2126  0.8319 -0.4437
  170MPD1    H1 2648   4.683   0.824  13.376 -0.6199 -1.1080  2.9391
  170MPD1    H2 2649   4.572   0.694  13.004  2.1679 -0.4384  0.8975
  170MPD1    H3 2650   4.704   0.831  13.139 -0.1148  0.5686 -0.1718
  170MPD1     N 2651   4.462   0.738  13.507  0.7794  0.7346 -0.7232
  170MPD1    H5 2652   4.369   0.709  13.534  2.1027 -2.2737  0.5092
  170MPD1    N1 2653   4.346   0.551  13.079 -0.5140  0.4286 -0.6316
  170MPD1    H6 2654   4.292   0.479  13.125 -0.6276  0.3922 -0.8209
  170MPD1    H7 2655   4.386   0.506  12.996 -0.3896 -0.5016 -0.0664
  171MPD1     C 2656   2.768   2.714  15.463 -0.0736 -0.3384  0.7169
  171MPD1    C1 2657   2.675   2.607  15.466  0.0368 -0.2888  0.1949
  171MPD1    C2 2658   2.715   2.486  15.523  0.3084  0.2440 -0.2925
  171MPD1    C3 2659   2.840   2.473  15.589  0.1035  0.0058 -0.3576
  171MPD1    C4 2660   2.915   2.586  15.605  0.2791 -0.0023 -0.2298
  171MPD1    C5 2661   2.880   2.701  15.541  0.3486 -0.3050 -0.6642
  171MPD1     H 2662   2.652   2.401  15.499 -0.7049  0.0365  3.1661
  171MPD1    H1 2663   3.016   2.583  15.645 -0.0231  0.1273  0.5420
  171MPD1    H2 2664   2.747   2.811  15.418  0.6610 -1.3800 -1.8960
  171MPD1    H3 2665   2.941   2.791  15.548 -1.0771  0.6601 -0.5019
  171MPD1     N 2666   2.883   2.349  15.657 -0.7606  0.8347  0.3972
  171MPD1    H5 2667   2.972   2.365  15.705  0.5153 -0.0931 -1.6655
  171MPD1    N1 2668   2.552   2.626  15.404  0.1332  0.4085 -0.3806
  171MPD1    H6 2669   2.478   2.566  15.439 -0.7223  1.7055  0.0030
  171MPD1    H7 2670   2.516   2.721  15.399 -0.1606  0.3112 -0.1208
  172MPD1     C 2671   1.767   3.728   0.198  0.0377 -0.1976 -0.3869
  172MPD1    C1 2672   1.873   3.649   0.245  0.1039  0.2476  0.0159
  172MPD1    C2 2673   1.888   3.519   0.201 -0.2651 -0.3532 -0.6447
  172MPD1    C3 2674   1.777   3.462   0.130 -0.1673 -0.0970 -0.4038
  172MPD1    C4 2675   1.672   3.543   0.093  0.0827  0.5365  0.4436
  172MPD1    C5 2676   1.664   3.675   0.125 -0.7617 -0.5785  0.1171
  172MPD1     H 2677   1.976   3.460   0.224  0.2702  1.1211  1.0919
  172MPD1    H1 2678   1.593   3.505   0.030 -1.2137  3.5084  0.2919
  172MPD1    H2 2679   1.764   3.836   0.213  2.0364 -0.1842 -0.0859
  172MPD1    H3 2680   1.588   3.738   0.081 -1.1434  0.1628  1.8669
  172MPD1     N 2681   1.773   3.331   0.076 -0.5280  0.5025  0.2855
  172MPD1    H5 2682   1.686   3.317   0.025 -0.3739 -1.4176  0.5460
  172MPD1    N1 2683   1.979   3.711   0.313 -0.6634  0.2803  0.6564
  172MPD1    H6 2684   1.943   3.795   0.357  1.0094  0.5233  1.5523
  172MPD1    H7 2685   2.023   3.658   0.388 -1.5302 -2.5707 -0.8821
  173MPD1     C 2686   3.090   1.572  13.831  0.4640 -0.0024  0.4919
  173MPD1    C1 2687   3.020   1.496  13.924 -0.3967 -0.6908  0.2998
  173MPD1    C2 2688   3.094   1.450  14.033 -0.1958  0.1914  0.4238
  173MPD1    C3 2689   3.222   1.472  14.058  0.4923  0.0199  0.0776
  173MPD1    C4 2690   3.290   1.554  13.967 -0.1767  0.1715 -0.4642
  173MPD1    C5 2691   3.215   1.604  13.859 -0.0669  0.1674  0.5571
  173MPD1     H 2692   3.042   1.386  14.104  1.3352 -3.0138 -1.3495
  173MPD1    H1 2693   3.392   1.588  13.972 -0.6342  1.4745  0.0458
  173MPD1    H2 2694   3.041   1.603  13.739  2.1939  0.7146 -0.2000
  173MPD1    H3 2695   3.257   1.680  13.794 -1.1572 -0.6790 -1.1339
  173MPD1     N 2696   3.271   1.408  14.174 -0.5210  0.5066  0.1434
  173MPD1    H5 2697   3.203   1.349  14.221 -0.6394 -0.4493 -1.2178
  173MPD1    N1 2698   2.883   1.451  13.897  0.2881 -0.1237 -0.0741
  173MPD1    H6 2699   2.854   1.515  13.822 -1.0906 -0.1913  0.4034
  173MPD1    H7 2700   2.819   1.463  13.975  1.1542 -1.2013  0.7924
  174MPD1     C 2701   4.186   1.106  14.443 -0.3792  0.2679  0.6431
  174MPD1    C1 2702   4.119   1.126  14.558 -0.1901  0.2161 -1.0014
  174MPD1    C2 2703   3.982   1.118  14.549 -0.0549  0.1287 -0.4382
  174MPD1    C3 2704   3.920   1.139  14.423  0.3221 -0.8773 -0.0899
  174MPD1    C4 2705   3.997   1.133  14.309  0.8148  0.1558 -0.3102
  174MPD1    C5 2706   4.130   1.097  14.323 -0.1268  0.0859  0.2612
  174MPD1     H 2707   3.918   1.107  14.636  0.8762  0.0552  0.2357
  174MPD1    H1 2708   3.948   1.136  14.213  0.1184 -2.3129 -0.0282
  174MPD1    H2 2709   4.291   1.079  14.448  0.0217  1.3243 -2.2319
  174MPD1    H3 2710   4.189   1.081  14.234  0.1993 -2.2770  0.9289
  174MPD1     N 2711   3.779   1.164  14.410  0.2293  0.5894  0.0374
  174MPD1    H5 2712   3.742   1.181  14.317 -0.7622 -0.0507  0.3148
  174MPD1    N1 2713   4.187   1.129  14.680 -0.1881  0.3293 -0.2312
  174MPD1    H6 2714   4.268   1.189  14.665 -1.0925  0.9298 -2.7127
  174MPD1    H7 2715   4.129   1.171  14.752  1.1576 -0.1966  1.1612
  175MPD1     C 2716   2.156   2.407  15.126 -0.2090  0.6203  0.2448
  175MPD1    C1 2717   2.200   2.291  15.184 -0.3081  0.6236  0.3561
  175MPD1    C2 2718   2.130   2.247  15.301 -0.7727  0.5340  0.5072
  175MPD1    C3 2719   2.002   2.290  15.325 -0.3965  0.7032  0.1661
  175MPD1    C4 2720   1.957   2.395  15.261  0.0580 -0.2540 -0.6054
  175MPD1    C5 2721   2.031   2.454  15.170  0.2600  0.1116  0.0781
  175MPD1     H 2722   2.180   2.172  15.361 -1.7682 -0.6893 -0.1968
  175MPD1    H1 2723   1.862   2.437  15.290 -0.6528 -1.8296 -0.6675
  175MPD1    H2 2724   2.213   2.460  15.051 -1.2654 -0.3541 -1.2469
  175MPD1    H3 2725   1.996   2.552  15.137  0.9918  0.0691 -0.8113
  175MPD1     N 2726   1.934   2.248  15.440  0.0489 -0.7795 -0.1059
  175MPD1    H5 2727   1.860   2.314  15.466  0.7900 -0.3603  0.9517
  175MPD1    N1 2728   2.324   2.238  15.159  0.4486 -0.3028 -0.0529
  175MPD1    H6 2729   2.346   2.248  15.060  0.2377  0.2571 -0.0417
  175MPD1    H7 2730   2.328   2.143  15.196 -1.5499  0.1487  1.2979
  176MPD1     C 2731   3.576   3.586  16.714 -0.8581  0.0542 -0.0651
  176MPD1    C1 2732   3.644   3.593  16.831  0.0459 -0.4680 -0.3645
  176MPD1    C2 2733   3.611   3.695  16.923  0.8120 -0.5230 -0.6443
  176MPD1    C3 2734   3.505   3.782  16.901  0.3477 -0.2338  0.3927
  176MPD1    C4 2735   3.450   3.782  16.774  0.3896 -0.1731 -0.3755
  176MPD1    C5 2736   3.482   3.683  16.689 -0.1710  0.2584 -0.1948
  176MPD1     H 2737   3.664   3.709  17.016 -1.2180  1.4252  0.2280
  176MPD1    H1 2738   3.379   3.857  16.740 -0.3821 -0.4894  0.5514
  176MPD1    H2 2739   3.603   3.513  16.638  1.3881  0.1832  0.6108
  176MPD1    H3 2740   3.431   3.681  16.594  1.0383  0.8310 -0.8658
  176MPD1     N 2741   3.466   3.880  16.997 -0.0453 -0.1289 -0.4931
  176MPD1    H5 2742   3.514   3.872  17.087 -1.8810 -0.8324  0.4178
  176MPD1    N1 2743   3.775   3.538  16.840 -0.1150 -0.5859  0.0544
  176MPD1    H6 2744   3.779   3.449  16.792  3.3205  1.0539 -2.7129
  176MPD1    H7 2745   3.802   3.514  16.935  0.4449  0.2946  0.1205
  177MPD1     C 2746   2.688   3.173   9.252 -0.0680 -0.2115 -0.1958
  177MPD1    C1 2747   2.646   3.120   9.373 -0.6048  0.9217 -0.2340
  177MPD1    C2 2748   2.643   3.209   9.480 -0.3181  0.2487 -0.1628
  177MPD1    C3 2749   2.656   3.345   9.464  0.4577 -0.4437 -0.1133
  177MPD1    C4 2750   2.676   3.396   9.340  0.5244 -0.9172  0.3060
  177MPD1    C5 2751   2.707   3.310   9.234  0.2868 -1.0037  0.4015
  177MPD1     H 2752   2.631   3.167   9.579 -1.8397  1.4639  0.1742
  177MPD1    H1 2753   2.667   3.501   9.316 -0.9533 -0.7950  1.4241
  177MPD1    H2 2754   2.715   3.112   9.167  0.0737  0.1413 -0.4006
  177MPD1    H3 2755   2.728   3.342   9.132  0.6755 -1.5949  0.2980
  177MPD1     N 2756   2.618   3.427   9.576  0.3068 -0.0791  0.9122
  177MPD1    H5 2757   2.573   3.384   9.657  0.5019  3.0908  2.7051
  177MPD1    N1 2758   2.666   2.983   9.404  0.7725  0.4056  0.2007
  177MPD1    H6 2759   2.658   2.930   9.318  3.4946 -1.9192  1.3741
  177MPD1    H7 2760   2.601   2.959   9.479  1.5700  0.4429  0.9071
  178MPD1     C 2761   4.122   4.680   0.264 -0.9657 -0.4138  0.3420
  178MPD1    C1 2762   4.202   0.060   0.261 -0.1906 -0.1866  0.6783
  178MPD1    C2 2763   4.283   0.087   0.148 -0.2136  0.2284  0.0385
  178MPD1    C3 2764   4.289   4.734   0.042 -0.0970  0.4889  0.2121
  178MPD1    C4 2765   4.222   4.614   0.051 -0.8274 -0.1603 -0.4956
  178MPD1    C5 2766   4.146   4.588   0.165 -1.1853  0.1417 -0.4228
  178MPD1     H 2767   4.342   0.178   0.155 -0.3997  0.4537 -1.2583
  178MPD1    H1 2768   4.246   4.538  17.717  0.8282  0.7992 -0.9428
  178MPD1    H2 2769   4.066   4.656   0.353 -0.1771  0.1568  0.9992
  178MPD1    H3 2770   4.107   4.488   0.171 -0.8220 -0.0803 -1.5764
  178MPD1     N 2771   4.373   0.020  17.674  0.5533  0.0931  0.4469
  178MPD1    H5 2772   4.370   4.682  17.603 -2.0623  0.2255  0.4222
  178MPD1    N1 2773   4.175   0.167   0.353  0.0580 -0.0036  0.6541
  178MPD1    H6 2774   4.246   0.239   0.364 -0.0627  0.5355 -2.1786
  178MPD1    H7 2775   4.152   0.117   0.439  0.6773  0.5807  1.1627
  179MPD1     C 2776   3.550   3.584  15.811  0.5658 -0.0432 -0.3753
  179MPD1    C1 2777   3.602   3.552  15.689  0.3827  0.1666 -0.0835
  179MPD1    C2 2778   3.604   3.423  15.653  0.2670  0.9320 -0.0508
  179MPD1    C3 2779   3.577   3.316  15.736 -0.3378  0.2929  0.0207
  179MPD1    C4 2780   3.534   3.347  15.862  0.2714  0.1062  1.2896
  179MPD1    C5 2781   3.515   3.480  15.896 -1.0145  0.0336  0.3726
  179MPD1     H 2782   3.635   3.404  15.551 -1.1449  0.1660 -0.3399
  179MPD1    H1 2783   3.502   3.269  15.931 -2.2558 -0.5759 -0.6335
  179MPD1    H2 2784   3.548   3.686  15.849 -1.4697 -0.6833  1.2179
  179MPD1    H3 2785   3.476   3.504  15.995 -2.0508  1.6105 -0.4127
  179MPD1     N 2786   3.601   3.182  15.695  0.0890 -0.1841  0.1383
  179MPD1    H5 2787   3.610   3.112  15.768 -1.4782 -0.1109  0.4019
  179MPD1    N1 2788   3.630   3.661  15.596 -0.0356  0.5417 -0.1310
  179MPD1    H6 2789   3.704   3.716  15.639 -1.4495  0.5827  2.3014
  179MPD1    H7 2790   3.664   3.620  15.510  0.2101 -1.0391  0.6957
  180MPD1     C 2791   3.581   0.469  14.683 -0.3482 -0.2900  0.7622
  180MPD1    C1 2792   3.716   0.449  14.703 -0.0142  0.2743  0.0094
  180MPD1    C2 2793   3.781   0.379  14.607 -0.1677  0.5610  0.1075
  180MPD1    C3 2794   3.724   0.335  14.490 -0.4398 -0.9816  0.5030
  180MPD1    C4 2795   3.595   0.372  14.460 -0.2333  0.2178  0.1632
  180MPD1    C5 2796   3.527   0.437  14.558  0.2372 -0.4550 -0.2555
  180MPD1     H 2797   3.886   0.357  14.620 -0.0945  0.2931 -0.9388
  180MPD1    H1 2798   3.542   0.334  14.372  1.3594  0.5702 -0.9497
  180MPD1    H2 2799   3.510   0.514  14.751 -0.7162 -1.2506  1.0157
  180MPD1    H3 2800   3.420   0.454  14.555  0.8739  3.5261 -0.8237
  180MPD1     N 2801   3.805   0.258  14.408 -0.2829  0.3900 -0.1343
  180MPD1    H5 2802   3.889   0.222  14.452 -1.6482  0.2796  2.4002
  180MPD1    N1 2803   3.771   0.468  14.832  0.0971  0.1794 -0.4817
  180MPD1    H6 2804   3.873   0.462  14.840  0.2122  1.9730 -0.5393
  180MPD1    H7 2805   3.733   0.549  14.880  1.9917  0.8383 -0.0687
  181MPD1     C 2806   0.169   1.167   9.222  0.2326 -0.3366 -0.7467
  181MPD1    C1 2807   0.235   1.285   9.238 -0.4192  0.1860  0.2530
  181MPD1    C2 2808   0.362   1.287   9.290 -0.2613  0.5369 -0.4888
  181MPD1    C3 2809   0.427   1.173   9.341  0.3392  1.1191 -0.7735
  181MPD1    C4 2810   0.357   1.057   9.321  0.2682 -0.0371  0.3873
  181MPD1    C5 2811   0.229   1.057   9.277 -0.5365 -0.1218  0.0771
  181MPD1     H 2812   0.416   1.380   9.305  0.2909  0.1348  0.0646
  181MPD1    H1 2813   0.407   0.966   9.352  0.1901 -0.2208 -0.0180
  181MPD1    H2 2814   0.073   1.154   9.174  1.3778 -0.2020 -3.0771
  181MPD1    H3 2815   0.182   0.960   9.262  2.0124 -1.6659  2.0732
  181MPD1     N 2816   0.556   1.167   9.398  0.1323  0.1959 -0.9209
  181MPD1    H5 2817   0.594   1.073   9.404  2.1387  0.9608 -1.4925
  181MPD1    N1 2818   0.177   1.404   9.181 -0.1313 -0.1412 -0.0494
  181MPD1    H6 2819   0.226   1.416   9.093  2.2146  2.0811  1.5800
  181MPD1    H7 2820   0.078   1.390   9.158  0.3307  0.2412 -2.1977
  182MPD1     C 2821   2.127   1.263   2.038  0.4005  0.3615  0.1510
  182MPD1    C1 2822   2.131   1.259   1.902  0.6269 -0.2231  0.2867
  182MPD1    C2 2823   2.005   1.250   1.836  0.0452 -0.4555  0.1363
  182MPD1    C3 2824   1.885   1.235   1.909 -0.1031  0.2464 -0.1846
  182MPD1    C4 2825   1.890   1.229   2.046 -0.4142  0.1137 -0.4953
  182MPD1    C5 2826   2.012   1.245   2.103  0.6050  0.0218 -0.3243
  182MPD1     H 2827   2.011   1.263   1.728  3.8699 -0.6740  0.3518
  182MPD1    H1 2828   1.810   1.219   2.119 -1.7864 -0.2499 -2.0352
  182MPD1    H2 2829   2.212   1.266   2.105  1.1942  2.6621 -0.9224
  182MPD1    H3 2830   2.013   1.239   2.211  3.2172  3.8885 -0.1485
  182MPD1     N 2831   1.761   1.221   1.846 -0.1930 -0.2486 -0.7921
  182MPD1    H5 2832   1.678   1.227   1.904  1.8903  2.2542  1.8588
  182MPD1    N1 2833   2.241   1.297   1.823 -0.4802 -0.5134  0.1641
  182MPD1    H6 2834   2.322   1.248   1.860  0.8970  1.4812 -0.2038
  182MPD1    H7 2835   2.233   1.261   1.729  3.6787  0.0296 -0.4044
  183MPD1     C 2836   1.226   0.191   8.985  0.7826  0.2467  0.8354
  183MPD1    C1 2837   1.124   0.288   8.987  0.5907 -0.2839  0.4017
  183MPD1    C2 2838   1.163   0.415   9.011 -0.0708 -0.7803  0.1692
  183MPD1    C3 2839   1.285   0.447   9.061  0.3626  0.1688  0.2335
  183MPD1    C4 2840   1.383   0.347   9.068  0.5414  0.0691 -0.5708
  183MPD1    C5 2841   1.353   0.222   9.019 -0.2094  0.3083  0.8463
  183MPD1     H 2842   1.085   0.488   8.993  0.3310 -0.7933 -1.6323
  183MPD1    H1 2843   1.476   0.364   9.121  1.2291 -1.7177 -1.2130
  183MPD1    H2 2844   1.211   0.089   8.952 -0.8521  1.1435 -1.1747
  183MPD1    H3 2845   1.434   0.150   9.020 -0.5393 -0.0931 -1.4149
  183MPD1     N 2846   1.301   0.583   9.112 -0.6206  0.1239 -0.0090
  183MPD1    H5 2847   1.210   0.628   9.112 -0.5790  0.1873 -2.4259
  183MPD1    N1 2848   1.012   0.267   8.908  0.1063 -0.5372 -0.0579
  183MPD1    H6 2849   0.927   0.317   8.933  0.9365  0.8125  0.0685
  183MPD1    H7 2850   0.982   0.170   8.903  1.9134 -1.2096  2.2110
  184MPD1     C 2851   0.889   4.155  10.744  0.0557  0.1477 -0.0598
  184MPD1    C1 2852   0.837   4.037  10.705 -0.3703 -0.4771  0.6017
  184MPD1    C2 2853   0.889   3.970  10.599 -0.3647 -0.2470 -0.2986
  184MPD1    C3 2854   0.996   4.016  10.524 -0.4008  0.0616 -0.6859
  184MPD1    C4 2855   1.048   4.139  10.559 -0.8284  0.7039  0.6066
  184MPD1    C5 2856   0.991   4.208  10.665 -0.0978 -0.5228  0.3557
  184MPD1     H 2857   0.835   3.880  10.570  0.5456 -0.4676 -1.3189
  184MPD1    H1 2858   1.128   4.181  10.499 -1.1044 -0.8848 -0.8869
  184MPD1    H2 2859   0.857   4.216  10.828  0.4775  1.3225 -0.7417
  184MPD1    H3 2860   1.029   4.308  10.684  0.2250 -0.5575 -0.1166
  184MPD1     N 2861   1.052   3.942  10.416  0.3013  0.3312 -0.6185
  184MPD1    H5 2862   1.125   3.997  10.371  1.5659  0.2618  1.3649
  184MPD1    N1 2863   0.756   3.970  10.799  0.1876  0.5333 -0.3497
  184MPD1    H6 2864   0.699   3.899  10.754  0.0279  1.2531 -1.2981
  184MPD1    H7 2865   0.692   4.025  10.857  0.6772  1.3994 -0.6193
  185MPD1     C 2866   0.638   3.562   9.611  0.3650  0.2523  0.5403
  185MPD1    C1 2867   0.764   3.517   9.602 -0.1565 -0.1425  0.5915
  185MPD1    C2 2868   0.858   3.562   9.694  0.0110  0.2333  0.0988
  185MPD1    C3 2869   0.815   3.643   9.800 -0.7061  0.2662  0.1400
  185MPD1    C4 2870   0.690   3.692   9.803 -0.1572  0.4047 -1.0923
  185MPD1    C5 2871   0.600   3.646   9.713 -0.3848  0.8142 -0.0545
  185MPD1     H 2872   0.958   3.520   9.684 -0.2387 -0.0748 -1.0571
  185MPD1    H1 2873   0.645   3.735   9.892 -2.2346 -1.2906 -1.3342
  185MPD1    H2 2874   0.561   3.529   9.543  2.3050 -1.2014 -0.9815
  185MPD1    H3 2875   0.496   3.673   9.732 -0.4976  0.4813 -0.2060
  185MPD1     N 2876   0.900   3.667   9.909 -0.9411 -0.6940  0.5147
  185MPD1    H5 2877   0.853   3.711   9.988 -1.1174 -0.8711  0.5066
  185MPD1    N1 2878   0.797   3.428   9.499 -0.3991 -0.1261 -0.7216
  185MPD1    H6 2879   0.732   3.352   9.482 -0.2585 -1.4558  4.5555
  185MPD1    H7 2880   0.884   3.377   9.510 -0.1346  0.3567 -0.5597
  186MPD1     C 2881   4.207   2.836  15.886  0.3675  0.2989  0.2727
  186MPD1    C1 2882   4.293   2.824  15.990  0.0743  0.4372  1.1889
  186MPD1    C2 2883   4.291   2.931  16.079  0.3272 -0.1102 -0.6571
  186MPD1    C3 2884   4.230   3.050  16.050 -0.7609 -0.2834  0.3249
  186MPD1    C4 2885   4.165   3.062  15.927  0.5056 -0.5029  0.2085
  186MPD1    C5 2886   4.155   2.956  15.851 -0.1510  0.7289 -0.4745
  186MPD1     H 2887   4.344   2.922  16.173 -0.8910  0.4773  0.0930
  186MPD1    H1 2888   4.103   3.146  15.898  2.0891  0.4430 -0.4476
  186MPD1    H2 2889   4.177   2.756  15.819 -0.4493  1.8173 -1.1826
  186MPD1    H3 2890   4.083   2.959  15.770  0.7941 -2.6021 -1.4627
  186MPD1     N 2891   4.248   3.165  16.132  0.2589 -0.3634 -0.4038
  186MPD1    H5 2892   4.295   3.145  16.219 -0.8626 -0.1172  0.2689
  186MPD1    N1 2893   4.355   2.702  16.027 -0.5897 -0.3373  0.3649
  186MPD1    H6 2894   4.393   2.655  15.945  1.5485  1.2754  0.4461
  186MPD1    H7 2895   4.435   2.721  16.087  2.7326 -3.1292 -3.2138
  187MPD1     C 2896   3.493   0.773   0.478  0.2327 -0.4211  0.5559
  187MPD1    C1 2897   3.418   0.783   0.363 -0.2728  0.6326  0.5810
  187MPD1    C2 2898   3.450   0.694   0.260 -0.1451 -0.5668 -0.6197
  187MPD1    C3 2899   3.564   0.615   0.262  0.1778 -0.0921  0.1077
  187MPD1    C4 2900   3.638   0.606   0.383 -0.1778  0.5176  0.5177
  187MPD1    C5 2901   3.595   0.682   0.490  0.7778 -0.3006 -0.2443
  187MPD1     H 2902   3.389   0.688   0.171 -2.8104  0.2008  1.1712
  187MPD1    H1 2903   3.722   0.539   0.393 -0.9062 -0.2402  1.4896
  187MPD1    H2 2904   3.480   0.845   0.559  0.5291  0.6000 -0.3097
  187MPD1    H3 2905   3.655   0.679   0.580 -0.2578 -0.6397  0.4408
  187MPD1     N 2906   3.597   0.535   0.153 -0.4661  0.3736  0.8541
  187MPD1    H5 2907   3.676   0.475   0.172 -0.9484 -1.2827 -2.2944
  187MPD1    N1 2908   3.317   0.875   0.347  0.3927 -0.2353 -0.0554
  187MPD1    H6 2909   3.309   0.911   0.253  1.5185 -1.9137 -0.7949
  187MPD1    H7 2910   3.332   0.949   0.415 -1.3272 -1.2143  1.3817
  188MPD1     C 2911   3.549   0.710  10.405 -0.4130 -0.2826 -0.2376
  188MPD1    C1 2912   3.647   0.637  10.465  0.0159 -1.1001  0.1081
  188MPD1    C2 2913   3.666   0.503  10.452  0.8568 -0.6661 -0.5944
  188MPD1    C3 2914   3.576   0.428  10.364 -0.7626  0.2609  0.0912
  188MPD1    C4 2915   3.487   0.507  10.296 -0.1190 -0.0959 -0.2424
  188MPD1    C5 2916   3.479   0.643  10.311  0.3995  0.1650  0.4860
  188MPD1     H 2917   3.734   0.448  10.517  0.9334 -0.1898 -0.2749
  188MPD1    H1 2918   3.434   0.460  10.214  1.7357 -1.5846 -0.5834
  188MPD1    H2 2919   3.532   0.816  10.417 -2.4496 -0.3138 -2.8036
  188MPD1    H3 2920   3.406   0.700  10.254 -0.6560 -3.1544 -1.4622
  188MPD1     N 2921   3.569   0.289  10.343 -0.4397  0.2376 -0.0860
  188MPD1    H5 2922   3.489   0.248  10.296 -0.6434 -0.3614  0.7917
  188MPD1    N1 2923   3.718   0.703  10.569 -0.4386 -0.1482 -0.6212
  188MPD1    H6 2924   3.814   0.669  10.581 -0.4205 -0.6943 -2.2246
  188MPD1    H7 2925   3.721   0.798  10.533 -0.2721  0.0457 -0.0907
  189MPD1     C 2926   0.197   1.444   0.619 -0.1657 -0.3067 -0.1684
  189MPD1    C1 2927   0.200   1.392   0.495 -0.0475 -0.2203 -0.0111
  189MPD1    C2 2928   0.098   1.430   0.408 -0.7977 -0.7204  0.0194
  189MPD1    C3 2929   0.007   1.526   0.439  0.1234  0.1693  0.2242
  189MPD1    C4 2930   0.014   1.593   0.560  0.7113  0.9987  0.3532
  189MPD1    C5 2931   0.106   1.540   0.650  0.0099  0.5034  0.5632
  189MPD1     H 2932   0.105   1.392   0.306  0.9360  0.7191 -0.3983
  189MPD1    H1 2933   4.680   1.670   0.593 -0.5043 -0.0039  0.1210
  189MPD1    H2 2934   0.265   1.416   0.699  2.6270  1.8929 -1.7568
  189MPD1    H3 2935   0.111   1.584   0.750 -2.2126 -0.4334  1.1010
  189MPD1     N 2936   4.636   1.550   0.348  0.1490  0.1266  0.3059
  189MPD1    H5 2937   4.645   1.502   0.259  1.2489 -2.0651  1.6163
  189MPD1    N1 2938   0.310   1.321   0.449  0.1330  0.1007 -0.2300
  189MPD1    H6 2939   0.300   1.268   0.363 -0.7595  0.8220 -0.5697
  189MPD1    H7 2940   0.345   1.263   0.525  0.7576  0.7396 -0.0282
  190MPD1     C 2941   3.535   4.592  15.670  0.0461 -0.4008 -0.4935
  190MPD1    C1 2942   3.597   4.684  15.746 -0.0948 -0.1163  0.4208
  190MPD1    C2 2943   3.734   4.670  15.765 -0.1411  0.3347  0.5573
  190MPD1    C3 2944   3.817   4.577  15.698  0.7500  0.6404  0.3956
  190MPD1    C4 2945   3.747   4.493  15.610  0.4990 -0.3592 -0.2730
  190MPD1    C5 2946   3.607   4.500  15.601 -0.2307 -0.4510 -0.3527
  190MPD1     H 2947   3.768   0.006  15.840  0.0210  0.6357  0.1988
  190MPD1    H1 2948   3.793   4.426  15.538 -0.6899 -1.1055 -0.3311
  190MPD1    H2 2949   3.427   4.591  15.668  0.0424 -0.3234 -0.3445
  190MPD1    H3 2950   3.563   4.426  15.536  1.6704 -0.2927 -1.8098
  190MPD1     N 2951   3.964   4.575  15.726  0.1446  0.2838 -0.4427
  190MPD1    H5 2952   4.001   4.629  15.804 -0.2892  0.3917 -0.3079
  190MPD1    N1 2953   3.520   0.043  15.823  0.1681 -0.5829  0.3163
  190MPD1    H6 2954   3.429   0.061  15.782  0.1214 -3.1970 -0.7190
  190MPD1    H7 2955   3.564   0.134  15.840 -0.5243 -0.4552  1.3597
  191MPD1     C 2956   2.956   1.003  13.228  0.3820 -0.2891 -0.6678
  191MPD1    C1 2957   2.841   1.067  13.270  0.4201  0.0272  0.0897
  191MPD1    C2 2958   2.841   1.206  13.250  0.5254  0.0002 -0.3636
  191MPD1    C3 2959   2.949   1.274  13.208  0.0623  0.3359  0.4543
  191MPD1    C4 2960   3.061   1.203  13.186 -0.5127  0.0303  0.3532
  191MPD1    C5 2961   3.064   1.070  13.183  0.2115  0.6269 -0.3088
  191MPD1     H 2962   2.748   1.259  13.268  1.9811  1.6377  2.4084
  191MPD1    H1 2963   3.158   1.247  13.166  0.0383 -1.1597  0.4108
  191MPD1    H2 2964   2.959   0.894  13.225  1.7610 -0.2221 -1.7530
  191MPD1    H3 2965   3.159   1.020  13.165  0.1933  0.8598 -1.0474
  191MPD1     N 2966   2.944   1.413  13.193  0.1655  0.2851 -0.2573
  191MPD1    H5 2967   2.864   1.457  13.236  1.9709  3.6274 -0.3043
  191MPD1    N1 2968   2.719   0.995  13.287  0.2904 -0.6236  0.1996
  191MPD1    H6 2969   2.734   0.909  13.339  0.1518 -0.0875  1.1171
  191MPD1    H7 2970   2.654   1.053  13.339  0.2212 -0.2535 -0.2943
  192MPD1     C 2971   2.308   2.134  12.951  0.0348 -0.2624  0.5605
  192MPD1    C1 2972   2.314   1.997  12.963 -0.2197  0.4277  0.2256
  192MPD1    C2 2973   2.438   1.940  12.968  0.5917 -0.3049  0.5822
  192MPD1    C3 2974   2.556   2.015  12.972  0.3731  0.3360  0.3787
  192MPD1    C4 2975   2.543   2.153  12.952  0.0692 -0.7401  1.1910
  192MPD1    C5 2976   2.421   2.212  12.932  0.4965  0.4415 -0.5193
  192MPD1     H 2977   2.438   1.831  12.969  0.6096 -0.3139  0.0178
  192MPD1    H1 2978   2.633   2.212  12.937 -1.4125  1.0638 -0.5908
  192MPD1    H2 2979   2.212   2.183  12.947  0.1081 -0.1095  0.6656
  192MPD1    H3 2980   2.425   2.318  12.909  1.6954  0.0235 -2.1922
  192MPD1     N 2981   2.683   1.958  13.003  0.5192 -0.1871  0.3269
  192MPD1    H5 2982   2.753   2.023  13.035  0.0054  0.5872 -0.1137
  192MPD1    N1 2983   2.202   1.914  12.930  0.0811  0.4009 -0.1360
  192MPD1    H6 2984   2.116   1.956  12.964  1.3031  1.2665  1.8407
  192MPD1    H7 2985   2.205   1.823  12.975  1.0751 -0.2252 -1.4570
  193MPD1     C 2986   2.731   1.678  16.208  0.2403  0.1646 -0.4275
  193MPD1    C1 2987   2.714   1.806  16.165 -0.3839 -0.4553 -0.2511
  193MPD1    C2 2988   2.763   1.907  16.241 -0.3210  0.0182 -0.1213
  193MPD1    C3 2989   2.854   1.881  16.345  0.5802  0.1531 -0.2435
  193MPD1    C4 2990   2.900   1.754  16.365 -0.2075 -0.0332 -0.4570
  193MPD1    C5 2991   2.827   1.656  16.301  0.2522 -0.0133 -0.7040
  193MPD1     H 2992   2.747   2.012  16.220 -2.6355 -0.7907 -2.4763
  193MPD1    H1 2993   2.969   1.743  16.448  0.1434  0.3094 -0.6980
  193MPD1    H2 2994   2.676   1.593  16.170  1.1629 -0.3762 -0.5598
  193MPD1    H3 2995   2.838   1.557  16.345  0.3082  0.5415  0.5396
  193MPD1     N 2996   2.923   1.980  16.419  0.2104  0.0085 -0.1071
  193MPD1    H5 2997   2.984   1.944  16.492 -0.1089 -0.1461  0.0857
  193MPD1    N1 2998   2.617   1.823  16.066  0.3014  0.3912  0.3048
  193MPD1    H6 2999   2.620   1.750  15.994 -1.1216  0.2619  0.3744
  193MPD1    H7 3000   2.640   1.916  16.032 -0.1600  0.6854  0.8023
  194MPD1     C 3001   0.455   3.825  17.025 -0.0955 -0.2149 -0.0460
  194MPD1    C1 3002   0.512   3.808  16.907  0.3535  0.4737  0.1294
  194MPD1    C2 3003   0.524   3.678  16.862 -0.1155 -0.2519  0.2342
  194MPD1    C3 3004   0.505   3.573  16.946  0.9638 -0.3238  0.6524
  194MPD1    C4 3005   0.453   3.593  17.072 -0.5219 -0.0526  0.3630
  194MPD1    C5 3006   0.427   3.720  17.112  0.4638  0.7755 -0.2004
  194MPD1     H 3007   0.559   3.660  16.761 -1.5523  0.4577 -0.3987
  194MPD1    H1 3008   0.427   3.509  17.135 -0.8506 -0.7795 -0.7515
  194MPD1    H2 3009   0.433   3.926  17.057 -0.2746  0.0928 -1.1538
  194MPD1    H3 3010   0.373   3.739  17.204 -0.5600  2.3780 -1.1290
  194MPD1     N 3011   0.538   3.445  16.908  0.0379  0.1307 -0.0079
  194MPD1    H5 3012   0.500   3.372  16.967  1.0881 -0.3785  0.0301
  194MPD1    N1 3013   0.575   3.914  16.828  0.1761 -0.6355  0.0643
  194MPD1    H6 3014   0.555   3.908  16.729  0.2439  0.4281 -0.0126
  194MPD1    H7 3015   0.551   4.006  16.863  2.1065 -0.5286  1.1282
  195MPD1     C 3016   2.963   0.931  17.223 -0.4075 -0.1251  0.4781
  195MPD1    C1 3017   2.880   0.902  17.334  0.2391 -0.4198  0.1332
  195MPD1    C2 3018   2.921   0.807  17.420  0.0218 -0.0462 -0.3739
  195MPD1    C3 3019   3.050   0.750  17.412 -0.3716 -0.8267  0.4791
  195MPD1    C4 3020   3.127   0.788  17.310  0.3069 -0.2832 -0.9604
  195MPD1    C5 3021   3.087   0.872  17.208 -0.4773 -0.1656  0.5613
  195MPD1     H 3022   2.845   0.788  17.495  0.8846 -1.6508  0.0974
  195MPD1    H1 3023   3.224   0.740  17.301 -1.5688 -4.0166 -1.1199
  195MPD1    H2 3024   2.927   0.995  17.143 -1.6309 -1.4641 -0.0570
  195MPD1    H3 3025   3.154   0.893  17.126  0.6605  1.8090  1.9948
  195MPD1     N 3026   3.096   0.656  17.500  0.4045 -0.1690  0.4343
  195MPD1    H5 3027   3.178   0.597  17.487  1.5502  1.3617  0.8023
  195MPD1    N1 3028   2.750   0.963  17.340 -0.4824  0.6739  0.2171
  195MPD1    H6 3029   2.760   1.058  17.303 -0.6005  1.0105  1.0478
  195MPD1    H7 3030   2.729   0.966  17.439 -0.9588 -1.1907  0.1688
  196MPD1     C 3031   1.886   4.639   0.593 -0.0497  0.1470 -1.0918
  196MPD1    C1 3032   1.998   4.700   0.538 -0.6422 -0.1515 -0.6406
  196MPD1    C2 3033   2.077   0.051   0.614 -0.6694 -0.3510 -0.5300
  196MPD1    C3 3034   2.031   0.090   0.745 -0.3302  0.6995 -0.1038
  196MPD1    C4 3035   1.914   0.039   0.788  0.1486  0.8586  0.0996
  196MPD1    C5 3036   1.836   4.693   0.708 -0.1206 -0.3059  0.1294
  196MPD1     H 3037   2.160   0.099   0.563 -1.1941 -1.3952 -2.3642
  196MPD1    H1 3038   1.872   0.082   0.878 -1.4680 -0.2663 -0.1130
  196MPD1    H2 3039   1.835   4.551   0.554 -0.5376  1.0532 -2.4622
  196MPD1    H3 3040   1.745   4.657   0.755 -1.8770 -0.3657 -3.3313
  196MPD1     N 3041   2.094   0.178   0.828 -0.2213  0.1012  0.0924
  196MPD1    H5 3042   2.057   0.193   0.921 -1.5762 -2.1945 -0.0704
  196MPD1    N1 3043   2.043   4.651   0.415  0.6796 -0.5273 -0.5173
  196MPD1    H6 3044   2.117   4.703   0.367  0.7635  0.7432  0.9554
  196MPD1    H7 3045   1.961   4.636   0.358  1.2256 -3.2261 -0.5670
  197MPD1     C 3046   0.940   1.543  17.194 -0.4327  0.6701  0.3624
  197MPD1    C1 3047   1.016   1.604  17.294 -0.0661  0.3283 -0.3230
  197MPD1    C2 3048   1.140   1.664  17.261 -0.2511 -0.4506  0.4685
  197MPD1    C3 3049   1.188   1.671  17.131  0.7019 -1.3170  0.0104
  197MPD1    C4 3050   1.114   1.600  17.033 -0.2284  0.1792  0.7326
  197MPD1    C5 3051   0.994   1.542  17.067 -0.1311 -0.4553  0.1116
  197MPD1     H 3052   1.208   1.706  17.334 -0.0873 -1.0843  0.6820
  197MPD1    H1 3053   1.153   1.594  16.932  0.3833 -2.2894  1.1196
  197MPD1    H2 3054   0.844   1.496  17.217 -0.4560  1.2131  1.3932
  197MPD1    H3 3055   0.934   1.497  16.989 -0.2861 -1.3974  0.7726
  197MPD1     N 3056   1.302   1.736  17.078  0.7874  0.2199  0.0589
  197MPD1    H5 3057   1.315   1.711  16.981  0.5073  1.0471 -0.1970
  197MPD1    N1 3058   0.982   1.597  17.429 -0.4606  0.4108  0.1530
  197MPD1    H6 3059   1.020   1.674  17.483  0.9913 -0.2782  0.1094
  197MPD1    H7 3060   0.881   1.591  17.443 -0.2771 -1.4310  0.6896
  198MPD1     C 3061   4.033   0.615  14.459 -0.2563 -0.2648  0.7986
  198MPD1    C1 3062   4.123   0.577  14.548 -0.6459 -0.2309  0.1102
  198MPD1    C2 3063   4.129   0.646  14.665 -0.5846 -0.2432  0.2099
  198MPD1    C3 3064   4.028   0.733  14.705  0.4871  0.4706  0.0436
  198MPD1    C4 3065   3.923   0.757  14.622  0.0284 -0.0447 -0.0153
  198MPD1    C5 3066   3.924   0.695  14.502 -0.3683  0.0188 -0.1469
  198MPD1     H 3067   4.203   0.605  14.733 -1.8574 -2.6955  0.1301
  198MPD1    H1 3068   3.841   0.822  14.648  1.8964  2.0521  0.7091
  198MPD1    H2 3069   4.032   0.572  14.360 -0.0705  0.0288  0.6709
  198MPD1    H3 3070   3.847   0.706  14.426 -0.4896  3.9684  0.5420
  198MPD1     N 3071   4.043   0.796  14.834  0.2636  0.0257  0.2725
  198MPD1    H5 3072   4.126   0.774  14.888  0.4604  2.8341  1.1179
  198MPD1    N1 3073   4.233   0.499  14.502  0.1763 -0.0004 -0.0059
  198MPD1    H6 3074   4.209   0.444  14.419 -2.6110  0.3896  0.5179
  198MPD1    H7 3075   4.273   0.442  14.576 -2.7806 -2.5906 -0.3727
  199MPD1     C 3076   0.251   1.123   8.434 -0.0060 -0.0920 -0.2722
  199MPD1    C1 3077   0.330   1.060   8.529 -0.1242  0.0635 -0.3784
  199MPD1    C2 3078   0.444   1.122   8.575  0.3548 -0.4824  0.6566
  199MPD1    C3 3079   0.466   1.260   8.548  0.4192  0.3860 -0.9894
  199MPD1    C4 3080   0.377   1.329   8.477 -0.7352  0.0871 -0.3274
  199MPD1    C5 3081   0.276   1.259   8.415  0.5161 -0.1014 -0.1238
  199MPD1     H 3082   0.518   1.063   8.628 -1.2759 -0.4035  3.0406
  199MPD1    H1 3083   0.381   1.435   8.452 -1.4914 -0.1369 -1.3989
  199MPD1    H2 3084   0.162   1.077   8.392  0.8950 -1.5329 -0.6008
  199MPD1    H3 3085   0.218   1.316   8.343  0.5459 -0.4203 -0.4014
  199MPD1     N 3086   0.556   1.342   8.611  0.1641 -0.0378 -0.3343
  199MPD1    H5 3087   0.564   1.438   8.578  0.2296 -0.7311 -2.3288
  199MPD1    N1 3088   0.321   0.920   8.525  0.2681 -0.6073 -0.6842
  199MPD1    H6 3089   0.383   0.869   8.588  2.6621  3.0275 -0.1536
  199MPD1    H7 3090   0.222   0.896   8.531  0.7798 -2.6951 -0.4808
  200MPD1     C 3091   0.385   1.545  15.644  0.0059  0.4522 -0.0243
  200MPD1    C1 3092   0.472   1.638  15.592 -0.2752  0.2123 -0.4165
  200MPD1    C2 3093   0.465   1.653  15.459 -0.0918  0.9501  0.0342
  200MPD1    C3 3094   0.377   1.586  15.380 -0.5364  0.0995 -0.4920
  200MPD1    C4 3095   0.298   1.488  15.437 -0.1423 -0.0892 -0.1187
  200MPD1    C5 3096   0.294   1.478  15.571  0.0653 -0.0732  0.1456
  200MPD1     H 3097   0.530   1.730  15.418  1.3204 -0.9897 -1.3831
  200MPD1    H1 3098   0.235   1.426  15.376  1.3286 -1.7433  0.0373
  200MPD1    H2 3099   0.385   1.542  15.752  2.3258  0.1143 -0.0365
  200MPD1    H3 3100   0.225   1.409  15.617  0.9134 -1.9352 -1.3231
  200MPD1     N 3101   0.369   1.619  15.241  0.1125 -0.1112 -0.0038
  200MPD1    H5 3102   0.441   1.678  15.200 -0.4983 -0.7256 -1.9760
  200MPD1    N1 3103   0.530   1.743  15.669  0.4760 -0.2667 -1.1040
  200MPD1    H6 3104   0.612   1.779  15.620  2.8964 -2.5015  1.3515
  200MPD1    H7 3105   0.562   1.706  15.758  0.1705  0.7835 -0.5578
  201MPD1     C 3106   2.898   0.866  14.161 -0.0686 -0.0706 -0.3707
  201MPD1    C1 3107   2.997   0.859  14.066  0.5526  0.1515 -0.5193
  201MPD1    C2 3108   3.054   0.735  14.027  0.1475 -0.5261 -0.6951
  201MPD1    C3 3109   3.000   0.617  14.075 -0.0357 -0.9441  0.5436
  201MPD1    C4 3110   2.894   0.626  14.159 -0.7121  0.2350  0.2909
  201MPD1    C5 3111   2.852   0.747  14.210 -0.5925  0.4309 -0.0791
  201MPD1     H 3112   3.130   0.738  13.950  0.4224 -1.4409 -0.4639
  201MPD1    H1 3113   2.853   0.538  14.209  0.0870  0.0939  0.7050
  201MPD1    H2 3114   2.859   0.957  14.206 -0.4404 -0.4158 -0.0089
  201MPD1    H3 3115   2.778   0.758  14.288 -1.7149 -1.3618 -0.8963
  201MPD1     N 3116   3.039   0.493  14.025  0.0594 -0.0647  0.0468
  201MPD1    H5 3117   3.120   0.498  13.965  0.3305  1.5743  0.5661
  201MPD1    N1 3118   3.057   0.976  14.025  0.2117 -0.7959  0.1651
  201MPD1    H6 3119   3.125   0.954  13.953  0.6420  1.4471 -0.1226
  201MPD1    H7 3120   2.985   1.048  14.016  0.3736 -0.5445  0.8718
  202MPD1     C 3121   1.620   4.659   9.846 -0.4687  0.0597 -0.3437
  202MPD1    C1 3122   1.740   4.648   9.781  0.1388  0.0385 -0.3173
  202MPD1    C2 3123   1.836   0.009   9.817  0.1802 -0.0120 -0.0240
  202MPD1    C3 3124   1.806   0.135   9.861 -0.3651  0.4055 -0.2753
  202MPD1    C4 3125   1.681   0.161   9.902  0.1386  0.0774 -0.0924
  202MPD1    C5 3126   1.590   0.052   9.898 -0.4613  0.1838  0.7005
  202MPD1     H 3127   1.934   4.730   9.774 -0.5102  3.4517 -2.7513
  202MPD1    H1 3128   1.648   0.246   9.960  0.1378  0.4171 -0.5926
  202MPD1    H2 3129   1.548   4.577   9.846 -1.2916  0.7847 -1.2583
  202MPD1    H3 3130   1.499   0.065   9.956 -1.1756 -1.1618 -0.1272
  202MPD1     N 3131   1.899   0.239   9.875  0.0586 -0.3716 -0.0242
  202MPD1    H5 3132   1.869   0.331   9.906 -0.3102 -0.8286  0.9872
  202MPD1    N1 3133   1.777   4.516   9.745  0.3957  0.5022  0.0780
  202MPD1    H6 3134   1.699   4.463   9.707 -0.1844 -0.0264  1.9868
  202MPD1    H7 3135   1.848   4.507   9.673 -0.6497 -1.3438 -0.7256
  203MPD1     C 3136   1.012   1.542  12.410 -0.0631 -0.5698 -0.5095
  203MPD1    C1 3137   1.062   1.474  12.306 -0.5503  0.0195 -0.5271
  203MPD1    C2 3138   1.136   1.361  12.333  0.2297  0.8981  0.0013
  203MPD1    C3 3139   1.189   1.343  12.463  0.3078  0.5001  0.3800
  203MPD1    C4 3140   1.139   1.417  12.560 -0.5088  0.2910 -0.0017
  203MPD1    C5 3141   1.049   1.510  12.536  0.3124  0.6691 -0.3638
  203MPD1     H 3142   1.170   1.305  12.246  2.8664  1.2899  0.7828
  203MPD1    H1 3143   1.171   1.399  12.662  1.3567  2.1950 -0.2347
  203MPD1    H2 3144   0.941   1.621  12.392 -0.1316 -0.1458  1.6765
  203MPD1    H3 3145   1.010   1.567  12.620 -1.1126  2.9537 -2.5986
  203MPD1     N 3146   1.271   1.230  12.484 -0.3507  0.0362 -0.0491
  203MPD1    H5 3147   1.265   1.153  12.418  1.2924  0.4265 -0.6312
  203MPD1    N1 3148   1.017   1.494  12.179 -0.5322  0.1710  0.2543
  203MPD1    H6 3149   0.997   1.592  12.161  2.5349  0.6129 -0.8260
  203MPD1    H7 3150   1.082   1.458  12.110 -0.2804 -0.9541  1.0824
  204MPD1     C 3151   0.643   2.710  17.654  0.4960  0.2211  0.1355
  204MPD1    C1 3152   0.682   2.684  17.526  0.1618 -0.0351 -0.2326
  204MPD1    C2 3153   0.693   2.551  17.492  0.3369  0.9057 -0.7406
  204MPD1    C3 3154   0.655   2.446  17.577 -0.5790 -0.4555  0.1930
  204MPD1    C4 3155   0.615   2.477  17.702  0.2609 -0.5845  0.2383
  204MPD1    C5 3156   0.610   2.611  17.737 -0.0433  0.2210  0.3854
  204MPD1     H 3157   0.723   2.521  17.392  1.0624  0.5973 -0.4284
  204MPD1    H1 3158   0.551   2.403   0.009 -0.6409 -0.1610 -0.3278
  204MPD1    H2 3159   0.631   2.813  17.686 -0.7128  1.0776 -3.1228
  204MPD1    H3 3160   0.548   2.645   0.080  1.2642  1.7777  0.7349
  204MPD1     N 3161   0.654   2.317  17.530 -0.6804  0.1232 -0.3019
  204MPD1    H5 3162   0.691   2.306  17.436  0.9738  0.3064  0.3191
  204MPD1    N1 3163   0.746   2.785  17.451  0.3203  0.8974  0.0743
  204MPD1    H6 3164   0.751   2.768  17.351 -0.9459  3.8758 -0.4778
  204MPD1    H7 3165   0.701   2.875  17.463 -1.3263  0.0991 -0.1558
  205MPD1     C 3166   0.252   0.450  17.048  0.5990  0.1910  0.3795
  205MPD1    C1 3167   0.374   0.521  17.052  0.3052 -0.9828  0.5217
  205MPD1    C2 3168   0.401   0.589  17.169 -0.3531 -0.1011 -0.0330
  205MPD1    C3 3169   0.313   0.608  17.272 -0.2880 -0.4368  0.2888
  205MPD1    C4 3170   0.193   0.552  17.261  0.0790  0.1648 -0.4689
  205MPD1    C5 3171   0.165   0.486  17.149 -0.1804 -0.5049 -0.7175
  205MPD1     H 3172   0.500   0.634  17.179 -0.4602 -0.2674  1.7925
  205MPD1    H1 3173   0.113   0.558  17.334  1.1186  1.8338  0.5329
  205MPD1    H2 3174   0.232   0.386  16.963  0.7641  0.0696  0.4294
  205MPD1    H3 3175   0.068   0.437  17.142 -0.6226  0.3850 -0.8888
  205MPD1     N 3176   0.347   0.677  17.389  0.1816  0.1101  0.0413
  205MPD1    H5 3177   0.281   0.683  17.466 -0.4707 -0.1895 -0.4989
  205MPD1    N1 3178   0.475   0.500  16.952 -0.3660  0.2694 -0.1648
  205MPD1    H6 3179   0.520   0.588  16.933 -1.0088  1.1826  2.5507
  205MPD1    H7 3180   0.433   0.465  16.865 -0.9623  0.5026  0.0245
  206MPD1     C 3181   1.166   3.908  17.199 -0.3222  0.0788 -0.5348
  206MPD1    C1 3182   1.219   3.810  17.112 -0.0424  0.0053 -0.1605
  206MPD1    C2 3183   1.178   3.811  16.978 -0.0018  0.3614  0.3904
  206MPD1    C3 3184   1.087   3.905  16.936 -0.5103  0.0920 -0.4066
  206MPD1    C4 3185   1.039   3.999  17.024  0.1254 -0.1625  0.4741
  206MPD1    C5 3186   1.071   3.993  17.159 -0.8374 -0.2766 -0.1087
  206MPD1     H 3187   1.215   3.728  16.918 -0.1992  1.6714 -1.5047
  206MPD1    H1 3188   0.960   4.061  16.985 -0.4767 -0.9269  0.4830
  206MPD1    H2 3189   1.200   3.921  17.301 -0.1471  0.7756 -0.6845
  206MPD1    H3 3190   1.019   4.057  17.229 -0.0303 -0.0217  0.2553
  206MPD1     N 3191   1.034   3.915  16.802  0.7920  0.0645  0.8674
  206MPD1    H5 3192   0.965   3.986  16.782 -1.1666 -2.0094  0.2736
  206MPD1    N1 3193   1.323   3.723  17.159 -0.0714 -0.1560 -0.6341
  206MPD1    H6 3194   1.303   3.693  17.254 -0.7922  0.6939 -0.5154
  206MPD1    H7 3195   1.328   3.640  17.100 -0.1050  0.2148 -1.1565
  207MPD1     C 3196   3.575   0.814   9.913  0.4734  0.0127 -0.6130
  207MPD1    C1 3197   3.620   0.772  10.035  0.0818 -0.2951 -0.8273
  207MPD1    C2 3198   3.648   0.867  10.136  0.8606  0.1329  0.2531
  207MPD1    C3 3199   3.630   0.999  10.113 -0.1579  0.5760  0.2203
  207MPD1    C4 3200   3.574   1.040   9.999  0.1192 -0.7212  0.3013
  207MPD1    C5 3201   3.549   0.947   9.897  0.2438 -0.5688  0.0209
  207MPD1     H 3202   3.691   0.823  10.225  2.1702 -0.4846 -0.6931
  207MPD1    H1 3203   3.557   1.145   9.979  1.6195 -1.0901 -3.0369
  207MPD1    H2 3204   3.545   0.749   9.832 -0.4277 -1.5991  1.0268
  207MPD1    H3 3205   3.520   0.967   9.794 -0.9359 -1.5237  0.1674
  207MPD1     N 3206   3.674   1.096  10.206 -0.0564 -0.2521  0.1810
  207MPD1    H5 3207   3.661   1.190  10.170  1.4669  1.2251  3.4485
  207MPD1    N1 3208   3.644   0.635  10.045 -1.2483  0.3303  0.2725
  207MPD1    H6 3209   3.645   0.603  10.141 -0.6159  0.3458  0.2719
  207MPD1    H7 3210   3.576   0.579   9.993 -1.5778  2.4558 -1.5995
  208MPD1     C 3211   1.722   0.667   0.366  0.1713  0.8358 -0.1491
  208MPD1    C1 3212   1.713   0.781   0.443  0.3579  0.2905  0.2276
  208MPD1    C2 3213   1.606   0.794   0.525  0.2388 -0.4823 -0.5454
  208MPD1    C3 3214   1.503   0.701   0.528 -0.5170 -0.3276  0.3000
  208MPD1    C4 3215   1.508   0.582   0.448 -0.0311 -0.3588 -0.2134
  208MPD1    C5 3216   1.618   0.582   0.360  0.0053  0.4742 -0.4021
  208MPD1     H 3217   1.612   0.876   0.595 -3.5307  0.0309 -0.8208
  208MPD1    H1 3218   1.432   0.506   0.436 -1.3981  0.7957  1.2306
  208MPD1    H2 3219   1.796   0.658   0.287 -0.2815 -1.9460 -0.2390
  208MPD1    H3 3220   1.627   0.500   0.290  2.2735  1.5001 -1.2995
  208MPD1     N 3221   1.389   0.728   0.604  0.0413 -0.2261 -0.4549
  208MPD1    H5 3222   1.397   0.814   0.658 -0.7716 -0.0843 -0.5541
  208MPD1    N1 3223   1.801   0.891   0.428 -0.5291 -0.2107 -0.0062
  208MPD1    H6 3224   1.897   0.878   0.397 -0.7079  0.0694 -0.6595
  208MPD1    H7 3225   1.806   0.960   0.502  0.5805  1.0293 -1.2538
  209MPD1     C 3226   4.243   1.090  12.173 -0.0410 -0.8477 -0.2128
  209MPD1    C1 3227   4.367   1.138  12.134  0.7172  0.2581 -0.4778
  209MPD1    C2 3228   4.372   1.186  12.006 -0.1008  0.1886 -0.1177
  209MPD1    C3 3229   4.260   1.183  11.918 -0.1682 -0.4859  0.0625
  209MPD1    C4 3230   4.139   1.136  11.963 -0.5165  0.2451 -0.0822
  209MPD1    C5 3231   4.134   1.087  12.092  0.3905  0.4502  0.9008
  209MPD1     H 3232   4.465   1.231  11.972 -0.9371  0.4039 -2.1556
  209MPD1    H1 3233   4.047   1.139  11.905 -0.3703 -0.8041 -0.3589
  209MPD1    H2 3234   4.229   1.043  12.270 -0.2965  0.6471  0.4631
  209MPD1    H3 3235   4.039   1.042  12.121 -0.9446  0.0021 -4.1440
  209MPD1     N 3236   4.279   1.229  11.783  0.1869  0.8537  0.1351
  209MPD1    H5 3237   4.377   1.236  11.759  0.4702  1.1093  1.3774
  209MPD1    N1 3238   4.482   1.139  12.219  0.2332  0.4371 -0.1523
  209MPD1    H6 3239   4.466   1.098  12.311 -0.5760  0.5535 -0.2396
  209MPD1    H7 3240   4.509   1.236  12.233 -0.1283  0.1850  2.3638
  210MPD1     C 3241   0.147   1.686  11.109  0.1306 -0.0390 -0.2523
  210MPD1    C1 3242   0.165   1.600  11.215 -0.1943  0.6531  0.1670
  210MPD1    C2 3243   0.045   1.561  11.288 -0.4074  0.3592  0.0330
  210MPD1    C3 3244   4.655   1.610  11.249  0.3739 -0.8597 -0.3500
  210MPD1    C4 3245   4.646   1.696  11.144 -0.2288  0.2110  0.1227
  210MPD1    C5 3246   0.025   1.738  11.082 -1.0135  0.1495 -0.2380
  210MPD1     H 3247   0.061   1.488  11.366  0.5548  1.2764  0.7084
  210MPD1    H1 3248   4.550   1.737  11.113  0.4659  1.5468 -0.2574
  210MPD1    H2 3249   0.236   1.721  11.060 -0.2322  1.7074  0.3496
  210MPD1    H3 3250   0.015   1.810  11.002 -0.3561 -0.0885 -0.5284
  210MPD1     N 3251   4.536   1.554  11.304 -0.3080  0.2635 -0.0809
  210MPD1    H5 3252   4.453   1.567  11.246 -0.6889  1.2387  0.6731
  210MPD1    N1 3253   0.293   1.546  11.240  0.5126  0.1065  0.4115
  210MPD1    H6 3254   0.287   1.495  11.327 -0.2858 -1.8669 -0.7913
  210MPD1    H7 3255   0.360   1.623  11.238 -1.1748  1.5863  0.2972
  211MPD1     C 3256   1.533   0.764  16.157  0.1190  0.0114  0.2076
  211MPD1    C1 3257   1.547   0.898  16.187 -0.5404  0.6067  0.0943
  211MPD1    C2 3258   1.446   0.979  16.138 -0.4797 -0.0715 -0.3175
  211MPD1    C3 3259   1.342   0.939  16.067  0.5413  0.0278  0.1485
  211MPD1    C4 3260   1.333   0.805  16.033  0.0263  0.2774  0.4202
  211MPD1    C5 3261   1.434   0.723  16.069  0.0538 -0.2145 -0.2145
  211MPD1     H 3262   1.451   1.085  16.156  0.3824 -0.0240 -0.8369
  211MPD1    H1 3263   1.247   0.764  15.982  1.1015 -0.3813 -0.8764
  211MPD1    H2 3264   1.579   0.679  16.207 -1.1697 -1.2939 -0.8211
  211MPD1    H3 3265   1.430   0.617  16.047 -2.2654 -0.3213  0.7564
  211MPD1     N 3266   1.238   1.028  16.038  0.3027 -0.2026 -0.5583
  211MPD1    H5 3267   1.255   1.117  16.084  0.8858 -1.5200  1.8192
  211MPD1    N1 3268   1.622   0.931  16.300  0.1482 -0.5198 -0.3992
  211MPD1    H6 3269   1.704   0.874  16.319  0.4212  0.5711  1.7455
  211MPD1    H7 3270   1.643   1.031  16.304  0.3166 -0.5204 -1.3029
  212MPD1     C 3271   0.447   4.121  16.404  0.1398 -0.4030 -0.1458
  212MPD1    C1 3272   0.365   4.190  16.496  0.2438  0.3591 -0.8802
  212MPD1    C2 3273   0.304   4.109  16.592  0.2140 -0.3345 -0.8873
  212MPD1    C3 3274   0.327   3.971  16.603  0.5926 -1.0176 -0.3401
  212MPD1    C4 3275   0.409   3.914  16.508 -0.2874  0.7583  0.0441
  212MPD1    C5 3276   0.466   3.982  16.405  0.3169  0.1473  0.5002
  212MPD1     H 3277   0.244   4.161  16.666  2.9597  1.6388 -0.0431
  212MPD1    H1 3278   0.442   3.811  16.521 -1.4518  0.5813  1.6208
  212MPD1    H2 3279   0.505   4.176  16.331  0.9270 -0.4473  0.4372
  212MPD1    H3 3280   0.531   3.927  16.338 -1.1994 -1.2605  0.1972
  212MPD1     N 3281   0.273   3.884  16.698 -0.6844 -0.1461 -0.3517
  212MPD1    H5 3282   0.303   3.788  16.688 -1.2953 -0.2546 -1.1912
  212MPD1    N1 3283   0.349   4.326  16.489  0.1730  0.0759  0.8449
  212MPD1    H6 3284   0.327   4.361  16.582  0.1839  0.9815  0.5041
  212MPD1    H7 3285   0.429   4.384  16.465 -0.9044  0.2941 -2.3120
  213MPD1     C 3286   4.282   0.169  15.562 -0.2333 -0.0196  0.2329
  213MPD1    C1 3287   4.235   0.299  15.599 -0.1602  0.2075 -1.0777
  213MPD1    C2 3288   4.095   0.315  15.584  0.2980 -0.4072 -0.2804
  213MPD1    C3 3289   4.022   0.214  15.529  0.3130  0.5182 -0.3290
  213MPD1    C4 3290   4.078   0.103  15.482  0.4482 -0.0565  0.0808
  213MPD1    C5 3291   4.213   0.076  15.497  0.4860 -0.0214 -0.4209
  213MPD1     H 3292   4.040   0.402  15.619 -1.2343 -0.4109 -2.7451
  213MPD1    H1 3293   4.022   0.027  15.429 -0.3239 -2.1002  3.9111
  213MPD1    H2 3294   4.388   0.155  15.583 -0.2858  0.5409  0.8761
  213MPD1    H3 3295   4.249   4.715  15.461 -1.6587 -0.4438 -1.4768
  213MPD1     N 3296   3.880   0.241  15.524  0.0386  0.2937 -0.1685
  213MPD1    H5 3297   3.853   0.332  15.558  0.6975  0.5229 -0.2745
  213MPD1    N1 3298   4.301   0.367  15.701  0.3417  0.7773 -0.0042
  213MPD1    H6 3299   4.276   0.464  15.717 -3.9183 -0.1436 -0.8970
  213MPD1    H7 3300   4.295   0.309  15.785  2.3864  2.2542  1.1543
  214MPD1     C 3301   3.051   4.406  15.419 -0.4812 -0.1468  0.0721
  214MPD1    C1 3302   3.015   4.509  15.328 -0.4433 -0.0647  0.1266
  214MPD1    C2 3303   3.103   4.619  15.325 -0.2013 -0.2798 -0.1288
  214MPD1    C3 3304   3.224   4.608  15.396 -0.1083 -0.1033  0.1314
  214MPD1    C4 3305   3.258   4.498  15.470 -0.9763  0.3855  0.4642
  214MPD1    C5 3306   3.166   4.401  15.486 -0.6551 -0.7777 -0.0366
  214MPD1     H 3307   3.077   4.707  15.268  1.0760 -0.9728 -1.7824
  214MPD1    H1 3308   3.357   4.485  15.511 -0.8047  0.2203 -0.0128
  214MPD1    H2 3309   2.994   4.314  15.429 -0.0403 -0.3224  0.9948
  214MPD1    H3 3310   3.189   4.318  15.552  0.0160 -0.7575 -0.2436
  214MPD1     N 3311   3.327   4.709  15.393  0.5817  0.2106 -0.6920
  214MPD1    H5 3312   3.414   4.685  15.438  0.2285 -1.3673 -0.8545
  214MPD1    N1 3313   2.887   4.523  15.273  0.2540  0.2889 -0.4418
  214MPD1    H6 3314   2.843   4.435  15.248  1.2868 -0.8644  1.8656
  214MPD1    H7 3315   2.875   4.597  15.203  0.2663 -0.1913 -0.9504
  215MPD1     C 3316   3.191   0.733  10.628 -0.1104  0.2724 -0.8786
  215MPD1    C1 3317   3.128   0.848  10.585 -1.4678 -0.7297 -0.3406
  215MPD1    C2 3318   3.134   0.967  10.652 -0.3257 -0.7164 -0.7811
  215MPD1    C3 3319   3.234   0.974  10.752 -0.3435 -0.1090 -0.6254
  215MPD1    C4 3320   3.313   0.870  10.781  0.7571  0.2654  0.3055
  215MPD1    C5 3321   3.284   0.747  10.722 -0.2260 -0.1168 -0.4298
  215MPD1     H 3322   3.078   1.057  10.629 -0.8585 -0.5527  1.1578
  215MPD1    H1 3323   3.402   0.869  10.843 -0.7381  2.3552  2.4759
  215MPD1    H2 3324   3.190   0.636  10.580  2.0776 -0.1997  0.0546
  215MPD1    H3 3325   3.337   0.659  10.755 -0.3861  0.5698  1.6186
  215MPD1     N 3326   3.259   1.098  10.806  0.3460  0.1204  0.2409
  215MPD1    H5 3327   3.218   1.177  10.757 -2.1578 -2.9507 -2.4859
  215MPD1    N1 3328   3.038   0.833  10.475 -0.0229  0.6772 -0.3724
  215MPD1    H6 3329   3.030   0.915  10.416 -1.6188 -0.1995 -1.3570
  215MPD1    H7 3330   3.068   0.754  10.418  0.8961 -0.4276  1.6633
  216MPD1     C 3331   4.708   3.003   0.737 -0.6811  0.4544 -0.2240
  216MPD1    C1 3332   0.082   3.079   0.723 -0.2893  0.3491  0.3552
  216MPD1    C2 3333   0.121   3.113   0.587  0.2836 -0.0780 -0.4516
  216MPD1    C3 3334   0.037   3.083   0.476  0.1636 -0.4081 -0.3810
  216MPD1    C4 3335   4.659   3.010   0.507 -0.2098  0.4677  0.3572
  216MPD1    C5 3336   4.634   2.964   0.631 -0.2477 -0.5547  1.0902
  216MPD1     H 3337   0.213   3.166   0.566  0.9749 -1.5320 -1.1155
  216MPD1    H1 3338   4.586   2.998   0.428 -1.0623 -2.1772  1.5527
  216MPD1    H2 3339   4.675   2.982   0.838  0.4323  0.1566  0.0801
  216MPD1    H3 3340   4.547   2.899   0.638 -0.2716 -0.3571  2.4920
  216MPD1     N 3341   0.069   3.119   0.339  0.1151 -0.1681  0.5478
  216MPD1    H5 3342   0.154   3.174   0.331  0.9107 -1.6519 -1.4875
  216MPD1    N1 3343   0.159   3.116   0.834 -0.2846  0.2113 -0.0772
  216MPD1    H6 3344   0.205   3.206   0.823 -0.9439  0.1348 -3.3152
  216MPD1    H7 3345   0.111   3.117   0.924 -1.1924 -4.9966 -0.5239
  217MPD1     C 3346   0.029   4.144   9.827 -0.1441  0.0335  0.4388
  217MPD1    C1 3347   0.083   4.055   9.743 -0.2649 -0.3065  0.1235
  217MPD1    C2 3348   0.201   4.095   9.679 -0.0174  0.8945 -0.3572
  217MPD1    C3 3349   0.275   4.205   9.715 -0.4158 -0.3138 -0.6385
  217MPD1    C4 3350   0.216   4.293   9.805  0.1118 -0.4443  0.2461
  217MPD1    C5 3351   0.093   4.262   9.862  0.7299 -0.1729 -0.2894
  217MPD1     H 3352   0.238   4.028   9.603  3.1321  1.2673  0.8671
  217MPD1    H1 3353   0.261   4.383   9.845  0.7726 -0.3517 -0.7206
  217MPD1    H2 3354   4.668   4.130   9.875 -1.1214 -1.0726 -1.8624
  217MPD1    H3 3355   0.044   4.317   9.941  0.5278  0.9216 -1.1760
  217MPD1     N 3356   0.398   4.248   9.655  0.0587  0.1310  0.3744
  217MPD1    H5 3357   0.452   4.321   9.700 -0.2721  0.8444 -0.3770
  217MPD1    N1 3358   0.008   3.944   9.703  0.1080 -0.4542 -0.3664
  217MPD1    H6 3359   0.071   3.870   9.674 -0.3940  0.0733 -2.7787
  217MPD1    H7 3360   4.675   3.912   9.773 -0.4682 -1.3523 -1.3296
  218MPD1     C 3361   2.437   1.299  13.000  0.6947  0.0155 -0.4020
  218MPD1    C1 3362   2.481   1.177  12.952  0.2865 -0.3175 -0.1846
  218MPD1    C2 3363   2.609   1.156  12.910 -0.4064 -0.2822 -0.3102
  218MPD1    C3 3364   2.708   1.251  12.921  0.7793  0.1644 -0.3634
  218MPD1    C4 3365   2.669   1.372  12.971  0.1092  0.2424 -0.0799
  218MPD1    C5 3366   2.534   1.397  13.002 -0.0427  0.2094  0.0869
  218MPD1     H 3367   2.639   1.060  12.870  0.1857 -0.6807  1.1154
  218MPD1    H1 3368   2.733   1.459  12.971  2.5493 -1.5802  2.5195
  218MPD1    H2 3369   2.338   1.321  13.036  0.4713  3.5238 -3.0663
  218MPD1    H3 3370   2.504   1.493  13.043  0.5341 -0.0210  1.0612
  218MPD1     N 3371   2.838   1.222  12.860 -0.0775 -0.3734 -0.0512
  218MPD1    H5 3372   2.843   1.126  12.826  1.4638 -0.1237 -0.5212
  218MPD1    N1 3373   2.387   1.072  12.951 -0.2474  0.2751 -0.0731
  218MPD1    H6 3374   2.429   1.000  13.009 -0.7069  1.6340  1.9492
  218MPD1    H7 3375   2.311   1.088  13.017 -0.6358  1.0892 -0.7069
  219MPD1     C 3376   3.511   1.848  12.609 -0.1914  0.7531  0.1996
  219MPD1    C1 3377   3.568   1.725  12.649 -0.2927  0.3120 -0.3785
  219MPD1    C2 3378   3.510   1.603  12.620  0.1797  0.9365 -0.5469
  219MPD1    C3 3379   3.379   1.610  12.565  0.1807  0.7012 -0.1077
  219MPD1    C4 3380   3.322   1.724  12.533  0.1207 -0.2672  0.2322
  219MPD1    C5 3381   3.389   1.841  12.545 -0.6320 -0.4268 -0.2979
  219MPD1     H 3382   3.559   1.512  12.653  1.6422  2.3069  1.0614
  219MPD1    H1 3383   3.223   1.726  12.488 -0.0037  0.5335  0.5482
  219MPD1    H2 3384   3.567   1.941  12.611 -1.0144  1.2503 -0.2413
  219MPD1    H3 3385   3.337   1.934  12.524 -2.7479 -1.4085  0.6300
  219MPD1     N 3386   3.308   1.492  12.556 -0.0784  0.3433 -0.1084
  219MPD1    H5 3387   3.214   1.508  12.520 -0.8673 -1.3321  1.1548
  219MPD1    N1 3388   3.703   1.733  12.704 -0.1607  0.3215  0.4957
  219MPD1    H6 3389   3.735   1.644  12.744  3.0158  0.3941 -1.9039
  219MPD1    H7 3390   3.718   1.811  12.767 -0.0566  2.4782 -2.2392
  220MPD1     C 3391   3.487   1.946   9.608 -0.5296  0.4446  0.0481
  220MPD1    C1 3392   3.533   1.841   9.685 -0.4385 -0.4614  0.4693
  220MPD1    C2 3393   3.442   1.755   9.740  0.4426 -0.2198 -0.1235
  220MPD1    C3 3394   3.306   1.785   9.732  0.6489 -0.7110 -0.4639
  220MPD1    C4 3395   3.255   1.890   9.659  0.7364  0.0161 -0.4292
  220MPD1    C5 3396   3.349   1.971   9.592 -0.5674  0.9597 -0.1273
  220MPD1     H 3397   3.468   1.663   9.791 -0.6008  0.3283  1.3739
  220MPD1    H1 3398   3.152   1.923   9.653  1.8166  3.6889  1.7032
  220MPD1    H2 3399   3.544   2.006   9.538  1.4915  1.1490  2.2994
  220MPD1    H3 3400   3.317   2.061   9.541  1.5696  2.9920  2.1111
  220MPD1     N 3401   3.213   1.703   9.802 -0.2908 -0.1821 -0.2001
  220MPD1    H5 3402   3.250   1.631   9.864  0.2399 -1.5540 -2.1019
  220MPD1    N1 3403   3.668   1.813   9.671 -0.1301 -0.0304  0.5167
  220MPD1    H6 3404   3.713   1.905   9.672 -1.3943  0.5751  1.0358
  220MPD1    H7 3405   3.704   1.742   9.734 -0.4310 -0.7715 -0.1481
  221MPD1     C 3406   0.441   0.591  16.290  0.4062 -0.2148  0.3900
  221MPD1    C1 3407   0.467   0.671  16.401  0.3661 -0.3424 -0.2334
  221MPD1    C2 3408   0.590   0.647  16.461 -0.1888 -0.5996 -0.4090
  221MPD1    C3 3409   0.676   0.543  16.427 -0.6475  0.2599  0.2985
  221MPD1    C4 3410   0.640   0.458  16.322  0.8942  0.3074  0.2135
  221MPD1    C5 3411   0.523   0.486  16.259 -0.0663  1.1595  0.2006
  221MPD1     H 3412   0.614   0.701  16.552 -0.7280  0.8260 -1.1019
  221MPD1    H1 3413   0.693   0.368  16.293  2.8302  1.2558  0.8528
  221MPD1    H2 3414   0.348   0.605  16.236  0.7480  0.4423 -0.0264
  221MPD1    H3 3415   0.499   0.423  16.174  1.1736  0.4320  0.3801
  221MPD1     N 3416   0.800   0.513  16.486  0.1969 -0.4835 -0.0796
  221MPD1    H5 3417   0.859   0.442  16.444 -1.8889 -1.3402 -1.5516
  221MPD1    N1 3418   0.384   0.774  16.438 -0.0542 -0.1353  0.2676
  221MPD1    H6 3419   0.285   0.757  16.420  0.0045  0.4942 -0.6436
  221MPD1    H7 3420   0.398   0.809  16.533 -0.9059 -0.2332  0.4306
  222MPD1     C 3421   0.260   3.682   0.129  0.1655 -0.1994  0.4244
  222MPD1    C1 3422   0.130   3.685   0.078  0.1316 -0.0177 -0.6097
  222MPD1    C2 3423   0.086   3.806   0.014 -0.4054  0.2481 -0.0892
  222MPD1    C3 3424   0.167   3.920   0.014 -0.3742  1.2010 -0.0941
  222MPD1    C4 3425   0.291   3.912   0.067  0.1004 -0.3135 -0.3736
  222MPD1    C5 3426   0.333   3.797   0.122  0.0412 -0.4982 -0.2667
  222MPD1     H 3427   4.720   3.823  17.718 -0.0891 -0.4587 -1.3718
  222MPD1    H1 3428   0.360   3.994   0.083  1.5746 -2.2012  3.0343
  222MPD1    H2 3429   0.299   3.598   0.187  1.8630 -0.1663 -0.6478
  222MPD1    H3 3430   0.424   3.796   0.182  0.0789 -2.2771 -0.3366
  222MPD1     N 3431   0.137   4.049  17.697  0.3779  0.4202 -0.1843
  222MPD1    H5 3432   0.215   4.113  17.713  0.2613  0.2300  1.1616
  222MPD1    N1 3433   0.044   3.576   0.083 -0.1081 -0.0239 -0.0518
  222MPD1    H6 3434   4.679   3.595   0.074  0.0867  1.9149  1.7014
  222MPD1    H7 3435   0.052   3.526   0.171  2.6309  0.9567  0.2562
  223MPD1     C 3436   4.506   4.291  16.774 -0.5272  0.3097 -0.4143
  223MPD1    C1 3437   4.639   4.265  16.791  0.0506  0.0483 -0.3512
  223MPD1    C2 3438   4.680   4.268  16.923 -0.1704  0.1492 -0.4789
  223MPD1    C3 3439   4.615   4.323  17.028 -0.7422  0.1306  0.2283
  223MPD1    C4 3440   4.485   4.368  17.003  0.0346 -0.1406 -0.1169
  223MPD1    C5 3441   4.425   4.338  16.882  0.0041  0.1434  0.3531
  223MPD1     H 3442   0.043   4.229  16.945  0.3520  1.1298 -1.0864
  223MPD1    H1 3443   4.417   4.407  17.078 -0.9724 -0.4526 -0.8614
  223MPD1    H2 3444   4.451   4.293  16.681 -0.1268  0.9161 -0.6310
  223MPD1    H3 3445   4.321   4.351  16.856 -0.1380 -0.5747  0.5483
  223MPD1     N 3446   4.674   4.324  17.157  0.2998 -0.2683 -0.2484
  223MPD1    H5 3447   0.032   4.288  17.172  0.4244  1.1313  2.2269
  223MPD1    N1 3448   4.708   4.189  16.698 -0.5089 -0.5474  0.3645
  223MPD1    H6 3449   0.070   4.170  16.719 -0.0003  3.4659  1.6016
  223MPD1    H7 3450   4.694   4.225  16.604 -2.0573  0.4590  0.9712
  224MPD1     C 3451   0.634   4.599   8.935 -0.8386  0.4344  0.1402
  224MPD1    C1 3452   0.586   4.686   9.028  0.5519 -0.3235 -0.3154
  224MPD1    C2 3453   0.678   0.017   9.111  0.2935 -0.2858  0.0549
  224MPD1    C3 3454   0.812   4.724   9.110  0.0733  0.4224  0.1138
  224MPD1    C4 3455   0.854   4.631   9.022  0.2960  0.0394 -0.3802
  224MPD1    C5 3456   0.770   4.574   8.931 -0.1136  0.0960 -0.1426
  224MPD1     H 3457   0.643   0.076   9.195  0.5170  0.5170 -0.4110
  224MPD1    H1 3458   0.958   4.600   9.031 -0.2236 -0.9947  2.0731
  224MPD1    H2 3459   0.573   4.542   8.865  0.2888 -1.1383  0.4400
  224MPD1    H3 3460   0.805   4.507   8.854 -0.6767  0.4155 -0.6773
  224MPD1     N 3461   0.905   0.040   9.200 -0.1922  0.6287  0.2468
  224MPD1    H5 3462   1.003   0.019   9.189 -0.5362 -0.8943  0.0959
  224MPD1    N1 3463   0.451   4.717   9.023  0.2580 -0.2780 -0.8213
  224MPD1    H6 3464   0.427   0.011   9.118 -1.0533  1.2544 -1.6265
  224MPD1    H7 3465   0.393   4.637   9.001  0.4076 -1.0444  1.5649
  225MPD1     C 3466   2.634   2.335  11.793 -0.4685 -0.9911 -0.5812
  225MPD1    C1 3467   2.504   2.295  11.774 -0.0806 -0.8016  0.2451
  225MPD1    C2 3468   2.431   2.268  11.883 -0.2749 -0.1168  0.1398
  225MPD1    C3 3469   2.472   2.312  12.009  0.1765  0.1375  0.2331
  225MPD1    C4 3470   2.597   2.361  12.023 -0.0342 -0.2100  0.4388
  225MPD1    C5 3471   2.678   2.373  11.915 -0.2075 -0.0529  0.8740
  225MPD1     H 3472   2.330   2.229  11.881 -0.1383 -0.4457 -0.2028
  225MPD1    H1 3473   2.639   2.394  12.118 -1.5995  2.6254  0.1405
  225MPD1    H2 3474   2.707   2.340  11.713 -1.8106  1.7512 -1.6401
  225MPD1    H3 3475   2.780   2.410  11.913  0.5093 -2.1556 -1.3492
  225MPD1     N 3476   2.410   2.287  12.132 -0.1613 -0.1274  0.1624
  225MPD1    H5 3477   2.463   2.306  12.216 -1.3160  1.6463  0.4791
  225MPD1    N1 3478   2.459   2.246  11.650  0.0121  0.5056  0.4825
  225MPD1    H6 3479   2.486   2.306  11.572 -1.0904  1.7344  1.0407
  225MPD1    H7 3480   2.358   2.237  11.648  0.2379 -1.4586 -2.1676
  226MPD1     C 3481   4.396   1.309   8.519 -0.1184 -1.3860  0.3382
  226MPD1    C1 3482   4.396   1.184   8.582  0.2265  0.2895 -0.0407
  226MPD1    C2 3483   4.510   1.139   8.639  0.7072 -0.2720  0.0181
  226MPD1    C3 3484   4.620   1.216   8.653  1.3227  1.0587  0.1503
  226MPD1    C4 3485   4.622   1.340   8.592 -0.5395  0.6328  0.1775
  226MPD1    C5 3486   4.510   1.385   8.525 -0.2303 -0.4375 -0.1111
  226MPD1     H 3487   4.519   1.039   8.679  1.8766 -0.4667 -0.7428
  226MPD1    H1 3488   4.711   1.402   8.589 -0.1182 -0.0757 -2.1726
  226MPD1    H2 3489   4.312   1.345   8.460 -0.2833 -1.0114  0.7941
  226MPD1    H3 3490   4.522   1.478   8.471  1.5889 -0.4396  0.2983
  226MPD1     N 3491   4.726   1.165   8.728  0.3894  0.2940  0.1556
  226MPD1    H5 3492   4.710   1.077   8.777  2.3333 -1.4818 -2.4336
  226MPD1    N1 3493   4.294   1.095   8.550  0.3508  0.0955 -0.2661
  226MPD1    H6 3494   4.203   1.140   8.540  0.8084  1.4764  1.8502
  226MPD1    H7 3495   4.281   1.025   8.623 -0.1969 -0.3262 -0.7707
  227MPD1     C 3496   0.586   0.382   9.006 -0.2789  0.3141  0.5282
  227MPD1    C1 3497   0.677   0.485   9.022  0.0342 -0.2751  0.1392
  227MPD1    C2 3498   0.630   0.611   8.987  0.3800 -0.1986  0.1768
  227MPD1    C3 3499   0.497   0.651   8.954  0.8652  0.0680 -0.3102
  227MPD1    C4 3500   0.409   0.542   8.963  0.4803  0.1465 -0.5467
  227MPD1    C5 3501   0.449   0.413   8.992 -0.0102  0.4704 -0.1230
  227MPD1     H 3502   0.707   0.687   8.975  1.5741 -1.2818  1.1271
  227MPD1    H1 3503   0.303   0.551   8.946  0.5962  1.4077 -0.6106
  227MPD1    H2 3504   0.609   0.278   9.025 -0.5826 -0.3148 -2.4866
  227MPD1    H3 3505   0.380   0.330   8.985 -0.4272  0.7360  0.8696
  227MPD1     N 3506   0.466   0.787   8.930 -0.1975 -0.4718  0.3740
  227MPD1    H5 3507   0.549   0.845   8.929 -0.7691  0.3560  0.9645
  227MPD1    N1 3508   0.813   0.458   9.036 -0.7976  0.4829 -0.3589
  227MPD1    H6 3509   0.864   0.530   9.087 -0.3404  0.7105 -1.1240
  227MPD1    H7 3510   0.813   0.375   9.095  0.8924  1.1467  0.5909
  228MPD1     C 3511   0.150   3.681  11.926  0.2199  0.0124  0.1326
  228MPD1    C1 3512   0.154   3.817  11.917 -0.5817  0.5604  0.4995
  228MPD1    C2 3513   0.050   3.883  11.973 -0.5481  0.5864 -0.7520
  228MPD1    C3 3514   4.681   3.820  12.041 -0.2868 -0.6429 -0.1156
  228MPD1    C4 3515   4.686   3.680  12.056 -0.2722  0.3587  0.5798
  228MPD1    C5 3516   0.050   3.614  11.990  0.1075 -0.0922 -0.2229
  228MPD1     H 3517   0.056   3.992  11.973  2.1769  0.4520  1.1018
  228MPD1    H1 3518   4.611   3.620  12.104  0.9681 -0.1506  1.8752
  228MPD1    H2 3519   0.242   3.635  11.890 -1.1657  1.2265 -4.9821
  228MPD1    H3 3520   0.055   3.505  11.991  0.7826 -0.0481  1.5356
  228MPD1     N 3521   4.579   3.904  12.093 -0.4283  0.3778 -0.7827
  228MPD1    H5 3522   4.602   4.000  12.074  0.8390 -0.1131 -1.7096
  228MPD1    N1 3523   0.274   3.883  11.885 -0.3540  0.1522  1.1638
  228MPD1    H6 3524   0.263   3.978  11.849 -0.4427 -0.1519  0.3941
  228MPD1    H7 3525   0.323   3.822  11.820  1.2047  1.5682  0.9999
  229MPD1     C 3526   3.979   3.365  15.595 -0.0569 -0.1209  0.1829
  229MPD1    C1 3527   4.026   3.435  15.490 -0.1945  0.0390 -0.5032
  229MPD1    C2 3528   4.101   3.369  15.394 -0.3219  0.3781  0.5135
  229MPD1    C3 3529   4.122   3.231  15.406  0.1598 -0.1672 -0.0813
  229MPD1    C4 3530   4.089   3.161  15.520 -0.0703 -0.6817  0.3258
  229MPD1    C5 3531   4.011   3.233  15.611 -0.1894 -0.8345  0.0995
  229MPD1     H 3532   4.119   3.420  15.300  1.1901 -1.4845 -0.2156
  229MPD1    H1 3533   4.106   3.054  15.522 -1.9509 -1.0038 -0.7571
  229MPD1    H2 3534   3.908   3.407  15.666 -1.2388 -0.9732 -0.4893
  229MPD1    H3 3535   3.981   3.180  15.701 -0.2308 -0.0294  0.5645
  229MPD1     N 3536   4.201   3.156  15.317  0.4517  0.2291 -0.2358
  229MPD1    H5 3537   4.224   3.061  15.343  1.4091  0.8528  1.1778
  229MPD1    N1 3538   3.956   3.548  15.454  0.0118 -0.2902 -0.0986
  229MPD1    H6 3539   3.939   3.602  15.539 -0.4095 -0.8062  0.1493
  229MPD1    H7 3540   4.001   3.610  15.388  0.1422 -0.5908 -0.2900
  230MPD1     C 3541   0.214   2.862  14.624 -0.1327 -0.3634 -0.3679
  230MPD1    C1 3542   0.147   2.748  14.675 -0.0584  0.0659 -0.1553
  230MPD1    C2 3543   0.026   2.765  14.740  0.1136  0.4223 -0.7781
  230MPD1    C3 3544   4.703   2.895  14.748  0.2360 -0.2544 -0.3908
  230MPD1    C4 3545   0.027   3.003  14.686 -0.5586  0.3642  0.0172
  230MPD1    C5 3546   0.148   2.980  14.623 -0.1160  0.4263  1.2804
  230MPD1     H 3547   4.712   2.693  14.803 -0.0669 -0.4231 -1.8862
  230MPD1    H1 3548   4.726   3.106  14.689  1.2871  0.9993  0.0122
  230MPD1    H2 3549   0.312   2.855  14.578  0.7010 -0.9030  1.4538
  230MPD1    H3 3550   0.203   3.061  14.575 -0.2894  0.4593  1.1348
  230MPD1     N 3551   4.590   2.904  14.840 -0.3393  0.7982  0.3941
  230MPD1    H5 3552   4.566   2.819  14.890  0.0483 -0.2796 -1.2372
  230MPD1    N1 3553   0.218   2.624  14.695  0.2660  0.3214 -0.1042
  230MPD1    H6 3554   0.153   2.548  14.712  1.5134 -0.6379  0.3916
  230MPD1    H7 3555   0.272   2.592  14.615 -0.8918  2.2820 -1.6804
  231MPD1     C 3556   2.505   0.262  15.788  0.6793 -0.0215 -0.0988
  231MPD1    C1 3557   2.526   0.205  15.670 -0.1691  0.6660 -0.3423
  231MPD1    C2 3558   2.629   0.257  15.600  0.0901  0.1219  0.0935
  231MPD1    C3 3559   2.703   0.369  15.624  1.1597  0.8198  0.5049
  231MPD1    C4 3560   2.663   0.433  15.738 -1.0116 -0.6752  0.2679
  231MPD1    C5 3561   2.567   0.380  15.817  0.6043  0.7788 -0.1875
  231MPD1     H 3562   2.658   0.205  15.509  0.5234  0.4020  0.0732
  231MPD1    H1 3563   2.706   0.529  15.765  2.5743 -2.4023  0.6798
  231MPD1    H2 3564   2.440   0.217  15.863 -3.6150  5.6585 -0.4578
  231MPD1    H3 3565   2.537   0.429  15.909  0.6203  0.2576  0.0957
  231MPD1     N 3566   2.806   0.396  15.529  0.1922 -0.3784 -0.0958
  231MPD1    H5 3567   2.806   0.340  15.444 -2.0448  1.1335 -1.1057
  231MPD1    N1 3568   2.470   0.075  15.639 -0.3645 -0.1935 -0.3584
  231MPD1    H6 3569   2.373   0.052  15.663 -0.5751 -1.3226 -2.2789
  231MPD1    H7 3570   2.457   0.070  15.538  0.8483 -0.0095 -0.5215
  232MPD1     C 3571   4.658   2.265   0.890 -0.3238  0.3904 -0.0832
  232MPD1    C1 3572   4.533   2.313   0.896 -0.1856  0.8551 -0.4326
  232MPD1    C2 3573   4.470   2.335   0.775  0.1444 -0.6942 -0.6139
  232MPD1    C3 3574   4.520   2.291   0.656  0.3550  0.0620 -0.5311
  232MPD1    C4 3575   4.646   2.221   0.651 -0.1558  0.4882 -0.2635
  232MPD1    C5 3576   4.716   2.225   0.772 -0.0823  0.1872  0.2420
  232MPD1     H 3577   4.374   2.386   0.771  0.4579 -0.0787 -0.2629
  232MPD1    H1 3578   4.697   2.180   0.565 -0.2844  0.1358 -0.1721
  232MPD1    H2 3579   4.718   2.254   0.979 -1.6563  1.5342  0.9620
  232MPD1    H3 3580   0.084   2.196   0.781  0.5185  1.6695 -1.8689
  232MPD1     N 3581   4.449   2.317   0.536 -0.0012 -0.5753 -0.1854
  232MPD1    H5 3582   4.373   2.384   0.536  0.3393 -0.2002 -2.7014
  232MPD1    N1 3583   4.478   2.370   1.015  0.0909 -0.1020 -0.3087
  232MPD1    H6 3584   4.514   2.314   1.092 -0.4301  2.1302  1.5236
  232MPD1    H7 3585   4.378   2.386   1.011 -0.2021 -1.8949 -0.2005
  233MPD1     C 3586   0.232   2.048   2.229 -0.4183 -0.1281 -0.6195
  233MPD1    C1 3587   0.177   1.967   2.132  0.8123  0.0324 -0.3240
  233MPD1    C2 3588   0.252   1.852   2.101  0.4063 -0.4303 -0.6668
  233MPD1    C3 3589   0.388   1.835   2.141  0.0675  0.8767 -0.5160
  233MPD1    C4 3590   0.442   1.937   2.215  0.9745 -0.1686 -0.0002
  233MPD1    C5 3591   0.365   2.036   2.264  0.3395 -0.2786 -0.1279
  233MPD1     H 3592   0.202   1.768   2.055  2.3805 -1.5824 -0.6969
  233MPD1    H1 3593   0.544   1.925   2.250  1.4590  0.2971 -1.2431
  233MPD1    H2 3594   0.171   2.126   2.274  0.1686 -0.6990  1.1592
  233MPD1    H3 3595   0.409   2.097   2.342 -3.2662  0.5669  1.2563
  233MPD1     N 3596   0.469   1.723   2.119  0.3940  0.6104  0.1852
  233MPD1    H5 3597   0.566   1.741   2.141  0.6585 -1.1550  0.4894
  233MPD1    N1 3598   0.039   1.977   2.104  0.3227  0.1090  0.1259
  233MPD1    H6 3599   0.002   2.072   2.104  0.9304  0.3443  1.2907
  233MPD1    H7 3600   4.734   1.933   2.022  1.1648 -1.4555  0.5601
  234MPD1     C 3601   2.291   3.610   9.420  0.0808 -0.9803 -0.3792
  234MPD1    C1 3602   2.319   3.740   9.379 -0.2757  0.0386  0.2504
  234MPD1    C2 3603   2.222   3.832   9.364  0.1693  0.1079 -0.1837
  234MPD1    C3 3604   2.088   3.800   9.394  0.2047 -0.3833  0.5848
  234MPD1    C4 3605   2.062   3.671   9.439 -0.2012  0.3817 -0.3289
  234MPD1    C5 3606   2.162   3.580   9.452  0.2329 -0.7533  0.0280
  234MPD1     H 3607   2.250   3.933   9.337 -0.1750  0.4449  0.7082
  234MPD1    H1 3608   1.967   3.637   9.477 -0.2222 -0.7451 -1.3980
  234MPD1    H2 3609   2.368   3.535   9.430  0.0818 -0.7104  1.7231
  234MPD1    H3 3610   2.131   3.480   9.482  0.4402 -1.2590 -1.4230
  234MPD1     N 3611   1.991   3.894   9.370  0.2896  1.0878  0.0794
  234MPD1    H5 3612   2.020   3.990   9.355  2.8193  0.4870  1.0216
  234MPD1    N1 3613   2.449   3.771   9.337  0.4885 -0.3963  0.3344
  234MPD1    H6 3614   2.468   3.869   9.360 -0.3242 -0.2926  0.5648
  234MPD1    H7 3615   2.517   3.710   9.382 -0.2430  1.1724  3.5514
  235MPD1     C 3616   3.517   1.338  10.634  0.4869 -0.4955 -0.6124
  235MPD1    C1 3617   3.466   1.401  10.517 -0.1299  0.4113 -0.5132
  235MPD1    C2 3618   3.484   1.535  10.505  0.3774 -0.4322  0.1197
  235MPD1    C3 3619   3.554   1.605  10.602  0.6193  0.9430  0.3139
  235MPD1    C4 3620   3.591   1.545  10.723 -0.4085  0.3176  0.5423
  235MPD1    C5 3621   3.584   1.403  10.734  0.4463  1.0434 -0.4916
  235MPD1     H 3622   3.448   1.589  10.418  2.9796 -0.9903 -1.2831
  235MPD1    H1 3623   3.644   1.604  10.797 -0.0928 -0.7407  1.1592
  235MPD1    H2 3624   3.494   1.234  10.649 -0.8404  0.1783  1.9265
  235MPD1    H3 3625   3.596   1.344  10.824 -1.7520 -1.2233 -1.7068
  235MPD1     N 3626   3.570   1.741  10.578 -0.6665 -0.0567 -0.3228
  235MPD1    H5 3627   3.512   1.768  10.500 -1.2274  1.2925  0.5608
  235MPD1    N1 3628   3.374   1.328  10.440  0.5151 -0.2806  0.0175
  235MPD1    H6 3629   3.402   1.231  10.431 -2.1172 -1.0995  0.6627
  235MPD1    H7 3630   3.362   1.373  10.349  1.0825  0.5117  0.3238
  236MPD1     C 3631   3.050   4.109  10.460  0.2570  0.1597  1.1803
  236MPD1    C1 3632   3.022   3.985  10.410  0.4586  0.5755 -0.4006
  236MPD1    C2 3633   3.075   3.868  10.461 -0.0132  0.1646 -0.1834
  236MPD1    C3 3634   3.144   3.873  10.587  0.1289  0.4958 -0.4130
  236MPD1    C4 3635   3.171   4.006  10.632 -0.0633 -0.1913 -0.4065
  236MPD1    C5 3636   3.132   4.121  10.569 -0.1974  0.0299  0.1729
  236MPD1     H 3637   3.058   3.779  10.401  2.6420 -1.1723  1.0550
  236MPD1    H1 3638   3.229   4.017  10.723 -0.0883 -2.1131 -0.1395
  236MPD1    H2 3639   3.021   4.204  10.415 -2.4920 -2.0378 -1.7070
  236MPD1    H3 3640   3.150   4.218  10.614  2.4007  0.1451 -1.0950
  236MPD1     N 3641   3.204   3.761  10.643  0.6074 -0.3268 -0.1674
  236MPD1    H5 3642   3.263   3.780  10.723 -0.7233  2.9624 -0.0014
  236MPD1    N1 3643   2.977   3.979  10.274 -0.4562 -0.0441 -0.5110
  236MPD1    H6 3644   2.905   4.051  10.270  1.3259  1.6392 -2.4583
  236MPD1    H7 3645   2.940   3.885  10.257  2.1638 -1.6735  2.6986
  237MPD1     C 3646   2.730   2.188  15.158 -0.6512 -0.2512 -0.6324
  237MPD1    C1 3647   2.761   2.089  15.068  0.1200 -0.3142 -0.2142
  237MPD1    C2 3648   2.743   1.969  15.108 -0.1624 -0.0379  0.1990
  237MPD1    C3 3649   2.701   1.931  15.233  0.3227 -0.6310  0.0130
  237MPD1    C4 3650   2.664   2.033  15.319 -0.3612 -0.0780  0.7155
  237MPD1    C5 3651   2.681   2.164  15.282 -0.6812  0.3378 -0.0780
  237MPD1     H 3652   2.773   1.889  15.041 -2.2115 -0.5509 -0.1272
  237MPD1    H1 3653   2.617   2.011  15.414 -0.1766 -2.0948  0.3262
  237MPD1    H2 3654   2.740   2.292  15.128 -0.1636  0.5812  2.4996
  237MPD1    H3 3655   2.661   2.242  15.354  0.1094  0.8763 -0.4421
  237MPD1     N 3656   2.667   1.794  15.266 -1.0790  0.1064  0.7443
  237MPD1    H5 3657   2.624   1.778  15.357  0.4261  1.1368  1.6456
  237MPD1    N1 3658   2.820   2.117  14.945 -0.3480  0.6470 -0.5030
  237MPD1    H6 3659   2.782   2.056  14.873 -0.2079  0.6933 -0.6175
  237MPD1    H7 3660   2.782   2.208  14.920 -0.3098  0.7955 -0.0249
  238MPD1     C 3661   3.998   0.706  15.427 -0.4180 -0.4430  0.2313
  238MPD1    C1 3662   4.111   0.624  15.421  0.5283 -0.1157 -0.0434
  238MPD1    C2 3663   4.101   0.503  15.347 -0.4796  0.3380 -0.0990
  238MPD1    C3 3664   3.993   0.481  15.264  0.0111 -0.7197  0.8566
  238MPD1    C4 3665   3.889   0.570  15.263 -0.3669  0.6538 -0.4349
  238MPD1    C5 3666   3.891   0.677  15.348 -0.2600  0.3613 -0.1743
  238MPD1     H 3667   4.183   0.433  15.355 -0.2496  0.5323 -0.7415
  238MPD1    H1 3668   3.793   0.559  15.213  1.3248 -2.2322 -3.0914
  238MPD1    H2 3669   3.995   0.786  15.500  2.3538 -0.5427  0.4464
  238MPD1    H3 3670   3.801   0.737  15.359  0.6183  1.8512 -1.1280
  238MPD1     N 3671   3.976   0.355  15.194  0.2542  0.0038  0.1823
  238MPD1    H5 3672   3.889   0.352  15.142  0.6479 -0.4105 -0.4675
  238MPD1    N1 3673   4.214   0.640  15.515 -0.1912  0.3352  0.7060
  238MPD1    H6 3674   4.242   0.735  15.534 -1.1288  1.1301 -1.8390
  238MPD1    H7 3675   4.299   0.595  15.481 -0.1832  0.1402  0.9794
  239MPD1     C 3676   4.675   1.297  14.903  0.5995  0.0324 -0.2510
  239MPD1    C1 3677   4.577   1.390  14.934  0.1667  0.3949 -0.1018
  239MPD1    C2 3678   4.489   1.420  14.831  0.5759 -0.1400  0.6333
  239MPD1    C3 3679   4.502   1.360  14.706  0.3360  0.2362 -0.3522
  239MPD1    C4 3680   4.593   1.256  14.688  0.9643 -0.1626  0.0233
  239MPD1    C5 3681   4.672   1.225  14.789 -0.2991  0.7706 -0.5827
  239MPD1     H 3682   4.417   1.496  14.860 -0.5892 -1.1268  0.3733
  239MPD1    H1 3683   4.600   1.206  14.592  1.9653 -0.3767  0.2092
  239MPD1    H2 3684   0.020   1.267  14.970 -0.5660  0.8505  1.5171
  239MPD1    H3 3685   0.006   1.145  14.766  0.0238  0.6817  0.6585
  239MPD1     N 3686   4.413   1.386  14.595 -0.1565 -0.0287 -0.4501
  239MPD1    H5 3687   4.441   1.346  14.505 -0.4358  0.2839 -0.6730
  239MPD1    N1 3688   4.590   1.474  15.047 -0.3016  0.3798  0.5274
  239MPD1    H6 3689   4.630   1.423  15.125  0.8324 -0.2236 -0.4383
  239MPD1    H7 3690   4.509   1.533  15.065 -1.9215 -1.5820 -0.3745
  240MPD1     C 3691   3.411   1.157  13.097 -0.2874  0.5551  0.0674
  240MPD1    C1 3692   3.416   1.212  13.224  0.3166 -0.5088  0.0634
  240MPD1    C2 3693   3.464   1.134  13.325 -0.4972 -0.4218 -0.4426
  240MPD1    C3 3694   3.519   1.008  13.292  0.3898 -0.2172  0.7341
  240MPD1    C4 3695   3.505   0.947  13.171 -0.4825  0.5712 -0.7806
  240MPD1    C5 3696   3.446   1.023  13.072 -0.3304  0.0482 -0.6881
  240MPD1     H 3697   3.483   1.178  13.422 -0.2481  0.6746 -0.9930
  240MPD1    H1 3698   3.534   0.844  13.154 -0.6658  0.2958  0.5540
  240MPD1    H2 3699   3.388   1.222  13.013 -0.9894 -1.9417 -1.6918
  240MPD1    H3 3700   3.443   0.979  12.973  0.4184 -0.8869 -0.2959
  240MPD1     N 3701   3.575   0.936  13.399 -0.6939  0.3006 -0.8168
  240MPD1    H5 3702   3.583   0.982  13.489 -3.8868 -0.6146 -0.0736
  240MPD1    N1 3703   3.397   1.351  13.247  0.2574 -0.1044 -0.0536
  240MPD1    H6 3704   3.358   1.377  13.337 -0.7382 -1.3386 -0.1348
  240MPD1    H7 3705   3.325   1.371  13.178  0.5954  0.4116 -0.2569
  241MPD1     C 3706   4.388   0.385  13.656 -0.2328 -0.3788 -0.5009
  241MPD1    C1 3707   4.367   0.473  13.755 -0.7039  0.1195  0.0957
  241MPD1    C2 3708   4.262   0.561  13.735 -0.1769 -0.1955  0.0380
  241MPD1    C3 3709   4.171   0.547  13.626  0.4530 -0.2212 -0.8179
  241MPD1    C4 3710   4.189   0.446  13.539 -0.2262 -0.6451 -0.3666
  241MPD1    C5 3711   4.300   0.365  13.555  0.2824 -0.8749 -0.0033
  241MPD1     H 3712   4.257   0.645  13.803  2.2252  0.9422 -1.1682
  241MPD1    H1 3713   4.121   0.425  13.457  0.4891 -1.1616 -0.8231
  241MPD1    H2 3714   4.472   0.317  13.655  1.1511  1.3458 -2.7123
  241MPD1    H3 3715   4.304   0.280  13.489  0.4534 -0.6650 -0.2594
  241MPD1     N 3716   4.071   0.641  13.594 -0.1624  0.6511  0.0671
  241MPD1    H5 3717   4.005   0.612  13.523 -2.0806 -1.1846  2.6160
  241MPD1    N1 3718   4.464   0.507  13.840 -0.3451  0.0680 -0.0070
  241MPD1    H6 3719   4.428   0.542  13.929  0.6576  0.9536  0.0493
  241MPD1    H7 3720   4.513   0.425  13.877 -1.1561 -0.4396 -0.0574
  242MPD1     C 3721   4.081   3.908  16.192 -0.0598 -0.3626 -0.0110
  242MPD1    C1 3722   4.059   4.017  16.106 -0.4556 -0.8236  0.5070
  242MPD1    C2 3723   4.098   4.001  15.974 -1.0262 -0.0799 -0.2810
  242MPD1    C3 3724   4.157   3.881  15.936 -0.1635 -0.4006  0.0329
  242MPD1    C4 3725   4.166   3.773  16.020 -0.4456 -0.2682  0.3086
  242MPD1    C5 3726   4.126   3.783  16.149 -0.0041 -1.1913  0.5344
  242MPD1     H 3727   4.085   4.084  15.907  1.1047 -0.1493 -0.7887
  242MPD1    H1 3728   4.201   3.676  15.986  2.2065  0.3384  1.3093
  242MPD1    H2 3729   4.058   3.902  16.297 -1.1912 -0.3504 -0.2576
  242MPD1    H3 3730   4.122   3.698  16.215 -2.1876 -0.8871  0.7680
  242MPD1     N 3731   4.189   3.851  15.800  0.4081  0.1094 -0.4124
  242MPD1    H5 3732   4.210   3.756  15.773 -2.6535 -0.2533 -1.5111
  242MPD1    N1 3733   4.025   4.141  16.165 -0.4010  0.1258 -0.1893
  242MPD1    H6 3734   3.983   4.214  16.109 -0.6955  0.6714  0.7343
  242MPD1    H7 3735   3.987   4.125  16.259  0.3802  3.8335  0.7573
  243MPD1     C 3736   0.481   3.061  17.604 -0.3434 -0.2689 -0.7759
  243MPD1    C1 3737   0.504   3.005  17.478  0.2504  0.7437 -0.1030
  243MPD1    C2 3738   0.443   2.883  17.460 -0.1673 -0.0639  0.5016
  243MPD1    C3 3739   0.362   2.820  17.553  0.2736 -0.2321 -1.2245
  243MPD1    C4 3740   0.338   2.881  17.676  0.2107  0.0958 -0.2086
  243MPD1    C5 3741   0.397   3.007  17.700  0.4663  0.2003  0.0223
  243MPD1     H 3742   0.471   2.838  17.365 -0.4693  0.2986  0.2366
  243MPD1    H1 3743   0.270   2.837   0.009 -1.6604  1.6078 -1.0305
  243MPD1    H2 3744   0.541   3.146  17.635  0.4937 -0.4030 -2.0586
  243MPD1    H3 3745   0.385   3.048   0.061 -1.0629 -1.8284  0.6872
  243MPD1     N 3746   0.322   2.690  17.514 -0.5533 -0.1571  0.4057
  243MPD1    H5 3747   0.351   2.662  17.421 -2.6709  1.4822 -0.7600
  243MPD1    N1 3748   0.600   3.055  17.390  0.2636 -0.9453 -0.6720
  243MPD1    H6 3749   0.626   3.153  17.396 -2.3356 -0.4059  1.9307
  243MPD1    H7 3750   0.588   3.022  17.294  1.2152  0.4025 -1.2574
  244MPD1     C 3751   0.127   1.891   0.385  0.4985 -0.1456 -0.4853
  244MPD1    C1 3752   0.150   2.021   0.425 -0.2239  0.3683 -0.5197
  244MPD1    C2 3753   0.205   2.102   0.325  0.4759  0.1581  0.4896
  244MPD1    C3 3754   0.198   2.056   0.192 -0.3355  0.4532 -0.1192
  244MPD1    C4 3755   0.140   1.931   0.157 -0.3725 -0.2576  0.0895
  244MPD1    C5 3756   0.116   1.846   0.257 -0.8428  0.3314  0.4545
  244MPD1     H 3757   0.239   2.203   0.343  1.3042 -0.6237  3.2297
  244MPD1    H1 3758   0.130   1.896   0.055 -0.8166  0.2311 -0.0343
  244MPD1    H2 3759   0.112   1.823   0.469 -0.1371 -0.7247 -1.0709
  244MPD1    H3 3760   0.092   1.740   0.246 -1.0382  0.1999  2.1509
  244MPD1     N 3761   0.246   2.146   0.095 -0.0473  0.5665  0.0913
  244MPD1    H5 3762   0.280   2.237   0.125  2.5588 -0.0924 -0.8313
  244MPD1    N1 3763   0.171   2.055   0.562 -0.5257 -0.1479  0.7150
  244MPD1    H6 3764   0.117   1.991   0.620 -0.1398 -0.0785  1.1479
  244MPD1    H7 3765   0.158   2.154   0.582  1.4519  0.5010 -1.1395
  245MPD1     C 3766   2.038   3.005  13.198  0.6414  0.2031 -0.0997
  245MPD1    C1 3767   2.101   2.983  13.321  0.7133  0.1294 -0.1498
  245MPD1    C2 3768   2.138   3.093  13.394  0.2695 -0.6876  0.3086
  245MPD1    C3 3769   2.126   3.223  13.349 -0.0012  0.5350 -0.8365
  245MPD1    C4 3770   2.072   3.247  13.225 -0.0658  0.4498  0.4081
  245MPD1    C5 3771   2.025   3.138  13.161  0.6681 -0.4900  0.0919
  245MPD1     H 3772   2.181   3.084  13.493 -1.1189 -3.0019  0.7117
  245MPD1    H1 3773   2.059   3.347  13.186  1.3182  0.4690  0.0011
  245MPD1    H2 3774   2.005   2.927  13.131 -2.2875  0.3664  1.1365
  245MPD1    H3 3775   1.985   3.149  13.061  1.6542  0.4103 -0.2114
  245MPD1     N 3776   2.180   3.332  13.425  0.1513 -0.3087 -1.0739
  245MPD1    H5 3777   2.225   3.304  13.512  2.4626  1.5602 -1.6712
  245MPD1    N1 3778   2.145   2.853  13.351  0.8136  0.3490 -0.5600
  245MPD1    H6 3779   2.068   2.788  13.334  1.6002 -0.4134 -1.2157
  245MPD1    H7 3780   2.157   2.836  13.450 -2.5123 -0.2112 -0.2473
  246MPD1     C 3781   4.342   0.088  10.171 -0.1867 -0.1193  0.4400
  246MPD1    C1 3782   4.377   4.693  10.194 -1.2258  0.5427  0.1186
  246MPD1    C2 3783   4.302   4.603  10.123 -0.0981  0.8996 -0.4297
  246MPD1    C3 3784   4.228   4.641  10.011 -0.9182 -0.0501 -0.2451
  246MPD1    C4 3785   4.205   0.042   9.988  0.0930 -0.7293  0.2660
  246MPD1    C5 3786   4.258   0.131  10.072 -0.6727  0.2574 -0.1050
  246MPD1     H 3787   4.309   4.496  10.140 -0.4080  0.8117 -0.8481
  246MPD1    H1 3788   4.135   0.073   9.911  1.8239  0.0949 -0.9785
  246MPD1    H2 3789   4.377   0.164  10.240 -1.9231  0.6002  0.5098
  246MPD1    H3 3790   4.239   0.237  10.059  2.1597  1.0007  1.7203
  246MPD1     N 3791   4.160   4.537   9.942  0.1543 -0.1244  0.1111
  246MPD1    H5 3792   4.174   4.448   9.989 -0.8154 -0.3919 -0.1093
  246MPD1    N1 3793   4.443   4.657  10.307  0.4311 -1.0255  0.6413
  246MPD1    H6 3794   4.500   4.575  10.288  1.2131  0.3692 -3.0386
  246MPD1    H7 3795   4.498   0.006  10.325  0.3946 -0.9745  0.5152
  247MPD1     C 3796   1.713   3.798  16.212 -0.6689 -0.4582  0.0826
  247MPD1    C1 3797   1.657   3.764  16.335  0.5013 -0.2629  0.2207
  247MPD1    C2 3798   1.677   3.632  16.377  0.0007 -0.1496 -0.4717
  247MPD1    C3 3799   1.740   3.537  16.299  0.2910  0.0574 -0.3439
  247MPD1    C4 3800   1.793   3.578  16.180  0.2775 -0.2318 -0.3891
  247MPD1    C5 3801   1.780   3.707  16.135  0.2015 -0.2275  0.0979
  247MPD1     H 3802   1.625   3.604  16.468  0.4584 -1.0786 -0.4891
  247MPD1    H1 3803   1.839   3.507  16.113 -0.4843 -1.2294  0.1404
  247MPD1    H2 3804   1.706   3.897  16.168 -2.0793 -1.2696 -1.5348
  247MPD1    H3 3805   1.809   3.737  16.035  1.2993 -2.6316 -0.3115
  247MPD1     N 3806   1.729   3.398  16.323 -0.3647  0.0406 -0.0621
  247MPD1    H5 3807   1.744   3.329  16.251  2.5078  1.1639 -0.5370
  247MPD1    N1 3808   1.602   3.858  16.423  0.3930 -0.3707 -0.2144
  247MPD1    H6 3809   1.529   3.824  16.486 -0.3263  0.0781 -0.8045
  247MPD1    H7 3810   1.557   3.931  16.368 -2.0894 -1.2622  0.6295
  248MPD1     C 3811   3.031   2.766  17.231 -0.1581  0.8431  0.1534
  248MPD1    C1 3812   3.047   2.664  17.323  0.6652 -0.7776  0.0121
  248MPD1    C2 3813   2.991   2.677  17.449 -0.1639 -0.8864 -0.6012
  248MPD1    C3 3814   2.925   2.789  17.485  0.0627 -0.1177 -0.2789
  248MPD1    C4 3815   2.901   2.886  17.387 -0.8393 -0.7621  0.0838
  248MPD1    C5 3816   2.951   2.877  17.264  1.0377  0.6151  0.1069
  248MPD1     H 3817   2.991   2.584  17.505  1.0527 -0.6419 -0.2106
  248MPD1    H1 3818   2.848   2.978  17.413  0.3226  0.3938 -1.6044
  248MPD1    H2 3819   3.077   2.762  17.133  0.3985 -0.3509  0.4616
  248MPD1    H3 3820   2.945   2.958  17.191 -2.4522  0.1614 -0.1216
  248MPD1     N 3821   2.866   2.789  17.619 -0.1215 -0.1655 -0.3349
  248MPD1    H5 3822   2.879   2.705  17.674  0.7295  1.8379  2.5559
  248MPD1    N1 3823   3.086   2.539  17.275  0.7696  0.0558  0.4095
  248MPD1    H6 3824   3.164   2.533  17.210  0.1426 -0.4150 -0.3045
  248MPD1    H7 3825   3.106   2.473  17.350  2.1823 -0.5363 -0.4873
  249MPD1     C 3826   4.195   1.118  10.464  0.7460 -0.4900 -0.1103
  249MPD1    C1 3827   4.194   1.230  10.539  0.3454  0.1905  0.0767
  249MPD1    C2 3828   4.179   1.358  10.481  0.2003 -0.0466 -0.3471
  249MPD1    C3 3829   4.145   1.367  10.349  0.0952 -0.0180  0.6968
  249MPD1    C4 3830   4.138   1.253  10.277  0.1229 -0.3405  0.0103
  249MPD1    C5 3831   4.163   1.129  10.332 -0.0685  0.7398  0.3410
  249MPD1     H 3832   4.186   1.441  10.550 -1.2985  0.7705 -1.1604
  249MPD1    H1 3833   4.112   1.263  10.172  0.5895 -0.7080 -0.1400
  249MPD1    H2 3834   4.234   1.024  10.502  0.4113 -0.7674 -0.4537
  249MPD1    H3 3835   4.161   1.036  10.277 -0.0488 -0.1309  1.8006
  249MPD1     N 3836   4.121   1.496  10.298  0.0217 -0.4424 -0.2119
  249MPD1    H5 3837   4.139   1.565  10.370 -3.6755 -0.6518  0.9059
  249MPD1    N1 3838   4.235   1.221  10.673 -0.3318  0.3168 -0.1474
  249MPD1    H6 3839   4.188   1.292  10.729 -0.0176  1.4043 -1.2770
  249MPD1    H7 3840   4.211   1.126  10.703 -1.3127 -0.2325 -2.7241
  250MPD2     C 3841   1.164   1.462  13.101 -0.0799  0.0122  0.6783
  250MPD2    C1 3842   1.075   1.570  13.078 -0.0725  0.0780  0.1957
  250MPD2    C2 3843   0.976   1.558  12.976  0.8665 -0.0528  0.8152
  250MPD2    C3 3844   0.966   1.440  12.902  0.2729  0.4159  0.2417
  250MPD2    C4 3845   1.057   1.343  12.930  0.2759 -0.5493  0.1898
  250MPD2    C5 3846   1.148   1.347  13.033  0.3231 -0.0002 -0.2008
  250MPD2     H 3847   0.921   1.647  12.947  1.1595 -0.2396 -0.3065
  250MPD2    H1 3848   1.052   1.243  12.889  0.1572 -0.6007  0.3266
  250MPD2    H2 3849   1.245   1.464  13.174 -0.9214  0.3765  1.5986
  250MPD2    H3 3850   1.218   1.268  13.060  1.9963  0.9753 -1.6828
  250MPD2     N 3851   0.867   1.416  12.802 -0.6154  0.1928 -0.2599
  250MPD2    H5 3852   0.882   1.329  12.753 -0.4941  0.6246 -0.9869
  250MPD2    N1 3853   1.084   1.682  13.168  0.3570  0.2279  0.4682
  250MPD2    H7 3854   1.166   1.673  13.227 -0.1279 -0.3593  1.0581
  251TMC3    C1 3855   1.046   1.903  13.251 -0.6587  0.4645  0.9232
  251TMC3    C2 3856   0.949   1.994  13.291 -0.2326 -0.3561 -0.2205
  251TMC3    C3 3857   0.993   2.113  13.349  0.6440  0.0973 -0.2406
  251TMC3    C4 3858   1.184   1.935  13.252  1.0735  0.3216  1.4330
  251TMC3    C5 3859   1.223   2.049  13.310  0.1110  0.2645  0.1870
  251TMC3    C6 3860   1.128   2.136  13.360 -0.2661  0.5346  0.3033
  251TMC3     C 3861   0.994   1.786  13.179 -0.2821  0.1060  0.2296
  251TMC3     O 3862   0.877   1.793  13.136 -0.1882  0.6289 -0.1545
  251TMC3     H 3863   0.846   1.965  13.301  0.1820 -1.7594 -0.0639
  251TMC3    H1 3864   1.255   1.872  13.200  0.7793 -1.5843  3.3471
  251TMC3    H2 3865   1.158   2.225  13.413 -0.6446  0.7537  0.1503
  251TMC3    C7 3866   1.362   2.096  13.308 -0.2922 -0.5038  0.4140
  251TMC3    C8 3867   0.889   2.210  13.382  0.1045 -0.4048 -0.3754
  251TMC3    O1 3868   1.450   2.012  13.301 -0.3167 -0.5248 -0.4205
  251TMC3    O2 3869   0.779   2.164  13.403 -0.6116 -0.3479  0.0074
  252TMC3    C1 3870   1.647   1.386   9.565 -0.4285 -0.0378  1.0031
  252TMC3    C2 3871   1.776   1.441   9.556 -0.2470  0.2024 -0.1705
  252TMC3    C3 3872   1.845   1.419   9.440 -0.0662  0.2492  0.2558
  252TMC3    C4 3873   1.583   1.321   9.469  0.2869  0.1702 -0.4595
  252TMC3    C5 3874   1.651   1.300   9.351  0.1369  0.4710  0.4634
  252TMC3    C6 3875   1.779   1.354   9.335  0.1512 -0.8445  0.0334
  252TMC3     C 3876   1.585   1.388   9.703  0.2290 -0.1656  0.4229
  252TMC3     O 3877   1.659   1.444   9.782 -0.2674 -0.0436  0.5198
  252TMC3     H 3878   1.834   1.487   9.635  0.4353 -1.9723  0.5992
  252TMC3    H1 3879   1.482   1.283   9.482 -0.0493  0.6186 -1.7698
  252TMC3    H2 3880   1.825   1.349   9.237 -0.2808  0.4025 -0.2343
  252TMC3    C7 3881   1.599   1.206   9.256  0.6091  0.2905  0.4385
  252TMC3    C8 3882   1.946   1.506   9.394  0.2951 -0.0628 -0.0498
  252TMC3    O1 3883   1.666   1.105   9.227  0.2894  0.3085  0.1564
  252TMC3    O2 3884   2.007   1.478   9.298 -0.0233 -0.0130 -0.6104
  253MPD2     C 3885   2.381   1.878  15.502  0.3844 -0.0994  0.5490
  253MPD2    C1 3886   2.264   1.807  15.480 -0.5211 -0.1298 -0.1220
  253MPD2    C2 3887   2.205   1.748  15.587  0.2482  0.2921 -0.0855
  253MPD2    C3 3888   2.255   1.760  15.715  0.1983  0.3564 -0.2198
  253MPD2    C4 3889   2.373   1.822  15.733  0.1967 -0.9235  0.4061
  253MPD2    C5 3890   2.431   1.881  15.627  0.3127  0.2994  0.0570
  253MPD2     H 3891   2.125   1.678  15.566  0.0851  0.4096  0.1467
  253MPD2    H1 3892   2.422   1.825  15.830  1.1804  0.5493 -0.1306
  253MPD2    H2 3893   2.422   1.941  15.424  0.4354 -0.8390 -0.0196
  253MPD2    H3 3894   2.517   1.944  15.644  1.7731 -1.9982  1.0864
  253MPD2     N 3895   2.187   1.711  15.825 -0.5276  0.7643  0.2790
  253MPD2    H5 3896   2.234   1.712  15.915 -2.0627  0.8842  1.0814
  253MPD2    N1 3897   2.216   1.775  15.349  0.0085  0.2801 -0.3520
  253MPD2    H7 3898   2.137   1.711  15.351  0.4466 -0.2280  0.6145
  254TMC3    C1 3899   1.998   1.639  15.951  0.4895 -0.4364  0.0883
  254TMC3    C2 3900   1.861   1.627  15.964 -0.3554 -0.2043 -0.6768
  254TMC3    C3 3901   1.802   1.572  16.078  0.7649  0.0377 -0.2470
  254TMC3    C4 3902   2.075   1.613  16.060  0.7461  0.1320 -0.3016
  254TMC3    C5 3903   2.007   1.567  16.173 -0.2754  0.7432  0.3145
  254TMC3    C6 3904   1.876   1.528  16.178 -0.4277 -0.3792  0.3359
  254TMC3     C 3905   2.055   1.668  15.820  0.4455  0.3518  0.8273
  254TMC3     O 3906   1.980   1.675  15.723 -0.5796 -0.1479 -0.0566
  254TMC3     H 3907   1.807   1.644  15.872 -0.4610 -3.2133 -1.1577
  254TMC3    H1 3908   2.182   1.622  16.052  0.6934  0.2590 -0.8123
  254TMC3    H2 3909   1.829   1.496  16.271  2.3303 -0.2128  1.7903
  254TMC3    C7 3910   2.086   1.540  16.289 -0.8289 -0.0920  0.5081
  254TMC3    C8 3911   1.662   1.570  16.094 -0.7619 -0.6856 -0.2554
  254TMC3    O1 3912   2.029   1.471  16.371 -0.7317 -0.5633  0.1555
  254TMC3    O2 3913   1.606   1.479  16.153 -0.2818  0.2264 -0.5445
  255MPD2     C 3914   0.336   0.127  10.065 -0.6122  0.6405  0.3172
  255MPD2    C1 3915   0.272   0.003  10.075 -0.6795 -0.3611 -0.2773
  255MPD2    C2 3916   0.341   4.631  10.134 -0.3482 -0.0239 -0.1942
  255MPD2    C3 3917   0.471   4.644  10.186 -0.7907  0.0482 -0.2372
  255MPD2    C4 3918   0.530   0.030  10.175 -0.4251 -0.3193  0.4919
  255MPD2    C5 3919   0.463   0.138  10.122 -0.8599  0.0966  0.0959
  255MPD2     H 3920   0.288   4.538  10.153 -0.2798 -0.3823 -1.8053
  255MPD2    H1 3921   0.622   0.051  10.228  0.2940  0.3014 -1.0185
  255MPD2    H2 3922   0.290   0.212  10.017 -3.4843 -1.8939 -1.4394
  255MPD2    H3 3923   0.496   0.242  10.116  1.9271 -0.7506  0.6528
  255MPD2     N 3924   0.539   4.532  10.233  0.1484 -0.6412  0.2237
  255MPD2    H5 3925   0.485   4.447  10.242  0.5232 -0.5100  3.9118
  255MPD2    N1 3926   0.144   4.726  10.009 -0.1795  0.4940 -0.3325
  255MPD2    H7 3927   0.089   0.069   9.975  0.0796 -0.0835 -2.0606
  256TMC3    C1 3928   4.712   4.620   9.883 -0.9148 -0.3607 -0.2230
  256TMC3    C2 3929   0.010   4.691   9.773 -0.3852 -0.0096 -0.2499
  256TMC3    C3 3930   4.656   4.674   9.664 -0.1025 -0.2211  0.3402
  256TMC3    C4 3931   4.619   4.521   9.878 -0.2064  0.8980 -0.2441
  256TMC3    C5 3932   4.541   4.501   9.767  0.1885 -0.1211 -0.3420
  256TMC3    C6 3933   4.556   4.579   9.655 -1.1149 -0.4833  0.2660
  256TMC3     C 3934   0.078   4.609   9.989 -0.2176  0.2015  0.4133
  256TMC3     O 3935   0.093   4.507  10.054 -0.5057  0.8165 -0.2093
  256TMC3     H 3936   0.084   0.035   9.770  0.8112 -0.9870  3.1149
  256TMC3    H1 3937   4.605   4.465   9.970  3.1067  0.4570 -0.0148
  256TMC3    H2 3938   4.484   4.587   9.575 -1.0572 -0.8144  0.1840
  256TMC3    C7 3939   4.480   4.373   9.751 -0.1995 -0.6082 -0.1330
  256TMC3    C8 3940   4.670   0.026   9.548 -0.0372 -0.2668 -1.1441
  256TMC3    O1 3941   4.446   4.312   9.853 -0.0934 -0.1736 -0.4328
  256TMC3    O2 3942   4.605   4.723   9.452 -0.1649 -0.0284  0.4854
  257MPD2     C 3943   3.858   1.347  13.530  0.4182 -0.2190  0.5031
  257MPD2    C1 3944   3.975   1.331  13.472 -0.2069 -0.3046 -0.0665
  257MPD2    C2 3945   4.070   1.238  13.514  0.6222 -0.2801  0.7944
  257MPD2    C3 3946   4.039   1.162  13.628  0.2872 -0.1847 -0.1569
  257MPD2    C4 3947   3.916   1.177  13.692  0.1340 -0.5633  0.4460
  257MPD2    C5 3948   3.828   1.276  13.643  0.0348  0.3111  0.1094
  257MPD2     H 3949   4.161   1.213  13.461 -1.5350  1.6211 -3.8260
  257MPD2    H1 3950   3.884   1.119  13.777 -0.1388  0.1504  0.8367
  257MPD2    H2 3951   3.794   1.430  13.500  0.2140  0.1195  1.9143
  257MPD2    H3 3952   3.743   1.308  13.702 -1.5395  2.4991 -3.3446
  257MPD2     N 3953   4.136   1.067  13.666 -0.6600  0.1630 -0.0059
  257MPD2    H5 3954   4.216   1.050  13.606 -1.0379  2.0254 -1.0222
  257MPD2    N1 3955   3.989   1.410  13.362  0.4103 -0.3424 -0.1560
  257MPD2    H7 3956   3.917   1.480  13.347 -1.3884 -1.5483  3.0291
  258TMC3    C1 3957   4.276   0.947  13.811  0.1914 -0.1833  0.1460
  258TMC3    C2 3958   4.334   0.886  13.702 -0.5529  0.2229 -0.2590
  258TMC3    C3 3959   4.464   0.847  13.715  0.3047  0.1215  0.3106
  258TMC3    C4 3960   4.333   0.941  13.936  0.0012 -0.5825  0.2876
  258TMC3    C5 3961   4.465   0.904  13.943 -0.3710 -0.4116 -0.6849
  258TMC3    C6 3962   4.539   0.858  13.833 -0.5228  0.4731 -0.1905
  258TMC3     C 3963   4.149   1.022  13.796  0.7353 -0.5075 -0.7133
  258TMC3     O 3964   4.079   1.045  13.895  0.2993 -0.2479 -0.2051
  258TMC3     H 3965   4.279   0.887  13.608 -2.5010 -0.3027  0.8777
  258TMC3    H1 3966   4.271   0.966  14.021 -0.8056  0.4396 -0.6043
  258TMC3    H2 3967   4.642   0.824  13.837 -0.5128  0.5096 -0.1404
  258TMC3    C7 3968   4.519   0.910  14.080 -0.7141  0.3707  0.5966
  258TMC3    C8 3969   4.541   0.814  13.595  0.5114  0.4985  0.5435
  258TMC3    O1 3970   4.450   0.972  14.164  0.5780  0.1940 -0.0235
  258TMC3    O2 3971   4.656   0.843  13.597 -0.2530  0.4054  0.4629
  259MPD2     C 3972   3.103   3.388   0.692  0.2944  0.2840  0.4926
  259MPD2    C1 3973   3.113   3.253   0.709  0.2802  0.2446 -0.1634
  259MPD2    C2 3974   3.170   3.180   0.599 -0.8278  0.0979 -0.1709
  259MPD2    C3 3975   3.232   3.249   0.499 -0.8001  0.0245 -0.7969
  259MPD2    C4 3976   3.216   3.380   0.483  0.3599 -0.7479  0.0392
  259MPD2    C5 3977   3.155   3.451   0.584  0.1718 -0.5688 -0.6134
  259MPD2     H 3978   3.180   3.072   0.595 -0.9729  0.1377 -1.8117
  259MPD2    H1 3979   3.246   3.435   0.395 -0.7218 -0.0651  0.0872
  259MPD2    H2 3980   3.057   3.453   0.766  2.6331  1.7506  0.6641
  259MPD2    H3 3981   3.155   3.559   0.585 -2.1951 -0.6291  2.6963
  259MPD2     N 3982   3.311   3.175   0.411  0.6387  0.0708  0.6658
  259MPD2    H5 3983   3.315   3.076   0.431 -1.7826 -0.3350 -0.9548
  259MPD2    N1 3984   3.070   3.197   0.829  0.1259 -0.0700  0.5966
  259MPD2    H7 3985   3.033   3.262   0.898  0.0623  1.1242 -0.5687
  260TMC3    C1 3986   3.491   3.130   0.270  0.3893 -0.1466 -0.1798
  260TMC3    C2 3987   3.618   3.179   0.250  0.3644 -0.4094 -0.5502
  260TMC3    C3 3988   3.713   3.096   0.198  0.3241 -0.3004 -0.4242
  260TMC3    C4 3989   3.453   3.002   0.234  0.5728  0.1831  0.0085
  260TMC3    C5 3990   3.549   2.942   0.162  0.3101  0.6140 -0.4951
  260TMC3    C6 3991   3.678   2.976   0.142 -0.0022  0.1969 -0.2468
  260TMC3     C 3992   3.389   3.227   0.318  0.6828 -0.1866  0.1671
  260TMC3     O 3993   3.417   3.343   0.281 -0.2270  1.0656 -0.3314
  260TMC3     H 3994   3.633   3.280   0.288 -0.9952  0.2634 -1.7972
  260TMC3    H1 3995   3.350   2.970   0.247  0.1118  1.4004 -0.6846
  260TMC3    H2 3996   3.741   2.914   0.079 -0.1736  0.1848 -0.4076
  260TMC3    C7 3997   3.537   2.799   0.135 -0.1914  0.6178 -0.2001
  260TMC3    C8 3998   3.855   3.118   0.246 -0.3263  0.1047 -0.1251
  260TMC3    O1 3999   3.596   2.765   0.032  0.4244  0.1163 -0.1648
  260TMC3    O2 4000   3.882   3.219   0.302  0.1530 -0.1053  0.3543
  261MPD2     C 4001   0.140   1.734  12.392  0.4832 -0.0986  0.2935
  261MPD2    C1 4002   0.242   1.676  12.316  0.5232  0.9808  0.2379
  261MPD2    C2 4003   0.227   1.695  12.177  0.0688 -0.7737  0.3950
  261MPD2    C3 4004   0.122   1.756  12.113 -0.0474 -0.1186  0.5073
  261MPD2    C4 4005   0.015   1.801  12.194  0.1010  0.2667  0.4335
  261MPD2    C5 4006   0.028   1.794  12.330  0.4546  0.3490  0.0903
  261MPD2     H 4007   0.297   1.642  12.114 -1.5587 -0.5759 -1.5963
  261MPD2    H1 4008   4.654   1.838  12.161  0.7967 -0.9947 -3.0053
  261MPD2    H2 4009   0.138   1.731  12.500 -0.0910 -1.7210  0.2456
  261MPD2    H3 4010   4.681   1.821  12.396  0.3084  1.6474 -0.6157
  261MPD2     N 4011   0.121   1.759  11.972 -0.1105  0.6190 -0.2781
  261MPD2    H5 4012   0.203   1.729  11.921 -0.6691 -0.2857 -0.6483
  261MPD2    N1 4013   0.352   1.603  12.366  0.8561 -0.2244  1.0802
  261MPD2    H7 4014   0.418   1.560  12.303  0.5580  0.5248  0.2742
  262TMC3    C1 4015   0.056   1.814  11.760  0.6769 -0.0563 -0.3022
  262TMC3    C2 4016   4.718   1.902  11.687 -0.3160 -0.0167 -0.4299
  262TMC3    C3 4017   0.010   1.916  11.555  0.4429  0.5703 -0.4407
  262TMC3    C4 4018   0.159   1.741  11.707 -0.6064  0.0014  0.2126
  262TMC3    C5 4019   0.192   1.762  11.577  0.2072  0.1276 -0.3994
  262TMC3    C6 4020   0.116   1.845  11.502  0.4212 -0.2233 -0.0381
  262TMC3     C 4021   0.015   1.800  11.897 -0.8620 -0.3121  0.4509
  262TMC3     O 4022   4.647   1.854  11.933 -0.0445 -0.7538 -0.2303
  262TMC3     H 4023   4.656   1.975  11.736 -0.2500 -0.5623  0.4862
  262TMC3    H1 4024   0.222   1.678  11.768 -0.6275  2.0472  2.3279
  262TMC3    H2 4025   0.128   1.847  11.395 -0.4441  0.7258 -0.1170
  262TMC3    C7 4026   0.313   1.715  11.514 -0.0670  0.2812 -0.0418
  262TMC3    C8 4027   0.015   2.053  11.503  0.3071  0.0265 -0.3973
  262TMC3    O1 4028   0.362   1.609  11.541  0.8551  0.5402 -0.2848
  262TMC3    O2 4029   0.111   2.075  11.432  0.1645 -0.3252 -0.4157
  263MPD2     C 4030   1.037   0.684  11.302 -0.1213  0.1401 -0.2346
  263MPD2    C1 4031   1.130   0.783  11.303 -0.2874 -0.1418 -0.3354
  263MPD2    C2 4032   1.134   0.880  11.203 -0.6645 -0.0568  0.6347
  263MPD2    C3 4033   1.044   0.883  11.101  0.7168  0.2203  0.1220
  263MPD2    C4 4034   0.947   0.785  11.099  0.3131  0.1195  0.1114
  263MPD2    C5 4035   0.941   0.692  11.201  0.9157 -0.2043 -0.0469
  263MPD2     H 4036   1.200   0.966  11.200 -1.1670  0.3854  2.0378
  263MPD2    H1 4037   0.871   0.784  11.022 -0.3334 -1.5018  0.7727
  263MPD2    H2 4038   1.031   0.623  11.391  0.7105  0.2622 -0.0953
  263MPD2    H3 4039   0.850   0.634  11.211 -0.2674  1.8504  0.9153
  263MPD2     N 4040   1.045   0.994  11.011  0.1936  0.3838 -0.4114
  263MPD2    H5 4041   1.104   1.074  11.035  3.2988 -2.6741  2.2038
  263MPD2    N1 4042   1.216   0.782  11.414 -0.3753 -0.0248  0.5518
  263MPD2    H7 4043   1.196   0.713  11.486  1.4244  2.2967  3.2844
  264TMC3    C1 4044   0.999   1.142  10.836 -0.0328 -0.3633 -0.3891
  264TMC3    C2 4045   0.948   1.256  10.887  0.3396 -0.3601  0.0927
  264TMC3    C3 4046   0.946   1.365  10.805 -0.6437 -0.1327  0.3186
  264TMC3    C4 4047   1.056   1.128  10.715 -0.2761 -0.0043 -0.2109
  264TMC3    C5 4048   1.056   1.236  10.632  0.3661 -0.4238  0.4811
  264TMC3    C6 4049   0.993   1.355  10.677 -0.7038 -0.1219 -0.5596
  264TMC3     C 4050   0.967   1.009  10.898  0.3590  0.0227 -0.1052
  264TMC3     O 4051   0.909   0.933  10.826  0.1605 -0.0921 -0.0655
  264TMC3     H 4052   0.915   1.262  10.990 -0.9021  0.8546 -0.3798
  264TMC3    H1 4053   1.103   1.033  10.693 -1.5448 -0.1875 -2.0743
  264TMC3    H2 4054   0.962   1.429  10.604 -3.2741  0.3164  0.9771
  264TMC3    C7 4055   1.178   1.257  10.556 -0.0776  0.3076 -0.7813
  264TMC3    C8 4056   0.995   1.496  10.855  0.1574 -0.2056 -0.1717
  264TMC3    O1 4057   1.223   1.162  10.496 -0.2096  0.5948 -0.7619
  264TMC3    O2 4058   1.069   1.555  10.775 -0.7358  0.4986  0.5730
  265MPD2     C 4059   2.814   1.508  15.564  0.4050 -0.4225 -0.1206
  265MPD2    C1 4060   2.904   1.600  15.512  0.4097  0.0652  0.0465
  265MPD2    C2 4061   2.973   1.566  15.393  0.2221 -0.3155  0.9474
  265MPD2    C3 4062   2.970   1.438  15.344 -0.1511 -0.3599 -0.2629
  265MPD2    C4 4063   2.881   1.348  15.398 -0.5518 -0.6831 -0.1320
  265MPD2    C5 4064   2.799   1.386  15.503 -0.4858 -0.2263 -0.0347
  265MPD2     H 4065   3.052   1.630  15.355 -0.9196 -0.6469 -1.9360
  265MPD2    H1 4066   2.883   1.246  15.364  0.5419 -0.4998 -0.6074
  265MPD2    H2 4067   2.740   1.536  15.638  2.3638  1.7942  0.9961
  265MPD2    H3 4068   2.723   1.320  15.543 -1.6934  1.0293 -0.2540
  265MPD2     N 4069   3.079   1.386  15.276  0.5199 -0.2935 -0.1217
  265MPD2    H5 4070   3.094   1.286  15.275 -1.3987 -0.5988  2.4337
  265MPD2    N1 4071   2.926   1.726  15.571  0.1455 -0.0117 -1.0536
  265MPD2    H7 4072   2.992   1.789  15.526  1.9338 -1.6265 -0.6863
  266TMC3    C1 4073   2.938   1.897  15.728  0.2939  0.2754  0.4758
  266TMC3    C2 4074   2.987   1.909  15.851  0.0671 -0.2813 -0.0110
  266TMC3    C3 4075   2.975   2.032  15.910  0.0644 -0.2502  0.1857
  266TMC3    C4 4076   2.885   1.999  15.661  0.0144  0.1794 -0.7525
  266TMC3    C5 4077   2.905   2.123  15.708  0.3675 -0.3935 -0.3922
  266TMC3    C6 4078   2.940   2.143  15.838  0.2496  0.2700  0.2545
  266TMC3     C 4079   2.889   1.764  15.695 -0.0240 -0.5450  0.2746
  266TMC3     O 4080   2.840   1.698  15.785  0.3329  0.4920  0.1697
  266TMC3     H 4081   3.013   1.824  15.914 -3.0082 -2.0226 -1.0732
  266TMC3    H1 4082   2.850   1.993  15.558  0.2422  3.9697 -1.0503
  266TMC3    H2 4083   2.960   2.245  15.869  1.1854  0.0966  0.2145
  266TMC3    C7 4084   2.830   2.223  15.645  0.4466  0.5328  0.5695
  266TMC3    C8 4085   3.047   2.058  16.034  0.5092  0.1843  0.2765
  266TMC3    O1 4086   2.719   2.188  15.599  0.1408  0.6498 -0.3951
  266TMC3    O2 4087   3.102   1.957  16.078  0.2348  0.4533  0.1362
  267MPD2     C 4088   0.723   3.587  17.511  0.5929  0.8254  1.2119
  267MPD2    C1 4089   0.728   3.485  17.602  0.2780  0.1522 -0.7238
  267MPD2    C2 4090   0.615   3.433  17.664 -0.1286  0.1326 -0.1327
  267MPD2    C3 4091   0.493   3.486  17.617  0.2878  0.5247 -0.1408
  267MPD2    C4 4092   0.487   3.581  17.518  0.2524  0.5601 -0.1038
  267MPD2    C5 4093   0.604   3.634  17.466 -0.1826  0.4933 -0.8731
  267MPD2     H 4094   0.611   3.339  17.717  0.9608 -0.2526 -0.7219
  267MPD2    H1 4095   0.395   3.627  17.486 -0.4337 -0.5119  0.3182
  267MPD2    H2 4096   0.815   3.621  17.465  0.7515 -1.1045  0.1000
  267MPD2    H3 4097   0.607   3.705  17.384  2.2521  1.9349  0.4632
  267MPD2     N 4098   0.367   3.426  17.651  0.0686  0.7173  0.9646
  267MPD2    H5 4099   0.287   3.441  17.590  0.8037 -1.2979 -0.5202
  267MPD2    N1 4100   0.862   3.435  17.631  0.1439 -0.1723 -0.4184
  267MPD2    H7 4101   0.935   3.462  17.566  1.0252  0.1636  0.7086
  268TMC3    C1 4102   1.021   3.293   0.010 -0.6895 -0.2853 -0.6955
  268TMC3    C2 4103   1.076   3.251  17.630  1.0340 -0.1470 -0.4916
  268TMC3    C3 4104   1.166   3.149  17.631 -0.0005  0.5995 -0.6737
  268TMC3    C4 4105   1.052   3.243   0.133 -0.0215 -0.3810  0.3586
  268TMC3    C5 4106   1.138   3.134   0.122 -0.6945  0.2031  0.0330
  268TMC3    C6 4107   1.196   3.085   0.010 -1.0129  0.5049  0.0522
  268TMC3     C 4108   0.887   3.347  17.737 -0.6259 -0.2156 -0.6095
  268TMC3     O 4109   0.810   3.317   0.091 -0.7341 -0.0903 -0.8627
  268TMC3     H 4110   1.034   3.296  17.541 -0.4709 -1.1601 -0.2895
  268TMC3    H1 4111   1.000   3.269   0.224 -2.2566 -1.1675 -0.7036
  268TMC3    H2 4112   1.257   2.996   0.020  0.8676  1.8514  0.6927
  268TMC3    C7 4113   1.133   3.040   0.227 -0.8273 -0.2794  0.0844
  268TMC3    C8 4114   1.186   3.060  17.515 -0.2966  0.3800 -0.6502
  268TMC3    O1 4115   1.214   2.949   0.227  0.1892 -0.0205 -0.1100
  268TMC3    O2 4116   1.258   2.961  17.533 -0.2087  0.5155 -0.7247
  269MPD2     C 4117   1.266   1.900  15.554 -0.0492 -0.1579  0.5157
  269MPD2    C1 4118   1.140   1.923  15.584  0.2072  0.3328  0.0383
  269MPD2    C2 4119   1.081   2.044  15.565 -0.2562  0.0773 -0.5022
  269MPD2    C3 4120   1.158   2.146  15.505  0.0409 -0.2161  0.0658
  269MPD2    C4 4121   1.291   2.122  15.465 -0.3631  0.3074  0.3280
  269MPD2    C5 4122   1.340   2.003  15.484  0.2392 -0.0310  1.1315
  269MPD2     H 4123   0.975   2.059  15.583  0.0882  1.4421  0.4334
  269MPD2    H1 4124   1.357   2.199  15.426  0.3158 -0.9159 -0.9155
  269MPD2    H2 4125   1.304   1.799  15.563 -1.1791 -0.7383 -1.1901
  269MPD2    H3 4126   1.445   1.984  15.468  0.7530  0.8815  3.5556
  269MPD2     N 4127   1.101   2.278  15.495  0.1913 -0.1114  0.6207
  269MPD2    H5 4128   1.018   2.292  15.552 -1.6739 -1.0743 -1.8427
  269MPD2    N1 4129   1.069   1.812  15.636 -0.1917  0.7560 -0.1189
  269MPD2    H7 4130   1.120   1.728  15.663 -1.4168 -0.3102 -1.0898
  270TMC3    C1 4131   0.907   1.658  15.669 -0.1517 -0.2957  0.6098
  270TMC3    C2 4132   0.815   1.590  15.591 -0.1727 -0.3806  0.4818
  270TMC3    C3 4133   0.805   1.448  15.595 -0.2827 -0.0617  0.3101
  270TMC3    C4 4134   0.987   1.582  15.749 -0.2851  0.3024 -0.5275
  270TMC3    C5 4135   0.977   1.451  15.751 -0.4375 -0.0280  0.5049
  270TMC3    C6 4136   0.892   1.378  15.670  0.3270  0.7918 -0.4629
  270TMC3     C 4137   0.930   1.798  15.642 -0.0009 -0.4950 -0.0891
  270TMC3     O 4138   0.835   1.862  15.592  0.4559 -0.0249  0.5781
  270TMC3     H 4139   0.757   1.647  15.519  1.1649  0.1555 -0.1759
  270TMC3    H1 4140   1.064   1.629  15.809  0.5117 -1.1115 -0.4377
  270TMC3    H2 4141   0.914   1.272  15.665  0.8596  0.8756  0.0870
  270TMC3    C7 4142   1.103   1.383  15.768 -0.5176 -0.3190 -0.1781
  270TMC3    C8 4143   0.768   1.375  15.471  0.6604  0.9785  0.1781
  270TMC3    O1 4144   1.165   1.410  15.872  0.3788  0.5039  0.1437
  270TMC3    O2 4145   0.747   1.443  15.373 -0.0518 -0.0115 -0.0125
  271MPD2     C 4146   0.152   1.044  14.006  0.7474 -0.2576  0.0501
  271MPD2    C1 4147   0.161   1.139  14.101  0.4562 -0.5012  0.2270
  271MPD2    C2 4148   0.093   1.258  14.088  0.6645 -0.4343 -0.2796
  271MPD2    C3 4149   0.039   1.291  13.967 -0.1854  0.0058 -0.2020
  271MPD2    C4 4150   0.042   1.200  13.865  0.3803  0.5480  0.3527
  271MPD2    C5 4151   0.093   1.076  13.890  0.7323  0.4929 -0.2086
  271MPD2     H 4152   0.119   1.339  14.154 -1.6798  0.4602 -0.4683
  271MPD2    H1 4153   0.010   1.220  13.763  1.8901  2.3813  0.2260
  271MPD2    H2 4154   0.195   0.945  14.019 -3.3024 -2.0550 -0.0975
  271MPD2    H3 4155   0.082   0.992  13.822 -0.5431  2.2075 -2.1373
  271MPD2     N 4156   4.721   1.417  13.942  0.6796  0.5684  0.4018
  271MPD2    H5 4157   4.703   1.438  13.844 -0.0216  1.6535  0.7641
  271MPD2    N1 4158   0.244   1.127  14.214  0.0456  0.2867 -0.0225
  271MPD2    H7 4159   0.238   1.200  14.284 -1.3035 -0.1417  0.3181
  272TMC3    C1 4160   0.395   1.031  14.368  0.0005 -0.0991 -0.1261
  272TMC3    C2 4161   0.533   1.023  14.351 -0.2960  0.4957 -0.0742
  272TMC3    C3 4162   0.613   1.077  14.442 -0.1459 -0.2966 -0.3296
  272TMC3    C4 4163   0.340   1.094  14.477 -0.2259 -0.2328  0.3495
  272TMC3    C5 4164   0.428   1.149  14.566 -0.3776 -0.3847  0.6914
  272TMC3    C6 4165   0.562   1.138  14.554  0.3438  0.2020  0.2144
  272TMC3     C 4166   0.321   1.016  14.244  0.1176 -0.3371 -0.5913
  272TMC3     O 4167   0.369   0.937  14.161 -1.3219  0.1919  0.1316
  272TMC3     H 4168   0.582   0.973  14.269 -2.8822 -2.0316 -0.0991
  272TMC3    H1 4169   0.235   1.106  14.501  0.2486 -2.0874  3.3761
  272TMC3    H2 4170   0.635   1.181  14.621  1.0254  1.1494 -1.1474
  272TMC3    C7 4171   0.370   1.196  14.687  0.3249 -0.3020 -0.0504
  272TMC3    C8 4172   0.752   1.059  14.427 -0.0650  0.0223  0.0864
  272TMC3    O1 4173   0.259   1.158  14.720 -0.0433 -0.1824  0.1048
  272TMC3    O2 4174   0.808   1.067  14.314  0.4109  0.5224  0.0667
  273MPD2     C 4175   2.066   4.200  11.721  0.1648  0.3581  0.1564
  273MPD2    C1 4176   2.136   4.318  11.723 -0.7513 -0.5039 -0.6297
  273MPD2    C2 4177   2.120   4.406  11.619  0.4719 -0.2311  0.1816
  273MPD2    C3 4178   2.030   4.386  11.519 -0.1094  0.0465 -0.2648
  273MPD2    C4 4179   1.952   4.267  11.522  0.5408 -0.2476  0.0281
  273MPD2    C5 4180   1.974   4.174  11.620 -0.2936 -0.3637  0.3123
  273MPD2     H 4181   2.181   4.496  11.621  0.8611 -0.4876 -0.0783
  273MPD2    H1 4182   1.878   4.248  11.445  0.4782 -0.7496  0.2067
  273MPD2    H2 4183   2.058   4.144  11.813 -0.3999  2.4923  1.3995
  273MPD2    H3 4184   1.913   4.085  11.621 -3.0217  1.5619  3.7235
  273MPD2     N 4185   2.020   4.493  11.424 -0.6653  0.8890 -0.3258
  273MPD2    H5 4186   2.071   4.578  11.445 -3.1369  2.2589  0.0261
  273MPD2    N1 4187   2.223   4.342  11.832  0.0607  0.1997  0.5218
  273MPD2    H7 4188   2.234   4.264  11.895  3.9427 -0.0476 -0.4994
  274TMC3    C1 4189   1.945   4.607  11.232  0.2747 -0.4432 -0.3271
  274TMC3    C2 4190   1.901   4.604  11.100 -0.8129 -0.3929  0.8399
  274TMC3    C3 4191   1.901   4.726  11.034  0.5615  0.2530  0.2980
  274TMC3    C4 4192   1.958   4.722  11.303 -0.3846  0.1703  0.4908
  274TMC3    C5 4193   1.949   0.102  11.228  0.4242 -0.7472 -0.4610
  274TMC3    C6 4194   1.930   0.114  11.098 -0.0351  0.1743  0.8162
  274TMC3     C 4195   1.954   4.478  11.302  0.0344 -0.7153  0.9753
  274TMC3     O 4196   1.898   4.382  11.252 -0.6724 -0.6463 -0.7218
  274TMC3     H 4197   1.869   4.514  11.049  0.7586  0.2551 -1.3062
  274TMC3    H1 4198   1.978   4.728  11.410  0.4596  0.9244  0.2927
  274TMC3    H2 4199   1.900   0.210  11.057 -0.2472 -0.0929  0.3530
  274TMC3    C7 4200   1.928   0.230  11.297 -0.4582  0.7345  0.1081
  274TMC3    C8 4201   1.821   0.006  10.912 -0.0603  0.4641  0.0040
  274TMC3    O1 4202   1.862   0.221  11.398  0.3012 -0.1506 -0.0446
  274TMC3    O2 4203   1.769   0.112  10.888  0.3658  0.0376  0.5649
  275MPD2     C 4204   1.791   2.300  14.704 -0.6524 -0.2645 -0.3318
  275MPD2    C1 4205   1.743   2.413  14.644  0.0206  0.5025  0.4401
  275MPD2    C2 4206   1.645   2.404  14.551  0.1588  0.1509  0.7622
  275MPD2    C3 4207   1.565   2.287  14.543 -0.2135 -0.0257  0.4105
  275MPD2    C4 4208   1.609   2.177  14.611  0.3939 -0.2733 -0.4196
  275MPD2    C5 4209   1.717   2.188  14.694 -0.6536 -1.3961  0.5090
  275MPD2     H 4210   1.607   2.496  14.507  3.6807  0.3182 -1.9072
  275MPD2    H1 4211   1.563   2.079  14.612  0.2781 -0.2573 -3.3679
  275MPD2    H2 4212   1.872   2.301  14.775  0.1619 -0.7992 -1.2604
  275MPD2    H3 4213   1.745   2.096  14.744 -0.0143 -0.0768  2.5276
  275MPD2     N 4214   1.439   2.260  14.471 -0.2359 -0.3053 -0.2610
  275MPD2    H5 4215   1.398   2.169  14.484 -0.3932 -0.6074 -2.9818
  275MPD2    N1 4216   1.784   2.547  14.675  0.7064  0.2423 -0.3845
  275MPD2    H7 4217   1.735   2.628  14.638 -0.8501 -0.2859  0.5070
  276TMC3    C1 4218   1.864   2.711  14.825 -0.5731  0.0680  0.6284
  276TMC3    C2 4219   1.730   2.728  14.867  0.6109  0.1343  0.2178
  276TMC3    C3 4220   1.707   2.784  14.989 -0.5434  0.4247  0.3559
  276TMC3    C4 4221   1.971   2.749  14.896 -0.7011 -0.1500  0.5360
  276TMC3    C5 4222   1.944   2.820  15.008 -0.1985  0.3011  0.5215
  276TMC3    C6 4223   1.817   2.836  15.055 -0.0045 -0.1465 -0.2169
  276TMC3     C 4224   1.887   2.586  14.758  0.3496 -0.9096 -0.4614
  276TMC3     O 4225   1.963   2.512  14.815  0.4172 -0.6900  0.0559
  276TMC3     H 4226   1.642   2.677  14.830  1.5478 -0.5972 -1.0215
  276TMC3    H1 4227   2.071   2.737  14.856 -0.6017  0.3438  0.6360
  276TMC3    H2 4228   1.806   2.889  15.149  0.9906 -0.4592  0.0751
  276TMC3    C7 4229   2.054   2.853  15.101 -0.1048 -0.2059  0.2311
  276TMC3    C8 4230   1.633   2.688  15.071 -0.4256  0.0154 -0.0008
  276TMC3    O1 4231   2.019   2.877  15.216  0.0623 -0.1957  0.0944
  276TMC3    O2 4232   1.603   2.728  15.180 -0.0374 -0.2037  0.6516
  277MPD2     C 4233   3.319   1.896  13.382 -0.0918  0.3399  0.4236
  277MPD2    C1 4234   3.179   1.901  13.395 -0.0177  0.2205  0.0440
  277MPD2    C2 4235   3.111   1.780  13.428  0.7095 -0.1080 -0.5181
  277MPD2    C3 4236   3.173   1.660  13.440  0.1443 -0.3705 -0.2629
  277MPD2    C4 4237   3.312   1.658  13.427  0.5402 -0.2660 -0.3976
  277MPD2    C5 4238   3.382   1.771  13.392  1.1976 -0.0525 -0.8046
  277MPD2     H 4239   3.003   1.775  13.427  0.6122  1.6698  0.3790
  277MPD2    H1 4240   3.371   1.568  13.442 -0.6831 -0.7443  1.6754
  277MPD2    H2 4241   3.383   1.979  13.357  0.1859 -0.1666 -0.5171
  277MPD2    H3 4242   3.489   1.765  13.378  1.7320  2.0441  2.5019
  277MPD2     N 4243   3.091   1.546  13.477 -0.3652 -0.0648 -0.0926
  277MPD2    H5 4244   2.990   1.555  13.474 -0.2797  0.5498 -1.4816
  277MPD2    N1 4245   3.114   2.027  13.367  0.0757 -0.5570 -0.4002
  277MPD2    H7 4246   3.176   2.100  13.333  2.1777 -2.3372 -0.3424
  278TMC3    C1 4247   3.047   1.319  13.555 -0.1644  0.4136 -0.0801
  278TMC3    C2 4248   3.092   1.186  13.565  0.8116  0.2821  0.7931
  278TMC3    C3 4249   2.998   1.092  13.612  0.7580 -0.0738  0.0253
  278TMC3    C4 4250   2.916   1.360  13.565  0.1987 -0.6200 -0.5792
  278TMC3    C5 4251   2.823   1.260  13.607 -0.7343  0.1475 -0.3268
  278TMC3    C6 4252   2.863   1.126  13.619  0.0291 -0.2338 -0.2098
  278TMC3     C 4253   3.146   1.425  13.516  0.3292  0.4012 -0.8895
  278TMC3     O 4254   3.261   1.395  13.522  0.2847 -0.5219 -0.5725
  278TMC3     H 4255   3.199   1.170  13.561  0.8068  0.6988 -1.2007
  278TMC3    H1 4256   2.884   1.463  13.555  3.0997  0.4435  1.0120
  278TMC3    H2 4257   2.788   1.048  13.632 -0.7823  0.8302  1.4655
  278TMC3    C7 4258   2.688   1.293  13.635  0.7272 -0.3435  0.2388
  278TMC3    C8 4259   3.018   0.951  13.606 -0.5985  0.4080  0.4722
  278TMC3    O1 4260   2.648   1.397  13.586  0.0033 -0.0087 -0.2128
  278TMC3    O2 4261   2.927   0.872  13.628  0.3449 -0.2282 -0.3357
  279MPD2     C 4262   2.324   2.894  17.637 -0.4716  0.1224  0.1230
  279MPD2    C1 4263   2.233   2.800  17.674  0.1426 -0.1243  0.1901
  279MPD2    C2 4264   2.260   2.666  17.655 -0.1484 -0.6933 -0.1972
  279MPD2    C3 4265   2.384   2.633  17.609  0.2227  0.9292  0.0609
  279MPD2    C4 4266   2.475   2.724  17.566 -0.3082 -0.9655  0.3753
  279MPD2    C5 4267   2.446   2.856  17.584 -0.5829  0.8157  0.3070
  279MPD2     H 4268   2.183   2.597  17.686 -0.0185 -1.7341 -2.1919
  279MPD2    H1 4269   2.567   2.688  17.521  0.2620 -1.3839  1.8878
  279MPD2    H2 4270   2.323   3.002  17.652  1.1130  0.0097  1.0943
  279MPD2    H3 4271   2.516   2.936  17.562 -0.2273  0.1189 -1.0947
  279MPD2     N 4272   2.423   2.501  17.589 -0.6982 -0.3083 -0.0475
  279MPD2    H5 4273   2.517   2.492  17.550 -1.0696 -1.5201 -0.6571
  279MPD2    N1 4274   2.104   2.843  17.717  0.1826 -0.0955 -0.0420
  279MPD2    H7 4275   2.093   2.942  17.736  0.0325 -0.5379  2.2576
  280TMC3    C1 4276   1.878   2.870   0.032  0.4767  0.4746  0.3167
  280TMC3    C2 4277   1.897   2.990   0.099  0.5068  0.4714 -0.1521
  280TMC3    C3 4278   1.811   3.091   0.061 -0.1697  0.5286  0.3807
  280TMC3    C4 4279   1.782   2.845  17.677 -0.2782 -0.5897 -0.5946
  280TMC3    C5 4280   1.711   2.957  17.633  0.1902  0.2207 -0.1120
  280TMC3    C6 4281   1.732   3.077  17.690  0.1842  0.6534  0.8187
  280TMC3     C 4282   1.992   2.775   0.008 -0.2355 -0.3724 -0.0564
  280TMC3     O 4283   1.963   2.663  17.712 -0.1439  0.3505 -0.3358
  280TMC3     H 4284   1.966   2.993   0.182  0.7608 -0.6204 -0.3292
  280TMC3    H1 4285   1.764   2.747  17.635 -0.5877 -1.0155  0.5240
  280TMC3    H2 4286   1.664   3.160  17.672  0.5846  0.9212  0.5277
  280TMC3    C7 4287   1.633   2.945  17.508 -0.1528 -0.0526 -0.0684
  280TMC3    C8 4288   1.849   3.222   0.120 -0.3892  0.7892  0.8736
  280TMC3    O1 4289   1.621   3.045  17.435 -0.0248  0.7485 -0.1334
  280TMC3    O2 4290   1.936   3.215   0.201  0.2338  0.1785 -0.5521
  281TMC3    C1 4291   1.540   1.926  13.600  0.1370 -0.1494 -0.3033
  281TMC3    C2 4292   1.648   2.009  13.629 -0.1633 -0.2248  0.9569
  281TMC3    C3 4293   1.764   2.001  13.553  0.0129 -0.0313 -0.4935
  281TMC3    C4 4294   1.564   1.812  13.529 -0.0219 -0.6509 -0.1616
  281TMC3    C5 4295   1.688   1.803  13.462  0.3989  0.3668  0.5016
  281TMC3    C6 4296   1.785   1.901  13.467 -0.0171 -0.3952 -0.1656
  281TMC3     C 4297   1.410   1.968  13.637 -0.1594  0.6528 -0.3348
  281TMC3     O 4298   1.321   1.890  13.620 -0.8507  0.1762  0.0267
  281TMC3     H 4299   1.646   2.100  13.689  0.9311  0.7878 -0.5270
  281TMC3    H1 4300   1.481   1.745  13.511 -1.8207  1.8630 -1.2421
  281TMC3    H2 4301   1.874   1.880  13.408  0.4889 -1.4746  0.9647
  281TMC3    C7 4302   1.687   1.717  13.344 -0.9542  0.1939 -0.2591
  281TMC3    C8 4303   1.859   2.106  13.547  0.0832  0.7749  0.0733
  281TMC3    O1 4304   1.761   1.739  13.249  0.1796 -0.8966  0.1382
  281TMC3    O2 4305   1.976   2.073  13.542 -0.3095 -0.5251 -0.2211
  282MPD2     C 4306   3.091   3.093  15.297 -0.1583  0.5040  0.4538
  282MPD2    C1 4307   2.959   3.104  15.335 -0.3026  0.7618  0.2700
  282MPD2    C2 4308   2.865   3.133  15.238 -0.5467  0.1798 -0.6918
  282MPD2    C3 4309   2.909   3.152  15.106 -0.3668  0.4828  0.5174
  282MPD2    C4 4310   3.037   3.137  15.076  0.5492 -0.6564  0.1793
  282MPD2    C5 4311   3.125   3.103  15.164  0.1187  0.5573 -0.2212
  282MPD2     H 4312   2.763   3.149  15.270 -0.0713 -0.5757  1.1701
  282MPD2    H1 4313   3.069   3.158  14.974  0.1527  0.1300  0.2196
  282MPD2    H2 4314   3.173   3.062  15.362 -1.2968 -0.5697  1.3803
  282MPD2    H3 4315   3.230   3.098  15.139 -0.5183  1.3002 -3.0153
  282MPD2     N 4316   2.812   3.184  15.012  0.0066  0.3661 -0.0233
  282MPD2    H5 4317   2.716   3.193  15.043  0.6188 -0.5120  2.0651
  282MPD2    N1 4318   2.917   3.088  15.468 -0.2328 -0.0686  0.0663
  282MPD2    H7 4319   2.819   3.105  15.487 -0.1785  1.1082 -0.7067
  283TMC3    C1 4320   2.936   3.118  15.701  0.2792 -0.5084  0.2993
  283TMC3    C2 4321   2.992   3.225  15.771  0.6557  0.4187 -0.4168
  283TMC3    C3 4322   2.953   3.269  15.897 -0.4197  0.6710  0.6120
  283TMC3    C4 4323   2.829   3.059  15.754 -0.5156  0.7102  0.5056
  283TMC3    C5 4324   2.789   3.099  15.880 -0.1891  0.8610 -0.5070
  283TMC3    C6 4325   2.842   3.210  15.949  0.9779  0.0124 -0.9622
  283TMC3     C 4326   2.998   3.075  15.576 -0.1620  0.5184  1.4570
  283TMC3     O 4327   3.114   3.035  15.582  0.1288 -0.3183  0.2590
  283TMC3     H 4328   3.078   3.268  15.720  0.6915  0.4141 -0.3596
  283TMC3    H1 4329   2.781   2.984  15.693  0.3028 -0.5302  1.4096
  283TMC3    H2 4330   2.792   3.240  16.040  0.5113  0.1456 -1.2635
  283TMC3    C7 4331   2.703   3.010  15.953  0.1945 -0.1748 -0.0501
  283TMC3    C8 4332   2.998   3.391  15.959  0.0304  0.3047 -0.1644
  283TMC3    O1 4333   2.647   3.049  16.053  0.3752 -0.4737  0.4344
  283TMC3    O2 4334   2.956   3.419  16.071 -0.6780  0.4323 -0.0585
  284MPD2     C 4335   1.558   2.492  12.000  0.2362 -0.1696 -0.0225
  284MPD2    C1 4336   1.469   2.481  11.897 -1.2672  0.2109 -0.0393
  284MPD2    C2 4337   1.394   2.361  11.878 -0.6251  0.2054  1.0265
  284MPD2    C3 4338   1.427   2.248  11.955  0.1118 -0.2139 -1.1622
  284MPD2    C4 4339   1.516   2.266  12.061  0.1804  0.2661 -0.1159
  284MPD2    C5 4340   1.581   2.388  12.088 -0.9805 -0.0499  0.6480
  284MPD2     H 4341   1.322   2.365  11.798 -1.1783  2.5077  1.6523
  284MPD2    H1 4342   1.545   2.183  12.123 -1.9485  0.7194  1.4784
  284MPD2    H2 4343   1.616   2.582  12.014 -0.2658 -0.0746  1.4815
  284MPD2    H3 4344   1.646   2.396  12.174  2.8858  2.3479 -2.4832
  284MPD2     N 4345   1.384   2.116  11.928  0.1654 -0.4627  0.1447
  284MPD2    H5 4346   1.426   2.046  11.988  1.9386 -1.0082 -1.7553
  284MPD2    N1 4347   1.456   2.578  11.795  0.6054 -0.3141 -1.0476
  284MPD2    H7 4348   1.399   2.550  11.716 -1.2652  0.7972 -0.1129
  285TMC3    C1 4349   1.493   2.757  11.661 -0.6125  0.7431  0.1698
  285TMC3    C2 4350   1.530   2.670  11.563 -0.3280 -0.1490 -0.5357
  285TMC3    C3 4351   1.549   2.724  11.436 -0.2418 -0.5461 -0.0534
  285TMC3    C4 4352   1.487   2.895  11.642  0.6103  0.2314  0.2937
  285TMC3    C5 4353   1.504   2.939  11.515 -0.5078  0.8087  0.0139
  285TMC3    C6 4354   1.531   2.864  11.409 -0.1760  0.0359 -0.2266
  285TMC3     C 4355   1.511   2.700  11.793 -0.0828  0.7370  0.1871
  285TMC3     O 4356   1.575   2.769  11.871 -0.0783 -0.2175  0.2757
  285TMC3     H 4357   1.564   2.569  11.585 -0.0997  0.0768  0.1289
  285TMC3    H1 4358   1.470   2.965  11.723 -1.0493 -0.3715  0.4508
  285TMC3    H2 4359   1.586   2.910  11.327 -1.0992  0.7804 -0.4253
  285TMC3    C7 4360   1.465   3.072  11.482 -0.2329  0.2319 -0.1937
  285TMC3    C8 4361   1.589   2.629  11.333  0.3827 -0.2759  0.3023
  285TMC3    O1 4362   1.481   3.163  11.565 -0.6729 -0.5454 -0.8835
  285TMC3    O2 4363   1.571   2.515  11.364  0.4128 -0.6780  0.1378
  286MPD2     C 4364   1.571   1.767   1.569 -0.6090 -0.1754 -0.3286
  286MPD2    C1 4365   1.572   1.713   1.449  0.3173 -0.9649 -0.0958
  286MPD2    C2 4366   1.666   1.622   1.406 -0.4112  0.6844  0.0256
  286MPD2    C3 4367   1.761   1.576   1.498  0.6437 -0.1150 -0.6511
  286MPD2    C4 4368   1.755   1.628   1.624  0.2713 -0.1077 -0.9261
  286MPD2    C5 4369   1.667   1.724   1.658  0.1324 -0.2096 -0.6697
  286MPD2     H 4370   1.659   1.592   1.302 -0.8456 -0.5001  0.3978
  286MPD2    H1 4371   1.829   1.607   1.701  0.8085  1.1694 -1.0876
  286MPD2    H2 4372   1.495   1.832   1.611 -1.8174 -0.3895 -2.1885
  286MPD2    H3 4373   1.680   1.778   1.751  1.3054 -1.0271 -0.3570
  286MPD2     N 4374   1.863   1.482   1.473  0.5375  0.2357 -0.3225
  286MPD2    H5 4375   1.916   1.457   1.557  0.3441 -0.1459 -0.3139
  286MPD2    N1 4376   1.479   1.745   1.348  0.2490 -0.4821  0.1427
  286MPD2    H7 4377   1.497   1.700   1.258  1.4065 -0.5151  0.3805
  287TMC3    C1 4378   1.954   1.285   1.357 -0.0222  0.5926 -0.3491
  287TMC3    C2 4379   1.939   1.206   1.253 -0.1681 -0.1456  0.0884
  287TMC3    C3 4380   2.041   1.127   1.216  0.3747 -0.1491  0.3869
  287TMC3    C4 4381   2.069   1.298   1.416  0.6107 -0.1729  0.0721
  287TMC3    C5 4382   2.171   1.214   1.378  0.2961  0.3683  0.9551
  287TMC3    C6 4383   2.160   1.128   1.270  0.1313 -0.3110  0.2722
  287TMC3     C 4384   1.862   1.399   1.365 -0.7549 -0.4802 -0.0235
  287TMC3     O 4385   1.769   1.389   1.285 -0.0801  1.1811 -0.7688
  287TMC3     H 4386   1.844   1.205   1.200 -0.3416  2.2231  0.3710
  287TMC3    H1 4387   2.079   1.353   1.509 -3.9734 -0.6069  0.8298
  287TMC3    H2 4388   2.233   1.052   1.243  0.6317  0.1210  0.4208
  287TMC3    C7 4389   2.289   1.216   1.456 -1.0873  0.0928  0.0549
  287TMC3    C8 4390   2.021   1.063   1.090  0.0753  0.1935  0.4176
  287TMC3    O1 4391   2.285   1.284   1.554 -0.4642  0.3075  0.3323
  287TMC3    O2 4392   1.909   1.043   1.053  0.1981  0.1467 -0.5916
  288TMC3    C1 4393   3.555   1.197  14.465  1.0057 -0.8706 -0.2544
  288TMC3    C2 4394   3.451   1.154  14.547 -0.0344  0.2074 -0.9525
  288TMC3    C3 4395   3.335   1.222  14.536  0.0122  0.4108  0.4804
  288TMC3    C4 4396   3.537   1.271  14.351  0.3194 -0.0133 -0.1370
  288TMC3    C5 4397   3.418   1.327  14.334 -1.1096 -0.2285  0.0605
  288TMC3    C6 4398   3.315   1.295  14.425 -0.1920 -0.3677  0.2634
  288TMC3     C 4399   3.685   1.152  14.506 -0.2948 -0.2386  0.3957
  288TMC3     O 4400   3.701   1.097  14.616  0.0372  0.1957  0.0466
  288TMC3     H 4401   3.472   1.113  14.645  0.5229 -1.3721 -1.7359
  288TMC3    H1 4402   3.621   1.309  14.293 -0.2349  0.5298 -0.5795
  288TMC3    H2 4403   3.228   1.360  14.427  0.7858  0.9226  0.4676
  288TMC3    C7 4404   3.404   1.411  14.215  0.1615 -0.0097 -0.6880
  288TMC3    C8 4405   3.222   1.203  14.623 -0.7954 -0.0928  0.7316
  288TMC3    O1 4406   3.497   1.461  14.152  0.1354 -0.2052 -0.6362
  288TMC3    O2 4407   3.139   1.290  14.628 -0.6484 -0.1591  0.8483
  289MPD2     C 4408   3.625   0.861  14.214  0.1707  0.6132 -0.0529
  289MPD2    C1 4409   3.565   0.796  14.109  0.3880  0.4030  0.4176
  289MPD2    C2 4410   3.466   0.703  14.132 -0.5979 -0.4962 -0.5654
  289MPD2    C3 4411   3.420   0.679  14.264  0.1862 -0.4469  0.4647
  289MPD2    C4 4412   3.479   0.747  14.366 -0.1515  0.1621  0.0912
  289MPD2    C5 4413   3.576   0.844  14.333 -0.0883 -0.0097 -0.2630
  289MPD2     H 4414   3.421   0.647  14.051 -0.3137 -0.2917 -0.8663
  289MPD2    H1 4415   3.445   0.736  14.468  1.4502  2.1268  0.8296
  289MPD2    H2 4416   3.710   0.928  14.211  0.0077  0.8729  1.2561
  289MPD2    H3 4417   3.627   0.896  14.413  3.0312 -3.1939 -0.1478
  289MPD2     N 4418   3.317   0.578  14.286  0.1462 -0.5197  0.0166
  289MPD2    H5 4419   3.252   0.594  14.362  0.5887  0.1376  0.2633
  289MPD2    N1 4420   3.637   0.807  13.983  0.9669  0.1978  0.6855
  289MPD2    H7 4421   3.728   0.851  13.973 -0.7576  3.5328 -0.0833
  290TMC3    C1 4422   3.229   0.370  14.295  0.1048  0.3661  0.5168
  290TMC3    C2 4423   3.115   0.413  14.349 -0.9171 -0.3726 -0.3403
  290TMC3    C3 4424   3.049   0.332  14.432  0.2195 -0.5639  0.5383
  290TMC3    C4 4425   3.294   0.258  14.343 -0.0344 -1.1474  0.3319
  290TMC3    C5 4426   3.223   0.178  14.430 -0.8166 -0.1864  0.0299
  290TMC3    C6 4427   3.097   0.210  14.469  0.6967  0.4461  0.1866
  290TMC3     C 4428   3.311   0.459  14.218  0.2901  0.0451  0.0920
  290TMC3     O 4429   3.388   0.400  14.140  0.2748 -0.0693 -0.1913
  290TMC3     H 4430   3.077   0.510  14.320  1.0828 -0.5756 -3.5334
  290TMC3    H1 4431   3.388   0.225  14.301  1.4934  0.3331  2.5656
  290TMC3    H2 4432   3.041   0.144  14.534 -1.6903  0.5396 -1.7798
  290TMC3    C7 4433   3.300   0.073  14.494  0.3948 -0.2099  0.4424
  290TMC3    C8 4434   2.928   0.376  14.496  0.0893  0.2326 -0.1990
  290TMC3    O1 4435   3.410   0.108  14.540  0.0772  0.2482  0.6116
  290TMC3    O2 4436   2.856   0.290  14.546  0.8382  0.2175  0.4873
  291MPD2     C 4437   2.612   0.389   0.545 -0.6888 -0.0388 -0.4712
  291MPD2    C1 4438   2.658   0.272   0.497 -0.8221 -0.1455  0.4550
  291MPD2    C2 4439   2.769   0.272   0.416  0.6718  0.0579  0.0550
  291MPD2    C3 4440   2.834   0.393   0.395 -0.2888  0.0551  0.3696
  291MPD2    C4 4441   2.791   0.514   0.449  0.1752 -0.0403 -0.1725
  291MPD2    C5 4442   2.676   0.509   0.527 -0.1687 -0.0461 -0.5165
  291MPD2     H 4443   2.801   0.181   0.367 -1.1005 -0.9161  0.7133
  291MPD2    H1 4444   2.846   0.605   0.431  1.2149 -0.2059  2.1413
  291MPD2    H2 4445   2.518   0.397   0.597  0.5403 -3.2853  2.2734
  291MPD2    H3 4446   2.627   0.593   0.576 -0.1549  1.1547 -2.5825
  291MPD2     N 4447   2.932   0.410   0.294  0.1681 -0.0698  0.2525
  291MPD2    H5 4448   2.940   0.506   0.263  0.7303  0.3175  1.6243
  291MPD2    N1 4449   2.583   0.149   0.525  0.2328 -0.0064  0.4340
  291MPD2    H7 4450   2.494   0.156   0.573 -0.4396  1.7680 -1.1036
  292TMC3    C1 4451   2.516   4.664   0.514  0.1949 -0.3900  0.7382
  292TMC3    C2 4452   2.468   4.675   0.641 -0.1249 -0.1046  0.2984
  292TMC3    C3 4453   2.361   4.592   0.659  0.2910 -0.1609  0.2193
  292TMC3    C4 4454   2.471   4.583   0.416 -0.1552  0.3158  0.0306
  292TMC3    C5 4455   2.356   4.515   0.438  0.4246 -0.2228  0.5975
  292TMC3    C6 4456   2.296   4.516   0.560 -0.0579 -0.6602 -0.4449
  292TMC3     C 4457   2.611   0.029   0.463 -0.9707  0.5870 -0.0485
  292TMC3     O 4458   2.696   4.733   0.382  0.4629  0.7187  0.0551
  292TMC3     H 4459   2.517   0.006   0.712  1.0419  1.0649 -1.5736
  292TMC3    H1 4460   2.520   4.572   0.320 -0.6632  0.2843 -0.2233
  292TMC3    H2 4461   2.222   4.441   0.586 -2.4222  1.3313 -1.4370
  292TMC3    C7 4462   2.324   4.408   0.347 -0.1814 -0.0803 -0.3742
  292TMC3    C8 4463   2.317   4.574   0.797 -0.8170  0.1440  0.1814
  292TMC3    O1 4464   2.420   4.353   0.301  0.3549 -0.4722  0.4718
  292TMC3    O2 4465   2.397   4.594   0.889 -0.0215  0.2489  0.1772
  293MPD2     C 4466   4.587   1.565  12.606 -0.2907 -0.7293 -0.6769
  293MPD2    C1 4467   4.483   1.497  12.657 -0.3463  0.5645  0.2038
  293MPD2    C2 4468   4.478   1.461  12.788  0.4141 -0.0153  0.0095
  293MPD2    C3 4469   4.588   1.493  12.865 -0.1409 -0.5555 -0.3957
  293MPD2    C4 4470   4.701   1.548  12.809  0.2924 -0.1539 -0.1906
  293MPD2    C5 4471   4.708   1.564  12.674 -0.0581  0.1279  0.1296
  293MPD2     H 4472   4.391   1.409  12.826 -0.1010  0.5965 -0.3501
  293MPD2    H1 4473   0.059   1.566  12.862 -0.1478 -0.9515  0.8490
  293MPD2    H2 4474   4.591   1.605  12.506  2.7055  2.5019  0.7547
  293MPD2    H3 4475   0.062   1.592  12.618 -1.4381  1.3299 -1.4724
  293MPD2     N 4476   4.586   1.463  13.005  0.3669 -0.2871 -0.7588
  293MPD2    H5 4477   4.504   1.413  13.037 -1.1570  2.3177 -0.6762
  293MPD2    N1 4478   4.366   1.480  12.572  0.3953 -0.4803 -0.3529
  293MPD2    H7 4479   4.375   1.512  12.476  0.3115 -2.2095 -0.9343
  294TMC3    C1 4480   4.142   1.429  12.501 -0.2917  0.6104 -0.6116
  294TMC3    C2 4481   4.019   1.392  12.539  0.1100  0.1275  0.1738
  294TMC3    C3 4482   3.919   1.388  12.446 -0.3342 -0.0908 -0.2924
  294TMC3    C4 4483   4.174   1.464  12.375 -0.4386  0.5483  0.1092
  294TMC3    C5 4484   4.071   1.480  12.288 -0.7485 -0.0993 -0.2787
  294TMC3    C6 4485   3.944   1.439  12.322  0.4465  0.1823  0.0536
  294TMC3     C 4486   4.246   1.427  12.607  0.1010 -0.0948 -0.4757
  294TMC3     O 4487   4.205   1.399  12.719 -0.0427  0.2236 -0.9915
  294TMC3     H 4488   4.002   1.329  12.625 -1.7470 -0.7790 -0.8586
  294TMC3    H1 4489   4.276   1.483  12.343  0.5961 -1.6978  2.0678
  294TMC3    H2 4490   3.867   1.442  12.246 -0.5500 -1.0724  1.0075
  294TMC3    C7 4491   4.097   1.554  12.169 -0.0539 -0.3535  0.1272
  294TMC3    C8 4492   3.817   1.293  12.462  0.2285  0.6382 -0.5463
  294TMC3    O1 4493   4.004   1.606  12.113  0.2984  0.9663  0.0822
  294TMC3    O2 4494   3.785   1.268  12.575  0.1558 -0.2404  0.4137
  295MPD2     C 4495   4.606   0.422   0.865 -0.1626  0.2316 -0.1108
  295MPD2    C1 4496   4.599   0.538   0.792  0.1578 -0.6673 -0.0244
  295MPD2    C2 4497   4.527   0.651   0.833 -0.1365  0.1139 -0.2644
  295MPD2    C3 4498   4.461   0.647   0.955  0.1167 -0.4587  0.1000
  295MPD2    C4 4499   4.468   0.530   1.038  0.3237  1.0925 -0.0499
  295MPD2    C5 4500   4.545   0.422   0.988  0.4044 -0.6357 -0.4231
  295MPD2     H 4501   4.533   0.736   0.766 -2.8649  0.8175  0.3759
  295MPD2    H1 4502   4.428   0.524   1.139  3.0293  0.5818  1.0067
  295MPD2    H2 4503   4.653   0.331   0.831 -0.4205 -0.3905  1.2127
  295MPD2    H3 4504   4.557   0.326   1.035  1.6245 -0.2340  0.0884
  295MPD2     N 4505   4.387   0.750   1.016  0.3123  0.1722  0.3431
  295MPD2    H5 4506   4.369   0.732   1.114 -0.0251  2.1416  0.6366
  295MPD2    N1 4507   4.670   0.544   0.674 -0.0973 -0.0736  0.2553
  295MPD2    H7 4508   4.646   0.630   0.626  4.6600  1.5379  0.7583
  296TMC3    C1 4509   4.264   0.957   1.039  0.4684  0.5464 -0.2187
  296TMC3    C2 4510   4.251   1.090   1.025 -0.7534  0.1330  0.4824
  296TMC3    C3 4511   4.163   1.154   1.103  0.0760  0.3703 -0.1894
  296TMC3    C4 4512   4.183   0.887   1.126 -0.8415 -0.0640  0.0920
  296TMC3    C5 4513   4.090   0.946   1.197 -0.7469  0.3226 -0.3537
  296TMC3    C6 4514   4.078   1.084   1.180 -0.5275 -0.5352 -0.3717
  296TMC3     C 4515   4.356   0.873   0.962 -0.1289 -0.8880  0.4926
  296TMC3     O 4516   4.383   0.917   0.849 -0.7321  0.5295 -0.1711
  296TMC3     H 4517   4.330   1.134   0.965  0.2946 -2.3198  0.0404
  296TMC3    H1 4518   4.192   0.779   1.130 -0.1192  0.1196  3.4200
  296TMC3    H2 4519   4.008   1.143   1.238  0.4729  0.9909 -0.7391
  296TMC3    C7 4520   3.984   0.878   1.268  0.0692  0.1656  0.4196
  296TMC3    C8 4521   4.209   1.284   1.153 -0.4994 -0.7561  1.0568
  296TMC3    O1 4522   3.884   0.942   1.303 -0.0320  0.0626 -0.0666
  296TMC3    O2 4523   4.121   1.364   1.184 -0.3560  0.7640 -0.0344
  297MPD2     C 4524   2.022   1.918  16.211  0.2101  0.4528 -0.1972
  297MPD2    C1 4525   2.079   1.986  16.098 -0.3127  0.2263  0.0983
  297MPD2    C2 4526   2.196   2.063  16.108 -0.0373 -0.7914  0.7194
  297MPD2    C3 4527   2.262   2.062  16.226  0.2672  0.4721  0.0375
  297MPD2    C4 4528   2.221   1.987  16.332 -0.0066 -0.5378 -0.0969
  297MPD2    C5 4529   2.102   1.917  16.327  0.0846 -0.1562 -0.2794
  297MPD2     H 4530   2.224   2.128  16.026 -0.7058  0.5973  1.6004
  297MPD2    H1 4531   2.283   1.993  16.421  0.4595  2.0822 -0.5859
  297MPD2    H2 4532   1.921   1.879  16.218  0.7630 -1.0060 -0.5401
  297MPD2    H3 4533   2.054   1.857  16.404 -3.9869  2.6747 -0.5866
  297MPD2     N 4534   2.375   2.132  16.250 -0.2405  0.3058  0.1107
  297MPD2    H5 4535   2.418   2.128  16.341 -0.4033 -2.6933  0.0509
  297MPD2    N1 4536   2.003   2.011  15.982 -0.1953  0.7937 -0.0805
  297MPD2    H7 4537   2.045   2.069  15.910 -0.4176 -0.8990 -1.5642
  298TMC3    C1 4538   1.820   2.019  15.823  0.5439  0.4025 -0.0569
  298TMC3    C2 4539   1.905   2.037  15.724 -0.3326 -0.4801 -0.3745
  298TMC3    C3 4540   1.869   2.118  15.624 -0.3116  0.1996 -0.0574
  298TMC3    C4 4541   1.686   2.066  15.817 -0.2896 -0.5673 -0.3647
  298TMC3    C5 4542   1.651   2.149  15.718 -0.0443  0.9006 -0.8204
  298TMC3    C6 4543   1.738   2.171  15.614 -0.0693  0.0172  0.1238
  298TMC3     C 4544   1.868   1.971  15.950 -0.1514 -0.0780  0.2497
  298TMC3     O 4545   1.786   1.904  16.014  0.0753 -0.8973 -0.2800
  298TMC3     H 4546   2.002   1.990  15.737  0.6310  1.1544 -1.6793
  298TMC3    H1 4547   1.624   2.042  15.902 -1.2780  2.2632 -0.2980
  298TMC3    H2 4548   1.710   2.213  15.517  0.6634  0.3117  0.0397
  298TMC3    C7 4549   1.533   2.229  15.735  0.1300  0.0728 -0.2463
  298TMC3    C8 4550   1.958   2.132  15.513 -0.0590 -0.0969  0.5979
  298TMC3    O1 4551   1.457   2.199  15.829  0.1551 -0.1958  0.0878
  298TMC3    O2 4552   2.044   2.045  15.504  0.2457  0.7127  0.5896
  299MPD2     C 4553   2.495   1.661  10.759  0.7322 -0.2783 -0.4841
  299MPD2    C1 4554   2.545   1.766  10.690 -0.1085  0.1819  0.8896
  299MPD2    C2 4555   2.500   1.790  10.557  0.0962  0.1357  0.1971
  299MPD2    C3 4556   2.425   1.698  10.493  0.0162  0.3361  0.2648
  299MPD2    C4 4557   2.370   1.595  10.572  0.1267 -0.6737 -0.4228
  299MPD2    C5 4558   2.401   1.583  10.704  0.5496 -0.3687  0.9633
  299MPD2     H 4559   2.530   1.878  10.502  0.0054 -0.8772 -1.4733
  299MPD2    H1 4560   2.305   1.521  10.527  0.0655 -0.0462 -1.3797
  299MPD2    H2 4561   2.520   1.652  10.864 -1.6538  0.1032  0.1162
  299MPD2    H3 4562   2.357   1.502  10.761  0.5605  0.5328  2.2471
  299MPD2     N 4563   2.396   1.715  10.352 -0.3860  0.2077 -0.5254
  299MPD2    H5 4564   2.433   1.798  10.308  2.2019  0.6855  2.6039
  299MPD2    N1 4565   2.638   1.850  10.760 -0.1174 -0.6061 -0.0594
  299MPD2    H7 4566   2.647   1.820  10.857 -0.3544  0.4327  0.2772
  300TMC3    C1 4567   2.292   1.694  10.150  0.5183 -0.3896  0.7712
  300TMC3    C2 4568   2.402   1.757  10.093  0.1990  0.6397  0.1025
  300TMC3    C3 4569   2.385   1.857  10.003 -0.8145  0.1991  0.1165
  300TMC3    C4 4570   2.167   1.736  10.117  0.8563 -0.2776  0.2033
  300TMC3    C5 4571   2.153   1.828  10.021 -0.9816  0.8424  0.3658
  300TMC3    C6 4572   2.262   1.891   9.963 -0.6214 -0.1069 -0.9151
  300TMC3     C 4573   2.309   1.637  10.278  0.2225  0.2109  0.2085
  300TMC3     O 4574   2.217   1.563  10.316  0.3412  0.6708  0.0206
  300TMC3     H 4575   2.499   1.723  10.127 -0.5794 -0.8794  0.7852
  300TMC3    H1 4576   2.082   1.685  10.161  0.5210  1.1603  1.2232
  300TMC3    H2 4577   2.241   1.974   9.897 -0.1713 -1.7182 -3.0898
  300TMC3    C7 4578   2.044   1.922  10.037 -0.1629  0.6492 -0.3464
  300TMC3    C8 4579   2.478   1.965  10.023  0.3163 -0.4257 -0.0568
  300TMC3    O1 4580   2.030   2.012   9.957 -0.7370  0.0890 -0.5090
  300TMC3    O2 4581   2.552   1.962  10.121  0.0680  0.6311  0.2635
  301MPD2     C 4582   4.470   3.402   1.060 -0.2710  0.8132  0.4984
  301MPD2    C1 4583   4.353   3.371   1.124  0.0136 -0.7172 -0.2058
  301MPD2    C2 4584   4.320   3.243   1.173 -0.3397  0.5145  0.9202
  301MPD2    C3 4585   4.420   3.142   1.153 -1.0337 -0.8828  1.0216
  301MPD2    C4 4586   4.539   3.166   1.086  0.1618  0.2867  0.0839
  301MPD2    C5 4587   4.560   3.296   1.047  0.1308  0.8064  0.4059
  301MPD2     H 4588   4.219   3.226   1.210  0.3508  0.3641  2.7250
  301MPD2    H1 4589   4.607   3.083   1.070 -2.1212 -1.8688  1.3696
  301MPD2    H2 4590   4.497   3.496   1.014 -0.4713 -0.1747 -1.6063
  301MPD2    H3 4591   4.649   3.315   0.988  0.2988 -1.3436 -0.0365
  301MPD2     N 4592   4.393   3.004   1.191 -0.0750 -0.1711 -0.4036
  301MPD2    H5 4593   4.458   2.937   1.150 -0.0932 -1.4659  1.6944
  301MPD2    N1 4594   4.253   3.470   1.149 -0.1944  0.0026 -0.3486
  301MPD2    H7 4595   4.167   3.438   1.193 -0.5241 -0.1772 -1.1230
  302TMC3    C1 4596   4.295   2.806   1.295  0.3938 -0.2015  1.0021
  302TMC3    C2 4597   4.417   2.750   1.326 -0.8631  0.6386  0.4906
  302TMC3    C3 4598   4.407   2.632   1.396 -0.2638  0.9290  0.2573
  302TMC3    C4 4599   4.175   2.754   1.339 -0.4575 -0.7603 -0.2339
  302TMC3    C5 4600   4.180   2.639   1.410 -1.0549 -0.6275  0.0283
  302TMC3    C6 4601   4.296   2.571   1.443  0.7798 -0.2559  0.6779
  302TMC3     C 4602   4.293   2.953   1.274 -0.3288  0.0911 -0.1555
  302TMC3     O 4603   4.191   3.007   1.305  0.0304  0.2585 -0.0735
  302TMC3     H 4604   4.507   2.802   1.297 -0.7965  1.1004  1.5526
  302TMC3    H1 4605   4.084   2.807   1.315 -1.8835 -2.2794  1.8205
  302TMC3    H2 4606   4.293   2.473   1.489  0.1058 -0.6105 -0.1275
  302TMC3    C7 4607   4.060   2.551   1.403  0.0822  1.0222 -0.0016
  302TMC3    C8 4608   4.528   2.557   1.417  0.6298 -0.6655  0.3884
  302TMC3    O1 4609   4.072   2.431   1.428 -0.1189  0.0077  0.6746
  302TMC3    O2 4610   4.514   2.436   1.437  0.0704 -0.2345  0.2189
  303MPD2     C 4611   0.344   0.873   9.669 -0.7528 -0.8242 -0.5012
  303MPD2    C1 4612   0.215   0.876   9.631 -0.3981 -1.3030 -0.4831
  303MPD2    C2 4613   0.150   1.001   9.613  0.2015  0.8220 -0.2679
  303MPD2    C3 4614   0.219   1.121   9.623  0.2691  0.1996 -0.1245
  303MPD2    C4 4615   0.355   1.114   9.652  0.5499 -0.2911  0.3380
  303MPD2    C5 4616   0.411   0.991   9.675 -0.2736 -0.6636 -0.1500
  303MPD2     H 4617   0.045   1.006   9.588  0.4831  1.0365 -1.4166
  303MPD2    H1 4618   0.428   1.194   9.654  1.3774 -0.9914 -3.1876
  303MPD2    H2 4619   0.390   0.778   9.694  1.5349  0.7107  1.0530
  303MPD2    H3 4620   0.518   0.976   9.690 -0.3558 -1.3018 -0.2040
  303MPD2     N 4621   0.169   1.251   9.600  1.1757 -0.6371  0.4013
  303MPD2    H5 4622   0.237   1.326   9.605  0.4447  0.2580 -3.6235
  303MPD2    N1 4623   0.151   0.758   9.600 -0.0148  0.4966  0.8403
  303MPD2    H7 4624   0.193   0.678   9.648 -0.2023  0.2896  0.6622
  304TMC3    C1 4625   4.706   0.616   9.527  1.1995 -0.3849 -0.0792
  304TMC3    C2 4626   4.712   0.548   9.643  0.2584 -0.5376  0.5134
  304TMC3    C3 4627   4.621   0.449   9.671 -0.5560  0.0025  0.3215
  304TMC3    C4 4628   4.604   0.602   9.433 -0.1117  0.4977  0.1422
  304TMC3    C5 4629   4.519   0.510   9.464  0.3452 -0.0233 -0.3293
  304TMC3    C6 4630   4.526   0.430   9.577  0.6183 -0.3186  0.8412
  304TMC3     C 4631   0.039   0.743   9.517  0.1438  0.2630  0.4769
  304TMC3     O 4632   4.733   0.820   9.428 -0.1934  1.2206  0.0572
  304TMC3     H 4633   0.061   0.549   9.711  0.4640  2.1783  0.2032
  304TMC3    H1 4634   4.601   0.651   9.336 -1.3736 -0.4101 -0.2674
  304TMC3    H2 4635   4.457   0.349   9.598  0.5995 -0.7956 -1.1044
  304TMC3    C7 4636   4.380   0.546   9.440  0.1488  0.2090  0.2990
  304TMC3    C8 4637   4.570   0.476   9.800  0.2284 -0.2095  0.0723
  304TMC3    O1 4638   4.307   0.523   9.535 -0.2444  0.3570  0.3794
  304TMC3    O2 4639   4.651   0.496   9.889  0.6640  0.7024  0.2916
  305MPD2     C 4640   3.328   3.724  14.243  0.2326  0.4535 -0.3000
  305MPD2    C1 4641   3.282   3.623  14.323  0.1368  0.1011 -1.0301
  305MPD2    C2 4642   3.175   3.544  14.273 -1.0969 -0.5155 -0.3379
  305MPD2    C3 4643   3.106   3.586  14.156 -0.4112  1.2845 -0.2358
  305MPD2    C4 4644   3.144   3.699  14.085 -1.0242 -0.0372 -0.0073
  305MPD2    C5 4645   3.264   3.756  14.124  0.4575 -0.2322  0.8687
  305MPD2     H 4646   3.147   3.456  14.329 -0.1652 -0.0518  0.8668
  305MPD2    H1 4647   3.102   3.748  13.998  1.1994  1.6238 -0.1610
  305MPD2    H2 4648   3.418   3.780  14.265  0.8620 -0.5566 -0.3284
  305MPD2    H3 4649   3.319   3.831  14.067 -3.3084  1.8578 -0.0027
  305MPD2     N 4650   3.008   3.507  14.095  0.6673  0.6822  0.3259
  305MPD2    H5 4651   2.985   3.530  13.999 -0.7868  0.1237  0.5378
  305MPD2    N1 4652   3.353   3.598  14.442  0.1804  0.2938 -0.4470
  305MPD2    H7 4653   3.430   3.660  14.464 -0.6612  1.0723  0.2860
  306TMC3    C1 4654   3.433   3.486  14.641 -0.1430 -0.0693  1.1883
  306TMC3    C2 4655   3.475   3.370  14.697  0.5750 -0.0590  0.2155
  306TMC3    C3 4656   3.554   3.381  14.812 -0.3833  0.0843 -0.1126
  306TMC3    C4 4657   3.468   3.614  14.691  0.2218  0.5182 -0.6976
  306TMC3    C5 4658   3.560   3.616  14.788 -0.2323  0.0421  0.1363
  306TMC3    C6 4659   3.596   3.506  14.863  0.3392  0.2044  0.4642
  306TMC3     C 4660   3.341   3.486  14.522  0.2655 -0.8708 -1.0883
  306TMC3     O 4661   3.258   3.397  14.510  0.6577  0.2189 -0.6136
  306TMC3     H 4662   3.446   3.279  14.645 -0.8108 -0.0910  1.0764
  306TMC3    H1 4663   3.427   3.702  14.643  0.0249  0.8423  0.0658
  306TMC3    H2 4664   3.634   3.512  14.964  2.3818  0.4831 -0.3299
  306TMC3    C7 4665   3.608   3.748  14.824 -0.7190 -0.3664 -0.2012
  306TMC3    C8 4666   3.603   3.249  14.865  0.4874 -0.3720 -0.5604
  306TMC3    O1 4667   3.530   3.842  14.796  0.2154 -0.1057  0.0008
  306TMC3    O2 4668   3.571   3.150  14.793 -0.5929 -0.1462  0.1814
  307MPD2     C 4669   1.016   1.843   0.411  0.3070 -0.3821  0.3031
  307MPD2    C1 4670   0.915   1.939   0.399  0.3859  0.0058 -0.4476
  307MPD2    C2 4671   0.805   1.938   0.482  0.0367  0.1381 -1.1849
  307MPD2    C3 4672   0.799   1.843   0.584  0.0338  0.0195  0.9048
  307MPD2    C4 4673   0.894   1.746   0.595 -0.2259  0.0206 -0.0528
  307MPD2    C5 4674   0.996   1.747   0.500  0.2155 -0.4977  0.4008
  307MPD2     H 4675   0.731   2.017   0.474 -0.5267  0.1294  3.5700
  307MPD2    H1 4676   0.893   1.662   0.664  0.1691 -1.2007 -1.5419
  307MPD2    H2 4677   1.092   1.833   0.334  1.8112 -0.4727  1.8105
  307MPD2    H3 4678   1.070   1.670   0.516  0.6245 -0.2356 -0.2106
  307MPD2     N 4679   0.695   1.848   0.682 -0.2497  0.0281 -0.6241
  307MPD2    H5 4680   0.624   1.918   0.668 -0.7635  0.0253  1.9658
  307MPD2    N1 4681   0.923   2.045   0.301  0.3951 -0.2818  0.0447
  307MPD2    H7 4682   0.843   2.108   0.300 -0.7296 -1.7066 -0.5574
  308TMC3    C1 4683   0.405   1.675   1.015 -0.2637  0.3747 -0.0776
  308TMC3    C2 4684   0.365   1.798   1.052  0.2299 -0.0710 -0.6950
  308TMC3    C3 4685   0.418   1.906   0.988 -0.1210  1.0929  0.3457
  308TMC3    C4 4686   0.498   1.656   0.918  0.1169 -0.7045 -0.6867
  308TMC3    C5 4687   0.540   1.761   0.843 -0.5001  0.1547  0.3202
  308TMC3    C6 4688   0.505   1.890   0.883  0.6122 -0.1457  0.1574
  308TMC3     C 4689   0.307   1.569   1.022 -0.0249  0.0099 -0.2556
  308TMC3     O 4690   0.353   1.455   1.008  0.2627  0.3274 -0.2102
  308TMC3     H 4691   0.290   1.808   1.130  0.3147  0.7050 -0.7132
  308TMC3    H1 4692   0.526   1.560   0.875 -1.1360  0.6697 -4.5597
  308TMC3    H2 4693   0.551   1.979   0.842 -0.9033  0.2712 -0.6664
  308TMC3    C7 4694   0.664   1.743   0.766  0.6157 -0.3919  0.1073
  308TMC3    C8 4695   0.375   2.033   1.026 -0.1514  0.4049  0.3714
  308TMC3    O1 4696   0.706   1.631   0.777 -0.2584 -0.1802  0.4059
  308TMC3    O2 4697   0.359   2.042   1.146 -0.6407 -0.1104 -0.0778
  309MPD2     C 4698   0.218   1.911  17.225  0.6192  0.7762  0.2229
  309MPD2    C1 4699   0.143   1.944  17.113  0.1619  0.2227 -0.2320
  309MPD2    C2 4700   0.010   1.965  17.138  0.3908  0.4181  0.5148
  309MPD2    C3 4701   4.683   1.948  17.261  0.1928  0.1133  0.4624
  309MPD2    C4 4702   0.030   1.929  17.370  0.4461 -0.1145 -0.6237
  309MPD2    C5 4703   0.167   1.912  17.359  0.2790  0.8113  0.4749
  309MPD2     H 4704   4.674   1.981  17.057  0.8268  0.8793  0.2233
  309MPD2    H1 4705   4.731   1.925  17.473  1.8166 -0.4417 -0.1943
  309MPD2    H2 4706   0.324   1.890  17.218 -0.2967 -3.8898  0.1221
  309MPD2    H3 4707   0.228   1.885  17.444  1.6934 -0.2477 -0.8595
  309MPD2     N 4708   4.545   1.960  17.291  0.2095  0.4700  0.8323
  309MPD2    H5 4709   4.529   1.940  17.389 -1.2984 -2.2551  0.0105
  309MPD2    N1 4710   0.188   1.955  16.981 -0.2576  0.1239  0.4979
  309MPD2    H7 4711   0.112   1.968  16.915 -0.2425 -1.4494  0.1596
  310TMC3    C1 4712   0.327   1.942  16.789  0.0784 -0.2245 -1.1068
  310TMC3    C2 4713   0.262   2.036  16.722 -0.1711  0.1849 -0.5972
  310TMC3    C3 4714   0.306   2.062  16.593  0.3546  0.3223  0.0904
  310TMC3    C4 4715   0.418   1.862  16.734  0.1658 -0.0177  0.0969
  310TMC3    C5 4716   0.453   1.887  16.610  0.0839  0.1066 -0.3411
  310TMC3    C6 4717   0.400   1.990  16.534 -0.3472 -0.1359  0.3009
  310TMC3     C 4718   0.316   1.933  16.935 -0.1705 -0.4095 -0.2375
  310TMC3     O 4719   0.410   1.889  17.000  0.3565  0.2381  0.0237
  310TMC3     H 4720   0.182   2.096  16.764  0.4498  0.1571  0.6385
  310TMC3    H1 4721   0.439   1.775  16.796  1.3599  1.2152  1.4448
  310TMC3    H2 4722   0.445   2.006  16.436 -1.3249 -3.4865 -0.7158
  310TMC3    C7 4723   0.517   1.784  16.532  0.0337  0.5103 -0.4890
  310TMC3    C8 4724   0.227   2.158  16.509 -0.0916  0.2879 -0.3140
  310TMC3    O1 4725   0.510   1.773  16.407  0.2068  0.5511  0.1375
  310TMC3    O2 4726   0.104   2.169  16.539 -0.1003  0.2548 -0.4553
  311MPD2     C 4727   2.114   3.775  12.789 -0.3848  0.2342 -0.0381
  311MPD2    C1 4728   2.187   3.739  12.898  0.0554 -0.4834  0.3626
  311MPD2    C2 4729   2.123   3.674  13.000  0.3402  0.1333  0.2494
  311MPD2    C3 4730   1.995   3.632  12.990  0.3400 -0.6744 -0.0495
  311MPD2    C4 4731   1.924   3.668  12.881 -0.2210 -0.4860  0.6852
  311MPD2    C5 4732   1.980   3.733  12.778  0.1341 -0.2499  0.0497
  311MPD2     H 4733   2.191   3.649  13.081 -2.7113 -0.0944  2.7342
  311MPD2    H1 4734   1.816   3.663  12.875 -0.1167 -1.5071 -0.5595
  311MPD2    H2 4735   2.157   3.813  12.697 -1.4570 -2.7639 -1.7615
  311MPD2    H3 4736   1.918   3.762  12.694 -1.4697  0.4244  1.4925
  311MPD2     N 4737   1.943   3.566  13.105  0.3331 -0.5829  0.1396
  311MPD2    H5 4738   1.998   3.559  13.189  0.9101  0.3459 -0.1676
  311MPD2    N1 4739   2.333   3.744  12.899  0.4127 -0.1659 -0.3033
  311MPD2    H7 4740   2.388   3.679  12.955  0.6955  0.2809 -0.0642
  312TMC3    C1 4741   1.780   3.450  13.227  0.3361  0.1811 -1.2804
  312TMC3    C2 4742   1.718   3.324  13.220 -0.5506 -0.5488 -0.3526
  312TMC3    C3 4743   1.690   3.260  13.340  0.2174 -0.4317 -0.3685
  312TMC3    C4 4744   1.841   3.500  13.343  0.0755  0.3075  0.3223
  312TMC3    C5 4745   1.817   3.426  13.456 -0.5762  0.1510 -0.1960
  312TMC3    C6 4746   1.756   3.301  13.455  0.3661  0.0798 -0.3462
  312TMC3     C 4747   1.819   3.506  13.098 -0.8725  0.6280 -0.2121
  312TMC3     O 4748   1.756   3.478  12.998  0.3332 -0.3503  1.1324
  312TMC3     H 4749   1.665   3.287  13.132 -1.5101  1.8015 -0.7714
  312TMC3    H1 4750   1.890   3.596  13.355 -0.4358  0.3739  1.8717
  312TMC3    H2 4751   1.723   3.256  13.548  3.0926 -1.0106  0.0665
  312TMC3    C7 4752   1.874   3.482  13.574  0.0610 -0.2749  0.2316
  312TMC3    C8 4753   1.546   3.230  13.364 -0.2673 -0.0886 -0.5832
  312TMC3    O1 4754   1.945   3.579  13.569  0.0958 -0.4651 -0.0475
  312TMC3    O2 4755   1.492   3.257  13.468  0.6375 -0.4839  0.0324
  313MPD2     C 4756   1.222   2.445  10.952  0.2060  0.4634 -0.2558
  313MPD2    C1 4757   1.291   2.434  10.834  0.0272  0.2462  0.7497
  313MPD2    C2 4758   1.294   2.312  10.769  0.3661  0.6902  0.1423
  313MPD2    C3 4759   1.224   2.203  10.819 -0.9394  0.8570 -0.1347
  313MPD2    C4 4760   1.149   2.217  10.928 -0.1670  0.0014  0.0078
  313MPD2    C5 4761   1.152   2.337  10.995 -0.6879 -0.9399 -0.2460
  313MPD2     H 4762   1.357   2.299  10.681 -1.9088 -0.6818 -1.2794
  313MPD2    H1 4763   1.101   2.134  10.977  0.5892  1.1415  2.6525
  313MPD2    H2 4764   1.224   2.525  11.025 -1.2591 -0.2037  0.5158
  313MPD2    H3 4765   1.093   2.351  11.084 -1.3706 -3.3312 -0.3069
  313MPD2     N 4766   1.210   2.081  10.750 -0.3027 -0.2429  0.3336
  313MPD2    H5 4767   1.152   2.015  10.800 -0.4729 -0.0094  0.4428
  313MPD2    N1 4768   1.385   2.527  10.788 -0.5028  0.1474  0.3386
  313MPD2    H7 4769   1.440   2.503  10.706  1.0128  0.7742  1.1779
  314TMC3    C1 4770   1.505   2.730  10.767  0.1684 -0.3455 -0.2710
  314TMC3    C2 4771   1.560   2.839  10.829  0.2092  0.9894  0.2167
  314TMC3    C3 4772   1.662   2.913  10.760  0.1007 -0.6709 -0.3802
  314TMC3    C4 4773   1.539   2.702  10.632  0.3262  0.4431  0.0068
  314TMC3    C5 4774   1.636   2.777  10.569 -0.1149  0.5366  0.3238
  314TMC3    C6 4775   1.700   2.878  10.633  0.0528  0.2591 -0.0247
  314TMC3     C 4776   1.413   2.647  10.848  0.6566 -0.3000  0.2985
  314TMC3     O 4777   1.378   2.697  10.953  1.6289 -0.2669 -0.4672
  314TMC3     H 4778   1.546   2.849  10.936  0.0909 -0.2824  0.3200
  314TMC3    H1 4779   1.479   2.631  10.576 -0.5707 -0.2054  1.7882
  314TMC3    H2 4780   1.769   2.940  10.579  0.1335 -2.0048 -2.5344
  314TMC3    C7 4781   1.687   2.726  10.437 -0.6481  0.4852 -0.5020
  314TMC3    C8 4782   1.760   2.991  10.830 -0.0370 -0.8081 -0.2043
  314TMC3    O1 4783   1.809   2.724  10.413  0.4051 -0.0526  0.1594
  314TMC3    O2 4784   1.859   3.014  10.765 -0.6795 -0.2601  0.0210
  315MPD2     C 4785   1.048   1.782   0.037 -0.2494  0.4223  0.6536
  315MPD2    C1 4786   1.169   1.750  17.714 -0.1686  0.0522  0.5769
  315MPD2    C2 4787   1.208   1.820  17.603  0.8149  0.2072  0.1480
  315MPD2    C3 4788   1.121   1.915  17.545  0.5159 -0.0302  0.3449
  315MPD2    C4 4789   1.000   1.941  17.600  0.6690  0.3911 -0.0483
  315MPD2    C5 4790   0.968   1.872  17.713 -0.4011  0.3193  0.0359
  315MPD2     H 4791   1.304   1.798  17.558  0.7422  1.4813 -0.6417
  315MPD2    H1 4792   0.937   2.017  17.556 -0.8765 -1.1223 -0.4546
  315MPD2    H2 4793   1.005   1.725   0.119 -0.5271 -0.9304 -0.4320
  315MPD2    H3 4794   0.874   1.894   0.025  0.1456 -2.3967  2.2574
  315MPD2     N 4795   1.160   1.974  17.417 -0.8426  0.0190 -0.0179
  315MPD2    H5 4796   1.246   1.941  17.374  0.2269  0.6731  1.6244
  315MPD2    N1 4797   1.257   1.649   0.011  0.0525 -0.2956 -1.1717
  315MPD2    H7 4798   1.346   1.636  17.701  2.2407  1.5117  2.3380
  316TMC3    C1 4799   1.163   2.119  17.228 -0.2689 -0.0908 -0.1280
  316TMC3    C2 4800   1.194   2.246  17.240  0.0868 -0.1988  0.3012
  316TMC3    C3 4801   1.187   2.326  17.120  0.3326  0.0869 -0.1018
  316TMC3    C4 4802   1.117   2.070  17.109  0.0819 -0.1889  0.2523
  316TMC3    C5 4803   1.126   2.138  16.994 -0.3053 -0.3008 -0.1972
  316TMC3    C6 4804   1.162   2.267  16.999  0.4317  0.2210 -0.1025
  316TMC3     C 4805   1.090   2.075  17.347 -0.2385  0.5913 -0.1594
  316TMC3     O 4806   1.003   2.157  17.383 -0.0753 -0.1942 -0.0870
  316TMC3     H 4807   1.223   2.293  17.333 -2.0061  0.8387  0.4387
  316TMC3    H1 4808   1.080   1.968  17.109 -0.6970  0.0795  1.7262
  316TMC3    H2 4809   1.181   2.319  16.906 -1.1008  2.0063  0.5692
  316TMC3    C7 4810   1.135   2.070  16.863 -0.3164 -0.1768  0.4113
  316TMC3    C8 4811   1.238   2.456  17.112 -0.0972  0.0029  0.2934
  316TMC3    O1 4812   1.138   1.947  16.865 -0.0003 -0.3565 -0.1361
  316TMC3    O2 4813   1.250   2.496  16.995  0.1402 -0.1987 -0.2929
  317MPD2     C 4814   3.763   0.231  12.438 -0.5364 -0.1134  0.4469
  317MPD2    C1 4815   3.851   0.151  12.375 -0.4918 -0.6630  0.5502
  317MPD2    C2 4816   3.918   0.056  12.447 -0.2117  0.1983 -0.7541
  317MPD2    C3 4817   3.899   0.043  12.583 -0.7938  0.5215  0.1354
  317MPD2    C4 4818   3.824   0.137  12.652  0.1092  0.4554 -0.2520
  317MPD2    C5 4819   3.762   0.233  12.574 -0.4947 -0.0039  0.6507
  317MPD2     H 4820   3.997   0.005  12.393  0.5107  0.4817  0.0334
  317MPD2    H1 4821   3.815   0.129  12.760 -1.3970  1.0357 -0.3378
  317MPD2    H2 4822   3.718   0.318  12.390 -0.8820 -0.0563  0.8771
  317MPD2    H3 4823   3.700   0.313  12.613 -1.2397  0.1609 -0.8514
  317MPD2     N 4824   3.973   4.670  12.648 -0.0050 -0.0730 -0.2801
  317MPD2    H5 4825   4.021   4.605  12.587 -3.8147 -3.0639 -0.1033
  317MPD2    N1 4826   3.871   0.154  12.231 -0.2050  0.4932 -0.3096
  317MPD2    H7 4827   3.942   0.088  12.202 -0.5392 -0.6639  1.4982
  318TMC3    C1 4828   4.082   4.554  12.811  0.4720 -0.1981 -0.0646
  318TMC3    C2 4829   4.054   4.471  12.916 -0.4677 -0.2542 -0.9351
  318TMC3    C3 4830   4.139   4.366  12.936  0.4381 -0.5983  0.0289
  318TMC3    C4 4831   4.192   4.541  12.730  0.0128  0.4556  0.0404
  318TMC3    C5 4832   4.270   4.430  12.754 -0.3451 -0.0977 -0.1729
  318TMC3    C6 4833   4.250   4.341  12.858  0.4520 -0.4684  0.2401
  318TMC3     C 4834   3.990   4.662  12.787  0.6951  0.0483  0.4530
  318TMC3     O 4835   3.942   4.715  12.888  0.0967  0.4679  0.5640
  318TMC3     H 4836   3.961   4.492  12.969  0.0372  1.3400 -0.6767
  318TMC3    H1 4837   4.212   4.605  12.645  0.8439  1.0472  0.6912
  318TMC3    H2 4838   4.308   4.249  12.866 -1.9222 -2.0332 -0.4812
  318TMC3    C7 4839   4.373   4.396  12.656 -0.6414 -0.0621  0.5596
  318TMC3    C8 4840   4.107   4.261  13.030 -0.2426 -0.0246  0.8199
  318TMC3    O1 4841   4.361   4.457  12.548  0.4256 -0.4367 -0.0921
  318TMC3    O2 4842   4.194   4.182  13.066  0.2769 -0.3270 -0.3220
  319MPD2     C 4843   4.661   1.417  16.070  0.3944  0.2196  0.8875
  319MPD2    C1 4844   4.608   1.415  16.193  0.0316 -0.2321 -0.0658
  319MPD2    C2 4845   4.473   1.400  16.212 -0.4759  0.3220 -0.2777
  319MPD2    C3 4846   4.385   1.380  16.101 -0.0875 -0.6993  0.0272
  319MPD2    C4 4847   4.446   1.386  15.978 -0.7307 -0.4689 -0.2235
  319MPD2    C5 4848   4.582   1.390  15.963 -0.8502  0.6556 -0.6505
  319MPD2     H 4849   4.428   1.398  16.310 -0.2288  0.3451 -0.1633
  319MPD2    H1 4850   4.382   1.360  15.895  2.2276 -0.7018 -2.4295
  319MPD2    H2 4851   0.033   1.422  16.053  0.1723 -1.5069 -0.9823
  319MPD2    H3 4852   4.625   1.377  15.865  0.3072 -0.8519  0.0589
  319MPD2     N 4853   4.242   1.370  16.117 -0.4122 -0.4342 -0.3805
  319MPD2    H5 4854   4.186   1.385  16.034 -0.6720  0.5992 -0.0119
  319MPD2    N1 4855   4.691   1.407  16.303  0.0498  0.4928 -0.5276
  319MPD2    H7 4856   4.649   1.423  16.394  0.7760  1.0957 -0.3011
  320TMC3    C1 4857   4.043   1.290  16.206  0.0432  0.1451  0.2295
  320TMC3    C2 4858   3.969   1.390  16.145 -0.6265 -0.3570  0.7413
  320TMC3    C3 4859   3.838   1.367  16.134  0.3066 -0.4419  0.0023
  320TMC3    C4 4860   3.992   1.177  16.265 -0.0598  1.0606  0.2730
  320TMC3    C5 4861   3.856   1.152  16.246 -0.2012  0.0057 -0.0295
  320TMC3    C6 4862   3.780   1.246  16.175 -0.2038 -0.5959  0.0469
  320TMC3     C 4863   4.184   1.314  16.229  0.0959 -0.2233  0.3054
  320TMC3     O 4864   4.249   1.253  16.313 -0.2550  0.9705 -0.4128
  320TMC3     H 4865   4.004   1.489  16.118  0.3534 -1.0665 -0.5600
  320TMC3    H1 4866   4.054   1.117  16.331  1.2518  1.5925 -0.4640
  320TMC3    H2 4867   3.677   1.217  16.157  0.0933 -0.3263 -2.1703
  320TMC3    C7 4868   3.802   1.023  16.280  0.0428 -0.1145  0.0038
  320TMC3    C8 4869   3.764   1.475  16.079  0.5449 -0.5428 -0.6011
  320TMC3    O1 4870   3.714   0.972  16.208 -0.1070  0.0764  0.0263
  320TMC3    O2 4871   3.823   1.570  16.038 -0.2038 -0.3927  0.0169
  321TMC3    C1 4872   0.155   1.388  16.432 -0.6200 -0.1979  0.3623
  321TMC3    C2 4873   0.252   1.299  16.464 -0.7528 -0.2093  0.3110
  321TMC3    C3 4874   0.343   1.340  16.555  0.6153  0.0812 -0.1145
  321TMC3    C4 4875   0.125   1.487  16.520  0.8699  0.4856 -0.0193
  321TMC3    C5 4876   0.231   1.531  16.600  0.4476  0.3052  0.2080
  321TMC3    C6 4877   0.347   1.459  16.605  0.0307 -0.3991  0.1501
  321TMC3     C 4878   0.093   1.374  16.297  0.6138  0.0673 -0.5783
  321TMC3     O 4879   0.165   1.335  16.208  0.2191  0.5143 -0.5430
  321TMC3     H 4880   0.268   1.209  16.406  1.1124  0.1164  0.3092
  321TMC3    H1 4881   0.058   1.570  16.504  1.6833  0.5572 -3.1494
  321TMC3    H2 4882   0.429   1.499  16.664 -0.8817  2.3553 -0.4323
  321TMC3    C7 4883   0.191   1.573  16.730 -0.1691 -0.2818 -0.6315
  321TMC3    C8 4884   0.382   1.239  16.648 -0.3215  0.3937 -0.3270
  321TMC3    O1 4885   0.278   1.555  16.817 -0.4109 -0.0764  0.1668
  321TMC3    O2 4886   0.396   1.129  16.591  0.4523 -0.0507  0.2205
  322MPD2     C 4887   3.530   2.861  13.294 -0.1544  0.2567 -0.6234
  322MPD2    C1 4888   3.518   2.782  13.404  0.3700 -0.2846  0.0673
  322MPD2    C2 4889   3.569   2.653  13.402 -0.1053 -0.1398  0.0614
  322MPD2    C3 4890   3.630   2.607  13.288 -0.2750  0.0858 -0.1747
  322MPD2    C4 4891   3.644   2.691  13.182 -0.1669  0.2756  0.0772
  322MPD2    C5 4892   3.595   2.817  13.182 -0.1229 -0.0225  0.6556
  322MPD2     H 4893   3.564   2.589  13.489  0.0708 -2.2742 -1.5108
  322MPD2    H1 4894   3.681   2.656  13.087 -0.4410 -0.2545  0.1674
  322MPD2    H2 4895   3.487   2.961  13.293 -0.6604  0.0527  1.8382
  322MPD2    H3 4896   3.610   2.890  13.104  1.2788 -1.1092 -0.0906
  322MPD2     N 4897   3.670   2.474  13.285  0.8192 -0.3635 -0.2281
  322MPD2    H5 4898   3.646   2.412  13.362  1.3033  0.3550  0.5067
  322MPD2    N1 4899   3.457   2.841  13.518  0.1403 -0.0313  0.1672
  322MPD2    H7 4900   3.441   2.941  13.520 -1.2086 -0.2865  2.1846
  323TMC3    C1 4901   3.385   2.872  13.742  0.0617 -0.8605 -0.1509
  323TMC3    C2 4902   3.427   2.999  13.726 -0.1007 -0.2080 -0.1972
  323TMC3    C3 4903   3.443   3.076  13.839 -0.2447 -1.4104 -0.0535
  323TMC3    C4 4904   3.355   2.816  13.866  0.1072 -0.5235 -0.0755
  323TMC3    C5 4905   3.360   2.898  13.975 -0.7564  0.0594 -0.1758
  323TMC3    C6 4906   3.414   3.028  13.970  0.1647 -0.1629  0.0385
  323TMC3     C 4907   3.430   2.782  13.637  0.3186  0.2657 -0.4291
  323TMC3     O 4908   3.427   2.658  13.665 -0.3035  0.3188 -0.3312
  323TMC3     H 4909   3.473   3.047  13.639 -1.7251 -0.6275 -1.2836
  323TMC3    H1 4910   3.321   2.714  13.879  0.0597 -0.7601 -1.9835
  323TMC3    H2 4911   3.445   3.089  14.054 -3.6449  1.0830  0.5483
  323TMC3    C7 4912   3.345   2.833  14.105  0.9864 -0.3448  0.0235
  323TMC3    C8 4913   3.532   3.195  13.821 -0.3415 -0.1239 -0.1527
  323TMC3    O1 4914   3.310   2.716  14.113  0.4934  0.6130  0.3246
  323TMC3    O2 4915   3.612   3.226  13.909 -0.2473  0.3015  0.8272
  324MPD2     C 4916   0.591   3.694  14.190  0.2568 -0.1713  0.2738
  324MPD2    C1 4917   0.624   3.818  14.235  0.2311 -0.1204 -0.2689
  324MPD2    C2 4918   0.538   3.906  14.291 -0.5109  0.6457 -0.0440
  324MPD2    C3 4919   0.405   3.871  14.304  0.0936  0.2146 -1.1930
  324MPD2    C4 4920   0.370   3.747  14.261  0.2216 -0.5126  0.5429
  324MPD2    C5 4921   0.459   3.663  14.201 -0.3329 -0.3060 -0.4025
  324MPD2     H 4922   0.571   4.001  14.332 -1.7073 -0.1958  2.9172
  324MPD2    H1 4923   0.265   3.721  14.255  0.1420 -0.8223  3.1237
  324MPD2    H2 4924   0.655   3.620  14.144 -2.1124 -2.2842  0.3799
  324MPD2    H3 4925   0.421   3.568  14.167 -0.7123 -0.0175 -0.7881
  324MPD2     N 4926   0.300   3.959  14.340 -0.2028 -0.1244 -0.8635
  324MPD2    H5 4927   0.209   3.917  14.321 -1.0127  1.0208  0.5181
  324MPD2    N1 4928   0.758   3.859  14.242  0.0258 -0.3096 -1.1836
  324MPD2    H7 4929   0.777   3.940  14.299 -1.0215 -1.9369  1.4604
  325TMC3    C1 4930   0.189   4.165  14.371 -0.0925 -0.1668 -0.4619
  325TMC3    C2 4931   0.103   4.135  14.267  0.1724 -0.2054 -0.3645
  325TMC3    C3 4932   4.725   4.212  14.250  0.0454 -0.1010  0.2436
  325TMC3    C4 4933   0.165   4.271  14.457 -0.4541 -0.4308  0.0418
  325TMC3    C5 4934   0.058   4.348  14.426 -0.4376 -0.7180  0.0906
  325TMC3    C6 4935   4.704   4.321  14.327  0.3940 -0.3999  0.4160
  325TMC3     C 4936   0.315   4.093  14.380  0.4610  0.3098  0.0997
  325TMC3     O 4937   0.416   4.163  14.401  0.1802 -0.1739  0.2093
  325TMC3     H 4938   0.131   4.059  14.195  1.7914  0.6353 -0.6014
  325TMC3    H1 4939   0.220   4.287  14.549 -0.9761  1.0084  0.1076
  325TMC3    H2 4940   4.611   4.375  14.315  0.9467  0.7043  1.1181
  325TMC3    C7 4941   4.728   4.406  14.546 -0.2566  0.0110 -0.0849
  325TMC3    C8 4942   4.619   4.167  14.165  0.5503 -0.0216  0.7697
  325TMC3    O1 4943   4.734   4.330  14.640  0.0380 -1.0559 -0.1461
  325TMC3    O2 4944   4.626   4.046  14.144 -0.5555 -0.1422 -0.1208
  326MPD2     C 4945   1.090   0.286  11.056 -0.1687  0.0298 -0.6332
  326MPD2    C1 4946   1.188   0.261  10.961 -0.3614 -0.0938 -1.1579
  326MPD2    C2 4947   1.314   0.312  10.980 -0.1286  0.3955 -0.0386
  326MPD2    C3 4948   1.346   0.389  11.087 -0.1905 -0.3480 -0.0127
  326MPD2    C4 4949   1.249   0.413  11.187  0.1443  0.5635  0.8613
  326MPD2    C5 4950   1.123   0.356  11.168  0.2381 -0.2263 -0.5831
  326MPD2     H 4951   1.385   0.282  10.904 -1.9121  0.2512 -1.6333
  326MPD2    H1 4952   1.263   0.486  11.266 -0.2394  0.4002  1.0847
  326MPD2    H2 4953   0.988   0.249  11.044  0.3922 -2.2464  1.6467
  326MPD2    H3 4954   1.039   0.368  11.235 -0.1424  0.7535 -1.2268
  326MPD2     N 4955   1.479   0.444  11.082  0.4054 -0.5744 -0.8282
  326MPD2    H5 4956   1.544   0.429  11.006  1.9373  1.0599  0.1499
  326MPD2    N1 4957   1.183   0.186  10.847 -1.1013 -0.3435 -0.6842
  326MPD2    H7 4958   1.260   0.186  10.782 -0.8114  0.2956 -0.3373
  327TMC3    C1 4959   1.069   0.056  10.679  0.1043 -0.2826 -1.0390
  327TMC3    C2 4960   0.958   0.082  10.596 -0.2086  0.0278  0.1847
  327TMC3    C3 4961   0.974   0.032  10.465 -0.4775 -0.1922  0.1803
  327TMC3    C4 4962   1.187   0.012  10.649 -0.0596 -0.2451  0.1133
  327TMC3    C5 4963   1.208   4.730  10.518  0.1303 -0.2074  0.8334
  327TMC3    C6 4964   1.104   0.010  10.428 -0.4216  0.0088  0.3696
  327TMC3     C 4965   1.071   0.122  10.808 -0.1736  0.5883  0.3415
  327TMC3     O 4966   0.959   0.141  10.848 -0.2793  0.0334 -0.0420
  327TMC3     H 4967   0.861   0.113  10.632  1.1505  3.7772  0.6750
  327TMC3    H1 4968   1.263   4.724  10.723  1.6632 -1.7132 -2.1283
  327TMC3    H2 4969   1.120   4.728  10.322 -1.3851 -1.6131  0.4717
  327TMC3    C7 4970   1.337   4.678  10.466 -0.1917  0.6846  0.4294
  327TMC3    C8 4971   0.892   0.107  10.378  0.0919  0.2150  0.1641
  327TMC3    O1 4972   1.327   4.589  10.388  0.0070  0.0413  0.7001
  327TMC3    O2 4973   0.948   0.149  10.281 -0.3540 -0.2961  0.2701
  328MPD2     C 4974   3.709   4.517  17.482  0.0817  0.5838 -0.5702
  328MPD2    C1 4975   3.703   4.478  17.352 -0.1881 -0.0183 -0.1940
  328MPD2    C2 4976   3.738   4.574  17.251  0.4917  0.4077  0.0274
  328MPD2    C3 4977   3.780   4.700  17.284 -0.5024 -0.1464 -0.1143
  328MPD2    C4 4978   3.799   4.728  17.407  0.0761 -0.3548  0.3491
  328MPD2    C5 4979   3.769   4.637  17.511  0.8602  0.5003 -0.6281
  328MPD2     H 4980   3.703   4.548  17.151  0.9542  1.3495 -0.3749
  328MPD2    H1 4981   3.859   0.082  17.423 -1.7875  0.7894  0.9654
  328MPD2    H2 4982   3.672   4.452  17.560  0.5217  0.2657 -0.6277
  328MPD2    H3 4983   3.778   4.679  17.610 -0.4658  0.2947 -0.4263
  328MPD2     N 4984   3.784   0.065  17.188  0.1525 -0.4252 -0.1861
  328MPD2    H5 4985   3.813   0.154  17.225  0.2390 -0.9907  1.1117
  328MPD2    N1 4986   3.644   4.355  17.327  0.3932  0.1752 -0.1367
  328MPD2    H7 4987   3.607   4.306  17.408  0.6414  1.3498  0.6858
  329TMC3    C1 4988   3.506   4.205  17.220 -0.0960  0.3790  0.1371
  329TMC3    C2 4989   3.391   4.243  17.287 -0.4578  0.6556 -0.0076
  329TMC3    C3 4990   3.272   4.185  17.253 -0.1631  0.3466  0.3547
  329TMC3    C4 4991   3.504   4.122  17.111  1.0111  0.3258 -0.4201
  329TMC3    C5 4992   3.380   4.071  17.083  0.8379  0.3484 -0.0010
  329TMC3    C6 4993   3.260   4.105  17.139 -0.1432 -0.1163  0.0089
  329TMC3     C 4994   3.605   4.310  17.208 -0.4669  0.0888  0.1499
  329TMC3     O 4995   3.655   4.331  17.099 -0.6259  0.5293 -0.2320
  329TMC3     H 4996   3.389   4.324  17.359 -1.1596 -0.4260  1.2128
  329TMC3    H1 4997   3.599   4.092  17.068  0.5477 -0.2743 -1.0177
  329TMC3    H2 4998   3.166   4.063  17.106 -0.0384 -0.7267  0.4814
  329TMC3    C7 4999   3.367   3.968  16.983 -0.4156 -0.5655 -0.0200
  329TMC3    C8 5000   3.149   4.263  17.271  0.5733  0.5215  0.2915
  329TMC3    O1 5001   3.279   3.984  16.900 -0.1694  0.4966 -0.1161
  329TMC3    O2 5002   3.049   4.232  17.205  0.0336 -0.1367 -0.2031
  330TMC3    C1 5003   2.357   3.725   9.752  0.0903  0.2246  0.0122
  330TMC3    C2 5004   2.306   3.631   9.836  0.2026 -0.1194  0.2831
  330TMC3    C3 5005   2.392   3.522   9.850  0.0133  0.1426  0.8927
  330TMC3    C4 5006   2.478   3.721   9.688 -0.5267  0.1800  0.6784
  330TMC3    C5 5007   2.557   3.610   9.708  0.1865 -0.0752 -0.3881
  330TMC3    C6 5008   2.517   3.514   9.793 -0.3528  0.0056 -0.9379
  330TMC3     C 5009   2.280   3.847   9.729 -0.3113 -0.6108  0.4237
  330TMC3     O 5010   2.347   3.946   9.697 -0.2526 -0.4490 -0.7688
  330TMC3     H 5011   2.208   3.627   9.880 -1.0026 -1.1336 -2.5002
  330TMC3    H1 5012   2.506   3.800   9.619 -1.5223  0.9927  1.2054
  330TMC3    H2 5013   2.576   3.425   9.813 -2.7812 -1.2672  0.5629
  330TMC3    C7 5014   2.620   3.562   9.587  0.1024  0.1557  0.4849
  330TMC3    C8 5015   2.383   3.430   9.960  0.6095  0.2301  0.0003
  330TMC3    O1 5016   2.651   3.646   9.501 -0.5292  0.2102  0.0468
  330TMC3    O2 5017   2.486   3.416  10.024 -0.1704 -0.1676 -0.2286
  331MPD2     C 5018   4.064   3.112  12.900 -0.4732  0.3305  0.0566
  331MPD2    C1 5019   4.042   2.996  12.827  0.1931  0.1273  0.3935
  331MPD2    C2 5020   4.137   2.900  12.820  0.3377  0.2523 -0.7484
  331MPD2    C3 5021   4.266   2.918  12.869  0.1241  0.0252 -0.1845
  331MPD2    C4 5022   4.289   3.031  12.940 -0.2303  1.1330  0.2780
  331MPD2    C5 5023   4.191   3.128  12.957 -0.0366 -0.4905  0.1832
  331MPD2     H 5024   4.124   2.817  12.753 -0.0096  0.3954 -0.8552
  331MPD2    H1 5025   4.388   3.038  12.985 -0.1146  0.3043  0.1512
  331MPD2    H2 5026   3.988   3.186  12.923  0.8303  0.9740  2.3113
  331MPD2    H3 5027   4.189   3.202  13.037  1.7116 -0.8416  0.5696
  331MPD2     N 5028   4.365   2.831  12.815 -0.2048  0.2784  0.0874
  331MPD2    H5 5029   4.323   2.756  12.761 -1.2416  0.9810 -0.0619
  331MPD2    N1 5030   3.919   2.999  12.763 -0.0235 -0.1864 -0.1819
  331MPD2    H7 5031   3.876   3.091  12.756  0.4402  0.0151 -0.3563
  332TMC3    C1 5032   4.569   2.762  12.706  0.5185  0.3499  0.4668
  332TMC3    C2 5033   4.483   2.681  12.632 -0.4839  0.3052 -0.0047
  332TMC3    C3 5034   4.503   2.658  12.500  0.1666 -0.1184  0.4447
  332TMC3    C4 5035   4.680   2.817  12.650 -0.2626  0.2989 -0.1950
  332TMC3    C5 5036   4.696   2.793  12.512 -0.0369 -0.2672  0.1176
  332TMC3    C6 5037   4.609   2.718  12.435 -0.2136  0.4886 -0.9152
  332TMC3     C 5038   4.500   2.856  12.806 -0.5196 -0.2336  0.4066
  332TMC3     O 5039   4.560   2.948  12.856 -0.0744  0.3068  0.2315
  332TMC3     H 5040   4.401   2.624  12.673 -2.4011  2.8166 -0.3701
  332TMC3    H1 5041   0.016   2.881  12.700  0.5994 -1.0627  0.3315
  332TMC3    H2 5042   4.643   2.704  12.333  0.0974 -3.1154 -0.3242
  332TMC3    C7 5043   0.047   2.890  12.449 -0.5411  0.2433  0.5826
  332TMC3    C8 5044   4.441   2.556  12.416  0.6961  0.1014 -1.4621
  332TMC3    O1 5045   0.019   2.939  12.339 -0.2865  0.8538  0.2466
  332TMC3    O2 5046   4.433   2.573  12.295 -0.2189 -0.2578  0.1987
  333MPD2     C 5047   0.061   3.136  10.511 -0.0848  0.1132 -0.1167
  333MPD2    C1 5048   0.158   3.114  10.601  0.3074  0.6438 -0.7530
  333MPD2    C2 5049   0.181   2.990  10.649  0.4924 -0.1266 -0.4272
  333MPD2    C3 5050   0.096   2.885  10.611 -1.0326 -0.3898  0.2162
  333MPD2    C4 5051   0.005   2.909  10.508  0.1962 -0.3047  0.7125
  333MPD2    C5 5052   4.718   3.033  10.466 -0.4169 -0.3302 -0.5547
  333MPD2     H 5053   0.263   2.971  10.717 -0.4610 -1.2398  0.4105
  333MPD2    H1 5054   4.693   2.827  10.455  0.6629  1.0669 -1.8439
  333MPD2    H2 5055   0.045   3.238  10.477 -1.2866 -0.5411 -1.4928
  333MPD2    H3 5056   4.660   3.049  10.376 -0.6547 -1.3997 -0.5908
  333MPD2     N 5057   0.115   2.757  10.662  0.0521 -0.1032  0.3756
  333MPD2    H5 5058   0.200   2.734  10.712 -0.0627  2.4099  1.7472
  333MPD2    N1 5059   0.247   3.220  10.632 -0.6984 -0.0577 -0.5686
  333MPD2    H7 5060   0.239   3.303  10.575  2.2316  1.0784  0.6344
  334TMC3    C1 5061   0.426   3.349  10.705  0.2977  0.0771  0.1113
  334TMC3    C2 5062   0.510   3.321  10.608  0.0188  0.4625  0.2958
  334TMC3    C3 5063   0.594   3.423  10.568  0.0656 -0.8346 -0.1052
  334TMC3    C4 5064   0.409   3.479  10.756 -0.3354  0.5720 -0.2755
  334TMC3    C5 5065   0.498   3.576  10.722  0.1260 -0.6222  0.2670
  334TMC3    C6 5066   0.586   3.547  10.622 -0.2830  0.4062  0.0635
  334TMC3     C 5067   0.334   3.246  10.741 -0.5728  0.0848 -0.5945
  334TMC3     O 5068   0.338   3.200  10.856 -0.3513 -0.1841 -0.6223
  334TMC3     H 5069   0.507   3.223  10.562  0.8462  0.7639 -0.4063
  334TMC3    H1 5070   0.352   3.485  10.848 -1.8894  3.8323 -1.4567
  334TMC3    H2 5071   0.653   3.629  10.597  1.5660 -0.8705  0.8614
  334TMC3    C7 5072   0.458   3.712  10.741 -0.6504 -0.3651  0.4666
  334TMC3    C8 5073   0.680   3.388  10.453  0.9498  0.9788 -0.5577
  334TMC3    O1 5074   0.533   3.800  10.713  0.3466 -0.1970 -0.1641
  334TMC3    O2 5075   0.652   3.284  10.400  0.3585  0.1127  0.3535
  335TMC3    C1 5076   4.511   0.119  17.518  0.4908  0.2672 -0.6286
  335TMC3    C2 5077   4.430   0.073  17.416 -0.0430 -0.3871  0.0699
  335TMC3    C3 5078   4.500   0.058  17.299  0.1543  0.3993 -0.0549
  335TMC3    C4 5079   4.646   0.163  17.513 -0.1473  0.0518 -0.5648
  335TMC3    C5 5080   4.697   0.142  17.386 -0.5273  0.2802  0.3273
  335TMC3    C6 5081   4.630   0.093  17.283  0.2093 -0.6294 -0.3104
  335TMC3     C 5082   4.452   0.130  17.651 -0.1372  0.3868 -0.3174
  335TMC3     O 5083   4.493   0.216  17.726  0.1491  0.5612 -0.0028
  335TMC3     H 5084   4.329   0.036  17.434  0.2286 -0.8394  0.6707
  335TMC3    H1 5085   4.700   0.184  17.605  1.5117  1.1355 -1.8102
  335TMC3    H2 5086   4.677   0.087  17.186 -0.5702 -0.2256 -0.7118
  335TMC3    C7 5087   0.104   0.168  17.377  0.5222 -0.6930  0.4608
  335TMC3    C8 5088   4.430   0.011  17.183 -0.3841 -0.2072  0.2097
  335TMC3    O1 5089   0.163   0.101  17.292 -0.1504  0.4722 -0.1851
  335TMC3    O2 5090   4.446   0.059  17.072  0.4166  0.3575  0.0984
  336MPD2     C 5091   3.929   2.724  16.052  0.2047  0.1061  0.9928
  336MPD2    C1 5092   3.891   2.640  15.948 -0.0051 -0.0837  0.1150
  336MPD2    C2 5093   3.909   2.505  15.953  0.0154 -0.4250  0.2942
  336MPD2    C3 5094   3.966   2.451  16.067  0.3249 -0.3333  0.9980
  336MPD2    C4 5095   3.984   2.529  16.182 -1.0347  0.1555 -0.4642
  336MPD2    C5 5096   3.988   2.664  16.168  0.6339  0.2186 -0.0388
  336MPD2     H 5097   3.877   2.450  15.865 -0.3620  0.6561 -0.2468
  336MPD2    H1 5098   4.015   2.489  16.278 -0.0403 -1.1552 -1.3353
  336MPD2    H2 5099   3.924   2.832  16.051  0.7903  0.1031 -2.5787
  336MPD2    H3 5100   4.026   2.732  16.243 -1.9232  0.6742  0.8081
  336MPD2     N 5101   3.994   2.311  16.077 -0.5819 -0.5983  0.0001
  336MPD2    H5 5102   4.009   2.285  16.174 -0.3479 -0.5207 -0.0153
  336MPD2    N1 5103   3.829   2.690  15.827  0.6050 -0.3654  0.5223
  336MPD2    H7 5104   3.798   2.618  15.762  0.7684 -0.2011  0.2638
  337TMC3    C1 5105   3.742   2.839  15.662 -0.2656  0.1870  0.2860
  337TMC3    C2 5106   3.648   2.747  15.632 -0.0331 -0.0459  0.1870
  337TMC3    C3 5107   3.541   2.794  15.554 -0.0447 -0.0330  0.1059
  337TMC3    C4 5108   3.730   2.965  15.617  0.3568  0.3102 -0.1577
  337TMC3    C5 5109   3.624   3.005  15.538  0.1360 -0.6984 -0.3044
  337TMC3    C6 5110   3.518   2.924  15.509  0.5717  0.3852 -0.0444
  337TMC3     C 5111   3.822   2.817  15.783 -0.3043  0.6243 -0.4821
  337TMC3     O 5112   3.865   2.918  15.844 -0.6367  0.0889 -0.4605
  337TMC3     H 5113   3.642   2.644  15.665 -1.3366  0.3685  1.2723
  337TMC3    H1 5114   3.801   3.042  15.644 -0.0994  1.1091 -1.2197
  337TMC3    H2 5115   3.422   2.962  15.476  1.3760  2.8577  0.5436
  337TMC3    C7 5116   3.585   3.147  15.560 -0.8371  0.7811  0.0060
  337TMC3    C8 5117   3.435   2.702  15.536 -0.1403 -0.4255  0.3415
  337TMC3    O1 5118   3.528   3.202  15.469  0.2654 -0.0334  0.7485
  337TMC3    O2 5119   3.438   2.603  15.604  0.5187 -0.1532 -0.1943
  338MPD2     C 5120   4.152   2.250   1.012 -0.2523 -0.4634 -0.2815
  338MPD2    C1 5121   4.062   2.187   0.929  0.3927  0.4016 -0.1241
  338MPD2    C2 5122   3.951   2.253   0.890 -0.0006 -0.0459 -0.7375
  338MPD2    C3 5123   3.927   2.382   0.940 -0.2698  0.0776 -0.8546
  338MPD2    C4 5124   4.015   2.441   1.028  0.2332  0.2713 -0.1935
  338MPD2    C5 5125   4.123   2.371   1.073 -0.1454 -0.7450 -0.3086
  338MPD2     H 5126   3.866   2.208   0.840  0.8781 -1.0641 -1.2893
  338MPD2    H1 5127   3.986   2.533   1.076  0.8576  0.9640 -1.1503
  338MPD2    H2 5128   4.236   2.195   1.053 -0.2425  1.5991  2.3705
  338MPD2    H3 5129   4.194   2.417   1.140 -3.0404 -0.6398  2.6535
  338MPD2     N 5130   3.811   2.444   0.892 -0.4110  0.5094 -0.2681
  338MPD2    H5 5131   3.755   2.393   0.824 -2.2290  3.1677 -0.7466
  338MPD2    N1 5132   4.082   2.065   0.877 -0.4034 -0.3548  0.1821
  338MPD2    H7 5133   4.008   2.018   0.826 -1.7544  2.2926 -0.3216
  339TMC3    C1 5134   3.678   2.619   0.810 -0.6973 -0.3385 -0.9468
  339TMC3    C2 5135   3.560   2.543   0.813 -0.5377  0.3083  0.1328
  339TMC3    C3 5136   3.484   2.546   0.701 -0.0646 -0.1358  0.5277
  339TMC3    C4 5137   3.725   2.669   0.689  0.2946  0.0870  0.0466
  339TMC3    C5 5138   3.654   2.642   0.573 -0.0624  0.7925 -0.9288
  339TMC3    C6 5139   3.530   2.584   0.580 -0.2754 -0.2025 -0.0744
  339TMC3     C 5140   3.783   2.575   0.906 -0.1688  0.0243  0.8194
  339TMC3     O 5141   3.847   2.670   0.945 -0.2017 -0.0462 -0.0737
  339TMC3     H 5142   3.537   2.490   0.905  0.5759  1.0982  0.8577
  339TMC3    H1 5143   3.822   2.716   0.681 -1.2682  3.5187  1.3102
  339TMC3    H2 5144   3.464   2.587   0.494  1.7341  2.4769 -1.5231
  339TMC3    C7 5145   3.728   2.602   0.460 -0.0042  0.3681 -0.4542
  339TMC3    C8 5146   3.390   2.432   0.678  0.0726 -0.6965 -0.0026
  339TMC3    O1 5147   3.847   2.635   0.443  0.0816 -0.3361 -0.4369
  339TMC3    O2 5148   3.384   2.380   0.566  0.2925 -0.0444 -0.5024
  340MPD2     C 5149   4.378   3.980   9.437 -0.4528  0.7783 -0.7105
  340MPD2    C1 5150   4.397   3.977   9.576 -0.4159 -0.4833  0.2002
  340MPD2    C2 5151   4.429   4.089   9.644 -0.3273 -0.2046  0.4706
  340MPD2    C3 5152   4.445   4.205   9.576  0.0013  0.5270 -0.5047
  340MPD2    C4 5153   4.431   4.212   9.435 -0.4078  0.4839 -0.3623
  340MPD2    C5 5154   4.402   4.097   9.371  0.6993 -0.4077 -0.4640
  340MPD2     H 5155   4.418   4.087   9.752 -1.2494  2.2739  0.4209
  340MPD2    H1 5156   4.452   4.304   9.383  1.4982  1.3253  1.9185
  340MPD2    H2 5157   4.364   3.895   9.371 -0.7158 -0.3118  0.7508
  340MPD2    H3 5158   4.395   4.098   9.263  1.2959 -0.6688 -0.5079
  340MPD2     N 5159   4.490   4.326   9.625  0.4911  0.1372  0.0325
  340MPD2    H5 5160   4.515   4.399   9.559  2.1834 -0.1384  0.3894
  340MPD2    N1 5161   4.374   3.854   9.643  0.1358  0.3051 -0.2918
  340MPD2    H7 5162   4.415   3.838   9.734  2.3507  1.4141 -1.1022
  341TMC3    C1 5163   4.309   3.645   9.679  0.1718  0.1693 -0.4862
  341TMC3    C2 5164   4.187   3.584   9.724 -0.8370  0.0165 -0.0476
  341TMC3    C3 5165   4.203   3.466   9.795 -0.1301  0.4371 -0.7484
  341TMC3    C4 5166   4.425   3.596   9.704 -0.1312  0.3971  0.6831
  341TMC3    C5 5167   4.429   3.474   9.769  0.0983 -0.3951  0.2350
  341TMC3    C6 5168   4.322   3.408   9.819  0.1178 -0.0964  0.6224
  341TMC3     C 5169   4.289   3.763   9.599 -0.0715  0.7850 -0.4374
  341TMC3     O 5170   4.204   3.759   9.512 -0.3191 -0.1937  0.2303
  341TMC3     H 5171   4.088   3.627   9.712  0.5145  2.2796 -3.2627
  341TMC3    H1 5172   4.514   3.648   9.673  0.5083 -0.5838  0.8656
  341TMC3    H2 5173   4.322   3.313   9.873  2.1323 -0.3617  0.1422
  341TMC3    C7 5174   4.553   3.403   9.786  0.2588  0.3905 -0.6001
  341TMC3    C8 5175   4.080   3.424   9.867  0.2495 -0.9133  0.4321
  341TMC3    O1 5176   4.654   3.464   9.763  0.4990 -1.1271  0.0373
  341TMC3    O2 5177   3.977   3.459   9.815  0.4752  0.0753  0.2462
  342MPD2     C 5178   1.921   3.119  17.393 -0.3253 -0.2695  0.5848
  342MPD2    C1 5179   2.051   3.096  17.433  0.2296  0.8117 -0.1364
  342MPD2    C2 5180   2.125   3.194  17.501 -0.0431 -0.2539  0.2108
  342MPD2    C3 5181   2.065   3.318  17.522 -0.3771  0.3744  0.2485
  342MPD2    C4 5182   1.931   3.334  17.491 -0.0839 -0.4255  0.4891
  342MPD2    C5 5183   1.858   3.238  17.431  0.4757  0.3174 -0.7249
  342MPD2     H 5184   2.230   3.180  17.522 -0.6392 -2.0848  1.9737
  342MPD2    H1 5185   1.874   3.418  17.528 -0.9839 -0.5935 -0.5300
  342MPD2    H2 5186   1.858   3.053  17.334  1.8306 -0.2874 -1.7109
  342MPD2    H3 5187   1.755   3.261  17.406 -0.0608  0.9944  2.0492
  342MPD2     N 5188   2.126   3.430  17.585 -0.3125 -0.1587 -0.2989
  342MPD2    H5 5189   2.067   3.512  17.583  0.4832  0.4262  0.6856
  342MPD2    N1 5190   2.128   2.986  17.389  0.4747  0.0032  0.2185
  342MPD2    H7 5191   2.228   3.000  17.394  0.0441  2.3580  1.9332
  343TMC3    C1 5192   2.177   2.767  17.318 -0.2797 -0.0121  0.1802
  343TMC3    C2 5193   2.290   2.813  17.260 -0.7086  0.4084 -0.8607
  343TMC3    C3 5194   2.369   2.723  17.202 -0.1048  0.4540  0.1257
  343TMC3    C4 5195   2.155   2.637  17.346  0.3436  0.4975  0.4924
  343TMC3    C5 5196   2.242   2.546  17.296 -0.1073 -0.0302  0.9079
  343TMC3    C6 5197   2.347   2.591  17.221  0.2843 -0.4468  0.2034
  343TMC3     C 5198   2.076   2.868  17.347  0.4185  0.3873 -0.1501
  343TMC3     O 5199   1.957   2.833  17.345 -0.0693 -0.0995 -0.6224
  343TMC3     H 5200   2.303   2.914  17.223  0.7601 -0.3763 -2.4999
  343TMC3    H1 5201   2.052   2.621  17.377  0.7012 -1.5523  0.6263
  343TMC3    H2 5202   2.425   2.522  17.190  1.7622  1.6887 -0.7941
  343TMC3    C7 5203   2.192   2.408  17.289 -0.2146 -0.0589 -1.0739
  343TMC3    C8 5204   2.496   2.767  17.133 -0.1318 -0.3597 -0.3369
  343TMC3    O1 5205   2.238   2.337  17.202 -0.3794 -0.1875 -0.1227
  343TMC3    O2 5206   2.531   2.874  17.178 -0.3072 -0.4035 -0.3449
  344MPD2     C 5207   3.472   2.180  10.970 -0.6398 -1.1061  0.1669
  344MPD2    C1 5208   3.375   2.218  10.884  0.1292 -0.4783  0.2356
  344MPD2    C2 5209   3.386   2.328  10.796 -0.5076  0.6501  0.2102
  344MPD2    C3 5210   3.489   2.410  10.822  0.1639 -0.5888  0.4059
  344MPD2    C4 5211   3.586   2.384  10.921  0.4838  0.7828 -0.4361
  344MPD2    C5 5212   3.585   2.259  10.989  0.0755 -0.1376  0.0741
  344MPD2     H 5213   3.309   2.352  10.723 -0.0132 -0.0967 -0.5566
  344MPD2    H1 5214   3.680   2.436  10.932  1.7674 -1.8928  1.1980
  344MPD2    H2 5215   3.455   2.095  11.034  0.3107 -0.7370  0.9258
  344MPD2    H3 5216   3.667   2.225  11.052  0.7863  0.3726 -0.5629
  344MPD2     N 5217   3.517   2.529  10.744  0.7388  0.1601  0.0933
  344MPD2    H5 5218   3.593   2.587  10.777  1.6250 -0.3862 -0.9825
  344MPD2    N1 5219   3.255   2.138  10.878 -0.2946 -0.3240 -0.3153
  344MPD2    H7 5220   3.245   2.068  10.951  3.0684 -2.6152 -2.0506
  345TMC3    C1 5221   3.542   2.677  10.557  0.0158 -0.4950 -0.2515
  345TMC3    C2 5222   3.665   2.710  10.600 -0.6416 -0.3472  0.7869
  345TMC3    C3 5223   3.729   2.814  10.535 -0.2779  0.1731  0.4670
  345TMC3    C4 5224   3.476   2.746  10.461  0.0535  0.2301 -0.3383
  345TMC3    C5 5225   3.541   2.853  10.406 -0.4796  0.4372 -0.3295
  345TMC3    C6 5226   3.665   2.891  10.436 -0.0561  0.0501 -0.2994
  345TMC3     C 5227   3.460   2.572  10.624  0.2532  0.0281  0.3989
  345TMC3     O 5228   3.362   2.523  10.565 -0.0546  0.2760  0.7338
  345TMC3     H 5229   3.717   2.647  10.671  0.3578 -0.7988 -0.3675
  345TMC3    H1 5230   3.376   2.714  10.435 -0.1725  1.3150 -0.7605
  345TMC3    H2 5231   3.713   2.974  10.385 -2.2825  0.5297 -1.6055
  345TMC3    C7 5232   3.461   2.955  10.333  0.3147  0.6606  0.2382
  345TMC3    C8 5233   3.845   2.876  10.600 -0.5431 -0.2930  0.2593
  345TMC3    O1 5234   3.519   3.063  10.309 -0.4483  0.2675 -0.4179
  345TMC3    O2 5235   3.864   2.990  10.562  0.4682 -0.0670  0.9450
  346MPD2     C 5236   3.833   4.287  13.581 -0.9100 -0.3400  0.1768
  346MPD2    C1 5237   3.964   4.325  13.588 -0.1857 -0.3649 -0.6080
  346MPD2    C2 5238   4.001   4.428  13.671 -0.1047 -0.4901 -0.6160
  346MPD2    C3 5239   3.907   4.485  13.759 -0.0327 -0.1630 -0.4726
  346MPD2    C4 5240   3.778   4.447  13.749  0.3442 -0.0467  0.6847
  346MPD2    C5 5241   3.737   4.352  13.655 -0.6070 -0.0052 -0.3069
  346MPD2     H 5242   4.102   4.460  13.692 -0.3658  0.5523 -0.9586
  346MPD2    H1 5243   3.704   4.483  13.819 -1.7902  1.2945 -2.2503
  346MPD2    H2 5244   3.800   4.222  13.500  0.8949  0.2964 -1.0748
  346MPD2    H3 5245   3.634   4.321  13.644 -1.3800  1.8411  1.6791
  346MPD2     N 5246   3.947   4.587  13.851 -0.0368 -0.0158  0.0520
  346MPD2    H5 5247   4.046   4.609  13.854  0.2904 -1.5535  0.6084
  346MPD2    N1 5248   4.057   4.270  13.504 -0.6396  0.6889  0.2980
  346MPD2    H7 5249   4.145   4.317  13.520  1.3034 -3.0561  0.6628
  347TMC3    C1 5250   3.927   0.005  14.028 -0.5802 -0.6900 -0.1502
  347TMC3    C2 5251   4.047   4.699  14.085  1.1988  0.2606  1.0786
  347TMC3    C3 5252   4.054   4.728  14.216  0.1059  0.3672  0.0419
  347TMC3    C4 5253   3.845   0.089  14.095 -0.1900 -0.3978 -0.1832
  347TMC3    C5 5254   3.876   0.138  14.217  0.3207 -0.4257 -0.4901
  347TMC3    C6 5255   3.984   0.088  14.283  0.3292 -0.3599 -0.7489
  347TMC3     C 5256   3.863   4.673  13.912  0.7712 -0.1148 -0.1174
  347TMC3     O 5257   3.746   4.698  13.887  0.1688 -0.0641  0.5446
  347TMC3     H 5258   4.112   4.621  14.047 -1.1827 -1.5209  0.6376
  347TMC3    H1 5259   3.769   0.134  14.032 -0.5734 -0.9581 -0.1235
  347TMC3    H2 5260   4.005   0.110  14.387 -2.0785 -0.4845 -0.2387
  347TMC3    C7 5261   3.770   0.212  14.283  0.7175 -0.5205 -0.4364
  347TMC3    C8 5262   4.177   4.669  14.282 -0.1818 -0.2019  0.3555
  347TMC3    O1 5263   3.672   0.230  14.214  0.2539 -0.0883 -0.4057
  347TMC3    O2 5264   4.271   4.654  14.205  0.2662  0.0657  0.3262
  348MPD2     C 5265   2.570   4.059  12.204 -0.4516 -0.2650  0.0186
  348MPD2    C1 5266   2.460   4.051  12.120  0.0290 -0.2696  0.1154
  348MPD2    C2 5267   2.482   4.060  11.981  0.5419 -0.2920  0.5996
  348MPD2    C3 5268   2.615   4.068  11.930 -0.3024 -0.7966  0.1010
  348MPD2    C4 5269   2.722   4.079  12.024  0.6773 -0.4725  0.1988
  348MPD2    C5 5270   2.697   4.075  12.160 -0.3553 -0.1059 -0.0306
  348MPD2     H 5271   2.394   4.042  11.921  0.7986  0.9128 -0.1594
  348MPD2    H1 5272   2.820   4.107  11.988  1.6331 -2.5289  1.2499
  348MPD2    H2 5273   2.556   4.053  12.311  0.4731 -0.5384  0.1243
  348MPD2    H3 5274   2.772   4.096  12.235  0.5207 -0.3123 -0.8441
  348MPD2     N 5275   2.638   4.056  11.792 -0.6416 -0.2896 -0.9655
  348MPD2    H5 5276   2.558   4.034  11.734 -1.2545  0.1557 -0.2822
  348MPD2    N1 5277   2.333   4.032  12.176  0.4862  0.0422  0.3431
  348MPD2    H7 5278   2.322   4.010  12.274 -0.1736  0.4335  0.3598
  349TMC3    C1 5279   2.092   4.020  12.199  0.1574 -0.0352 -0.1792
  349TMC3    C2 5280   2.105   3.902  12.264  0.2752 -0.7205 -0.1266
  349TMC3    C3 5281   1.996   3.824  12.292  0.4964  0.8815 -0.4366
  349TMC3    C4 5282   1.972   4.061  12.154 -0.6298  0.5340 -0.1916
  349TMC3    C5 5283   1.866   3.979  12.179  0.5504  0.3862 -0.0458
  349TMC3    C6 5284   1.870   3.860  12.243  0.0622  0.1139 -0.4379
  349TMC3     C 5285   2.211   4.052  12.112 -0.8274 -0.8785  0.2772
  349TMC3     O 5286   2.185   4.103  12.000  0.3772 -0.2343 -0.4715
  349TMC3     H 5287   2.199   3.857  12.293 -0.5551 -2.6277 -0.3862
  349TMC3    H1 5288   1.969   4.140  12.080 -2.9439 -0.1581 -0.8202
  349TMC3    H2 5289   1.785   3.795  12.258  0.2217  0.4157  1.8232
  349TMC3    C7 5290   1.753   4.000  12.088  0.5198  0.3414  0.9775
  349TMC3    C8 5291   2.018   3.720  12.386  0.6335 -0.4632 -0.5577
  349TMC3    O1 5292   1.711   3.896  12.034  0.4343  0.3696 -0.1613
  349TMC3    O2 5293   2.136   3.704  12.420 -0.5701 -0.0179  0.0741
  350MPD2     C 5294   1.209   1.655   9.734 -0.2152 -0.9035 -0.1963
  350MPD2    C1 5295   1.148   1.567   9.820  0.3632  0.1076 -0.4792
  350MPD2    C2 5296   1.152   1.589   9.952  0.4881  0.0677  0.0863
  350MPD2    C3 5297   1.220   1.692  10.007  0.1206  0.2478  0.1115
  350MPD2    C4 5298   1.275   1.791   9.932 -0.3705 -0.1883 -0.0485
  350MPD2    C5 5299   1.283   1.761   9.794  0.1447  0.5383 -0.1132
  350MPD2     H 5300   1.084   1.525  10.008  0.5658 -0.1758 -0.0958
  350MPD2    H1 5301   1.328   1.882   9.956  1.0310 -0.4634 -2.0645
  350MPD2    H2 5302   1.205   1.639   9.627 -0.8416  1.8451 -0.5978
  350MPD2    H3 5303   1.324   1.835   9.727  0.1324 -1.0430 -1.8578
  350MPD2     N 5304   1.207   1.714  10.145  0.0763  0.3250  0.0732
  350MPD2    H5 5305   1.154   1.646  10.198  0.7090 -0.7106 -0.6447
  350MPD2    N1 5306   1.059   1.462   9.773  0.1999  0.0921 -0.0589
  350MPD2    H7 5307   1.014   1.401   9.841 -1.3884  1.1726 -0.1317
  351TMC3    C1 5308   0.929   1.340   9.639 -0.6480 -0.1508 -0.4416
  351TMC3    C2 5309   0.971   1.216   9.685  0.2812  0.4756 -0.2731
  351TMC3    C3 5310   0.896   1.104   9.659  0.7129 -0.0159 -0.8090
  351TMC3    C4 5311   0.836   1.349   9.545 -0.4046 -0.1881 -0.7087
  351TMC3    C5 5312   0.751   1.242   9.521  0.3225  0.0273 -0.4863
  351TMC3    C6 5313   0.781   1.117   9.581 -0.2337 -0.2558 -0.2375
  351TMC3     C 5314   1.014   1.453   9.648  0.0151  0.1345  0.0933
  351TMC3     O 5315   1.034   1.523   9.549 -0.0994  0.2295 -0.2748
  351TMC3     H 5316   1.066   1.206   9.736  0.4732  0.9678 -0.5292
  351TMC3    H1 5317   0.814   1.446   9.500 -0.0505  0.6049  0.8370
  351TMC3    H2 5318   0.705   1.041   9.594 -1.2507  0.8219  0.0610
  351TMC3    C7 5319   0.619   1.275   9.454 -0.4954  0.5284  0.3250
  351TMC3    C8 5320   0.960   0.975   9.648 -0.4665  0.3485  0.4413
  351TMC3    O1 5321   0.594   1.396   9.448  0.5442  0.1316  0.1039
  351TMC3    O2 5322   0.913   0.902   9.563 -0.3911  0.1582 -0.1166
  352MPD2     C 5323   3.492   4.232   0.965  0.0539  0.5722  0.4692
  352MPD2    C1 5324   3.621   4.258   0.930 -0.2448  0.1740  0.5361
  352MPD2    C2 5325   3.724   4.170   0.965 -0.6767 -0.1392 -0.2104
  352MPD2    C3 5326   3.684   4.046   1.013 -0.0337 -0.8351  0.2676
  352MPD2    C4 5327   3.553   4.018   1.036 -0.5491  0.3144 -0.0623
  352MPD2    C5 5328   3.461   4.114   1.012 -0.1294  0.2655  0.3404
  352MPD2     H 5329   3.829   4.192   0.953 -0.0231 -2.8070  0.6815
  352MPD2    H1 5330   3.507   3.925   1.067 -2.1472  0.7947 -0.9999
  352MPD2    H2 5331   3.411   4.300   0.937 -1.1206 -0.1468  2.1278
  352MPD2    H3 5332   3.357   4.102   1.040 -0.3653 -2.0135 -1.4881
  352MPD2     N 5333   3.772   3.947   1.064  0.1077  0.1357 -0.1826
  352MPD2    H5 5334   3.719   3.875   1.113 -2.4300  0.7414 -2.0517
  352MPD2    N1 5335   3.660   4.373   0.863 -0.4710  0.0262  0.2178
  352MPD2    H7 5336   3.758   4.383   0.838 -0.4994 -0.0387  0.0756
  353TMC3    C1 5337   3.977   3.839   1.133  0.1379  0.5089  0.0584
  353TMC3    C2 5338   4.100   3.787   1.097 -0.2992 -0.5609 -0.2930
  353TMC3    C3 5339   4.142   3.676   1.165  0.5771  0.2135 -0.4369
  353TMC3    C4 5340   3.899   3.784   1.232  0.3481  0.0119  0.2211
  353TMC3    C5 5341   3.952   3.680   1.305 -0.4117 -0.4777 -0.1568
  353TMC3    C6 5342   4.071   3.625   1.270  0.3023  1.3318  0.5448
  353TMC3     C 5343   3.906   3.940   1.045  0.2672 -0.2334  0.3547
  353TMC3     O 5344   3.987   4.007   0.983 -0.0640  0.4139 -0.1484
  353TMC3     H 5345   4.157   3.821   1.012 -0.1319  0.5756  0.2791
  353TMC3    H1 5346   3.798   3.817   1.251 -0.5691 -1.6019 -1.8743
  353TMC3    H2 5347   4.102   3.540   1.329  0.4010  0.2460 -1.0729
  353TMC3    C7 5348   3.848   3.578   1.332 -1.2904 -0.3615  0.4445
  353TMC3    C8 5349   4.255   3.609   1.116 -1.1354  0.7658 -0.1720
  353TMC3    O1 5350   3.751   3.587   1.261  0.0937 -0.5200  0.1704
  353TMC3    O2 5351   4.335   3.668   1.043 -0.0352  0.3603  0.3167
  354TMC3    C1 5352   1.439   0.206  13.564 -0.2644  0.4171  0.2361
  354TMC3    C2 5353   1.481   0.334  13.557 -0.3031  0.2428  0.4406
  354TMC3    C3 5354   1.442   0.397  13.441 -0.7135 -1.5322  0.1673
  354TMC3    C4 5355   1.384   0.137  13.459 -1.0058 -0.2109 -0.3921
  354TMC3    C5 5356   1.350   0.203  13.346 -0.2342  0.2475  0.2426
  354TMC3    C6 5357   1.386   0.329  13.336  0.1557 -0.4431 -0.2688
  354TMC3     C 5358   1.443   0.148  13.695  0.1229  0.2428  0.5170
  354TMC3     O 5359   1.416   0.031  13.708  0.2851  0.0784  0.2729
  354TMC3     H 5360   1.538   0.392  13.629  1.3216 -2.4456  1.2776
  354TMC3    H1 5361   1.355   0.034  13.476  1.4063 -0.8472 -0.1613
  354TMC3    H2 5362   1.350   0.387  13.251  1.2971 -0.2161 -0.6055
  354TMC3    C7 5363   1.362   0.122  13.222  0.3760  0.0377  0.5393
  354TMC3    C8 5364   1.528   0.512  13.414 -0.0480  0.0890 -0.6251
  354TMC3    O1 5365   1.359   0.001  13.230 -0.1803 -0.5968 -0.6641
  354TMC3    O2 5366   1.601   0.549  13.505  0.2785 -0.4262 -0.0081
  355MPD2     C 5367   1.547   1.093  11.772 -0.3094  0.6997 -0.9727
  355MPD2    C1 5368   1.608   1.207  11.832 -0.1324 -0.5630 -0.4243
  355MPD2    C2 5369   1.675   1.188  11.946  0.5031  0.2968  0.1439
  355MPD2    C3 5370   1.674   1.065  12.008 -0.3361  0.1864 -0.1598
  355MPD2    C4 5371   1.604   0.963  11.956 -0.2559  0.3639  0.9325
  355MPD2    C5 5372   1.558   0.972  11.830  0.5608  0.0617 -0.0441
  355MPD2     H 5373   1.739   1.264  11.990  2.0207 -1.3038  0.6891
  355MPD2    H1 5374   1.596   0.870  12.012 -0.0475  1.1040  2.1983
  355MPD2    H2 5375   1.499   1.102  11.675 -2.5917 -0.5425  0.0579
  355MPD2    H3 5376   1.512   0.884  11.786 -2.6473  2.0516 -0.6888
  355MPD2     N 5377   1.740   1.062  12.128  0.2969  0.0516  0.2813
  355MPD2    H5 5378   1.767   1.156  12.157 -1.9833  1.7275 -3.0344
  355MPD2    N1 5379   1.606   1.328  11.759  0.2417 -0.2300  0.2469
  355MPD2    H7 5380   1.566   1.324  11.666  0.6310  0.2719  0.0564
  356TMC3    C1 5381   1.932   0.989  12.215  0.5811  0.5302  0.4012
  356TMC3    C2 5382   1.992   1.038  12.107  0.1095  0.5122 -0.4754
  356TMC3    C3 5383   2.037   1.167  12.114  0.1002 -0.7871  0.2320
  356TMC3    C4 5384   1.919   1.071  12.327 -0.0590  0.2925  0.3799
  356TMC3    C5 5385   1.976   1.194  12.333 -0.0705  0.5850  0.1159
  356TMC3    C6 5386   2.039   1.249  12.225  0.0395  0.3902  0.8749
  356TMC3     C 5387   1.803   0.946  12.173 -0.0898 -0.1922 -1.7501
  356TMC3     O 5388   1.790   0.832  12.129 -0.5123 -0.7967  0.1425
  356TMC3     H 5389   1.973   0.976  12.021 -0.6664 -0.4003  0.3554
  356TMC3    H1 5390   1.856   1.035  12.408  1.3027  0.4006  1.4870
  356TMC3    H2 5391   2.084   1.347  12.219 -2.1256  1.3800  0.6069
  356TMC3    C7 5392   2.000   1.250  12.464 -0.5816  0.5548 -0.3015
  356TMC3    C8 5393   2.075   1.225  11.980 -0.1306 -0.1254  0.0070
  356TMC3    O1 5394   1.997   1.183  12.562 -0.0322 -0.4979 -0.0296
  356TMC3    O2 5395   2.119   1.156  11.890  0.1092 -0.3710  0.7703
  357MPD2     C 5396   1.335   1.671   2.059  0.2845 -0.3540 -0.1616
  357MPD2    C1 5397   1.289   1.568   1.983 -0.5222 -0.1300  0.0260
  357MPD2    C2 5398   1.168   1.512   2.017  0.0418  0.1780  0.0004
  357MPD2    C3 5399   1.078   1.582   2.101 -1.0013 -0.2950  0.0719
  357MPD2    C4 5400   1.117   1.691   2.170  0.6343 -0.5760  0.4789
  357MPD2    C5 5401   1.254   1.726   2.156  0.1936 -0.2376 -0.1830
  357MPD2     H 5402   1.128   1.431   1.957  1.0259 -0.6204  0.4159
  357MPD2    H1 5403   1.049   1.739   2.240 -0.2316 -1.9346  0.5774
  357MPD2    H2 5404   1.426   1.727   2.042  0.3597  0.1654  1.9582
  357MPD2    H3 5405   1.296   1.806   2.216 -0.4268 -0.5628  0.6839
  357MPD2     N 5406   0.940   1.543   2.118  0.4492 -0.0334  0.5186
  357MPD2    H5 5407   0.877   1.605   2.168 -0.3759 -1.8215  1.7107
  357MPD2    N1 5408   1.368   1.524   1.877  0.6192  0.1955  0.0860
  357MPD2    H7 5409   1.458   1.573   1.873 -0.3341  1.9854  0.4837
  358TMC3    C1 5410   1.439   1.405   1.694  0.1401 -0.0449  0.1902
  358TMC3    C2 5411   1.395   1.383   1.567 -0.4394 -0.5432 -0.0374
  358TMC3    C3 5412   1.469   1.300   1.490 -0.0753  0.5846  0.0179
  358TMC3    C4 5413   1.546   1.342   1.746 -0.5507 -0.3757 -0.4858
  358TMC3    C5 5414   1.623   1.268   1.655 -0.8761  0.7051 -0.0809
  358TMC3    C6 5415   1.597   1.249   1.524  0.0888  0.1564 -0.0650
  358TMC3     C 5416   1.331   1.430   1.784 -0.4030 -0.2566  0.6932
  358TMC3     O 5417   1.229   1.367   1.773 -0.1406 -0.2364 -0.5918
  358TMC3     H 5418   1.302   1.432   1.542  0.9071  1.9454 -0.1460
  358TMC3    H1 5419   1.573   1.373   1.846 -1.7081 -1.2118  0.0902
  358TMC3    H2 5420   1.647   1.174   1.464 -0.3667 -0.1987 -0.0010
  358TMC3    C7 5421   1.740   1.205   1.709 -0.0289 -0.5894 -0.4600
  358TMC3    C8 5422   1.398   1.220   1.395 -0.1700 -0.5718 -0.5004
  358TMC3    O1 5423   1.820   1.158   1.635 -0.3533  0.5436 -0.1434
  358TMC3    O2 5424   1.458   1.145   1.319 -0.0849 -0.6932 -0.2975
  359MPD2     C 5425   2.143   4.172  12.514 -0.0192  0.0792  0.1651
  359MPD2    C1 5426   2.094   4.253  12.414 -0.2176  1.0340  0.3680
  359MPD2    C2 5427   1.958   4.272  12.399  0.6528 -0.0227 -0.1975
  359MPD2    C3 5428   1.873   4.203  12.480  0.2497 -0.1573 -0.1553
  359MPD2    C4 5429   1.924   4.116  12.579 -0.7846  0.1477  0.4493
  359MPD2    C5 5430   2.060   4.115  12.604  0.7889  1.0863  0.8928
  359MPD2     H 5431   1.920   4.343  12.326  0.1962  1.3025  1.3333
  359MPD2    H1 5432   1.862   4.054  12.642  0.3865 -0.9780  0.4953
  359MPD2    H2 5433   2.248   4.168  12.542 -0.0239 -1.0230 -0.0038
  359MPD2    H3 5434   2.095   4.054  12.686  1.0414 -1.8596 -1.4350
  359MPD2     N 5435   1.733   4.225  12.476  0.5165 -0.4775  0.3153
  359MPD2    H5 5436   1.674   4.174  12.541 -1.4318  1.3502  0.0102
  359MPD2    N1 5437   2.180   4.329  12.332 -1.1804  0.3098  0.7119
  359MPD2    H7 5438   2.138   4.392  12.264 -1.1393 -2.3453 -1.8367
  360TMC3    C1 5439   2.373   4.384  12.208  0.0846 -0.1803  0.3396
  360TMC3    C2 5440   2.494   4.450  12.217 -0.4636 -0.0087  0.0193
  360TMC3    C3 5441   2.550   4.511  12.108 -0.5921  0.0212  0.1654
  360TMC3    C4 5442   2.317   4.376  12.085  0.0334  0.3802  0.1045
  360TMC3    C5 5443   2.376   4.441  11.975 -0.1340 -0.4421  0.1635
  360TMC3    C6 5444   2.495   4.506  11.982 -0.2863 -0.9812  0.5556
  360TMC3     C 5445   2.319   4.321  12.325 -0.3670 -0.4802 -0.4819
  360TMC3     O 5446   2.398   4.276  12.410 -0.0960  0.1958 -0.1826
  360TMC3     H 5447   2.535   4.473  12.315  1.8086  0.2569 -0.9832
  360TMC3    H1 5448   2.219   4.330  12.086  0.1182  0.2221  1.8770
  360TMC3    H2 5449   2.531   4.565  11.898  1.0571 -1.7964  0.5675
  360TMC3    C7 5450   2.315   4.439  11.843  0.3863 -0.2707  0.2418
  360TMC3    C8 5451   2.638   4.619  12.129  0.6642 -0.4277 -0.1220
  360TMC3    O1 5452   2.343   4.530  11.762 -0.7485  0.1296 -0.3833
  360TMC3    O2 5453   2.634   4.689  12.225 -0.2476 -0.0610 -0.1520
  361MPD2     C 5454   3.381   3.342  16.844 -0.4265  0.4395  0.3120
  361MPD2    C1 5455   3.358   3.388  16.973  0.3315 -0.1604 -0.5958
  361MPD2    C2 5456   3.434   3.327  17.078  0.1767  0.3016 -0.3206
  361MPD2    C3 5457   3.517   3.218  17.049 -0.3911 -0.4498 -0.1860
  361MPD2    C4 5458   3.534   3.170  16.920  0.2487 -0.2720  0.6239
  361MPD2    C5 5459   3.469   3.236  16.820 -0.0434 -0.7028 -0.0704
  361MPD2     H 5460   3.404   3.350  17.180  1.5303 -1.4606  0.4709
  361MPD2    H1 5461   3.601   3.088  16.896 -0.4787 -1.2036  1.8037
  361MPD2    H2 5462   3.335   3.391  16.759  0.1627  0.4588 -0.0003
  361MPD2    H3 5463   3.485   3.211  16.716  3.8189  0.2247  0.3143
  361MPD2     N 5464   3.586   3.152  17.158  0.4346 -0.0484  0.7865
  361MPD2    H5 5465   3.651   3.079  17.132 -2.8525 -2.7390  0.0241
  361MPD2    N1 5466   3.261   3.494  16.991 -0.3588  0.6958 -0.3297
  361MPD2    H7 5467   3.222   3.535  16.907  0.1820  2.6873  0.3899
  362TMC3    C1 5468   3.109   3.643  17.098  0.2326  0.3364  0.6963
  362TMC3    C2 5469   3.027   3.658  17.207  0.4581 -0.6829 -0.2778
  362TMC3    C3 5470   2.937   3.765  17.207  0.3623  0.1238  0.0658
  362TMC3    C4 5471   3.092   3.722  16.987 -0.3015  0.2900 -0.5655
  362TMC3    C5 5472   2.997   3.821  16.991  0.3870  0.0779 -0.2722
  362TMC3    C6 5473   2.920   3.846  17.103  1.0397  0.1592  0.1054
  362TMC3     C 5474   3.224   3.550  17.108 -0.3886 -0.0890  0.0331
  362TMC3     O 5475   3.267   3.528  17.223  0.1035  0.4145 -0.3446
  362TMC3     H 5476   3.039   3.594  17.294  0.2302 -2.8038 -1.8304
  362TMC3    H1 5477   3.166   3.711  16.908  0.1302 -1.1881  0.0462
  362TMC3    H2 5478   2.834   3.912  17.098  0.7236 -0.3295 -0.9395
  362TMC3    C7 5479   2.985   3.907  16.875 -0.0073 -0.1316  0.2569
  362TMC3    C8 5480   2.816   3.715  17.267 -0.1653  0.0007  0.0087
  362TMC3    O1 5481   2.937   4.021  16.888 -0.4908  0.0964 -0.0666
  362TMC3    O2 5482   2.807   3.593  17.278 -0.2204  0.2536  0.5536
  363TMC3    C1 5483   1.359   0.768   9.242  0.0234 -0.1227  0.2487
  363TMC3    C2 5484   1.452   0.820   9.325 -0.3930  0.2324 -1.2695
  363TMC3    C3 5485   1.411   0.932   9.401  0.3729 -0.5663  0.3244
  363TMC3    C4 5486   1.241   0.828   9.216  0.1573  0.2751 -0.4638
  363TMC3    C5 5487   1.202   0.935   9.288 -0.0819 -0.1179 -0.2729
  363TMC3    C6 5488   1.282   0.987   9.386  0.5167  1.1382 -0.4502
  363TMC3     C 5489   1.404   0.644   9.180  0.2998  0.1052 -0.6542
  363TMC3     O 5490   1.514   0.596   9.200 -0.3508 -0.4096 -0.1976
  363TMC3     H 5491   1.547   0.771   9.341 -0.8585  0.6602  2.7046
  363TMC3    H1 5492   1.171   0.803   9.137 -1.4299 -0.2717  1.1166
  363TMC3    H2 5493   1.235   1.059   9.452  1.8095  0.7744  0.8774
  363TMC3    C7 5494   1.079   0.996   9.256  0.2832  0.3110 -0.8574
  363TMC3    C8 5495   1.476   0.978   9.524  0.2218 -0.0796  0.8123
  363TMC3    O1 5496   0.996   0.922   9.209 -0.0954 -0.2924  0.1137
  363TMC3    O2 5497   1.429   1.081   9.564 -1.0211 -0.3168 -0.2989
  364MPD2     C 5498   0.592   0.506  10.405 -0.2845  0.3137 -0.7233
  364MPD2    C1 5499   0.714   0.489  10.348  0.2899  1.0733  0.5286
  364MPD2    C2 5500   0.759   0.363  10.340  0.0788  0.4620 -0.4356
  364MPD2    C3 5501   0.701   0.254  10.398  0.0405  0.3020  0.4310
  364MPD2    C4 5502   0.576   0.273  10.451 -0.2801  0.1891 -0.4642
  364MPD2    C5 5503   0.519   0.397  10.449 -0.8965 -0.1722 -0.7207
  364MPD2     H 5504   0.852   0.342  10.288 -0.2144  0.8018 -1.0985
  364MPD2    H1 5505   0.532   0.185  10.497  1.0761  0.0490  0.5550
  364MPD2    H2 5506   0.541   0.602  10.398 -0.7454  0.3259  2.6820
  364MPD2    H3 5507   0.422   0.406  10.495 -0.3290  0.6999  0.3185
  364MPD2     N 5508   0.760   0.130  10.422 -0.1064 -0.1029 -0.2577
  364MPD2    H5 5509   0.714   0.072  10.491  0.9479  1.6136  1.8922
  364MPD2    N1 5510   0.784   0.593  10.292  0.1727  0.1155 -0.4268
  364MPD2    H7 5511   0.749   0.685  10.318  1.2036  0.7818 -1.3719
  365TMC3    C1 5512   0.973   0.711  10.208 -0.1021  0.4824  0.2625
  365TMC3    C2 5513   1.107   0.700  10.189 -0.8638 -0.2009  0.2733
  365TMC3    C3 5514   1.188   0.814  10.204 -0.1963 -0.2936 -0.1722
  365TMC3    C4 5515   0.920   0.825  10.260 -0.7412  0.3139 -0.1667
  365TMC3    C5 5516   1.004   0.934  10.265 -0.0366  0.6205 -0.3594
  365TMC3    C6 5517   1.132   0.933  10.224 -0.4627 -0.1602 -0.3793
  365TMC3     C 5518   0.896   0.585  10.213  0.3871  0.2862  0.3621
  365TMC3     O 5519   0.955   0.489  10.158  0.2380  0.5789  0.9687
  365TMC3     H 5520   1.152   0.606  10.161  1.0899  0.8765 -0.1957
  365TMC3    H1 5521   0.812   0.831  10.269 -0.5707  3.9128 -0.4204
  365TMC3    H2 5522   1.191   1.024  10.223 -2.4672  1.1565 -0.6439
  365TMC3    C7 5523   0.940   1.058  10.288 -0.0052 -0.0971  0.5322
  365TMC3    C8 5524   1.329   0.801  10.196  0.5233 -0.0853  0.7823
  365TMC3    O1 5525   0.978   1.160  10.231  0.0063  0.0020  0.1170
  365TMC3    O2 5526   1.388   0.901  10.155  0.1145  0.7403 -0.2722
  366MPD2     C 5527   3.341   1.780  15.551  0.0778  0.2599  0.3270
  366MPD2    C1 5528   3.469   1.823  15.522 -0.1778  0.1642 -0.1110
  366MPD2    C2 5529   3.572   1.730  15.514 -0.6389 -0.1747 -0.0305
  366MPD2    C3 5530   3.548   1.592  15.530  0.3930  0.1770 -0.1340
  366MPD2    C4 5531   3.418   1.554  15.559  1.2351  0.4434  0.3497
  366MPD2    C5 5532   3.317   1.646  15.573  0.3671  1.0431  0.3022
  366MPD2     H 5533   3.668   1.749  15.466  0.2377  1.4953  2.3841
  366MPD2    H1 5534   3.401   1.449  15.578  0.1507  0.3280 -1.2348
  366MPD2    H2 5535   3.257   1.846  15.570  1.1490  1.1961  1.7609
  366MPD2    H3 5536   3.216   1.614  15.594  0.5365  0.2731 -0.0327
  366MPD2     N 5537   3.639   1.488  15.489  0.6884  0.4723 -0.1545
  366MPD2    H5 5538   3.736   1.516  15.484  1.1421 -1.1415 -0.4664
  366MPD2    N1 5539   3.499   1.963  15.487 -0.3066  0.0295 -0.5433
  366MPD2    H7 5540   3.599   1.978  15.484  0.0262 -1.8853  1.5131
  367TMC3    C1 5541   3.475   2.178  15.402 -0.7423  0.2621 -0.0965
  367TMC3    C2 5542   3.606   2.206  15.449  0.5730 -0.2982  0.1833
  367TMC3    C3 5543   3.649   2.333  15.427  0.2728  0.4335 -0.2281
  367TMC3    C4 5544   3.410   2.260  15.322  0.4146  0.1455 -0.6193
  367TMC3    C5 5545   3.471   2.373  15.282  0.1100  0.0246 -0.4828
  367TMC3    C6 5546   3.580   2.420  15.346 -0.8397 -0.1583 -0.1761
  367TMC3     C 5547   3.410   2.063  15.456  0.7301  0.5207  0.4739
  367TMC3     O 5548   3.289   2.047  15.437  0.4273  0.5718  0.2934
  367TMC3     H 5549   3.643   2.150  15.535 -1.5406  0.2154  1.4165
  367TMC3    H1 5550   3.316   2.223  15.281  0.8715  0.5658 -2.0546
  367TMC3    H2 5551   3.604   2.523  15.324 -0.3380 -0.1091  0.6064
  367TMC3    C7 5552   3.417   2.455  15.179 -0.5691  0.0460  0.1622
  367TMC3    C8 5553   3.749   2.391  15.513  0.3890  0.1436  0.3183
  367TMC3    O1 5554   3.477   2.556  15.138  0.2353  0.0739  0.3907
  367TMC3    O2 5555   3.753   2.347  15.628 -0.0243  0.6627  0.5244
  368MPD2     C 5556   0.324   3.210  13.015 -0.4592 -0.0254  0.0785
  368MPD2    C1 5557   0.315   3.244  12.879  1.2837  0.4788  0.6602
  368MPD2    C2 5558   0.433   3.287  12.816  0.0336  0.2272 -0.3405
  368MPD2    C3 5559   0.550   3.312  12.879  0.4363  0.5165  0.4062
  368MPD2    C4 5560   0.551   3.288  13.018 -0.2062  0.6735 -0.3664
  368MPD2    C5 5561   0.444   3.228  13.077  0.4159  0.2600 -0.2743
  368MPD2     H 5562   0.428   3.289  12.708 -1.4715 -0.1972 -0.2871
  368MPD2    H1 5563   0.642   3.310  13.072 -0.5608  0.8896  0.1399
  368MPD2    H2 5564   0.244   3.169  13.075 -0.0413 -0.7256  0.1596
  368MPD2    H3 5565   0.451   3.206  13.183  1.0182  2.8550  0.2308
  368MPD2     N 5566   0.668   3.350  12.822  0.1819 -0.8372 -0.4552
  368MPD2    H5 5567   0.740   3.359  12.893 -0.5348 -1.9908  0.4041
  368MPD2    N1 5568   0.191   3.235  12.816 -0.2299 -0.2511 -0.3506
  368MPD2    H7 5569   0.115   3.192  12.868 -0.3080 -0.7285 -0.8552
  369TMC3    C1 5570   0.019   3.272  12.657 -0.3854  0.8863 -0.2069
  369TMC3    C2 5571   4.703   3.249  12.535 -0.2427  0.0052  0.0647
  369TMC3    C3 5572   4.577   3.280  12.503  0.3452 -1.2691  0.1277
  369TMC3    C4 5573   4.671   3.319  12.753  0.0451 -0.1528 -0.4821
  369TMC3    C5 5574   4.543   3.343  12.720 -0.1546  0.1368  0.2500
  369TMC3    C6 5575   4.495   3.335  12.595 -0.1268 -0.7631  0.1075
  369TMC3     C 5576   0.161   3.285  12.686  0.1770 -1.1506 -0.2455
  369TMC3     O 5577   0.234   3.328  12.597  0.7298 -0.4020  0.6758
  369TMC3     H 5578   0.040   3.220  12.459 -1.5053  1.7717 -1.7899
  369TMC3    H1 5579   4.701   3.342  12.855 -0.2114  2.4074 -0.9984
  369TMC3    H2 5580   4.392   3.358  12.572  0.1803  1.2281  0.7865
  369TMC3    C7 5581   4.474   3.434  12.823  0.1371  1.0657 -0.3009
  369TMC3    C8 5582   4.537   3.290  12.364 -0.1569 -0.2861 -0.0142
  369TMC3    O1 5583   4.540   3.492  12.907 -0.2597  0.0155  0.0284
  369TMC3    O2 5584   4.460   3.381  12.335 -0.2773  0.2421  0.1798
  370TMC3    C1 5585   4.499   4.313  16.263  0.8672  0.0299 -0.1606
  370TMC3    C2 5586   4.419   4.245  16.348  0.0979  0.2044  0.0917
  370TMC3    C3 5587   4.357   4.125  16.304 -0.6434  0.0567  0.6068
  370TMC3    C4 5588   4.521   4.255  16.140  0.1347  0.1990  0.8810
  370TMC3    C5 5589   4.462   4.138  16.102 -0.0598 -0.5443  0.4061
  370TMC3    C6 5590   4.379   4.071  16.180 -0.7554 -0.5797 -0.1375
  370TMC3     C 5591   4.612   4.377  16.327  0.2701  0.0787 -0.1747
  370TMC3     O 5592   4.636   4.348  16.445 -0.3536  0.4847 -0.4126
  370TMC3     H 5593   4.409   4.282  16.449  0.7416 -0.4878  0.4115
  370TMC3    H1 5594   4.612   4.289  16.093 -0.6145 -0.9747 -1.4241
  370TMC3    H2 5595   4.331   3.980  16.147  1.0318 -2.2722  1.8902
  370TMC3    C7 5596   4.497   4.082  15.977  0.7563  0.5003 -0.0826
  370TMC3    C8 5597   4.306   4.038  16.414  0.3534 -0.7489  0.2046
  370TMC3    O1 5598   4.537   4.164  15.895 -0.0140  0.5523  0.1420
  370TMC3    O2 5599   4.307   3.919  16.398 -0.0484 -0.0734  0.1523
  371TMC3    C1 5600   1.067   2.502  15.445 -0.0809 -0.3987 -0.1538
  371TMC3    C2 5601   0.938   2.488  15.486 -0.4008  0.2777 -1.0582
  371TMC3    C3 5602   0.861   2.602  15.504  0.2880 -0.6933 -0.0017
  371TMC3    C4 5603   1.116   2.615  15.388 -0.8069  0.3121  0.2216
  371TMC3    C5 5604   1.039   2.728  15.407  0.1858  0.0957 -0.1291
  371TMC3    C6 5605   0.911   2.727  15.466 -0.3070  0.7517  0.1147
  371TMC3     C 5606   1.153   2.391  15.430  0.3960  0.4881 -0.4652
  371TMC3     O 5607   1.256   2.394  15.368  0.0711 -0.6925 -0.0512
  371TMC3     H 5608   0.889   2.392  15.500  0.1985  0.2046  0.5733
  371TMC3    H1 5609   1.218   2.617  15.353 -0.2430 -0.7706  1.8063
  371TMC3    H2 5610   0.856   2.819  15.482  1.6110  1.6955  1.3617
  371TMC3    C7 5611   1.089   2.855  15.345 -0.4278 -0.1938 -0.2122
  371TMC3    C8 5612   0.739   2.578  15.574  0.2887  0.2340  0.1769
  371TMC3    O1 5613   1.044   2.962  15.382 -0.4364  0.0628 -0.3019
  371TMC3    O2 5614   0.722   2.464  15.614 -0.2577 -0.3499  0.2813
  372MPD2     C 5615   0.203   3.612  13.043  0.1941  0.8216 -0.5264
  372MPD2    C1 5616   0.330   3.587  13.095 -0.0206  0.7020  0.2472
  372MPD2    C2 5617   0.342   3.524  13.216 -0.4386  0.6695 -0.5489
  372MPD2    C3 5618   0.227   3.482  13.279 -0.6001 -1.0963 -0.3769
  372MPD2    C4 5619   0.099   3.511  13.226  0.5330 -0.2769 -0.2804
  372MPD2    C5 5620   0.087   3.573  13.107  0.0194  0.3184  0.3006
  372MPD2     H 5621   0.434   3.489  13.261 -0.9527 -0.3900 -0.3121
  372MPD2    H1 5622   0.011   3.483  13.283  0.5548 -0.3382 -0.2765
  372MPD2    H2 5623   0.194   3.669  12.951  0.9671  0.4199 -0.8549
  372MPD2    H3 5624   4.729   3.597  13.057  1.0372 -0.0400 -1.8080
  372MPD2     N 5625   0.245   3.421  13.404 -0.0718 -0.7128  0.1694
  372MPD2    H5 5626   0.342   3.408  13.431  0.1254  0.2813 -0.0593
  372MPD2    N1 5627   0.449   3.625  13.034 -0.4192  0.4866  0.1374
  372MPD2    H7 5628   0.532   3.595  13.085 -0.0047  2.5142  0.6431
  373TMC3    C1 5629   0.197   3.389  13.630  0.5172 -0.0147  0.8353
  373TMC3    C2 5630   0.115   3.413  13.737  0.0716  0.5682  0.3884
  373TMC3    C3 5631   0.112   3.322  13.844  0.7911 -0.2873  0.4061
  373TMC3    C4 5632   0.271   3.275  13.633 -0.3615  0.1193 -0.1286
  373TMC3    C5 5633   0.265   3.181  13.731  0.3482  1.0375 -0.1483
  373TMC3    C6 5634   0.181   3.204  13.840  0.6191 -0.5238 -0.3394
  373TMC3     C 5635   0.145   3.421  13.501 -0.3498 -0.1073 -0.2460
  373TMC3     O 5636   0.027   3.443  13.497 -0.2420  0.2073  0.1012
  373TMC3     H 5637   0.064   3.509  13.735 -1.1371 -0.1128 -1.3508
  373TMC3    H1 5638   0.340   3.257  13.551  0.9522  0.1586  0.9735
  373TMC3    H2 5639   0.159   3.132  13.918  0.9728 -1.2049 -0.8677
  373TMC3    C7 5640   0.390   3.117  13.756  0.0898  0.2738  0.1294
  373TMC3    C8 5641   0.027   3.360  13.962 -0.6654 -0.0875  0.4974
  373TMC3    O1 5642   0.491   3.152  13.694  0.1363  0.0833 -0.3533
  373TMC3    O2 5643   4.664   3.433  13.941 -0.8098 -0.1359 -0.0392
  374TMC3    C1 5644   1.091   3.792  10.251 -0.4447  0.1069  0.1805
  374TMC3    C2 5645   1.227   3.802  10.253  0.5718 -0.2629 -0.1031
  374TMC3    C3 5646   1.292   3.737  10.152 -0.4932 -0.7247  0.0222
  374TMC3    C4 5647   1.025   3.728  10.155 -0.2627  0.4616  0.2018
  374TMC3    C5 5648   1.093   3.660  10.051  0.8068  0.1737  0.3759
  374TMC3    C6 5649   1.230   3.664  10.053 -0.0197 -0.9478 -0.4280
  374TMC3     C 5650   1.013   3.826  10.360 -0.0175 -0.7252  0.5084
  374TMC3     O 5651   0.919   3.758  10.392  0.5006 -0.1441 -0.0777
  374TMC3     H 5652   1.274   3.859  10.332  1.9545 -2.7952  0.8917
  374TMC3    H1 5653   0.918   3.712  10.161 -0.4484  1.2448 -1.1363
  374TMC3    H2 5654   1.292   3.619   9.976  2.4681 -0.8002  1.4495
  374TMC3    C7 5655   1.031   3.622   9.926  0.2629 -0.3311  0.1202
  374TMC3    C8 5656   1.415   3.809  10.106  0.4012  0.5036 -0.0955
  374TMC3    O1 5657   1.104   3.562   9.846 -0.0106 -0.3194  0.0804
  374TMC3    O2 5658   1.436   3.812   9.986 -0.1476 -0.6110 -0.5326
  375MPD2     C 5659   1.162   4.386  17.444 -0.0487  0.5830  0.7081
  375MPD2    C1 5660   1.166   4.431  17.313 -0.4512 -0.5844 -0.9715
  375MPD2    C2 5661   1.240   4.368  17.213 -0.4446 -0.0229 -0.5111
  375MPD2    C3 5662   1.310   4.256  17.252  0.5017  0.5928 -0.2888
  375MPD2    C4 5663   1.309   4.210  17.383 -0.2229  0.2062 -0.0047
  375MPD2    C5 5664   1.231   4.278  17.472 -0.1024  0.2594 -0.6996
  375MPD2     H 5665   1.234   4.413  17.115 -0.2199 -1.1473 -1.0504
  375MPD2    H1 5666   1.361   4.121  17.418 -1.3364  0.5221  2.4923
  375MPD2    H2 5667   1.105   4.427  17.527 -0.7409  1.6227 -0.2920
  375MPD2    H3 5668   1.222   4.230  17.569  0.3974  2.8860  0.6310
  375MPD2     N 5669   1.389   4.190  17.150 -0.4900 -0.2274  0.4787
  375MPD2    H5 5670   1.431   4.102  17.176  0.3226  0.4840  1.6180
  375MPD2    N1 5671   1.101   4.553  17.271  0.5868  0.2719 -0.5479
  375MPD2    H7 5672   1.097   4.577  17.172 -0.5314 -0.4429 -0.6820
  376TMC3    C1 5673   1.473   4.133  16.946 -0.5225 -0.3448  0.1740
  376TMC3    C2 5674   1.603   4.147  16.983 -0.4801 -0.2471  0.0179
  376TMC3    C3 5675   1.700   4.150  16.887 -0.5226  0.1394 -0.2767
  376TMC3    C4 5676   1.442   4.112  16.814  0.0036  0.1046 -0.5895
  376TMC3    C5 5677   1.541   4.115  16.715 -0.0775 -0.0401  0.4050
  376TMC3    C6 5678   1.667   4.138  16.756 -0.2596  0.1610 -0.3185
  376TMC3     C 5679   1.387   4.219  17.018  0.2398 -0.3780 -0.1574
  376TMC3     O 5680   1.325   4.291  16.942  0.3366  0.1809 -0.2582
  376TMC3     H 5681   1.639   4.172  17.082 -2.7735 -1.2034  1.0800
  376TMC3    H1 5682   1.338   4.101  16.786 -0.1197 -1.7056  0.5629
  376TMC3    H2 5683   1.745   4.151  16.681 -1.2240  2.1322 -0.9798
  376TMC3    C7 5684   1.507   4.168  16.588  0.4305  0.0704 -0.1960
  376TMC3    C8 5685   1.819   4.226  16.896  0.0351  0.4779  0.3310
  376TMC3    O1 5686   1.580   4.252  16.538 -0.9714 -0.0471  0.6227
  376TMC3    O2 5687   1.831   4.324  16.821 -0.5692 -0.5171 -0.3863
  377MPD2     C 5688   3.289   3.502  12.864  0.3495  0.6423 -0.3681
  377MPD2    C1 5689   3.382   3.406  12.819 -0.4362  0.3683  0.4362
  377MPD2    C2 5690   3.350   3.272  12.836  0.0260 -0.3272 -0.1683
  377MPD2    C3 5691   3.233   3.231  12.902  0.7522  0.2609  0.2380
  377MPD2    C4 5692   3.135   3.323  12.939 -0.9365 -0.6895  0.3454
  377MPD2    C5 5693   3.171   3.455  12.928 -0.4924 -0.1074 -0.2901
  377MPD2     H 5694   3.419   3.200  12.794  0.8144  0.8424 -0.8548
  377MPD2    H1 5695   3.059   3.291  13.009 -0.7559 -2.2590 -0.1724
  377MPD2    H2 5696   3.299   3.610  12.856  0.9556  0.7394  1.6808
  377MPD2    H3 5697   3.103   3.521  12.979  3.0370  3.3176 -0.0131
  377MPD2     N 5698   3.206   3.099  12.938  0.0804 -0.3472  0.7314
  377MPD2    H5 5699   3.117   3.083  12.986  0.1172  1.4521  1.3996
  377MPD2    N1 5700   3.493   3.435  12.742 -0.4253 -0.0657  0.2706
  377MPD2    H7 5701   3.556   3.362  12.709  1.6303  1.7172  0.2782
  378TMC3    C1 5702   3.799   3.667  12.480  0.1074 -0.4677 -0.2080
  378TMC3    C2 5703   3.689   3.672  12.554  0.5774  0.4402  0.7920
  378TMC3    C3 5704   3.662   3.570  12.643 -0.7391  0.1229  0.0433
  378TMC3    C4 5705   3.883   3.561  12.483 -0.3439 -0.5451 -0.1605
  378TMC3    C5 5706   3.852   3.456  12.561 -0.2838  0.4437 -0.1022
  378TMC3    C6 5707   3.747   3.461  12.651 -0.1954 -0.0050  0.3593
  378TMC3     C 5708   3.835   3.793  12.412 -0.2050 -0.0130 -0.3606
  378TMC3     O 5709   3.745   3.878  12.415 -0.2356 -0.6082  0.4908
  378TMC3     H 5710   3.619   3.753  12.535  0.8894  0.3237 -0.8553
  378TMC3    H1 5711   3.984   3.564  12.443 -0.1385  1.0156  0.4825
  378TMC3    H2 5712   3.741   3.382  12.726 -0.0346 -1.5878 -1.3155
  378TMC3    C7 5713   3.950   3.351  12.567 -0.7335  0.2057 -0.3309
  378TMC3    C8 5714   3.523   3.566  12.699  0.2376 -0.5500 -1.1973
  378TMC3    O1 5715   3.947   3.274  12.662 -0.2452  0.3482  0.3062
  378TMC3    O2 5716   3.462   3.669  12.716  0.3758 -0.3209  0.0917
  379MPD2     C 5717   0.158   2.455  16.115 -0.3412 -0.1084  0.7866
  379MPD2    C1 5718   0.084   2.356  16.167  0.0649 -0.9386  0.3425
  379MPD2    C2 5719   0.130   2.288  16.270  0.4244 -0.1784  0.2499
  379MPD2    C3 5720   0.259   2.311  16.324 -0.3799 -0.0949  0.4039
  379MPD2    C4 5721   0.337   2.395  16.249 -0.2586  0.0074 -0.8074
  379MPD2    C5 5722   0.285   2.475  16.154 -0.7650 -0.7364  0.1580
  379MPD2     H 5723   0.061   2.231  16.331  0.5736 -2.5445 -1.7728
  379MPD2    H1 5724   0.443   2.393  16.271 -0.8343 -1.3620  1.9748
  379MPD2    H2 5725   0.123   2.527  16.043 -0.6458  0.3218  1.3620
  379MPD2    H3 5726   0.359   2.525  16.093 -1.1312 -0.8995 -0.4195
  379MPD2     N 5727   0.309   2.228  16.419 -0.5572 -0.3928 -0.1501
  379MPD2    H5 5728   0.409   2.227  16.435 -0.6921 -0.4378  0.6833
  379MPD2    N1 5729   4.691   2.337  16.110 -0.3335  0.1637  0.5624
  379MPD2    H7 5730   4.659   2.398  16.036  0.2443  0.4648  0.5666
  380TMC3    C1 5731   4.503   2.215  16.040  0.3853  0.1145  0.3723
  380TMC3    C2 5732   4.482   2.095  15.983 -0.6594 -0.0087  0.5533
  380TMC3    C3 5733   4.394   2.087  15.874  0.6566 -0.2601 -0.4695
  380TMC3    C4 5734   4.451   2.333  15.988 -0.7585 -0.3408  0.7151
  380TMC3    C5 5735   4.358   2.324  15.889  0.0213  0.1661  0.5154
  380TMC3    C6 5736   4.322   2.201  15.831  0.4191 -0.0392 -0.5406
  380TMC3     C 5737   4.615   2.226  16.136 -0.8225 -0.5789 -0.4472
  380TMC3     O 5738   4.657   2.122  16.192  0.3893 -0.4611 -0.4734
  380TMC3     H 5739   4.535   2.005  16.013 -1.2035 -1.3171 -2.4143
  380TMC3    H1 5740   4.466   2.432  16.029  1.2532 -0.5386  0.4364
  380TMC3    H2 5741   4.249   2.194  15.752 -1.2669 -1.0419  1.1135
  380TMC3    C7 5742   4.318   2.440  15.822  0.6655 -0.1568 -0.4168
  380TMC3    C8 5743   4.437   2.011  15.759  0.7135 -0.3530  0.5342
  380TMC3    O1 5744   4.397   2.530  15.819  1.0906  0.3431 -0.2149
  380TMC3    O2 5745   4.377   2.034  15.652 -0.3753 -0.2989 -0.1916
  381TMC3    C1 5746   4.261   3.372  16.225  0.0319 -0.2282  0.2873
  381TMC3    C2 5747   4.329   3.482  16.200 -0.1656  0.4108  0.4026
  381TMC3    C3 5748   4.371   3.565  16.303  0.3750 -0.5508  0.8931
  381TMC3    C4 5749   4.251   3.323  16.355  0.4599  0.0368 -0.2663
  381TMC3    C5 5750   4.277   3.412  16.452 -0.3350 -0.4173 -0.1582
  381TMC3    C6 5751   4.334   3.540  16.436  0.1352  1.2178  0.1187
  381TMC3     C 5752   4.213   3.292  16.112  0.1470 -0.0283  0.3911
  381TMC3     O 5753   4.151   3.351  16.025  0.2909 -0.2421  0.3174
  381TMC3     H 5754   4.372   3.511  16.105  1.4724  2.4277  1.7506
  381TMC3    H1 5755   4.210   3.224  16.372 -1.6945  1.0433  0.3461
  381TMC3    H2 5756   4.347   3.610  16.518  0.1357  2.0622 -0.6042
  381TMC3    C7 5757   4.219   3.386  16.579  0.9807  0.4437 -0.0616
  381TMC3    C8 5758   4.508   3.611  16.286 -0.4641  0.1943  0.2848
  381TMC3    O1 5759   4.202   3.267  16.608  0.4643  0.1144  0.5304
  381TMC3    O2 5760   4.579   3.553  16.204  0.0334  0.2548  0.1830
  382MPD2     C 5761   4.182   0.736  17.217  0.9357  0.0597  0.1696
  382MPD2    C1 5762   4.114   0.812  17.312 -0.4044  0.2032 -0.3338
  382MPD2    C2 5763   4.035   0.731  17.395 -0.4684  0.0701 -0.2792
  382MPD2    C3 5764   4.008   0.594  17.366 -0.3051 -0.0209  0.0554
  382MPD2    C4 5765   4.081   0.527  17.270 -0.6095  0.6558 -0.2970
  382MPD2    C5 5766   4.165   0.603  17.192 -0.1562 -0.3662 -0.1872
  382MPD2     H 5767   3.991   0.772  17.486 -1.6731 -1.2330 -0.2717
  382MPD2    H1 5768   4.065   0.424  17.240  0.7008  0.5337 -0.5454
  382MPD2    H2 5769   4.243   0.789  17.145  0.9072  2.4368  1.9101
  382MPD2    H3 5770   4.233   0.559  17.119 -0.1380 -1.5364  0.5398
  382MPD2     N 5771   3.910   0.530  17.447  0.3776  0.4722 -0.1662
  382MPD2    H5 5772   3.851   0.587  17.506  0.4544  2.7641 -2.3110
  382MPD2    N1 5773   4.131   0.947  17.341 -0.1531 -0.7794  0.1905
  382MPD2    H7 5774   4.080   0.993  17.416 -0.0248  1.9836 -1.4410
  383TMC3    C1 5775   3.749   0.363  17.504 -0.8604  0.1590 -0.5042
  383TMC3    C2 5776   3.658   0.286  17.440  0.8664 -0.0777  0.4229
  383TMC3    C3 5777   3.537   0.275  17.496  0.0799 -1.2272  0.1224
  383TMC3    C4 5778   3.725   0.429  17.623  0.2133  0.6208  0.1296
  383TMC3    C5 5779   3.596   0.421  17.679  0.3660 -0.5077  0.5121
  383TMC3    C6 5780   3.509   0.342  17.610 -0.1149  0.3926 -0.2155
  383TMC3     C 5781   3.870   0.401  17.427  0.2018 -0.0539 -0.9461
  383TMC3     O 5782   3.919   0.310  17.354  0.1592  0.1896 -0.1765
  383TMC3     H 5783   3.667   0.274  17.333  1.0422  0.6337  0.3548
  383TMC3    H1 5784   3.802   0.478  17.681  1.8176 -1.1326 -0.5129
  383TMC3    H2 5785   3.404   0.331  17.632 -0.1544  0.7434 -0.2279
  383TMC3    C7 5786   3.539   0.535   0.021 -0.3007  0.8826 -0.1741
  383TMC3    C8 5787   3.428   0.238  17.408  0.5615  0.0823  0.1667
  383TMC3    O1 5788   3.425   0.568  17.722 -0.2433  0.2603 -0.0764
  383TMC3    O2 5789   3.345   0.325  17.383 -0.5252 -0.5080 -0.6107
  384MPD2     C 5790   0.106   2.174  11.943  0.6111  0.3248  0.1934
  384MPD2    C1 5791   0.180   2.120  12.046 -0.0640 -0.0002 -0.0043
  384MPD2    C2 5792   0.287   2.041  12.020  0.2045 -0.0965 -0.0188
  384MPD2    C3 5793   0.339   2.033  11.890  0.3170 -0.5386  0.1143
  384MPD2    C4 5794   0.275   2.101  11.792  0.1144  0.2889 -0.0454
  384MPD2    C5 5795   0.156   2.168  11.812  0.8336  0.6271 -0.0914
  384MPD2     H 5796   0.342   2.003  12.105  1.3622  0.9632 -0.2797
  384MPD2    H1 5797   0.302   2.093  11.687  1.0791 -1.5040  0.3248
  384MPD2    H2 5798   0.011   2.221  11.968  0.8195  0.8305  0.0492
  384MPD2    H3 5799   0.101   2.199  11.724  0.6672  1.1048  0.1779
  384MPD2     N 5800   0.458   1.961  11.875 -0.2074 -0.1524  0.2327
  384MPD2    H5 5801   0.494   1.908  11.954  0.5297 -1.1899 -0.7923
  384MPD2    N1 5802   0.152   2.145  12.176  0.4446 -0.3763 -0.6946
  384MPD2    H7 5803   0.227   2.119  12.239 -0.0243  1.2754  0.5413
  385TMC3    C1 5804   0.653   1.873  11.790  0.1961 -0.1900 -0.1124
  385TMC3    C2 5805   0.692   1.778  11.703  0.0989  0.4705  0.0242
  385TMC3    C3 5806   0.802   1.703  11.742  0.5521 -0.5101 -0.6566
  385TMC3    C4 5807   0.719   1.915  11.899 -0.4468 -0.0804  0.4679
  385TMC3    C5 5808   0.830   1.843  11.932  0.1122 -0.0668 -0.6363
  385TMC3    C6 5809   0.878   1.745  11.849 -0.4606  0.1385 -0.3342
  385TMC3     C 5810   0.529   1.938  11.758  0.7031 -0.2647 -0.2088
  385TMC3     O 5811   0.516   1.970  11.640  0.3744  0.8380  0.2667
  385TMC3     H 5812   0.627   1.746  11.622  0.5744 -4.2255  1.4677
  385TMC3    H1 5813   0.687   2.011  11.939 -4.1459 -0.4679 -1.5437
  385TMC3    H2 5814   0.952   1.683  11.898 -1.0707 -0.4005 -0.0802
  385TMC3    C7 5815   0.870   1.843  12.073  0.5024 -0.1267  0.0737
  385TMC3    C8 5816   0.821   1.561  11.707 -0.1125  0.9667 -0.0808
  385TMC3    O1 5817   0.975   1.785  12.110  0.5347  0.4337  0.3430
  385TMC3    O2 5818   0.915   1.503  11.756 -0.1118  0.2085  0.1475
  386TMC3    C1 5819   0.854   4.092  11.446  0.1722  0.7297 -1.0735
  386TMC3    C2 5820   0.843   4.205  11.360  0.5237  0.3893 -0.2049
  386TMC3    C3 5821   0.718   4.250  11.334 -0.2941  0.0595 -0.5097
  386TMC3    C4 5822   0.746   4.042  11.508 -0.6476 -0.0882  0.4932
  386TMC3    C5 5823   0.624   4.095  11.495 -0.5070  0.3624  0.0487
  386TMC3    C6 5824   0.611   4.197  11.407 -0.5496 -0.3677 -0.1998
  386TMC3     C 5825   0.978   4.019  11.460 -0.5680 -0.6323 -0.8382
  386TMC3     O 5826   1.084   4.080  11.469  0.8131  0.3054  0.3860
  386TMC3     H 5827   0.931   4.222  11.299 -0.0705  0.5840 -1.0036
  386TMC3    H1 5828   0.761   3.970  11.588  1.9225 -2.3313 -2.0187
  386TMC3    H2 5829   0.512   4.235  11.385 -0.3039  0.0614 -0.5672
  386TMC3    C7 5830   0.507   4.014  11.509  0.6239 -0.3982  0.3192
  386TMC3    C8 5831   0.678   4.345  11.233 -0.0189  0.3850  0.8240
  386TMC3    O1 5832   0.405   4.078  11.528 -0.1318 -0.1800  0.3359
  386TMC3    O2 5833   0.559   4.377  11.224  0.0934 -0.4473  0.0110
  387MPD2     C 5834   3.301   4.432   9.932  0.3929 -0.0870 -0.5354
  387MPD2    C1 5835   3.281   4.418  10.066 -0.4147 -0.0602 -0.3782
  387MPD2    C2 5836   3.218   4.297  10.099  0.9268  0.1730 -0.3832
  387MPD2    C3 5837   3.204   4.189  10.010  0.5834  0.2653  0.3372
  387MPD2    C4 5838   3.236   4.208   9.883  0.2611 -0.5073  0.1736
  387MPD2    C5 5839   3.285   4.328   9.838 -0.1534  0.2522  0.4671
  387MPD2     H 5840   3.184   4.278  10.200  0.8647  2.9117  0.1034
  387MPD2    H1 5841   3.227   4.137   9.802  0.8365  1.4421 -1.6133
  387MPD2    H2 5842   3.355   4.518   9.892 -0.2267  0.1886 -0.7772
  387MPD2    H3 5843   3.329   4.341   9.739 -1.7572 -0.2562 -0.3017
  387MPD2     N 5844   3.170   4.057  10.053  0.3301  0.4416  0.5624
  387MPD2    H5 5845   3.128   4.044  10.144  0.1018  0.9252  0.5234
  387MPD2    N1 5846   3.317   4.499  10.169 -0.7249  0.2241  0.0163
  387MPD2    H7 5847   3.323   4.463  10.263 -1.3033  0.0726 -0.0033
  388TMC3    C1 5848   3.463   4.644  10.267  0.9082 -0.3335  0.6920
  388TMC3    C2 5849   3.497   0.039  10.290  0.1022  0.2418  0.1225
  388TMC3    C3 5850   3.586   0.060  10.392 -0.1637 -0.0622 -0.1165
  388TMC3    C4 5851   3.509   4.537  10.337  0.1699 -0.0602  0.7584
  388TMC3    C5 5852   3.600   4.559  10.436  0.4757 -0.5466 -0.0253
  388TMC3    C6 5853   3.638   4.692  10.467 -0.2832  0.3893 -0.6855
  388TMC3     C 5854   3.382   4.616  10.148  0.9312 -0.2937  0.5035
  388TMC3     O 5855   3.379   4.698  10.055  0.2987  0.0203  0.3497
  388TMC3     H 5856   3.460   0.115  10.223  0.9127  1.5906  1.2181
  388TMC3    H1 5857   3.513   4.441  10.286 -2.8034 -0.5489  1.4377
  388TMC3    H2 5858   3.704   4.719  10.548 -1.4112  0.3255  0.2649
  388TMC3    C7 5859   3.668   4.448  10.506  0.5064  0.2092 -0.2184
  388TMC3    C8 5860   3.638   0.195  10.417 -0.7681 -0.2007 -0.3577
  388TMC3    O1 5861   3.785   4.451  10.514 -0.1644  0.1918  0.4782
  388TMC3    O2 5862   3.717   0.221  10.504 -0.5030  0.3020  0.2797
  389MPD2     C 5863   2.276   2.797  10.801 -0.0744 -0.0506  0.1677
  389MPD2    C1 5864   2.307   2.682  10.741 -0.2731  0.2526  0.1537
  389MPD2    C2 5865   2.266   2.563  10.800 -0.5464 -0.4608  0.2869
  389MPD2    C3 5866   2.202   2.562  10.918  0.7571 -0.2792  0.6445
  389MPD2    C4 5867   2.185   2.681  10.990  0.2700  0.5031  0.0587
  389MPD2    C5 5868   2.212   2.800  10.928 -0.6910 -0.1102  0.3678
  389MPD2     H 5869   2.275   2.466  10.751 -0.0612 -0.4155  0.2860
  389MPD2    H1 5870   2.140   2.682  11.089 -1.0804 -1.6792 -0.5348
  389MPD2    H2 5871   2.311   2.888  10.753 -2.2868  0.1611 -1.0366
  389MPD2    H3 5872   2.189   2.893  10.979 -1.2454 -0.6802  1.1521
  389MPD2     N 5873   2.163   2.443  10.984 -0.0761  0.7971  0.7058
  389MPD2    H5 5874   2.131   2.443  11.080 -0.0548 -0.0422  0.7078
  389MPD2    N1 5875   2.403   2.685  10.632 -0.2649  0.3752  0.3265
  389MPD2    H7 5876   2.439   2.776  10.602 -0.9388  0.6666  0.4038
  390TMC3    C1 5877   2.112   2.221  11.035  0.0330  0.1120  0.1459
  390TMC3    C2 5878   2.116   2.290  11.157  0.3052  0.0222 -0.0782
  390TMC3    C3 5879   1.996   2.283  11.230  0.0395 -0.0320 -0.2931
  390TMC3    C4 5880   2.002   2.145  10.994  0.6527 -0.0043  0.7600
  390TMC3    C5 5881   1.890   2.144  11.072 -0.4300 -1.0268  0.0344
  390TMC3    C6 5882   1.880   2.224  11.182 -0.2140 -0.0075 -0.1206
  390TMC3     C 5883   2.166   2.313  10.934  0.3075 -0.5820  0.4941
  390TMC3     O 5884   2.193   2.272  10.826 -0.1571  0.0502 -0.3754
  390TMC3     H 5885   2.202   2.340  11.198 -0.2564  0.8432  0.0930
  390TMC3    H1 5886   2.000   2.119  10.888  0.0202 -1.0644  1.0289
  390TMC3    H2 5887   1.790   2.256  11.234 -0.7038  1.3006 -1.7888
  390TMC3    C7 5888   1.819   2.022  11.075  0.3249 -0.1827 -0.4322
  390TMC3    C8 5889   1.981   2.408  11.299  0.5108 -0.2026 -0.2178
  390TMC3    O1 5890   1.849   1.943  10.989 -0.1696  0.1968  0.2141
  390TMC3    O2 5891   2.035   2.506  11.248  0.1957 -0.1946  0.0946
  391MPD2     C 5892   2.292   3.726  11.353  0.4877 -0.2507 -0.2759
  391MPD2    C1 5893   2.379   3.800  11.278 -0.6938  0.5587  0.6906
  391MPD2    C2 5894   2.361   3.806  11.145 -0.1819  0.1447  0.1199
  391MPD2    C3 5895   2.274   3.724  11.080  0.0809 -1.1434 -0.4279
  391MPD2    C4 5896   2.190   3.641  11.154  0.0090  0.3030  0.3504
  391MPD2    C5 5897   2.201   3.640  11.291 -0.0474 -0.2901  0.7515
  391MPD2     H 5898   2.416   3.870  11.078 -0.7187 -0.4500 -0.8962
  391MPD2    H1 5899   2.110   3.588  11.103  0.5778  0.1240 -0.3446
  391MPD2    H2 5900   2.284   3.733  11.461  3.1151  1.8532 -0.2314
  391MPD2    H3 5901   2.125   3.588  11.349 -1.6817 -1.5224 -2.4839
  391MPD2     N 5902   2.285   3.747  10.936 -0.0932  0.0675  0.4038
  391MPD2    H5 5903   2.356   3.814  10.909 -0.6930 -1.1409 -4.0676
  391MPD2    N1 5904   2.470   3.884  11.345  0.1582  0.2746 -0.4709
  391MPD2    H7 5905   2.455   3.889  11.446  4.7554 -1.7479  0.2923
  392TMC3    C1 5906   2.227   3.750  10.711  0.4268  0.6618  0.2460
  392TMC3    C2 5907   2.109   3.757  10.646 -0.3351  0.2252 -0.1040
  392TMC3    C3 5908   2.077   3.866  10.574  0.1942  0.3848  0.0295
  392TMC3    C4 5909   2.302   3.862  10.715 -0.1489  0.0595  0.4823
  392TMC3    C5 5910   2.266   3.975  10.646 -0.2526  0.5917 -0.4103
  392TMC3    C6 5911   2.157   3.975  10.567 -0.3398 -0.3624 -0.4713
  392TMC3     C 5912   2.208   3.693  10.839 -0.3535  0.1010  0.8262
  392TMC3     O 5913   2.127   3.595  10.849 -0.1001  0.1092  0.2263
  392TMC3     H 5914   2.037   3.677  10.653 -0.3798  0.2089 -0.7420
  392TMC3    H1 5915   2.401   3.858  10.759  0.3377  1.1341 -0.5340
  392TMC3    H2 5916   2.113   4.062  10.519 -1.7485 -0.2250  1.0499
  392TMC3    C7 5917   2.339   4.099  10.666  0.6738 -0.3794 -0.2268
  392TMC3    C8 5918   1.960   3.858  10.490  0.0905  0.1880 -0.4083
  392TMC3    O1 5919   2.419   4.109  10.761 -0.3807 -0.1886 -0.2871
  392TMC3    O2 5920   1.875   3.785  10.535 -0.0359  0.3652 -0.4619
  393TMC3    C1 5921   0.095   2.046  10.485  0.0496  0.0283 -0.8803
  393TMC3    C2 5922   4.715   1.985  10.438 -0.6202 -0.0840 -0.9185
  393TMC3    C3 5923   4.697   1.852  10.475  0.5778  0.2960 -0.0981
  393TMC3    C4 5924   0.208   1.972  10.529  0.4368  0.4039 -0.5371
  393TMC3    C5 5925   0.182   1.845  10.570  0.6087 -0.1286 -0.5942
  393TMC3    C6 5926   0.061   1.793  10.550  0.9229 -0.1063  0.0221
  393TMC3     C 5927   0.121   2.185  10.452 -0.4703 -0.7011 -1.4804
  393TMC3     O 5928   0.232   2.225  10.488 -0.5876  0.5254 -0.1028
  393TMC3     H 5929   4.636   2.038  10.386  1.7450  1.3293 -3.1031
  393TMC3    H1 5930   0.300   2.019  10.559 -0.1349  2.0252 -1.3326
  393TMC3    H2 5931   0.064   1.688  10.577 -1.3599 -0.3821 -0.8384
  393TMC3    C7 5932   0.270   1.783  10.666  0.4182  0.2930  0.0224
  393TMC3    C8 5933   4.618   1.770  10.397  0.8502  0.3674  0.4939
  393TMC3    O1 5934   0.223   1.709  10.749  0.0053 -0.6363  0.2335
  393TMC3    O2 5935   4.633   1.655  10.431  0.9595  0.6230  0.5446
  394TMC3    C1 5936   2.562   2.615  10.477  0.3024 -0.3652  0.0271
  394TMC3    C2 5937   2.591   2.560  10.349  0.1919  0.2616 -0.2069
  394TMC3    C3 5938   2.699   2.608  10.280  0.0496 -1.5588 -0.3684
  394TMC3    C4 5939   2.646   2.705  10.533  0.1407  0.4531  0.2628
  394TMC3    C5 5940   2.758   2.746  10.462  0.3044 -0.1773 -0.1869
  394TMC3    C6 5941   2.790   2.693  10.337 -0.4721  0.1821  0.3956
  394TMC3     C 5942   2.444   2.576  10.559 -0.2806  0.1208 -0.4748
  394TMC3     O 5943   2.402   2.462  10.549 -0.5667  0.1654  0.0298
  394TMC3     H 5944   2.521   2.493  10.299  0.0088  0.1777  0.1646
  394TMC3    H1 5945   2.638   2.741  10.635  0.6875 -1.9213  1.1401
  394TMC3    H2 5946   2.878   2.716  10.279  0.5072 -0.0659  1.7938
  394TMC3    C7 5947   2.851   2.846  10.515  0.3101 -0.6017  0.5307
  394TMC3    C8 5948   2.729   2.557  10.149  0.3911  0.2040 -0.1061
  394TMC3    O1 5949   2.920   2.903  10.436  0.3527  0.1492 -0.2424
  394TMC3    O2 5950   2.796   2.623  10.072  0.5688  0.1986  0.0370
  395TMC3    C1 5951   2.357   4.441  14.945  0.0038 -0.4734  0.5292
  395TMC3    C2 5952   2.372   4.377  14.823 -0.9306 -0.5962  0.6604
  395TMC3    C3 5953   2.493   4.375  14.762  0.3728 -0.0227  0.2525
  395TMC3    C4 5954   2.461   4.511  15.002 -0.6497  0.2108  0.4309
  395TMC3    C5 5955   2.582   4.506  14.938  0.5526  0.1777 -0.7828
  395TMC3    C6 5956   2.596   4.442  14.819  0.1023 -0.1883 -0.3684
  395TMC3     C 5957   2.227   4.452  15.012 -0.5243 -1.0744  0.2835
  395TMC3     O 5958   2.214   4.476  15.132  0.0146  0.0143 -0.0402
  395TMC3     H 5959   2.293   4.311  14.789 -1.2871  0.4564 -0.5668
  395TMC3    H1 5960   2.447   4.562  15.096  0.8752  3.2091 -0.9588
  395TMC3    H2 5961   2.689   4.439  14.764  1.2004  4.4308  1.2300
  395TMC3    C7 5962   2.688   4.584  14.990 -0.2447  0.3994  0.3506
  395TMC3    C8 5963   2.488   4.372  14.614  0.2560  0.1284 -0.3683
  395TMC3    O1 5964   2.668   4.644  15.093 -0.0700 -0.6938 -0.0246
  395TMC3    O2 5965   2.570   4.445  14.554  0.1752 -0.2604  0.5834
  396MPD2     C 5966   1.973   0.600  17.296  0.4563 -0.3440  0.6656
  396MPD2    C1 5967   2.102   0.629  17.336  0.3441 -0.2963  0.1144
  396MPD2    C2 5968   2.171   0.735  17.282 -0.4626  0.5382  0.3610
  396MPD2    C3 5969   2.112   0.809  17.181  0.3644 -0.2476  0.6531
  396MPD2    C4 5970   1.983   0.781  17.144  0.5886  0.1443  0.5370
  396MPD2    C5 5971   1.914   0.675  17.201  0.1186  0.1915  0.0078
  396MPD2     H 5972   2.277   0.752  17.299 -0.1795 -0.3079 -0.5090
  396MPD2    H1 5973   1.943   0.831  17.056  0.9715 -0.1737  0.1842
  396MPD2    H2 5974   1.916   0.519  17.341  1.3449 -1.0577  0.4940
  396MPD2    H3 5975   1.822   0.638  17.156 -0.3383  2.0779 -0.6159
  396MPD2     N 5976   2.184   0.920  17.129 -0.4997 -1.3091 -0.6568
  396MPD2    H5 5977   2.278   0.936  17.165 -1.6039 -0.2294  1.8269
  396MPD2    N1 5978   2.157   0.539  17.432 -0.4743  0.3269 -0.1823
  396MPD2    H7 5979   2.113   0.448  17.439 -1.1449  0.5577 -1.4231
  397TMC3    C1 5980   2.296   0.421  17.567 -0.0668  0.3992 -0.5186
  397TMC3    C2 5981   2.407   0.364  17.534  0.2856 -0.1816  1.1539
  397TMC3    C3 5982   2.401   0.240  17.478 -0.3730  0.6339  0.3214
  397TMC3    C4 5983   2.181   0.347  17.570 -0.6349  0.4541  0.2496
  397TMC3    C5 5984   2.176   0.213  17.536 -0.6363  0.8918  0.4340
  397TMC3    C6 5985   2.293   0.159  17.494 -0.0997  0.2566  0.1442
  397TMC3     C 5986   2.275   0.548  17.497 -0.1443  0.0584  0.2139
  397TMC3     O 5987   2.369   0.624  17.495 -0.4943 -0.0993  0.4764
  397TMC3     H 5988   2.490   0.430  17.509  0.3101 -0.8614 -0.5720
  397TMC3    H1 5989   2.086   0.384  17.608 -0.2619  1.7371 -0.1015
  397TMC3    H2 5990   2.303   0.058  17.456 -0.5989 -0.1166  1.0127
  397TMC3    C7 5991   2.086   0.125  17.601 -0.3094 -0.0209  0.3954
  397TMC3    C8 5992   2.521   0.167  17.436  0.7472 -0.6984 -0.4375
  397TMC3    O1 5993   2.035   0.038  17.534  0.4100 -0.2536  0.3315
  397TMC3    O2 5994   2.519   0.046  17.448  0.0479  0.2219  0.3077
  398MPD2     C 5995   4.572   2.212  17.641 -0.5137 -0.0209  0.2318
  398MPD2    C1 5996   4.598   2.161   0.030 -0.2783  0.7435  0.1412
  398MPD2    C2 5997   4.661   2.247   0.121 -0.9288 -0.2540 -0.0838
  398MPD2    C3 5998   4.690   2.376   0.089  0.7956  0.5704 -0.1341
  398MPD2    C4 5999   4.659   2.427  17.704 -0.4604 -0.2738 -0.1261
  398MPD2    C5 6000   4.605   2.343  17.614 -0.2091 -0.5424 -0.8150
  398MPD2     H 6001   4.685   2.205   0.218 -0.3317  0.1828 -0.0376
  398MPD2    H1 6002   4.686   2.525  17.667 -1.9856 -0.5560 -1.9851
  398MPD2    H2 6003   4.518   2.152  17.569  1.7467  0.4117 -1.8315
  398MPD2    H3 6004   4.582   2.381  17.515  1.0759  0.4656 -0.7410
  398MPD2     N 6005   0.026   2.441   0.188 -0.1028  0.0203 -0.0696
  398MPD2    H5 6006   0.058   2.395   0.272 -0.0441  0.0291 -0.0876
  398MPD2    N1 6007   4.578   2.025   0.066 -0.1726  0.2279  0.4197
  398MPD2    H7 6008   4.591   1.995   0.163 -0.1522  1.9763  0.9562
  399TMC3    C1 6009   4.514   1.795   0.034  0.2146  0.1843  0.3596
  399TMC3    C2 6010   4.522   1.792   0.170 -0.0485 -0.8748 -0.0576
  399TMC3    C3 6011   4.479   1.678   0.229 -0.1982  0.0589 -0.3696
  399TMC3    C4 6012   4.472   1.695  17.696 -0.6898  0.0438  0.1708
  399TMC3    C5 6013   4.443   1.576   0.019 -0.2865 -0.2326 -0.2908
  399TMC3    C6 6014   4.444   1.567   0.154  0.3032  0.6054  0.6454
  399TMC3     C 6015   4.544   1.923  17.714  0.3060 -0.2979  0.1149
  399TMC3     O 6016   4.539   1.934  17.588  0.1561  0.4624  1.0855
  399TMC3     H 6017   4.582   1.858   0.231  0.3612  0.7481 -2.2115
  399TMC3    H1 6018   4.459   1.708  17.589  1.0422 -2.5499 -0.3795
  399TMC3    H2 6019   4.411   1.473   0.197 -1.0335  2.0575  2.8185
  399TMC3    C7 6020   4.404   1.459  17.688 -0.4030 -0.3744 -0.1793
  399TMC3    C8 6021   4.542   1.649   0.362  0.3166  0.2759  0.0354
  399TMC3    O1 6022   4.341   1.376   0.017 -0.5152  0.2016 -0.0385
  399TMC3    O2 6023   4.550   1.743   0.433 -0.4217 -0.5788  0.0626
  400TMC3    C1 6024   3.691   0.197  17.017  0.1893  0.9057 -0.2987
  400TMC3    C2 6025   3.563   0.206  16.973 -0.4785  0.1918  0.2685
  400TMC3    C3 6026   3.518   0.330  16.940  0.2721 -0.3014 -0.5211
  400TMC3    C4 6027   3.781   0.298  17.041 -0.2237 -0.2388  0.4364
  400TMC3    C5 6028   3.727   0.421  17.013 -0.1808 -0.7301  0.3344
  400TMC3    C6 6029   3.595   0.441  16.960  0.0589 -0.2422 -0.1365
  400TMC3     C 6030   3.714   0.070  17.074  0.7247 -0.9894  0.5552
  400TMC3     O 6031   3.663   4.714  17.013 -0.3022  0.6029 -0.5160
  400TMC3     H 6032   3.511   0.111  16.966  0.0246 -0.1982  1.8442
  400TMC3    H1 6033   3.877   0.287  17.090 -0.1244 -1.5385 -0.0391
  400TMC3    H2 6034   3.571   0.544  16.937 -1.1038 -0.6278 -0.6514
  400TMC3    C7 6035   3.795   0.548  17.046 -0.4453  0.2869 -0.0517
  400TMC3    C8 6036   3.384   0.360  16.887  0.2145  0.4220 -0.5117
  400TMC3    O1 6037   3.903   0.568  16.997 -0.4606  0.3198 -0.1162
  400TMC3    O2 6038   3.351   0.479  16.888  0.2799 -0.3118  0.5292
  401MPD2     C 6039   1.353   3.890   0.452 -0.3784  0.0144  0.5808
  401MPD2    C1 6040   1.449   3.899   0.555  0.3571  0.1083  0.2428
  401MPD2    C2 6041   1.530   3.788   0.566 -0.7337 -0.3934  0.1584
  401MPD2    C3 6042   1.511   3.668   0.493  0.3720 -0.3831 -1.0491
  401MPD2    C4 6043   1.396   3.656   0.413  1.0285 -0.3378 -0.7548
  401MPD2    C5 6044   1.326   3.774   0.387  0.9225  0.2577  0.2995
  401MPD2     H 6045   1.612   3.787   0.636 -0.6590  0.1289  0.0762
  401MPD2    H1 6046   1.368   3.569   0.355  2.3690 -1.2655 -0.0034
  401MPD2    H2 6047   1.283   3.966   0.421  2.5478  1.9136 -1.3404
  401MPD2    H3 6048   1.255   3.761   0.307  0.1510  0.5964  0.9278
  401MPD2     N 6049   1.604   3.568   0.510 -0.1351  0.5372  0.0507
  401MPD2    H5 6050   1.684   3.592   0.568 -0.8765  1.1247  0.8320
  401MPD2    N1 6051   1.469   4.010   0.635  0.8663  0.1084 -0.2037
  401MPD2    H7 6052   1.544   4.010   0.703  1.2140 -0.5055 -0.5882
  402TMC3    C1 6053   1.690   3.340   0.511 -0.2335  0.1195 -0.3355
  402TMC3    C2 6054   1.668   3.206   0.544  0.4483 -0.0846  0.9929
  402TMC3    C3 6055   1.777   3.134   0.576 -0.1868  0.5827  0.6085
  402TMC3    C4 6056   1.813   3.396   0.520 -0.5011 -0.4467 -0.2845
  402TMC3    C5 6057   1.921   3.318   0.552  0.5744 -0.4778  0.3724
  402TMC3    C6 6058   1.904   3.184   0.568  0.3791  0.5359  0.0548
  402TMC3     C 6059   1.575   3.434   0.496 -0.7457 -0.1952  0.1149
  402TMC3     O 6060   1.469   3.381   0.466  0.8543 -0.1407  0.4882
  402TMC3     H 6061   1.564   3.178   0.546  0.1010  1.1878  0.6795
  402TMC3    H1 6062   1.816   3.500   0.490 -0.7428 -0.1751  0.6222
  402TMC3    H2 6063   1.986   3.121   0.600 -0.9674 -2.0998 -1.7135
  402TMC3    C7 6064   2.044   3.380   0.512 -0.0565 -0.0503 -0.0607
  402TMC3    C8 6065   1.766   3.005   0.647  0.0640  0.7314 -0.0756
  402TMC3    O1 6066   2.048   3.502   0.509 -0.1802 -0.1441  0.5644
  402TMC3    O2 6067   1.862   2.930   0.645 -0.3920  0.4175  0.0731
  403MPD2     C 6068   0.366   1.202  13.501  0.0261  0.3913 -0.0167
  403MPD2    C1 6069   0.302   1.303  13.566 -0.2107  0.1356  0.0009
  403MPD2    C2 6070   0.335   1.324  13.695  0.7562 -0.4494  0.7027
  403MPD2    C3 6071   0.429   1.244  13.763  0.4205 -0.0104  0.3149
  403MPD2    C4 6072   0.495   1.146  13.693  0.1633 -0.0871 -0.2575
  403MPD2    C5 6073   0.468   1.127  13.559 -0.4261  0.2433  0.1907
  403MPD2     H 6074   0.274   1.397  13.747  0.1244  0.7189 -1.6987
  403MPD2    H1 6075   0.563   1.075  13.739 -0.7198 -0.7621 -0.0103
  403MPD2    H2 6076   0.354   1.162  13.401 -0.0039 -1.8470  0.8831
  403MPD2    H3 6077   0.516   1.055  13.494  1.4339  2.1057 -0.4955
  403MPD2     N 6078   0.455   1.280  13.898 -0.3201 -0.2791 -0.4090
  403MPD2    H5 6079   0.416   1.370  13.926  2.2689  0.7780 -0.2401
  403MPD2    N1 6080   0.204   1.372  13.494 -0.1129  0.0047  0.6345
  403MPD2    H7 6081   0.191   1.345  13.397 -0.8644  0.8444  0.5000
  404TMC3    C1 6082   4.732   1.490  13.451  0.2125  0.2434  0.4547
  404TMC3    C2 6083   4.610   1.542  13.495  0.4475 -0.2792  0.4780
  404TMC3    C3 6084   4.507   1.543  13.403 -0.4035  0.0396 -0.1267
  404TMC3    C4 6085   0.010   1.455  13.322  0.4741  0.2990  0.2775
  404TMC3    C5 6086   4.645   1.465  13.232  0.4636  0.0024  0.1135
  404TMC3    C6 6087   4.523   1.509  13.270 -0.5322  0.4516 -0.1518
  404TMC3     C 6088   0.096   1.447  13.545  0.3292  0.3697 -0.2376
  404TMC3     O 6089   0.071   1.471  13.662  0.1075 -0.0321 -0.3171
  404TMC3     H 6090   4.599   1.579  13.596 -0.5515  1.7815 -0.3850
  404TMC3    H1 6091   0.110   1.430  13.288  0.3374 -1.6682  1.3207
  404TMC3    H2 6092   4.444   1.523  13.198  1.1171  2.4427 -1.5800
  404TMC3    C7 6093   4.690   1.484  13.094  0.3032 -0.6610 -0.2056
  404TMC3    C8 6094   4.386   1.610  13.434  0.2661 -0.2620  0.3485
  404TMC3    O1 6095   0.074   1.495  13.058  0.4716 -0.6196 -0.3681
  404TMC3    O2 6096   4.336   1.672  13.343 -0.4510  0.6710 -0.0209
  405MPD2     C 6097   0.579   2.123  14.880  0.0701 -0.4636  0.2676
  405MPD2    C1 6098   0.490   2.034  14.831 -0.2939  0.0644  0.1187
  405MPD2    C2 6099   0.402   2.081  14.740  0.0878  0.1280  0.4294
  405MPD2    C3 6100   0.412   2.207  14.681 -0.0305  0.2272  0.2159
  405MPD2    C4 6101   0.495   2.291  14.742 -0.8394 -0.2041 -0.0236
  405MPD2    C5 6102   0.574   2.246  14.843  0.0511  0.3495  0.0132
  405MPD2     H 6103   0.324   2.015  14.702  1.5857 -0.4062 -1.7046
  405MPD2    H1 6104   0.495   2.396  14.714 -1.8300 -0.6792 -1.7983
  405MPD2    H2 6105   0.651   2.109  14.960 -1.0505  1.6457  1.6448
  405MPD2    H3 6106   0.641   2.322  14.882  0.8615 -0.3428 -0.0336
  405MPD2     N 6107   0.314   2.232  14.583  0.4950 -0.1871  0.2525
  405MPD2    H5 6108   0.255   2.151  14.564  1.9294 -0.5378 -2.7719
  405MPD2    N1 6109   0.490   1.899  14.869 -0.3189 -0.0750 -0.2704
  405MPD2    H7 6110   0.536   1.881  14.958  0.6399  3.7287 -0.0090
  406TMC3    C1 6111   4.721   2.455  14.369  0.0783 -0.0268 -0.6953
  406TMC3    C2 6112   4.657   2.336  14.372 -0.3772  0.8121 -0.1478
  406TMC3    C3 6113   4.725   2.218  14.391  0.6471 -0.1397 -0.4879
  406TMC3    C4 6114   0.116   2.458  14.408 -0.3613 -0.1780 -0.0537
  406TMC3    C5 6115   0.178   2.345  14.440  0.4203 -0.0782 -0.6046
  406TMC3    C6 6116   0.124   2.224  14.409  0.5412 -0.1171  0.6092
  406TMC3     C 6117   4.647   2.574  14.408  0.3650  0.2654  0.4392
  406TMC3     O 6118   4.708   2.678  14.392 -0.7500  0.3257  1.1483
  406TMC3     H 6119   4.550   2.334  14.356 -0.2876 -2.9975 -0.1586
  406TMC3    H1 6120   0.181   2.545  14.400  0.2709 -0.5412  1.0553
  406TMC3    H2 6121   0.181   2.133  14.421  0.7165 -0.3816 -2.1051
  406TMC3    C7 6122   0.302   2.346  14.517 -0.1491 -0.1882 -0.2870
  406TMC3    C8 6123   4.645   2.103  14.423 -0.3528 -0.0206 -0.7161
  406TMC3    O1 6124   0.362   2.450  14.512  0.2796  0.3812  0.4324
  406TMC3    O2 6125   4.525   2.110  14.404  0.2744 -0.2332  0.7230
  407MPD2     C 6126   2.614   4.134   9.842  0.3731 -0.7430  0.4014
  407MPD2    C1 6127   2.747   4.131   9.889 -0.4238 -0.1799 -0.9064
  407MPD2    C2 6128   2.793   4.209   9.996 -0.5084 -0.5824  0.2895
  407MPD2    C3 6129   2.694   4.286  10.063  0.1175  0.6147  0.1388
  407MPD2    C4 6130   2.561   4.280  10.021 -0.4537  0.2982  0.3125
  407MPD2    C5 6131   2.525   4.208   9.910 -0.2796  0.2328 -0.5805
  407MPD2     H 6132   2.896   4.210  10.030 -1.1861 -1.0461  2.2934
  407MPD2    H1 6133   2.481   4.343  10.057  0.7476  1.1534  1.4776
  407MPD2    H2 6134   2.577   4.075   9.759 -0.6493  1.4950 -0.7201
  407MPD2    H3 6135   2.426   4.216   9.867 -0.8492 -0.7888  0.5571
  407MPD2     N 6136   2.727   4.380  10.160 -0.2023 -0.3578  0.3001
  407MPD2    H5 6137   2.648   4.434  10.193 -1.1321 -0.3985 -1.8623
  407MPD2    N1 6138   2.849   4.059   9.811 -0.4893 -0.0181  0.6452
  407MPD2    H7 6139   2.948   4.067   9.833 -0.4469  1.3324 -0.0035
  408TMC3    C1 6140   2.927   3.917   9.636 -0.0432 -0.2775  0.7484
  408TMC3    C2 6141   2.934   3.778   9.612 -0.6640 -1.2694 -0.9052
  408TMC3    C3 6142   3.056   3.727   9.573  0.6450  0.0584  0.2555
  408TMC3    C4 6143   3.028   4.004   9.606  1.2935  0.7485  0.2841
  408TMC3    C5 6144   3.146   3.945   9.566 -1.2868  0.2112 -0.0485
  408TMC3    C6 6145   3.163   3.812   9.544  0.2695 -1.0380 -0.1607
  408TMC3     C 6146   2.818   3.964   9.714 -0.8052 -0.1091 -0.0394
  408TMC3     O 6147   2.714   3.909   9.687 -1.1503  0.2042  0.1729
  408TMC3     H 6148   2.855   3.722   9.660 -1.3836 -0.7011 -1.4071
  408TMC3    H1 6149   3.017   4.107   9.639 -0.9429  0.3481  0.7926
  408TMC3    H2 6150   3.258   3.769   9.513 -0.3449 -2.3047 -0.3182
  408TMC3    C7 6151   3.263   4.030   9.548 -0.0214  0.6284  0.1927
  408TMC3    C8 6152   3.101   3.609   9.645  0.3928 -0.4097  0.0500
  408TMC3    O1 6153   3.373   3.974   9.546  0.5739  0.7193  0.3361
  408TMC3    O2 6154   3.029   3.510   9.645  0.2091 -0.1330  0.0903
  409MPD2     C 6155   2.056   4.603  17.204 -0.4731 -0.4591 -0.1201
  409MPD2    C1 6156   2.175   4.570  17.259  0.4490  0.1528 -0.0996
  409MPD2    C2 6157   2.290   4.635  17.218 -0.2288 -0.7579 -0.4168
  409MPD2    C3 6158   2.289   0.006  17.125  0.1930  0.4292 -0.1306
  409MPD2    C4 6159   2.171   0.046  17.069  0.0386  0.4257 -0.3022
  409MPD2    C5 6160   2.055   4.711  17.111  0.3231 -0.5729  0.1455
  409MPD2     H 6161   2.387   4.604  17.252  0.2687  1.6275  0.3175
  409MPD2    H1 6162   2.161   0.125  16.995  2.5182  0.3006 -0.7633
  409MPD2    H2 6163   1.960   4.564  17.234 -1.2208  0.2438 -1.5837
  409MPD2    H3 6164   1.962   0.009  17.066  1.0421  2.0784  0.6111
  409MPD2     N 6165   2.405   0.089  17.094 -0.3181 -0.5424  0.2640
  409MPD2    H5 6166   2.393   0.175  17.042 -1.2219 -0.9073 -0.1211
  409MPD2    N1 6167   2.189   4.478  17.364 -0.8326  0.6443 -0.2021
  409MPD2    H7 6168   2.285   4.455  17.389 -1.2776  0.2978  1.1722
  410TMC3    C1 6169   2.638   0.127  17.044  0.6093 -0.3156  0.3696
  410TMC3    C2 6170   2.766   0.107  17.073 -0.2537  1.1070 -0.5472
  410TMC3    C3 6171   2.855   0.194  17.033  0.4161 -0.0156  0.7515
  410TMC3    C4 6172   2.594   0.219  16.955 -0.4220  0.3003  0.4491
  410TMC3    C5 6173   2.687   0.321  16.925 -0.1338 -0.6073 -0.1312
  410TMC3    C6 6174   2.812   0.304  16.966 -0.2423 -0.6052  0.7436
  410TMC3     C 6175   2.537   0.046  17.111  0.0908 -0.4700  0.1284
  410TMC3     O 6176   2.581   4.679  17.164  0.1169  0.5323 -0.3190
  410TMC3     H 6177   2.800   0.023  17.132 -0.1540  0.3239 -1.7014
  410TMC3    H1 6178   2.497   0.217  16.909  0.4270  0.2771 -1.3170
  410TMC3    H2 6179   2.890   0.376  16.943 -0.4829 -0.7954 -0.6729
  410TMC3    C7 6180   2.644   0.425  16.828  0.1527  0.3732 -0.0166
  410TMC3    C8 6181   2.989   0.192  17.085 -0.1600  0.4010  0.6065
  410TMC3    O1 6182   2.535   0.389  16.783 -0.0515 -0.3578  0.0260
  410TMC3    O2 6183   3.038   0.299  17.118 -0.5774 -0.3469 -0.0866
  411MPD2     C 6184   3.047   0.651  14.870 -0.7233 -0.2297  0.9066
  411MPD2    C1 6185   2.924   0.640  14.934 -0.5103  0.0630  0.1456
  411MPD2    C2 6186   2.844   0.524  14.940  0.1342  0.1646  0.3236
  411MPD2    C3 6187   2.875   0.416  14.865 -0.1486 -0.2245  0.0746
  411MPD2    C4 6188   3.005   0.415  14.821 -0.2353 -0.0556  0.3886
  411MPD2    C5 6189   3.084   0.531  14.816 -0.3370  0.1107 -0.4879
  411MPD2     H 6190   2.746   0.533  14.985  0.8587  1.0902  1.7193
  411MPD2    H1 6191   3.032   0.321  14.774 -0.8482 -0.6892  1.3193
  411MPD2    H2 6192   3.113   0.736  14.865 -0.1328 -0.7601 -0.3689
  411MPD2    H3 6193   3.182   0.526  14.770  0.2245 -0.3810  0.7615
  411MPD2     N 6194   2.795   0.296  14.851  0.2603 -0.6892 -0.7100
  411MPD2    H5 6195   2.820   0.239  14.771 -1.0215 -1.3181 -0.6761
  411MPD2    N1 6196   2.866   0.762  14.970  0.4911  0.1730 -0.0447
  411MPD2    H7 6197   2.906   0.844  14.925 -0.0299 -0.0915 -1.0031
  412TMC3    C1 6198   2.594   0.176  14.847 -0.4329 -0.4511 -0.6922
  412TMC3    C2 6199   2.474   0.149  14.907  0.3436  0.5327 -0.8041
  412TMC3    C3 6200   2.391   0.069  14.837 -0.4099 -0.1702  0.4857
  412TMC3    C4 6201   2.625   0.139  14.721  0.4997 -0.8928  0.9572
  412TMC3    C5 6202   2.541   0.055  14.655 -0.5059  0.2025  0.5033
  412TMC3    C6 6203   2.430   0.004  14.723 -0.5942 -0.1706 -0.3051
  412TMC3     C 6204   2.672   0.280  14.905 -0.2592 -0.4179 -0.3380
  412TMC3     O 6205   2.625   0.329  15.006 -0.2553  0.5040 -0.5571
  412TMC3     H 6206   2.457   0.195  15.004  0.4215 -1.7953  0.3019
  412TMC3    H1 6207   2.708   0.187  14.670 -0.4903 -1.6436 -1.3501
  412TMC3    H2 6208   2.371   4.664  14.673 -2.5076  0.6777  0.6663
  412TMC3    C7 6209   2.514   0.081  14.519 -0.0870  0.4188  0.6400
  412TMC3    C8 6210   2.247   0.061  14.852 -0.5276 -0.5707  0.4369
  412TMC3    O1 6211   2.420   0.017  14.469 -0.5166 -0.0285  0.0141
  412TMC3    O2 6212   2.194   0.045  14.959  0.4528  0.0481  0.4490
  413MPD2     C 6213   4.405   3.344  15.813  0.2123  0.4093  0.2301
  413MPD2    C1 6214   4.446   3.374  15.687 -0.2497 -0.2278  0.1452
  413MPD2    C2 6215   4.535   3.292  15.618 -0.4944 -0.2801 -0.4333
  413MPD2    C3 6216   4.585   3.182  15.673  0.1299 -0.0883  0.2962
  413MPD2    C4 6217   4.548   3.150  15.799 -0.0802 -0.0300  0.5013
  413MPD2    C5 6218   4.451   3.226  15.863  0.2244 -0.3162 -0.3343
  413MPD2     H 6219   4.549   3.317  15.513 -3.7615  3.1005 -0.0764
  413MPD2    H1 6220   4.580   3.063  15.856  1.1917 -0.2715 -0.5871
  413MPD2    H2 6221   4.327   3.398  15.867  0.0953  0.2983  0.1726
  413MPD2    H3 6222   4.419   3.192  15.961 -1.2878 -0.9822 -1.0464
  413MPD2     N 6223   4.679   3.111  15.595 -0.1329 -0.1524  0.1770
  413MPD2    H5 6224   4.694   3.142  15.500 -0.8122  1.9167  0.7404
  413MPD2    N1 6225   4.388   3.491  15.636  0.6311 -0.4585 -0.0887
  413MPD2    H7 6226   4.310   3.534  15.684  2.3903  1.5955  0.9678
  414TMC3    C1 6227   0.112   2.943  15.544 -0.3424  0.0426 -0.2857
  414TMC3    C2 6228   0.147   2.812  15.561 -0.7809  0.2764  0.0117
  414TMC3    C3 6229   0.225   2.754  15.459  0.3844 -0.4681 -0.1843
  414TMC3    C4 6230   0.136   3.017  15.429 -0.0148  0.5669  0.6711
  414TMC3    C5 6231   0.213   2.948  15.336  0.6814 -0.4144 -0.4481
  414TMC3    C6 6232   0.253   2.819  15.346  0.5007 -0.2848  0.0950
  414TMC3     C 6233   0.014   2.997  15.640  0.5926  0.0345  0.1004
  414TMC3     O 6234   4.722   2.935  15.744  0.2405  0.0783 -0.4547
  414TMC3     H 6235   0.115   2.759  15.650  1.5052  0.0561  0.7075
  414TMC3    H1 6236   0.137   3.125  15.430  1.2910  0.5468  1.4703
  414TMC3    H2 6237   0.296   2.766  15.262 -1.0928 -0.0082 -0.9025
  414TMC3    C7 6238   0.232   3.019  15.210 -1.0431  0.4857 -0.1754
  414TMC3    C8 6239   0.227   2.612  15.448 -0.8568  0.4376 -0.2245
  414TMC3    O1 6240   0.178   3.129  15.194  0.3685 -0.0201 -0.1786
  414TMC3    O2 6241   0.125   2.546  15.464  0.4518  0.2727 -0.4402
  415TMC3    C1 6242   0.011   1.416   9.533 -0.3637 -0.2073  0.0715
  415TMC3    C2 6243   0.105   1.496   9.474 -0.2893  0.1095  0.3384
  415TMC3    C3 6244   0.064   1.622   9.446  0.8388 -0.2043  0.3649
  415TMC3    C4 6245   4.615   1.452   9.545 -0.2183  0.1220 -0.0289
  415TMC3    C5 6246   4.581   1.575   9.507 -0.0839 -0.7366 -0.5267
  415TMC3    C6 6247   4.668   1.662   9.450  0.1145  0.1239  0.2217
  415TMC3     C 6248   0.040   1.277   9.561  0.0694 -0.4439 -0.4467
  415TMC3     O 6249   4.677   1.208   9.547  0.2434  0.0135 -0.8402
  415TMC3     H 6250   0.203   1.455   9.452 -0.0565  1.1201 -0.4907
  415TMC3    H1 6251   4.552   1.384   9.602 -1.3639  0.5776 -0.7493
  415TMC3    H2 6252   4.630   1.757   9.415 -0.8948 -0.0343  0.8554
  415TMC3    C7 6253   4.445   1.626   9.519  0.1963 -0.7759  0.5841
  415TMC3    C8 6254   0.166   1.727   9.419  0.7039 -0.1600  0.3046
  415TMC3    O1 6255   4.415   1.728   9.460  0.2012 -0.3760 -0.2171
  415TMC3    O2 6256   0.132   1.849   9.436 -0.1087  0.2249  0.2308
  416MPD2     C 6257   1.986   0.740  11.348 -0.2874 -0.8143 -0.5453
  416MPD2    C1 6258   1.899   0.657  11.404 -0.0429 -0.5703  0.6018
  416MPD2    C2 6259   1.899   0.523  11.372  0.2377 -0.2412  0.2879
  416MPD2    C3 6260   1.987   0.474  11.275 -0.7095  0.9027  0.4271
  416MPD2    C4 6261   2.084   0.557  11.222  0.0775  0.3992 -0.1094
  416MPD2    C5 6262   2.073   0.685  11.257  0.1491 -0.3385  0.2099
  416MPD2     H 6263   1.827   0.448  11.402  0.3324 -0.5723 -0.3001
  416MPD2    H1 6264   2.152   0.531  11.142  0.4692 -2.7122  1.2565
  416MPD2    H2 6265   1.991   0.846  11.370 -0.8100 -1.1314  1.0623
  416MPD2    H3 6266   2.153   0.741  11.212  0.5104 -0.6203  0.5057
  416MPD2     N 6267   1.992   0.336  11.232 -0.1672 -0.1394 -0.4864
  416MPD2    H5 6268   2.058   0.320  11.157 -0.7507  2.1703 -1.4825
  416MPD2    N1 6269   1.793   0.708  11.488  0.6435  0.1629  0.1627
  416MPD2    H7 6270   1.762   0.804  11.483 -0.9134 -0.4111 -0.9916
  417TMC3    C1 6271   1.582   0.673  11.606  0.2299 -0.2263  0.1379
  417TMC3    C2 6272   1.507   0.589  11.683  0.3689  0.4342 -0.3034
  417TMC3    C3 6273   1.381   0.629  11.711 -1.1898 -0.1878 -0.2203
  417TMC3    C4 6274   1.529   0.768  11.524 -0.0620 -0.0312  0.2272
  417TMC3    C5 6275   1.396   0.793  11.545  1.2729 -0.0304 -0.0088
  417TMC3    C6 6276   1.319   0.724  11.634 -0.5848 -0.1547 -0.1144
  417TMC3     C 6277   1.715   0.621  11.570 -0.0960 -0.1150  0.7028
  417TMC3     O 6278   1.738   0.504  11.612 -0.5335 -0.0657  0.6608
  417TMC3     H 6279   1.552   0.505  11.735  1.0436  0.9518 -0.0498
  417TMC3    H1 6280   1.575   0.821  11.441 -1.3326 -0.1332 -0.5515
  417TMC3    H2 6281   1.236   0.779  11.679 -0.9372 -0.3073 -0.5815
  417TMC3    C7 6282   1.329   0.846  11.431  0.1235 -1.2132  0.1913
  417TMC3    C8 6283   1.329   0.614  11.842  0.0559  0.3564 -0.2452
  417TMC3    O1 6284   1.396   0.917  11.351 -0.3322 -0.1049 -0.5843
  417TMC3    O2 6285   1.280   0.715  11.898 -0.5943  0.4047 -0.2922
  418TMC3    C1 6286   0.247   2.799   0.397  0.0271  0.0548  0.3331
  418TMC3    C2 6287   0.167   2.759   0.290  0.5371  0.1012 -0.4760
  418TMC3    C3 6288   0.121   2.629   0.296 -0.4014  0.3949  0.1570
  418TMC3    C4 6289   0.276   2.712   0.497  0.6346 -0.2258  0.1103
  418TMC3    C5 6290   0.218   2.591   0.496  0.2412 -0.0041 -0.4469
  418TMC3    C6 6291   0.133   2.553   0.405 -0.2316  0.1304 -0.2579
  418TMC3     C 6292   0.354   2.889   0.355 -0.0795  0.1534 -0.4275
  418TMC3     O 6293   0.329   2.997   0.302 -0.4630  0.7342 -0.3250
  418TMC3     H 6294   0.171   2.816   0.198 -3.6965 -0.5958 -1.0990
  418TMC3    H1 6295   0.347   2.736   0.576  0.1786  2.7152 -0.3581
  418TMC3    H2 6296   0.092   2.453   0.408  1.0823 -0.4591 -2.0646
  418TMC3    C7 6297   0.240   2.500   0.602  0.5459 -0.4009  0.5230
  418TMC3    C8 6298   0.051   2.576   0.178 -0.3686  0.2158 -0.1493
  418TMC3    O1 6299   0.222   2.385   0.565  0.2668 -0.0477  0.5051
  418TMC3    O2 6300   0.007   2.664   0.106  0.1206  0.7890  1.1986
  419MPD2     C 6301   4.162   0.294  12.374 -0.5925  0.7939 -0.6668
  419MPD2    C1 6302   4.081   0.404  12.381  0.1284  0.4996  0.0040
  419MPD2    C2 6303   4.036   0.456  12.500  0.6735 -0.3546 -0.7376
  419MPD2    C3 6304   4.060   0.381  12.613 -0.1857  0.1377 -0.4283
  419MPD2    C4 6305   4.129   0.264  12.603  0.1681 -0.3943 -0.5849
  419MPD2    C5 6306   4.173   0.214  12.478  0.2211 -0.1045 -0.0798
  419MPD2     H 6307   3.989   0.553  12.500  1.0788 -0.1558  1.1034
  419MPD2    H1 6308   4.127   0.194  12.686  3.1172 -1.6541 -1.5652
  419MPD2    H2 6309   4.206   0.266  12.280 -0.5748  0.4650 -0.5592
  419MPD2    H3 6310   4.218   0.116  12.468 -2.6560 -1.6757  2.4211
  419MPD2     N 6311   4.004   0.427  12.736  0.4755  0.2235  0.4306
  419MPD2    H5 6312   3.950   0.513  12.733 -2.7304 -1.9006 -2.8532
  419MPD2    N1 6313   4.055   0.483  12.269  0.1917 -0.2214  0.2801
  419MPD2    H7 6314   3.997   0.565  12.281  0.9592  0.5066 -0.9911
  420TMC3    C1 6315   3.894   0.425  12.933  0.5656 -0.1346 -0.0134
  420TMC3    C2 6316   3.770   0.455  12.873 -0.0490  0.2979 -0.0095
  420TMC3    C3 6317   3.665   0.484  12.956 -0.7720 -0.3081  0.6063
  420TMC3    C4 6318   3.905   0.420  13.065  0.5752  0.5414  1.2574
  420TMC3    C5 6319   3.802   0.449  13.150  0.4612 -0.2218 -0.4110
  420TMC3    C6 6320   3.682   0.488  13.094 -0.3877 -0.3231  0.2059
  420TMC3     C 6321   4.008   0.365  12.853  0.1019  0.6604 -0.3176
  420TMC3     O 6322   4.090   0.287  12.906 -0.5394  0.2689  0.1951
  420TMC3     H 6323   3.750   0.454  12.767  0.0338 -0.3328 -0.0195
  420TMC3    H1 6324   3.994   0.379  13.110  1.5853  2.4530  1.0095
  420TMC3    H2 6325   3.622   0.555  13.155 -2.8069 -1.6177 -0.7314
  420TMC3    C7 6326   3.826   0.439  13.293  0.3382  0.8191 -0.3371
  420TMC3    C8 6327   3.547   0.543  12.899  0.2800  0.2247 -0.9385
  420TMC3    O1 6328   3.934   0.480  13.332  0.4557  0.8452 -0.2837
  420TMC3    O2 6329   3.563   0.601  12.792  0.3553  0.1449  0.1012
  421TMC3    C1 6330   0.565   1.297  14.103  0.0522 -0.1117  0.3731
  421TMC3    C2 6331   0.483   1.410  14.122  0.6848  0.5919 -0.9068
  421TMC3    C3 6332   0.539   1.525  14.174  0.6835  0.0532 -0.2077
  421TMC3    C4 6333   0.698   1.298  14.136 -0.9593 -0.1037 -0.2358
  421TMC3    C5 6334   0.751   1.418  14.178 -0.2808 -0.3415  0.4406
  421TMC3    C6 6335   0.678   1.535  14.185 -0.1978  0.7738 -0.3590
  421TMC3     C 6336   0.541   1.216  13.983  0.0003 -0.2879 -0.3025
  421TMC3     O 6337   0.602   1.112  13.962  0.1750  0.6460  0.8092
  421TMC3     H 6338   0.376   1.403  14.105  0.7297  0.5642 -1.1813
  421TMC3    H1 6339   0.757   1.210  14.112 -0.5528  0.1582 -0.1800
  421TMC3    H2 6340   0.715   1.627  14.229  0.9911 -0.4154  1.1958
  421TMC3    C7 6341   0.892   1.427  14.200 -0.5045 -1.1265 -0.0201
  421TMC3    C8 6342   0.460   1.644  14.170 -0.4397 -0.7073 -0.0057
  421TMC3    O1 6343   0.937   1.540  14.204  0.1365 -0.3599  0.3711
  421TMC3    O2 6344   0.507   1.745  14.118 -0.8445  0.6118  0.1084
  422TMC3    C1 6345   2.694   3.635  12.656 -0.9539 -0.0715  0.0421
  422TMC3    C2 6346   2.753   3.564  12.763  0.4082  0.1993  0.7497
  422TMC3    C3 6347   2.707   3.604  12.892  0.4203 -0.2346  0.1441
  422TMC3    C4 6348   2.583   3.715  12.666  0.4481  0.6997 -0.3205
  422TMC3    C5 6349   2.553   3.754  12.793 -0.0166  0.2704 -0.2541
  422TMC3    C6 6350   2.608   3.699  12.900 -0.0726  1.0865 -0.2366
  422TMC3     C 6351   2.746   3.607  12.522 -0.4569  0.3685 -0.6502
  422TMC3     O 6352   2.850   3.544  12.521  0.1933  0.4557 -0.6202
  422TMC3     H 6353   2.846   3.510  12.756  0.0752 -0.2874  0.1488
  422TMC3    H1 6354   2.538   3.757  12.577 -2.1801  0.4418  0.9066
  422TMC3    H2 6355   2.599   3.749  12.996 -0.9345 -1.1874  0.8580
  422TMC3    C7 6356   2.417   3.808  12.802  0.0549 -0.5161  0.3653
  422TMC3    C8 6357   2.813   3.615  12.991  0.3277  0.0191  0.6210
  422TMC3    O1 6358   2.379   3.877  12.710  0.3729 -0.6318  0.1011
  422TMC3    O2 6359   2.879   3.718  12.985 -0.3511 -0.3576 -0.3441
  423MPD2     C 6360   4.250   4.570   0.514 -0.1963 -0.1751 -0.2674
  423MPD2    C1 6361   4.134   4.492   0.525  0.2105  0.7020 -0.4457
  423MPD2    C2 6362   4.139   4.370   0.459  0.1238  0.1540  0.1758
  423MPD2    C3 6363   4.247   4.330   0.386 -0.1792 -0.2669  0.6755
  423MPD2    C4 6364   4.347   4.422   0.365 -0.1620  0.4361  0.7626
  423MPD2    C5 6365   4.351   4.537   0.428  0.0042  0.0141  0.4285
  423MPD2     H 6366   4.049   4.309   0.458  0.7056 -0.7200  0.4326
  423MPD2    H1 6367   4.421   4.390   0.292 -1.2076 -0.8873  0.2771
  423MPD2    H2 6368   4.270   4.652   0.582 -2.0904 -0.3298  0.4491
  423MPD2    H3 6369   4.438   4.600   0.413 -0.6675  0.6132 -0.8870
  423MPD2     N 6370   4.244   4.215   0.308  0.1838  0.2864  0.3099
  423MPD2    H5 6371   4.323   4.201   0.246 -0.7302  1.1841 -1.0578
  423MPD2    N1 6372   4.021   4.539   0.588 -0.9023  0.2664 -0.1251
  423MPD2    H7 6373   3.942   4.475   0.593 -0.0885 -0.6865  0.4275
  424TMC3    C1 6374   3.855   4.684   0.678 -0.4739  0.2950 -0.6573
  424TMC3    C2 6375   3.779   4.571   0.721 -0.2596 -0.7017 -0.4858
  424TMC3    C3 6376   3.645   4.591   0.750 -0.0612 -0.8210 -0.2544
  424TMC3    C4 6377   3.790   0.071   0.660  0.0236 -0.0230  0.4589
  424TMC3    C5 6378   3.661   0.086   0.698 -0.3694  0.3582 -0.4467
  424TMC3    C6 6379   3.588   4.716   0.745  0.3491  0.3387 -0.2193
  424TMC3     C 6380   3.991   4.670   0.620 -0.9471  0.0799 -0.0730
  424TMC3     O 6381   4.055   0.038   0.610 -0.1142  0.1128 -0.2090
  424TMC3     H 6382   3.838   4.482   0.739 -0.2110 -1.1150 -2.7372
  424TMC3    H1 6383   3.841   0.161   0.626 -1.7598  0.9595  0.3841
  424TMC3    H2 6384   3.481   4.716   0.764 -0.0429  1.3627 -2.4153
  424TMC3    C7 6385   3.604   0.221   0.702 -0.2786 -0.1239  0.1753
  424TMC3    C8 6386   3.588   4.494   0.844 -0.8057  0.2143  0.1286
  424TMC3    O1 6387   3.654   0.315   0.640 -0.8227  0.0143 -0.2376
  424TMC3    O2 6388   3.475   4.514   0.890 -0.5656  0.1729 -0.2641
  425MPD2     C 6389   3.092   3.647  17.691 -0.4243  0.6826  0.0301
  425MPD2    C1 6390   3.024   3.559  17.608 -0.2868  0.3731 -0.5218
  425MPD2    C2 6391   2.888   3.578  17.594  0.3063 -0.0171  0.4671
  425MPD2    C3 6392   2.824   3.650  17.692 -0.3081  0.9260  0.8017
  425MPD2    C4 6393   2.893   3.732   0.042  0.6514  0.0996 -0.1183
  425MPD2    C5 6394   3.026   3.744   0.031 -0.2153  0.1088 -0.0809
  425MPD2     H 6395   2.831   3.512  17.529  4.0099 -3.3160  0.6112
  425MPD2    H1 6396   2.849   3.793   0.120  0.8643  1.0239 -0.7202
  425MPD2    H2 6397   3.200   3.657  17.689 -0.1626 -1.3673  3.8726
  425MPD2    H3 6398   3.087   3.819   0.079 -1.2582  2.3366 -2.2142
  425MPD2     N 6399   2.688   3.655  17.675 -0.7732 -0.6377 -0.0759
  425MPD2    H5 6400   2.642   3.591  17.611  0.5877  0.5307 -2.2297
  425MPD2    N1 6401   3.094   3.463  17.532 -0.2080  0.3645  0.0584
  425MPD2    H7 6402   3.037   3.400  17.476 -0.6777  0.4834  0.4035
  426TMC3    C1 6403   3.257   3.303  17.497 -0.0059 -0.2263  0.6087
  426TMC3    C2 6404   3.209   3.276  17.373  0.4342  0.0459  0.1955
  426TMC3    C3 6405   3.215   3.144  17.329 -0.0428 -0.9682  0.2420
  426TMC3    C4 6406   3.314   3.209  17.577 -0.2346  0.1996  0.1753
  426TMC3    C5 6407   3.327   3.081  17.529  0.0282 -0.6065 -0.1150
  426TMC3    C6 6408   3.286   3.054  17.396 -0.1431 -0.0234 -0.9007
  426TMC3     C 6409   3.218   3.421  17.564 -0.4282 -0.2323  0.0057
  426TMC3     O 6410   3.298   3.461  17.648  0.0832 -0.1610 -0.5018
  426TMC3     H 6411   3.158   3.350  17.313  0.2412 -1.2438 -1.2052
  426TMC3    H1 6412   3.372   3.240  17.663  1.4612 -1.6931 -0.2724
  426TMC3    H2 6413   3.287   2.957  17.347 -0.5759 -0.5811  0.1874
  426TMC3    C7 6414   3.277   2.986  17.621 -0.2298 -0.2155  0.5586
  426TMC3    C8 6415   3.182   3.119  17.188  0.3699 -0.3372  0.3575
  426TMC3    O1 6416   3.287   2.871  17.584  0.4925  0.2249  0.0209
  426TMC3    O2 6417   3.246   3.030  17.136  1.0127 -0.4980 -0.1348
  427MPD2     C 6418   2.015   0.822  15.022  0.7162  0.4560 -0.1333
  427MPD2    C1 6419   1.971   0.718  15.099 -0.1238  0.0789 -0.0912
  427MPD2    C2 6420   1.842   0.677  15.083  0.1193  0.8810  0.0021
  427MPD2    C3 6421   1.752   0.744  15.003  0.9727  0.5416 -0.2027
  427MPD2    C4 6422   1.800   0.855  14.939 -0.1558  0.8287 -0.5884
  427MPD2    C5 6423   1.933   0.887  14.936 -0.6921 -0.5746  0.2488
  427MPD2     H 6424   1.812   0.610  15.163 -3.7671 -0.3888 -2.5065
  427MPD2    H1 6425   1.727   0.916  14.887 -0.0510 -0.7837 -2.6060
  427MPD2    H2 6426   2.115   0.860  15.037  0.9546 -0.2498  0.0692
  427MPD2    H3 6427   1.973   0.973  14.884 -0.4691 -1.6954 -1.4494
  427MPD2     N 6428   1.617   0.721  15.004  0.0970 -0.7538  0.7695
  427MPD2    H5 6429   1.562   0.793  14.957  1.7779 -2.2571 -3.4625
  427MPD2    N1 6430   2.050   0.644  15.194  0.1882  0.4276 -0.1086
  427MPD2    H7 6431   2.014   0.557  15.233  0.9180 -0.0090 -0.3987
  428TMC3    C1 6432   2.207   0.615  15.363 -0.1969 -0.4874 -0.0722
  428TMC3    C2 6433   2.133   0.510  15.412  0.2854  0.1210  0.1291
  428TMC3    C3 6434   2.172   0.455  15.534 -0.1048 -0.1053 -0.7999
  428TMC3    C4 6435   2.315   0.669  15.428 -0.1446 -0.0411 -0.2626
  428TMC3    C5 6436   2.351   0.614  15.547  0.0540  0.6645 -0.2026
  428TMC3    C6 6437   2.290   0.501  15.599  0.3154  0.3244  0.0089
  428TMC3     C 6438   2.170   0.696  15.242  0.8916 -0.5389 -0.0577
  428TMC3     O 6439   2.234   0.798  15.215  0.0714 -0.6710 -0.1048
  428TMC3     H 6440   2.041   0.471  15.371  1.0091 -1.9657  0.5065
  428TMC3    H1 6441   2.373   0.754  15.394  0.9218 -0.2505  0.9888
  428TMC3    H2 6442   2.341   0.442  15.674 -0.8884 -0.8568 -0.0834
  428TMC3    C7 6443   2.444   0.680  15.637 -0.2509 -0.8383 -0.0898
  428TMC3    C8 6444   2.096   0.345  15.590 -0.6556  0.2240  0.8089
  428TMC3    O1 6445   2.412   0.670  15.756  0.4441  0.2142 -0.3407
  428TMC3    O2 6446   1.995   0.316  15.530  0.2559  0.1566 -0.1737
  429MPD2     C 6447   2.822   0.875   0.413 -0.1827 -0.3015  0.3148
  429MPD2    C1 6448   2.774   0.832   0.290 -0.5837  0.2457 -0.0107
  429MPD2    C2 6449   2.836   0.862   0.174 -0.3217 -0.6542  0.5295
  429MPD2    C3 6450   2.955   0.935   0.178 -0.1382 -0.2188 -0.3279
  429MPD2    C4 6451   2.995   0.987   0.301  0.1385 -0.1034 -0.6326
  429MPD2    C5 6452   2.934   0.957   0.414 -0.8644 -0.1508 -0.1606
  429MPD2     H 6453   2.789   0.829   0.082 -1.8617 -0.9881  1.4353
  429MPD2    H1 6454   3.079   1.055   0.311  0.0426  0.2594 -2.3443
  429MPD2    H2 6455   2.780   0.849   0.509  1.3942  0.1555  1.1360
  429MPD2    H3 6456   2.979   1.000   0.503 -0.6355 -0.0075 -0.3494
  429MPD2     N 6457   3.023   0.956   0.055 -0.2120  0.3623  0.0753
  429MPD2    H5 6458   2.981   0.913  17.713  2.2628  1.1948 -1.6753
  429MPD2    N1 6459   2.662   0.748   0.280 -0.3716 -0.1857  0.9385
  429MPD2    H7 6460   2.651   0.700   0.191  2.0344  0.9094  0.0663
  430TMC3    C1 6461   3.210   0.995  17.646  0.2226  0.2580 -0.0974
  430TMC3    C2 6462   3.136   1.069  17.559  0.0682 -0.5191  0.3278
  430TMC3    C3 6463   3.207   1.135  17.464 -0.1477  0.3604  0.0769
  430TMC3    C4 6464   3.344   0.974  17.638 -0.0147  0.4478 -0.5198
  430TMC3    C5 6465   3.412   1.031  17.536  0.1044 -0.1636 -0.1474
  430TMC3    C6 6466   3.340   1.117  17.448  0.0692  0.2930  0.1690
  430TMC3     C 6467   3.156   0.995   0.044 -0.0970  0.1737  0.3643
  430TMC3     O 6468   3.228   1.035   0.134  0.4403 -0.4853  0.2448
  430TMC3     H 6469   3.028   1.080  17.566 -0.0283 -0.3069 -1.7331
  430TMC3    H1 6470   3.393   0.945  17.730 -1.6646  0.2476  0.2919
  430TMC3    H2 6471   3.388   1.179  17.374  0.5410  0.2161  0.4094
  430TMC3    C7 6472   3.512   0.947  17.485  0.7922  0.6613  0.2219
  430TMC3    C8 6473   3.134   1.205  17.358  0.6718 -0.4622  0.2869
  430TMC3    O1 6474   3.526   0.840  17.544 -0.4246  0.0647  0.3904
  430TMC3    O2 6475   3.185   1.205  17.246  0.0899 -0.0340 -0.3141
  431MPD2     C 6476   3.616   1.068  12.429 -1.2520 -0.1669  0.1356
  431MPD2    C1 6477   3.714   1.111  12.339  0.5809  0.3406 -0.0343
  431MPD2    C2 6478   3.740   1.026  12.229  0.0233 -0.2380 -0.0430
  431MPD2    C3 6479   3.679   0.903  12.220  0.9420  0.6322  0.4269
  431MPD2    C4 6480   3.589   0.860  12.307  0.9013  0.4044 -0.1017
  431MPD2    C5 6481   3.555   0.947  12.416  0.1153  0.9839 -0.2496
  431MPD2     H 6482   3.817   1.062  12.162  0.4128 -0.6851  0.1653
  431MPD2    H1 6483   3.535   0.767  12.296 -0.0966  1.0188 -0.4091
  431MPD2    H2 6484   3.577   1.127  12.511  0.5595  1.4549 -0.1724
  431MPD2    H3 6485   3.466   0.930  12.474  0.7696 -0.9733  0.2139
  431MPD2     N 6486   3.732   0.804  12.128 -0.1768 -0.0355  0.1526
  431MPD2    H5 6487   3.707   0.706  12.136 -1.8244  0.3979  0.3337
  431MPD2    N1 6488   3.790   1.227  12.343  0.0658  0.2463  0.2315
  431MPD2    H7 6489   3.860   1.238  12.270  0.5349 -1.2452  0.4650
  432TMC3    C1 6490   3.868   0.710  11.971 -0.4468 -0.1004 -0.2855
  432TMC3    C2 6491   3.931   0.725  11.856 -0.2279  0.6013  0.5737
  432TMC3    C3 6492   4.043   0.653  11.831 -0.0497  0.0531  0.4627
  432TMC3    C4 6493   3.908   0.616  12.068 -0.5561  0.2270 -0.3318
  432TMC3    C5 6494   4.030   0.551  12.046 -0.1424 -0.1607 -0.1391
  432TMC3    C6 6495   4.095   0.563  11.921 -0.7684  0.1022 -0.1672
  432TMC3     C 6496   3.810   0.829  12.018  0.0868 -0.0615 -0.1567
  432TMC3     O 6497   3.837   0.936  11.957 -0.0850  0.1796  0.3144
  432TMC3     H 6498   3.901   0.801  11.784  3.8610 -0.1525 -1.8778
  432TMC3    H1 6499   3.852   0.597  12.159  0.9425  0.8556  0.7187
  432TMC3    H2 6500   4.197   0.529  11.904 -0.6267  1.1201 -1.3460
  432TMC3    C7 6501   4.105   0.470  12.141  0.1782 -0.0141  0.2152
  432TMC3    C8 6502   4.135   0.712  11.744 -0.0046  0.8539 -0.3589
  432TMC3    O1 6503   4.187   0.392  12.095  0.2984 -0.2877  0.0048
  432TMC3    O2 6504   4.098   0.754  11.631  0.0351  0.4049  0.2236
  433MPD2     C 6505   3.027   4.654  10.912 -1.0100  0.1107 -0.2263
  433MPD2    C1 6506   3.024   4.534  10.978 -0.3919  0.0153 -0.1984
  433MPD2    C2 6507   3.097   4.533  11.095  0.2499 -0.1009 -0.0352
  433MPD2    C3 6508   3.168   4.646  11.139 -0.2732 -0.6941  0.4693
  433MPD2    C4 6509   3.176   0.021  11.061  0.7214  0.2494 -0.2792
  433MPD2    C5 6510   3.117   0.019  10.940  0.2898  0.2697  1.0822
  433MPD2     H 6511   3.077   4.446  11.157 -0.6999  0.1751  0.0498
  433MPD2    H1 6512   3.234   0.108  11.088  1.1135 -0.0467 -0.1610
  433MPD2    H2 6513   2.963   4.660  10.825 -0.0095  1.2246 -0.8698
  433MPD2    H3 6514   3.130   0.095  10.864  2.4096  0.4615  1.6458
  433MPD2     N 6515   3.231   4.633  11.263  0.0760 -0.6939 -0.3141
  433MPD2    H5 6516   3.223   4.541  11.305 -2.1520  0.1171  1.0230
  433MPD2    N1 6517   2.944   4.421  10.940  0.0360 -0.0146 -0.0353
  433MPD2    H7 6518   2.937   4.336  10.996 -0.5285  0.9772  1.3916
  434TMC3    C1 6519   2.828   4.269  10.788  0.0976 -0.1282 -0.2689
  434TMC3    C2 6520   2.875   4.158  10.855  0.8035 -0.2842  0.5439
  434TMC3    C3 6521   2.848   4.031  10.818 -0.1224 -0.6364  0.5565
  434TMC3    C4 6522   2.737   4.252  10.691  0.3128  0.1425 -0.1387
  434TMC3    C5 6523   2.716   4.125  10.645  0.1141 -0.8030 -0.2508
  434TMC3    C6 6524   2.763   4.010  10.713  0.6356  0.7303  0.0231
  434TMC3     C 6525   2.881   4.408  10.815 -0.0080 -0.6968 -0.2623
  434TMC3     O 6526   2.885   4.489  10.721  0.4863  0.2858  0.5847
  434TMC3     H 6527   2.943   4.175  10.938  0.3070  1.7087  0.5324
  434TMC3    H1 6528   2.701   4.337  10.632  0.0241  0.0421 -0.1078
  434TMC3    H2 6529   2.764   3.907  10.679 -0.8335  1.0046 -0.8569
  434TMC3    C7 6530   2.701   4.108  10.500  0.4457  0.8201  0.2731
  434TMC3    C8 6531   2.932   3.927  10.886  0.0644 -0.1352 -1.3222
  434TMC3    O1 6532   2.704   4.200  10.418  0.2399  0.3275  0.2493
  434TMC3    O2 6533   2.988   3.960  10.988  0.3477  0.0202  0.4745
  435MPD2     C 6534   0.000   4.253  15.451 -0.4640 -0.1097 -0.2587
  435MPD2    C1 6535   4.702   4.230  15.579 -0.7890  0.1388 -0.8794
  435MPD2    C2 6536   0.054   4.155  15.659 -0.0944  0.2145 -0.6280
  435MPD2    C3 6537   0.176   4.112  15.607 -0.6577 -0.0708 -0.4897
  435MPD2    C4 6538   0.217   4.146  15.482 -0.6212 -0.0967 -0.4236
  435MPD2    C5 6539   0.126   4.221  15.405  0.2677  0.2744 -0.1830
  435MPD2     H 6540   0.025   4.124  15.758 -0.4023 -0.4285 -0.9151
  435MPD2    H1 6541   0.316   4.109  15.457  0.3786  2.8756 -0.8636
  435MPD2    H2 6542   4.671   4.302  15.379  1.0651  2.4704  0.1256
  435MPD2    H3 6543   0.164   4.246  15.307 -0.4144 -1.1351 -0.8080
  435MPD2     N 6544   0.243   4.017  15.686  0.8297  0.4836  0.2332
  435MPD2    H5 6545   0.194   3.981  15.767  1.5814 -2.2171 -0.4928
  435MPD2    N1 6546   4.581   4.273  15.637 -0.2462 -0.0308  0.1900
  435MPD2    H7 6547   4.565   4.250  15.735 -0.8047 -2.4753 -0.4694
  436TMC3    C1 6548   4.329   4.483  15.884  0.1742 -1.2664  0.0982
  436TMC3    C2 6549   4.426   4.433  15.798  0.0384  0.7941 -0.6357
  436TMC3    C3 6550   4.388   4.403  15.669 -0.0786 -0.4849 -0.2087
  436TMC3    C4 6551   4.202   4.499  15.835  0.0767  0.6937  0.1698
  436TMC3    C5 6552   4.179   4.482  15.698 -0.0926  0.3725 -0.2204
  436TMC3    C6 6553   4.270   4.421  15.619 -0.5759  0.1804 -0.2440
  436TMC3     C 6554   4.365   4.537  16.012 -0.4141  0.3308  0.1150
  436TMC3     O 6555   4.486   4.523  16.039  0.1140 -0.0341  0.0573
  436TMC3     H 6556   4.530   4.424  15.826  0.1835  2.4890 -0.6442
  436TMC3    H1 6557   4.127   4.554  15.891  0.6183  2.4935 -0.8695
  436TMC3    H2 6558   4.240   4.387  15.520  0.9218  0.8585 -0.9324
  436TMC3    C7 6559   4.047   4.507  15.643 -0.0492  0.0207  0.4578
  436TMC3    C8 6560   4.484   4.342  15.579  0.1055  0.9475  0.1490
  436TMC3    O1 6561   4.018   4.446  15.537 -0.2807 -0.8770  0.0093
  436TMC3    O2 6562   4.470   4.368  15.462  0.2523 -0.8946  0.0425
  437TMC3    C1 6563   2.997   1.634  13.119  0.8157 -0.0684 -0.2005
  437TMC3    C2 6564   2.867   1.668  13.109 -0.2270 -0.3336  0.3133
  437TMC3    C3 6565   2.846   1.797  13.069  0.0345 -0.2363  0.2865
  437TMC3    C4 6566   3.094   1.713  13.070 -1.3246  0.0831  0.3207
  437TMC3    C5 6567   3.064   1.844  13.028  1.0523  0.5035 -0.4987
  437TMC3    C6 6568   2.942   1.891  13.037  0.4006 -0.0658 -0.1048
  437TMC3     C 6569   3.033   1.492  13.117  0.4968 -0.4748  0.0868
  437TMC3     O 6570   3.129   1.446  13.055 -0.2114  0.5386 -0.0340
  437TMC3     H 6571   2.790   1.600  13.144 -0.6231  0.9131  1.8414
  437TMC3    H1 6572   3.197   1.685  13.087 -1.4526 -0.5724  0.0164
  437TMC3    H2 6573   2.914   1.988  12.999 -1.8047 -0.2370  1.1274
  437TMC3    C7 6574   3.173   1.942  13.023 -0.7652 -0.0427  0.6645
  437TMC3    C8 6575   2.708   1.822  13.028 -0.1665  0.3931 -0.2520
  437TMC3    O1 6576   3.133   2.056  13.009  0.2394  0.3409 -0.5290
  437TMC3    O2 6577   2.626   1.729  13.041  0.5046 -0.5172  0.0742
  438MPD2     C 6578   0.738   2.042  16.696  0.1045  0.2012  0.1082
  438MPD2    C1 6579   0.812   1.948  16.767  0.0862 -0.7129  0.6378
  438MPD2    C2 6580   0.800   1.945  16.904 -1.3049  0.2459  0.8484
  438MPD2    C3 6581   0.711   2.032  16.974  0.0838 -0.1264  0.8229
  438MPD2    C4 6582   0.626   2.112  16.903  0.2049  0.1569  0.2216
  438MPD2    C5 6583   0.643   2.121  16.763  0.6133 -0.5328  0.1456
  438MPD2     H 6584   0.865   1.879  16.961 -0.3144  0.8874  0.4763
  438MPD2    H1 6585   0.551   2.163  16.962  0.8543  1.4782 -0.0984
  438MPD2    H2 6586   0.755   2.046  16.589 -0.8629 -1.7193 -0.1273
  438MPD2    H3 6587   0.573   2.190  16.716 -0.7878 -1.3264  1.0452
  438MPD2     N 6588   0.690   2.026  17.116  0.4440 -0.1386  0.3751
  438MPD2    H5 6589   0.605   2.061  17.158  0.7853  0.5295  0.5065
  438MPD2    N1 6590   0.902   1.860  16.708  0.1225 -0.8778 -0.3411
  438MPD2    H7 6591   0.961   1.803  16.768  1.6724  1.2978  0.2129
  439TMC3    C1 6592   1.025   1.753  16.545  0.2143  0.6790  0.1463
  439TMC3    C2 6593   1.022   1.700  16.418 -0.5867  0.0311 -0.1286
  439TMC3    C3 6594   1.083   1.583  16.397 -0.3233 -0.0306  0.9335
  439TMC3    C4 6595   1.095   1.697  16.646  0.0997 -0.5736  0.6996
  439TMC3    C5 6596   1.163   1.587  16.617 -0.4539 -0.4373 -0.4299
  439TMC3    C6 6597   1.154   1.525  16.498 -0.0292 -0.4883  0.5792
  439TMC3     C 6598   0.911   1.838  16.575  0.2198 -0.9888  0.0399
  439TMC3     O 6599   0.833   1.867  16.481  0.2454  0.2972  0.1804
  439TMC3     H 6600   0.977   1.760  16.340 -0.9175 -0.3624 -0.2383
  439TMC3    H1 6601   1.117   1.748  16.739  0.5034  0.6858 -0.0963
  439TMC3    H2 6602   1.178   1.420  16.482  0.2205 -0.0770 -1.7961
  439TMC3    C7 6603   1.300   1.583  16.671  0.8083 -0.1273  0.1006
  439TMC3    C8 6604   1.151   1.544  16.271 -0.0660  0.0893  0.0337
  439TMC3    O1 6605   1.313   1.625  16.781 -0.0653 -0.1940 -0.0216
  439TMC3    O2 6606   1.243   1.467  16.290 -0.3754  0.6239  0.2955
  440MPD2     C 6607   4.182   2.460  15.222 -0.2712  0.3344 -0.2468
  440MPD2    C1 6608   4.277   2.486  15.130  0.0317  0.4213  0.6031
  440MPD2    C2 6609   4.351   2.389  15.071  0.4119 -0.1310  0.4772
  440MPD2    C3 6610   4.344   2.260  15.120  0.1073 -0.5571  0.1834
  440MPD2    C4 6611   4.250   2.229  15.213 -0.4602  0.2713  0.0564
  440MPD2    C5 6612   4.165   2.325  15.258 -0.9834  0.5848  0.0047
  440MPD2     H 6613   4.428   2.407  14.997  0.3739 -0.8989  0.2538
  440MPD2    H1 6614   4.243   2.129  15.253  2.6209 -0.7803 -1.9397
  440MPD2    H2 6615   4.122   2.540  15.264 -1.5484 -0.8588  0.1898
  440MPD2    H3 6616   4.088   2.297  15.328 -0.0408  0.3592  0.9477
  440MPD2     N 6617   4.436   2.152  15.086 -0.2539 -0.1581  0.1070
  440MPD2    H5 6618   4.424   2.066  15.139  0.2204  1.3832  2.7596
  440MPD2    N1 6619   4.307   2.619  15.090 -0.1004 -0.1956  0.6218
  440MPD2    H7 6620   4.399   2.636  15.051  0.9087 -1.9381  2.2378
  441TMC3    C1 6621   4.636   2.045  15.006  0.6493 -0.1746  0.0842
  441TMC3    C2 6622   0.038   2.064  15.016 -0.1405 -0.6881 -0.3320
  441TMC3    C3 6623   0.124   1.981  15.084 -0.2366 -0.3363 -0.1614
  441TMC3    C4 6624   4.590   1.931  15.060 -0.2217 -0.2708  0.6384
  441TMC3    C5 6625   4.674   1.851  15.135 -0.0898  0.2701  0.5226
  441TMC3    C6 6626   0.071   1.872  15.151 -0.2176  0.8919  0.5188
  441TMC3     C 6627   4.548   2.165  15.003  0.1355 -0.1660  0.8640
  441TMC3     O 6628   4.588   2.257  14.939 -0.2178  0.5321 -0.6546
  441TMC3     H 6629   0.073   2.164  14.992 -1.3408 -0.0565  0.5356
  441TMC3    H1 6630   4.484   1.907  15.056  0.2422 -1.8568 -2.0164
  441TMC3    H2 6631   0.139   1.805  15.202 -2.7081 -0.8828  1.4799
  441TMC3    C7 6632   4.603   1.841  15.262  0.1089 -0.3704 -1.1257
  441TMC3    C8 6633   0.240   2.030  15.154  0.9538 -0.0896  0.0565
  441TMC3    O1 6634   4.511   1.924  15.287 -0.4473 -0.2772  0.5894
  441TMC3    O2 6635   0.320   1.953  15.205  0.3788  0.2166  0.1484
  442MPD2     C 6636   2.528   2.995  16.762  0.2095  0.2549  0.9673
  442MPD2    C1 6637   2.438   2.889  16.749 -0.2022 -0.0859 -0.9965
  442MPD2    C2 6638   2.472   2.793  16.653 -0.3574 -0.3788  0.2039
  442MPD2    C3 6639   2.585   2.790  16.582  0.4215  0.2456 -0.2533
  442MPD2    C4 6640   2.672   2.903  16.591 -0.2085 -1.0838 -0.4973
  442MPD2    C5 6641   2.636   3.005  16.675 -0.6083 -0.5823 -0.3538
  442MPD2     H 6642   2.402   2.716  16.624 -0.6708  0.6437 -1.6984
  442MPD2    H1 6643   2.760   2.912  16.529 -0.2492 -0.1129 -0.4154
  442MPD2    H2 6644   2.515   3.076  16.833 -2.1050 -1.3693  2.3855
  442MPD2    H3 6645   2.711   3.082  16.674 -1.4167  0.2016 -0.3625
  442MPD2     N 6646   2.607   2.691  16.480 -0.4833  0.3318 -0.2559
  442MPD2    H5 6647   2.687   2.706  16.419  0.8306  0.8007  1.5858
  442MPD2    N1 6648   2.315   2.867  16.818 -0.7090  0.0338  0.5430
  442MPD2    H7 6649   2.274   2.778  16.792  0.6989 -0.5860  0.4674
  443TMC3    C1 6650   2.134   2.924  16.969 -0.8138  0.0454  0.4749
  443TMC3    C2 6651   2.060   3.032  17.020 -0.3969 -0.2734  0.2162
  443TMC3    C3 6652   1.932   3.013  17.046 -0.3223 -0.4081  0.4735
  443TMC3    C4 6653   2.077   2.794  16.962 -0.4661  0.5546  0.0051
  443TMC3    C5 6654   1.950   2.779  17.014 -0.7803  0.3316 -0.3643
  443TMC3    C6 6655   1.873   2.884  17.047 -0.1722 -0.1850 -0.5278
  443TMC3     C 6656   2.254   2.960  16.895  0.4268 -0.1613 -0.3395
  443TMC3     O 6657   2.285   3.078  16.914 -0.2698  0.7447  0.0737
  443TMC3     H 6658   2.103   3.131  17.030  0.6967 -0.9047  1.6679
  443TMC3    H1 6659   2.130   2.706  16.926  0.5227  1.2874 -0.3078
  443TMC3    H2 6660   1.778   2.881  17.097  0.0568 -2.6991 -0.2353
  443TMC3    C7 6661   1.909   2.645  17.043 -0.3415 -0.4297  0.1615
  443TMC3    C8 6662   1.841   3.127  17.025 -0.2756 -0.0701  0.3361
  443TMC3    O1 6663   1.910   2.555  16.959 -0.6824  0.0954  0.1507
  443TMC3    O2 6664   1.747   3.131  17.102 -0.6597 -0.2622 -0.1568
  444MPD2     C 6665   2.752   2.816  16.994  0.3171  0.8775  0.0974
  444MPD2    C1 6666   2.681   2.697  16.975  0.4715 -0.2676  1.0122
  444MPD2    C2 6667   2.733   2.595  16.903  0.4154 -0.0229 -0.0100
  444MPD2    C3 6668   2.855   2.609  16.835 -0.4505 -0.0501  0.5081
  444MPD2    C4 6669   2.922   2.729  16.853 -0.7930  0.3193 -0.9779
  444MPD2    C5 6670   2.869   2.832  16.926  0.3082  0.3414 -0.2156
  444MPD2     H 6671   2.673   2.505  16.894  1.6525 -1.0615  2.0484
  444MPD2    H1 6672   3.018   2.745  16.805 -0.0349 -0.5977  0.2415
  444MPD2    H2 6673   2.693   2.900  17.030  0.6833  0.6183  1.3123
  444MPD2    H3 6674   2.924   2.925  16.921  0.5857  0.1378 -0.9902
  444MPD2     N 6675   2.900   2.494  16.762 -0.2371 -0.4700 -0.3844
  444MPD2    H5 6676   2.840   2.412  16.756  0.0673 -0.7750  0.6833
  444MPD2    N1 6677   2.562   2.677  17.054 -0.2111 -0.4864  0.3285
  444MPD2    H7 6678   2.518   2.589  17.028 -0.0639 -0.9065  1.4966
  445TMC3    C1 6679   3.041   2.349  16.650 -0.1026  0.6933  0.4276
  445TMC3    C2 6680   2.952   2.306  16.555  0.1506 -0.1811 -0.0653
  445TMC3    C3 6681   2.994   2.192  16.493 -0.2195 -0.1526 -0.5731
  445TMC3    C4 6682   3.159   2.295  16.690 -0.0545  0.1138 -0.4880
  445TMC3    C5 6683   3.191   2.182  16.623  0.0153 -0.0571 -0.6126
  445TMC3    C6 6684   3.117   2.131  16.525 -0.4995 -0.0557  0.1438
  445TMC3     C 6685   3.024   2.481  16.707 -0.1032 -0.0821 -0.0127
  445TMC3     O 6686   3.114   2.565  16.701  0.5656 -0.4638 -0.5761
  445TMC3     H 6687   2.854   2.350  16.538  1.6687  2.2607 -2.4317
  445TMC3    H1 6688   3.222   2.323  16.774 -1.0731  3.8567 -0.9840
  445TMC3    H2 6689   3.147   2.037  16.479  0.1804  0.5883 -0.7159
  445TMC3    C7 6690   3.302   2.108  16.671  0.3241  0.9064 -0.5055
  445TMC3    C8 6691   2.906   2.117  16.411  1.0107  0.5840  0.3077
  445TMC3    O1 6692   3.334   2.114  16.785  0.0663  0.5925 -0.4153
  445TMC3    O2 6693   2.809   2.178  16.368  0.3603 -0.0461 -0.4375
  446MPD2     C 6694   2.720   3.644  11.373  0.3259  0.0890 -0.3963
  446MPD2    C1 6695   2.727   3.669  11.240  0.9424  0.3881  0.7312
  446MPD2    C2 6696   2.823   3.760  11.205 -0.8956  0.3738 -0.0279
  446MPD2    C3 6697   2.919   3.812  11.297 -0.0275  0.1585  0.0222
  446MPD2    C4 6698   2.908   3.771  11.426  0.0722  0.1215 -0.1398
  446MPD2    C5 6699   2.806   3.689  11.465  0.2802  0.4804  0.2861
  446MPD2     H 6700   2.828   3.798  11.104  0.2988  0.7911  0.1976
  446MPD2    H1 6701   2.953   3.819  11.512  0.9002  2.8646 -2.0890
  446MPD2    H2 6702   2.639   3.589  11.421 -0.2052  1.2777  0.0762
  446MPD2    H3 6703   2.789   3.665  11.569  0.0624  1.9464  0.5822
  446MPD2     N 6704   3.014   3.905  11.261 -0.8497  0.1897 -0.3694
  446MPD2    H5 6705   3.018   3.934  11.164 -0.0112  0.3013 -0.3016
  446MPD2    N1 6706   2.642   3.611  11.137  0.2025  0.0584  0.2247
  446MPD2    H7 6707   2.655   3.645  11.043  3.0038  1.9490  1.2926
  447TMC3    C1 6708   3.218   4.035  11.280 -0.0007 -0.0785 -0.2491
  447TMC3    C2 6709   3.189   4.110  11.171  0.4518  0.0210  0.0186
  447TMC3    C3 6710   3.293   4.169  11.101 -0.2782 -0.1454  0.1494
  447TMC3    C4 6711   3.345   4.028  11.329  0.7488  0.0700 -0.0817
  447TMC3    C5 6712   3.442   4.079  11.252 -0.1073 -0.0685  0.1971
  447TMC3    C6 6713   3.424   4.153  11.142  0.5563  0.0109 -0.1405
  447TMC3     C 6714   3.115   3.951  11.341  0.1095  0.0377  0.8746
  447TMC3     O 6715   3.156   3.913  11.455  0.4885 -0.0102 -0.4758
  447TMC3     H 6716   3.086   4.110  11.138 -0.1317  1.3325  1.8080
  447TMC3    H1 6717   3.378   3.968  11.414  0.1485 -0.6998 -0.3894
  447TMC3    H2 6718   3.514   4.186  11.090  1.1765 -0.6054  0.5441
  447TMC3    C7 6719   3.577   4.027  11.265  0.1686  0.0625  0.0442
  447TMC3    C8 6720   3.266   4.234  10.970  0.1230  0.3986 -0.6399
  447TMC3    O1 6721   3.581   3.921  11.323 -0.0115  0.4720 -1.0255
  447TMC3    O2 6722   3.173   4.202  10.898 -0.0142 -0.8296 -0.1438
  448TMC3    C1 6723   0.571   3.254  16.782 -0.2512 -0.1755  0.3584
  448TMC3    C2 6724   0.543   3.207  16.656 -0.3962  0.2288  0.1481
  448TMC3    C3 6725   0.564   3.071  16.632 -0.3492  0.3523 -0.2075
  448TMC3    C4 6726   0.641   3.182  16.875  0.2149  0.7437  0.5011
  448TMC3    C5 6727   0.661   3.047  16.843 -0.3221 -0.0650  0.4937
  448TMC3    C6 6728   0.629   2.990  16.726 -0.0894 -0.2384  0.6909
  448TMC3     C 6729   0.587   3.394  16.790  0.1245  0.2542  0.0547
  448TMC3     O 6730   0.626   3.452  16.693  0.6601 -0.5913  0.2394
  448TMC3     H 6731   0.472   3.260  16.593 -1.7296 -1.0835  0.5215
  448TMC3    H1 6732   0.678   3.230  16.965 -2.2858 -1.2913  2.5759
  448TMC3    H2 6733   0.642   2.888  16.693  1.1638  0.2860 -0.4336
  448TMC3    C7 6734   0.742   2.959  16.930 -0.0630 -0.4055  0.0784
  448TMC3    C8 6735   0.529   3.016  16.503  0.3194  0.3780  0.3768
  448TMC3    O1 6736   0.734   2.843  16.902  0.2582  0.1093  0.0779
  448TMC3    O2 6737   0.510   2.897  16.505 -0.0470 -0.1350 -0.0984
  449MPD2     C 6738   2.550   2.310  14.215  0.3731  0.1334 -0.3631
  449MPD2    C1 6739   2.431   2.367  14.182  0.4405  0.2858  0.3694
  449MPD2    C2 6740   2.322   2.294  14.147  0.3752 -0.0445 -0.1447
  449MPD2    C3 6741   2.335   2.156  14.156  0.6700  0.6261 -0.1884
  449MPD2    C4 6742   2.454   2.089  14.185  0.1644 -0.1109 -0.0785
  449MPD2    C5 6743   2.562   2.171  14.208 -0.7706 -0.0287  0.3208
  449MPD2     H 6744   2.225   2.338  14.127  0.4016  1.1065  2.1925
  449MPD2    H1 6745   2.475   1.983  14.180 -2.5353 -0.6803  0.1801
  449MPD2    H2 6746   2.635   2.369  14.246 -0.3737  0.3760  1.2451
  449MPD2    H3 6747   2.651   2.118  14.242 -0.3399  1.2931  1.2401
  449MPD2     N 6748   2.218   2.088  14.120  0.0356 -0.3059  0.3870
  449MPD2    H5 6749   2.148   2.149  14.078  0.2173 -1.6202 -1.8503
  449MPD2    N1 6750   2.412   2.510  14.169  0.1744  0.4235 -0.2215
  449MPD2    H7 6751   2.317   2.542  14.154  0.0771  0.5726  0.6813
  450TMC3    C1 6752   2.450   2.735  14.175 -0.6624  0.0726  0.0607
  450TMC3    C2 6753   2.505   2.793  14.064  0.6575 -0.3572 -0.2643
  450TMC3    C3 6754   2.424   2.869  13.984 -0.2100 -0.0389  0.1784
  450TMC3    C4 6755   2.317   2.758  14.204  0.4890 -0.7959 -0.3366
  450TMC3    C5 6756   2.225   2.820  14.113 -0.0857 -0.1612  0.6753
  450TMC3    C6 6757   2.291   2.888  14.007 -0.0792  0.8608 -0.2826
  450TMC3     C 6758   2.507   2.605  14.193 -0.2997 -0.6454  0.3851
  450TMC3     O 6759   2.628   2.588  14.189  0.2732 -0.3592  0.5798
  450TMC3     H 6760   2.606   2.771  14.032  0.8917 -0.7229  0.7428
  450TMC3    H1 6761   2.273   2.688  14.274  0.8425  0.4965  1.1777
  450TMC3    H2 6762   2.233   2.944  13.934  3.0717  1.6475 -2.1568
  450TMC3    C7 6763   2.133   2.724  14.074  0.2196  0.4872 -0.0793
  450TMC3    C8 6764   2.472   2.920  13.855 -0.8785  0.1135  0.0961
  450TMC3    O1 6765   2.187   2.617  14.066 -0.3492  0.3582 -0.9356
  450TMC3    O2 6766   2.427   3.024  13.815  0.0051 -0.1141 -0.0027
  451MPD2     C 6767   3.481   0.824   1.220  0.2646 -0.4069  0.1146
  451MPD2    C1 6768   3.584   0.890   1.158 -0.1855 -0.0795 -0.2901
  451MPD2    C2 6769   3.675   0.811   1.084  0.8746  0.5790 -0.0821
  451MPD2    C3 6770   3.653   0.676   1.066 -0.5354  0.4737  0.4465
  451MPD2    C4 6771   3.536   0.626   1.105  0.2694  0.1252 -0.9424
  451MPD2    C5 6772   3.441   0.702   1.173  0.1201 -0.0965 -0.0398
  451MPD2     H 6773   3.776   0.846   1.066  0.4688  0.1475 -3.1099
  451MPD2    H1 6774   3.509   0.524   1.080  1.4835  0.5226 -3.9178
  451MPD2    H2 6775   3.414   0.876   1.287 -1.0152 -0.2231 -1.3146
  451MPD2    H3 6776   3.343   0.657   1.185  0.2242  0.6427  3.4411
  451MPD2     N 6777   3.752   0.590   1.008 -0.3625  0.6208 -0.1458
  451MPD2    H5 6778   3.735   0.490   1.006  1.6340  0.3527 -3.4150
  451MPD2    N1 6779   3.600   1.029   1.179  0.2203 -0.3669  0.0594
  451MPD2    H7 6780   3.542   1.071   1.251 -0.2602  1.4322 -1.3743
  452TMC3    C1 6781   3.972   0.534   0.932 -0.0041 -0.2200 -0.0921
  452TMC3    C2 6782   3.958   0.412   0.995  0.7338  0.5221 -0.7949
  452TMC3    C3 6783   4.004   0.301   0.937 -0.0708  0.8990 -0.0658
  452TMC3    C4 6784   4.063   0.547   0.834 -0.1529  0.2632  0.2752
  452TMC3    C5 6785   4.127   0.430   0.789 -1.0375  0.2615  0.0156
  452TMC3    C6 6786   4.083   0.308   0.826  0.4435  0.2655  0.9925
  452TMC3     C 6787   3.876   0.635   0.957 -0.1750 -0.3163  0.1362
  452TMC3     O 6788   3.916   0.749   0.928  0.1472  0.6481 -0.0695
  452TMC3     H 6789   3.895   0.408   1.083  1.5300 -1.6050 -0.3395
  452TMC3    H1 6790   4.098   0.645   0.805  0.2084  0.0887  0.1225
  452TMC3    H2 6791   4.106   0.221   0.765 -3.3884  1.3219 -1.9033
  452TMC3    C7 6792   4.210   0.446   0.669  0.3933  0.8144  0.0957
  452TMC3    C8 6793   3.956   0.170   0.977 -0.0197 -0.0488 -0.1125
  452TMC3    O1 6794   4.191   0.548   0.600  0.0872 -0.3287 -0.4419
  452TMC3    O2 6795   3.844   0.161   1.017 -1.0923  0.3715  0.2453
  453TMC3    C1 6796   0.368   2.817  11.299  0.1195 -0.6009 -0.3740
  453TMC3    C2 6797   0.265   2.735  11.333 -0.1897 -1.2283 -0.1496
  453TMC3    C3 6798   0.176   2.720  11.229  0.6833 -0.3510  0.4021
  453TMC3    C4 6799   0.396   2.861  11.173  0.3925  0.8240  0.8344
  453TMC3    C5 6800   0.312   2.830  11.069  0.8392  0.2188 -0.1098
  453TMC3    C6 6801   0.197   2.764  11.099  0.0998  0.2382 -0.4405
  453TMC3     C 6802   0.450   2.863  11.417 -0.0184  0.8105  0.7464
  453TMC3     O 6803   0.442   2.794  11.515  0.1435  0.2836  0.1294
  453TMC3     H 6804   0.240   2.709  11.436  1.1620 -0.9590  0.2602
  453TMC3    H1 6805   0.482   2.922  11.149  0.3780  0.2170 -0.8005
  453TMC3    H2 6806   0.124   2.747  11.020  0.9238  2.3460 -1.6345
  453TMC3    C7 6807   0.370   2.820  10.941  0.5478 -0.5490 -0.1620
  453TMC3    C8 6808   0.052   2.651  11.253  0.3721  0.5799 -0.5788
  453TMC3    O1 6809   0.335   2.731  10.865  0.5441 -0.0543  0.3788
  453TMC3    O2 6810   4.689   2.690  11.185  0.2399 -0.1375  0.0305
  454MPD2     C 6811   3.728   2.369  16.311  0.4610 -0.4460  0.0726
  454MPD2    C1 6812   3.657   2.438  16.218 -0.4817 -1.0315  0.6641
  454MPD2    C2 6813   3.607   2.561  16.261  0.0148  0.7507  0.3869
  454MPD2    C3 6814   3.617   2.608  16.392 -0.2542 -0.8701 -0.3896
  454MPD2    C4 6815   3.672   2.522  16.486 -0.0284 -0.1676 -0.3017
  454MPD2    C5 6816   3.734   2.416  16.439  0.1920  0.0563 -0.8447
  454MPD2     H 6817   3.539   2.615  16.196  1.0381  0.4934 -0.8893
  454MPD2    H1 6818   3.670   2.540  16.593  1.8071 -0.6354 -0.1928
  454MPD2    H2 6819   3.785   2.279  16.290 -0.9861 -1.8257  2.1302
  454MPD2    H3 6820   3.784   2.344  16.503 -1.0771  0.5154  0.6797
  454MPD2     N 6821   3.551   2.724  16.431 -0.2216 -0.2238 -0.7506
  454MPD2    H5 6822   3.512   2.731  16.524 -1.5748 -1.6468 -1.2224
  454MPD2    N1 6823   3.621   2.396  16.087  0.0203 -0.0346  0.1165
  454MPD2    H7 6824   3.580   2.465  16.025 -1.7533 -1.7648 -0.6422
  455TMC3    C1 6825   3.389   2.881  16.377  0.1269 -0.1607 -0.0885
  455TMC3    C2 6826   3.369   2.918  16.506  0.4203 -0.5113 -0.0868
  455TMC3    C3 6827   3.245   2.897  16.565 -0.4714 -0.4431 -0.2649
  455TMC3    C4 6828   3.295   2.800  16.314 -1.1935  0.3247  0.8887
  455TMC3    C5 6829   3.178   2.777  16.377 -0.6732  0.1485  0.4954
  455TMC3    C6 6830   3.146   2.819  16.501  0.6819 -0.0590  0.2672
  455TMC3     C 6831   3.521   2.824  16.347  0.4198  0.2385 -0.0843
  455TMC3     O 6832   3.558   2.853  16.235 -0.3776  0.2119 -0.0508
  455TMC3     H 6833   3.453   2.972  16.551  0.6958 -2.8102  2.1399
  455TMC3    H1 6834   3.315   2.756  16.217 -2.7027  2.8931 -0.5696
  455TMC3    H2 6835   3.049   2.791  16.540  0.0751 -2.5129 -3.0093
  455TMC3    C7 6836   3.117   2.643  16.351  0.3976  0.4919 -0.3145
  455TMC3    C8 6837   3.213   2.965  16.686  0.2361  0.5321 -0.4737
  455TMC3    O1 6838   3.000   2.621  16.353  0.2022 -0.1077  0.2989
  455TMC3    O2 6839   3.303   2.962  16.772 -0.3315 -0.7136  0.2611
  456MPD2     C 6840   1.430   2.558  15.634  0.1039  0.0349  0.2969
  456MPD2    C1 6841   1.411   2.432  15.677  0.7589 -0.3302 -0.4433
  456MPD2    C2 6842   1.287   2.404  15.737  0.2538 -0.3391  0.5512
  456MPD2    C3 6843   1.197   2.502  15.758 -0.6679 -0.3776  0.1470
  456MPD2    C4 6844   1.223   2.633  15.718 -0.7479 -0.3866 -0.0186
  456MPD2    C5 6845   1.338   2.654  15.652 -0.0909 -0.5507 -0.4479
  456MPD2     H 6846   1.251   2.303  15.755  0.1796 -0.9002 -2.6955
  456MPD2    H1 6847   1.152   2.714  15.728  0.1460  0.3540  0.3871
  456MPD2    H2 6848   1.528   2.589  15.597  0.4712  0.2030  1.4132
  456MPD2    H3 6849   1.352   2.753  15.609  0.8894 -0.3829  0.2539
  456MPD2     N 6850   1.078   2.470  15.837  0.7228  0.1863  0.8736
  456MPD2    H5 6851   1.067   2.375  15.871 -3.2286  0.1805 -0.4691
  456MPD2    N1 6852   1.520   2.341  15.657  0.7799  0.9126  0.0162
  456MPD2    H7 6853   1.598   2.370  15.599  0.2673  2.8635  0.3238
  457TMC3    C1 6854   0.885   2.504  15.967 -0.0884  0.2738  0.0277
  457TMC3    C2 6855   0.760   2.562  15.977  1.1525 -0.1459 -0.0315
  457TMC3    C3 6856   0.680   2.547  16.083 -0.1493 -0.3780  0.1908
  457TMC3    C4 6857   0.930   2.421  16.065 -1.1038 -0.1587 -0.3084
  457TMC3    C5 6858   0.853   2.409  16.183  0.1941 -0.0291 -0.0874
  457TMC3    C6 6859   0.729   2.476  16.193  0.3563  0.6259  0.1205
  457TMC3     C 6860   0.975   2.565  15.872 -0.1698 -0.0416 -0.4609
  457TMC3     O 6861   0.946   2.678  15.831 -0.6254  0.3117  0.1677
  457TMC3     H 6862   0.722   2.608  15.886 -2.1228  0.6653  1.7351
  457TMC3    H1 6863   1.024   2.367  16.066 -2.4269 -2.4730  0.6881
  457TMC3    H2 6864   0.689   2.471  16.293  0.4618  0.3541  0.1488
  457TMC3    C7 6865   0.914   2.362  16.307  0.8614 -0.8342  0.3961
  457TMC3    C8 6866   0.602   2.659  16.121 -0.2824  0.9081  0.1322
  457TMC3    O1 6867   0.876   2.402  16.419 -0.3908 -0.1809  0.2128
  457TMC3    O2 6868   0.525   2.637  16.212  0.0302  0.1707 -0.7414
  458MPD2     C 6869   3.666   2.075  12.957  0.4682 -0.0543  0.6758
  458MPD2    C1 6870   3.657   1.947  13.000  0.0276 -0.0474 -0.2433
  458MPD2    C2 6871   3.535   1.885  13.015  1.0792  0.4551  0.0852
  458MPD2    C3 6872   3.417   1.963  13.001 -0.4701 -0.2829  0.0725
  458MPD2    C4 6873   3.428   2.100  12.977 -0.0446 -0.2403 -0.4386
  458MPD2    C5 6874   3.551   2.151  12.958 -0.3679 -0.1967 -0.4480
  458MPD2     H 6875   3.524   1.777  13.014 -1.7132  0.7384 -0.5708
  458MPD2    H1 6876   3.338   2.161  12.977 -0.1917 -0.4751  1.2375
  458MPD2    H2 6877   3.763   2.122  12.948  1.0045 -1.3616 -0.2698
  458MPD2    H3 6878   3.574   2.250  12.922  1.9992 -1.0080 -1.1798
  458MPD2     N 6879   3.298   1.889  13.021  0.3478  0.6722  0.3232
  458MPD2    H5 6880   3.305   1.788  13.030  0.4414  0.6111 -0.4572
  458MPD2    N1 6881   3.780   1.881  13.017  0.5724 -0.0875  0.2308
  458MPD2    H7 6882   3.862   1.936  12.993  2.1600 -3.0566 -1.1659
  459TMC3    C1 6883   3.931   1.696  13.078 -0.4708  0.2189 -0.2078
  459TMC3    C2 6884   4.036   1.746  13.006  0.3218 -0.5021  0.0132
  459TMC3    C3 6885   4.165   1.684  13.012  0.4851  0.8497  0.0886
  459TMC3    C4 6886   3.946   1.593  13.161  0.4881  1.1098  0.2277
  459TMC3    C5 6887   4.073   1.535  13.178 -0.3129 -0.6602 -0.6929
  459TMC3    C6 6888   4.178   1.580  13.103  0.0043 -0.1540 -0.2976
  459TMC3     C 6889   3.794   1.755  13.074  0.4010  1.1469 -0.3826
  459TMC3     O 6890   3.708   1.701  13.148  0.0090  0.1090  0.5572
  459TMC3     H 6891   4.017   1.830  12.940  0.9000 -1.5139 -1.4283
  459TMC3    H1 6892   3.860   1.556  13.216  0.5679  1.2898  0.4764
  459TMC3    H2 6893   4.267   1.517  13.096 -0.7119 -1.2355  0.3211
  459TMC3    C7 6894   4.096   1.429  13.279  0.1201  0.7073 -0.2830
  459TMC3    C8 6895   4.283   1.750  12.964 -0.7351  0.1539 -0.3299
  459TMC3    O1 6896   4.207   1.376  13.273  0.4506 -0.5458  0.5151
  459TMC3    O2 6897   4.270   1.802  12.852 -0.7323 -0.2903  0.3811
  460MPD2     C 6898   3.482   4.509  10.838 -0.5532 -1.0191  0.1111
  460MPD2    C1 6899   3.372   4.431  10.852 -0.3295  0.6017 -0.7658
  460MPD2    C2 6900   3.283   4.443  10.753 -0.2720 -0.0121 -0.8010
  460MPD2    C3 6901   3.271   4.550  10.667  0.6003  0.0301 -0.6151
  460MPD2    C4 6902   3.375   4.646  10.673 -0.7003 -0.7993  0.1077
  460MPD2    C5 6903   3.482   4.620  10.761 -0.2567  0.6887 -0.1372
  460MPD2     H 6904   3.199   4.374  10.747 -0.4251  0.0658  0.3616
  460MPD2    H1 6905   3.383   0.006  10.621  0.2558 -0.6123  0.5850
  460MPD2    H2 6906   3.558   4.505  10.915 -1.0776 -0.5231  0.6626
  460MPD2    H3 6907   3.571   4.682  10.760  0.0999  0.2061  1.6273
  460MPD2     N 6908   3.164   4.561  10.575  0.2490 -0.4033  0.3757
  460MPD2    H5 6909   3.090   4.491  10.576 -0.0126 -0.1124  2.9238
  460MPD2    N1 6910   3.364   4.332  10.950 -0.4161 -0.1133  0.3423
  460MPD2    H7 6911   3.437   4.350  11.017  0.5154 -2.1700 -0.1140
  461TMC3    C1 6912   3.008   4.644  10.419  0.6842  0.8115 -0.2052
  461TMC3    C2 6913   2.962   4.516  10.394 -0.2994  0.0343 -0.0193
  461TMC3    C3 6914   2.848   4.510  10.315  1.1337  0.2385 -0.6324
  461TMC3    C4 6915   2.940   0.023  10.377  0.2150 -0.1605 -0.4549
  461TMC3    C5 6916   2.828   0.006  10.303  0.1852  0.4813 -0.4194
  461TMC3    C6 6917   2.770   4.616  10.276  0.3342  0.2938 -0.7685
  461TMC3     C 6918   3.131   4.668  10.499  0.2696  0.3032  0.4096
  461TMC3     O 6919   3.194   0.032  10.470 -0.7358 -0.3819  0.1994
  461TMC3     H 6920   3.029   4.431  10.402  1.6379  1.5106 -0.6837
  461TMC3    H1 6921   2.983   0.121  10.393 -0.9523  0.2155  0.3588
  461TMC3    H2 6922   2.685   4.602  10.211 -2.5988  0.7462  2.9570
  461TMC3    C7 6923   2.763   0.122  10.244  0.3333  0.5481 -0.1089
  461TMC3    C8 6924   2.846   4.391  10.233 -0.2321 -0.0235 -0.2360
  461TMC3    O1 6925   2.705   0.101  10.140 -0.6576 -0.0160  0.3841
  461TMC3    O2 6926   2.946   4.322  10.220  0.2196  0.8219  0.3715
  462TMC3    C1 6927   3.090   0.496  17.683 -0.2254  0.2336 -0.4891
  462TMC3    C2 6928   3.114   0.389  17.601  0.5136  0.1631 -1.0257
  462TMC3    C3 6929   3.114   0.264  17.655  0.2371 -0.5813  0.6073
  462TMC3    C4 6930   3.064   0.477   0.079 -0.3038 -0.5172 -0.1851
  462TMC3    C5 6931   3.067   0.351   0.123  0.0908 -0.0397  0.1143
  462TMC3    C6 6932   3.096   0.242   0.044 -0.0900  0.1167  0.6113
  462TMC3     C 6933   3.046   0.626  17.626 -0.2007  0.5768  0.3300
  462TMC3     O 6934   2.956   0.682  17.691  0.2501  0.1435 -0.1048
  462TMC3     H 6935   3.107   0.400  17.494 -1.4019  0.4998 -0.8670
  462TMC3    H1 6936   3.040   0.567   0.134  0.3266  1.0147 -2.4388
  462TMC3    H2 6937   3.060   0.142   0.065 -0.6629  0.0388 -0.7954
  462TMC3    C7 6938   3.011   0.314   0.246 -0.6187  0.5128 -0.4848
  462TMC3    C8 6939   3.032   0.182  17.569 -0.4060  0.2538 -0.3009
  462TMC3    O1 6940   3.037   0.203   0.293 -0.2354  0.1452  0.2114
  462TMC3    O2 6941   2.927   0.232  17.528 -0.0053 -0.0362  0.4235
  463MPD2     C 6942   4.143   3.953   1.721 -0.2600 -0.7219  0.4816
  463MPD2    C1 6943   4.030   4.003   1.666  0.0702 -0.1788  0.9135
  463MPD2    C2 6944   4.018   4.129   1.613  0.0628 -1.1447 -0.2371
  463MPD2    C3 6945   4.125   4.224   1.624  0.4796  0.7853 -0.8568
  463MPD2    C4 6946   4.235   4.168   1.671 -0.8430 -0.2580 -0.8197
  463MPD2    C5 6947   4.243   4.041   1.722  0.1420 -0.4189 -0.0823
  463MPD2     H 6948   3.924   4.166   1.574  0.7640 -2.0048 -2.7290
  463MPD2    H1 6949   4.323   4.231   1.671 -2.0974  1.4818  0.4054
  463MPD2    H2 6950   4.157   3.851   1.752  0.1814  0.0234  2.6840
  463MPD2    H3 6951   4.343   4.010   1.753 -0.0618 -0.0280  0.9756
  463MPD2     N 6952   4.127   4.355   1.579 -0.4943 -0.4215  0.0935
  463MPD2    H5 6953   4.218   4.398   1.568 -0.8766  0.2659 -0.3558
  463MPD2    N1 6954   3.910   3.929   1.665 -0.3620 -0.4387  0.3223
  463MPD2    H7 6955   3.831   3.968   1.614 -1.0734 -0.9406  1.0426
  464TMC3    C1 6956   3.750   3.785   1.734 -0.0908  0.4350 -0.4702
  464TMC3    C2 6957   3.650   3.884   1.714  0.0777 -0.3748 -0.6837
  464TMC3    C3 6958   3.523   3.835   1.710  0.1529 -0.4474  0.5027
  464TMC3    C4 6959   3.721   3.656   1.752  0.5333  0.6432 -1.2721
  464TMC3    C5 6960   3.596   3.607   1.732 -0.8345 -0.2833 -0.1114
  464TMC3    C6 6961   3.500   3.701   1.709  0.5012 -0.1344  0.5412
  464TMC3     C 6962   3.885   3.824   1.744 -1.0412 -0.5330 -0.1898
  464TMC3     O 6963   3.962   3.752   1.811 -0.1943 -0.6002  0.5441
  464TMC3     H 6964   3.667   3.989   1.698 -0.6061 -0.3113 -0.9738
  464TMC3    H1 6965   3.796   3.583   1.776 -1.5556  0.0750  3.6225
  464TMC3    H2 6966   3.400   3.661   1.696  0.2036  0.3436  1.3270
  464TMC3    C7 6967   3.570   3.468   1.749  0.8314  0.4486  0.2992
  464TMC3    C8 6968   3.419   3.930   1.698  0.1141 -0.3906  0.2990
  464TMC3    O1 6969   3.649   3.404   1.819 -0.4043 -0.3315 -0.2278
  464TMC3    O2 6970   3.454   4.038   1.656  0.2680  0.2937 -0.1303
  465MPD2     C 6971   0.453   2.405  16.998 -0.5863 -0.0097  1.4090
  465MPD2    C1 6972   0.322   2.384  17.033 -0.0835  0.1466 -0.1026
  465MPD2    C2 6973   0.228   2.412  16.936  0.8185 -0.1367 -0.0276
  465MPD2    C3 6974   0.272   2.451  16.812 -0.6042 -0.6567 -0.0029
  465MPD2    C4 6975   0.406   2.459  16.774  0.2322 -1.0245 -0.0384
  465MPD2    C5 6976   0.496   2.442  16.872 -1.0531  0.1817 -0.0964
  465MPD2     H 6977   0.123   2.400  16.961  1.0404 -0.2327  0.8617
  465MPD2    H1 6978   0.440   2.477  16.673  0.0761 -0.5044  0.0026
  465MPD2    H2 6979   0.530   2.373  17.068  0.0975 -0.9104  0.2501
  465MPD2    H3 6980   0.602   2.445  16.850 -1.1142 -0.0003 -0.4159
  465MPD2     N 6981   0.171   2.473  16.712  0.3778 -0.2316  0.2008
  465MPD2    H5 6982   0.082   2.459  16.759 -1.3541  1.0455 -2.7568
  465MPD2    N1 6983   0.281   2.348  17.165  0.1086 -0.0337  0.7795
  465MPD2    H7 6984   0.184   2.356  17.193 -0.0351 -2.6504  0.9986
  466TMC3    C1 6985   4.569   2.481  16.486 -0.5795 -0.6646 -0.3659
  466TMC3    C2 6986   4.562   2.570  16.379 -0.5889 -0.6821  0.2552
  466TMC3    C3 6987   4.682   2.629  16.340  0.1431  0.7148 -0.4220
  466TMC3    C4 6988   4.694   2.465  16.549  0.4692 -0.4111 -0.2910
  466TMC3    C5 6989   0.068   2.530  16.507 -0.1002  0.3418 -0.3950
  466TMC3    C6 6990   0.059   2.617  16.404  0.3704 -0.3867  0.0901
  466TMC3     C 6991   4.456   2.463  16.567 -0.7220  0.6902 -0.1957
  466TMC3     O 6992   4.464   2.403  16.671  0.2064 -0.7418  0.1792
  466TMC3     H 6993   4.472   2.595  16.324  0.4779  2.6682  0.0617
  466TMC3    H1 6994   4.692   2.398  16.635 -0.0649  1.2664  1.0026
  466TMC3    H2 6995   0.147   2.674  16.375 -1.2624  2.2539  0.3854
  466TMC3    C7 6996   0.189   2.534  16.588  0.3852 -0.3719 -0.6457
  466TMC3    C8 6997   4.674   2.762  16.286 -0.0732  0.2061 -0.5039
  466TMC3    O1 6998   0.276   2.611  16.551  0.0752 -0.1059 -0.0201
  466TMC3    O2 6999   4.656   2.771  16.164 -0.3867 -0.5480 -0.5697
  467TMC3    C1 7000   1.421   0.870  13.591  0.2766 -0.0388  0.4111
  467TMC3    C2 7001   1.470   0.934  13.476 -0.6046  0.3340  0.6256
  467TMC3    C3 7002   1.385   0.937  13.368  0.7496 -1.0274  0.3655
  467TMC3    C4 7003   1.288   0.821  13.600  0.2786 -0.3763 -0.3039
  467TMC3    C5 7004   1.211   0.828  13.487 -0.3938  0.0395  0.3607
  467TMC3    C6 7005   1.256   0.886  13.372  0.3155 -0.1077  0.9157
  467TMC3     C 7006   1.498   0.882  13.712 -0.4131  0.4668  0.0646
  467TMC3     O 7007   1.616   0.897  13.696  0.5666 -0.2507  0.0202
  467TMC3     H 7008   1.574   0.955  13.458 -1.1601  3.6004  1.2364
  467TMC3    H1 7009   1.250   0.787  13.696  0.8623  1.0153  0.4234
  467TMC3    H2 7010   1.185   0.916  13.296 -0.8877 -0.9628  1.7094
  467TMC3    C7 7011   1.067   0.801  13.492 -0.0824  0.1321  0.4747
  467TMC3    C8 7012   1.392   1.044  13.275  0.0522 -0.4947 -0.2013
  467TMC3    O1 7013   1.032   0.750  13.384  0.3557 -0.4585  0.3813
  467TMC3    O2 7014   1.326   1.034  13.171  0.2138 -0.1590  0.4636
  468MPD2     C 7015   0.065   4.047  10.743 -0.1095 -0.3112  0.2464
  468MPD2    C1 7016   0.197   4.064  10.708  0.2653  0.9374 -0.0988
  468MPD2    C2 7017   0.291   3.967  10.729  0.4524 -0.6163  0.4570
  468MPD2    C3 7018   0.249   3.840  10.767  0.9635 -0.0872 -0.2194
  468MPD2    C4 7019   0.120   3.822  10.807 -0.0307  0.3661 -0.2326
  468MPD2    C5 7020   0.025   3.926  10.799 -0.0082 -0.3784 -0.2753
  468MPD2     H 7021   0.393   3.989  10.702 -0.5467 -0.3204 -3.0222
  468MPD2    H1 7022   0.091   3.725  10.847 -0.7228  0.8599  0.4502
  468MPD2    H2 7023   4.719   4.116  10.725 -0.7002 -0.8580  0.7803
  468MPD2    H3 7024   4.658   3.897  10.821  0.6985 -1.3504  1.6756
  468MPD2     N 7025   0.331   3.719  10.777 -0.3670  0.1313  0.8035
  468MPD2    H5 7026   0.274   3.638  10.799  1.2493 -1.6582 -1.5118
  468MPD2    N1 7027   0.247   4.176  10.638  0.5268 -0.2783 -0.1487
  468MPD2    H7 7028   0.344   4.184  10.609  0.5615 -0.0393  0.0278
  469TMC3    C1 7029   0.231   4.403  10.557  0.0660  0.0428 -0.3630
  469TMC3    C2 7030   0.358   4.436  10.609  0.4424 -0.2634 -0.0258
  469TMC3    C3 7031   0.414   4.555  10.572 -0.1443 -0.6757 -0.2525
  469TMC3    C4 7032   0.174   4.480  10.466 -0.1574 -0.6428  0.5004
  469TMC3    C5 7033   0.220   4.602  10.448  0.7239 -0.3103  0.1374
  469TMC3    C6 7034   0.342   4.640  10.502 -0.4860  0.6527 -0.5974
  469TMC3     C 7035   0.164   4.281  10.597 -0.5962 -0.2673 -0.1425
  469TMC3     O 7036   0.045   4.285  10.576  0.5594 -0.2711 -0.2941
  469TMC3     H 7037   0.396   4.375  10.689  3.4320 -0.7364 -1.7982
  469TMC3    H1 7038   0.077   4.447  10.431  0.3938 -0.4080 -1.2619
  469TMC3    H2 7039   0.380   0.007  10.498  1.7755 -0.1386  0.6026
  469TMC3    C7 7040   0.121   4.697  10.404  0.6991  0.3603 -0.5329
  469TMC3    C8 7041   0.537   4.594  10.638  0.5125  0.1233  0.3448
  469TMC3    O1 7042   0.005   4.672  10.439  0.5920 -0.3654 -0.3144
  469TMC3    O2 7043   0.609   4.674  10.578 -0.5543 -0.9724 -0.6478
  470TMC3    C1 7044   2.244   0.358   0.870 -0.3103  0.1735 -0.1572
  470TMC3    C2 7045   2.373   0.400   0.865  0.2600 -0.7160  0.4375
  470TMC3    C3 7046   2.405   0.502   0.952  0.0077 -0.4199  0.2546
  470TMC3    C4 7047   2.148   0.417   0.947  0.4678  0.9471  0.2270
  470TMC3    C5 7048   2.185   0.517   1.023  0.7543  0.3919  0.0533
  470TMC3    C6 7049   2.313   0.570   1.024  0.1706  1.1912 -0.1347
  470TMC3     C 7050   2.204   0.249   0.786 -0.2912 -0.1051 -0.3518
  470TMC3     O 7051   2.279   0.235   0.690 -0.2269  0.2537  0.2187
  470TMC3     H 7052   2.449   0.341   0.817  0.2077  0.5528 -1.2038
  470TMC3    H1 7053   2.045   0.384   0.943  0.7676 -0.1277  1.4541
  470TMC3    H2 7054   2.342   0.627   1.112  1.1340 -1.1902  1.0819
  470TMC3    C7 7055   2.078   0.587   1.095  0.4732 -0.0852 -0.2045
  470TMC3    C8 7056   2.524   0.576   0.915 -0.3016 -0.2820  0.2048
  470TMC3    O1 7057   1.962   0.567   1.062 -0.2427  0.4155  0.0573
  470TMC3    O2 7058   2.585   0.540   0.812  0.0726  0.1559  0.0394
  471MPD2     C 7059   2.708   1.394  17.142  0.1954  0.1889 -0.3196
  471MPD2    C1 7060   2.819   1.331  17.087  0.1537 -0.0960  1.0541
  471MPD2    C2 7061   2.926   1.292  17.170  0.1826  0.5402  0.1640
  471MPD2    C3 7062   2.908   1.294  17.307 -1.1479  0.1898  0.5123
  471MPD2    C4 7063   2.794   1.349  17.356  0.3014 -0.2973  0.0170
  471MPD2    C5 7064   2.695   1.388  17.275 -0.1268  0.7280  0.4046
  471MPD2     H 7065   3.014   1.248  17.126 -0.0859 -0.0388  0.2070
  471MPD2    H1 7066   2.776   1.343  17.463  0.2148 -0.7716 -0.0223
  471MPD2    H2 7067   2.626   1.440  17.089 -2.1218 -1.6816  1.6112
  471MPD2    H3 7068   2.614   1.435  17.330  0.7436  1.7638  0.8036
  471MPD2     N 7069   3.008   1.244  17.393  0.4151  0.5710  0.1748
  471MPD2    H5 7070   2.993   1.248  17.493 -0.0769 -2.4458  0.2016
  471MPD2    N1 7071   2.839   1.316  16.947 -0.0554 -0.2403 -0.1431
  471MPD2    H7 7072   2.924   1.271  16.914 -0.3310 -0.6644 -0.2682
  472TMC3    C1 7073   2.811   1.316  16.711 -0.1515  0.4200  0.3214
  472TMC3    C2 7074   2.737   1.346  16.599 -0.3330 -0.5442  0.3870
  472TMC3    C3 7075   2.764   1.286  16.478  0.1376  0.6208  0.7014
  472TMC3    C4 7076   2.907   1.215  16.709 -0.4769 -0.9195 -0.5390
  472TMC3    C5 7077   2.919   1.146  16.591 -0.1593 -0.0409  0.1904
  472TMC3    C6 7078   2.850   1.177  16.477  0.6985 -0.6065  0.0308
  472TMC3     C 7079   2.757   1.355  16.839 -0.0550  1.0910  0.2884
  472TMC3     O 7080   2.651   1.418  16.832  0.0787  0.2168  0.2490
  472TMC3     H 7081   2.673   1.433  16.596 -1.0028 -1.0522 -0.1433
  472TMC3    H1 7082   2.975   1.188  16.790  0.2104  0.8034 -0.5344
  472TMC3    H2 7083   2.879   1.131  16.383  1.4067 -1.8618  0.8646
  472TMC3    C7 7084   2.918   0.997  16.614 -0.1305  0.5824 -0.3406
  472TMC3    C8 7085   2.646   1.259  16.402  0.7272  0.3173 -0.0452
  472TMC3    O1 7086   2.969   0.957  16.717  0.7625  0.4189 -0.1374
  472TMC3    O2 7087   2.647   1.287  16.284 -0.4555  0.3115 -0.1095
  473MPD2     C 7088   2.518   3.493  14.069  0.1988  0.5895 -0.1172
  473MPD2    C1 7089   2.551   3.616  14.003 -0.3502  0.5029  0.3005
  473MPD2    C2 7090   2.639   3.705  14.067  0.6979  0.6770  0.0059
  473MPD2    C3 7091   2.680   3.669  14.194 -0.0419 -0.7099 -0.2662
  473MPD2    C4 7092   2.630   3.559  14.265  0.1069 -0.1706 -0.5450
  473MPD2    C5 7093   2.548   3.475  14.198 -0.9929 -0.0809  0.3002
  473MPD2     H 7094   2.671   3.801  14.029  1.4728  0.5476  0.3283
  473MPD2    H1 7095   2.660   3.532  14.365  0.1953 -0.2882 -0.6024
  473MPD2    H2 7096   2.465   3.416  14.015 -1.8164  1.5022  0.5387
  473MPD2    H3 7097   2.526   3.382  14.249 -0.4609 -0.8657 -0.8915
  473MPD2     N 7098   2.789   3.736  14.266  0.1522 -0.0484  0.3631
  473MPD2    H5 7099   2.794   3.705  14.362  0.0043  1.2312  0.7810
  473MPD2    N1 7100   2.491   3.655  13.879  0.0356 -1.0999  0.2122
  473MPD2    H7 7101   2.533   3.736  13.836  1.9237 -2.4613 -0.5181
  474TMC3    C1 7102   2.949   3.878  14.331 -0.6166 -0.1163  0.4121
  474TMC3    C2 7103   2.993   4.009  14.342  0.1999  0.5136  0.1849
  474TMC3    C3 7104   3.071   4.043  14.446 -0.6940  0.2140  0.2016
  474TMC3    C4 7105   2.984   3.787  14.426 -0.1068  0.1718 -0.1992
  474TMC3    C5 7106   3.056   3.821  14.528 -0.0749 -0.2914  0.8157
  474TMC3    C6 7107   3.095   3.950  14.543  0.0758  0.3534  0.3959
  474TMC3     C 7108   2.863   3.839  14.223  0.4932  0.1167  0.4293
  474TMC3     O 7109   2.868   3.901  14.118  0.4633  0.3348  0.4676
  474TMC3     H 7110   2.962   4.082  14.268 -0.6448 -1.0905 -1.0520
  474TMC3    H1 7111   2.955   3.683  14.424 -0.6967  0.3540 -0.9366
  474TMC3    H2 7112   3.139   3.992  14.633  1.2435 -0.5327  0.2393
  474TMC3    C7 7113   3.062   3.721  14.638 -0.1780 -0.2210  0.3120
  474TMC3    C8 7114   3.101   4.187  14.460  0.0200  0.2649 -0.6036
  474TMC3    O1 7115   2.984   3.622  14.626 -0.7592  0.1727  0.1260
  474TMC3    O2 7116   3.035   4.259  14.387 -0.0616 -0.3030  0.5249
  475MPD2     C 7117   0.739   1.699  10.855 -0.4776  0.1674 -0.2279
  475MPD2    C1 7118   0.747   1.710  10.717 -0.6638  0.2967  0.0797
  475MPD2    C2 7119   0.625   1.734  10.639 -0.5140  0.0799 -0.0160
  475MPD2    C3 7120   0.508   1.757  10.706 -0.6576  0.0117 -0.0823
  475MPD2    C4 7121   0.502   1.734  10.842 -0.2914  0.1148  0.0705
  475MPD2    C5 7122   0.613   1.701  10.916  0.6672  0.5493  0.5883
  475MPD2     H 7123   0.626   1.760  10.534 -2.1664 -1.1580 -0.3251
  475MPD2    H1 7124   0.409   1.738  10.896  0.8044  0.0943  1.9749
  475MPD2    H2 7125   0.822   1.682  10.922 -0.5150  0.8132 -0.0164
  475MPD2    H3 7126   0.607   1.684  11.023  0.0397  1.0988  0.6382
  475MPD2     N 7127   0.399   1.797  10.627  0.0338  0.5957  0.4865
  475MPD2    H5 7128   0.423   1.832  10.534  1.4386  0.6342  0.8648
  475MPD2    N1 7129   0.878   1.729  10.657 -0.0400  0.2790 -0.3948
  475MPD2    H7 7130   0.952   1.702  10.721 -1.4594 -0.9665  0.7187
  476TMC3    C1 7131   1.034   1.800  10.506  0.6519 -0.0139  0.2273
  476TMC3    C2 7132   1.091   1.770  10.384  0.5455 -0.2174 -0.3580
  476TMC3    C3 7133   1.210   1.822  10.352 -0.2526 -0.3936  0.1234
  476TMC3    C4 7134   1.100   1.870  10.606 -0.9845 -0.0504  0.1112
  476TMC3    C5 7135   1.225   1.921  10.573 -0.9127 -0.8939  0.7123
  476TMC3    C6 7136   1.282   1.892  10.449 -0.9131 -0.2182 -0.4735
  476TMC3     C 7137   0.901   1.759  10.526  0.6082 -0.5746  0.4452
  476TMC3     O 7138   0.828   1.742  10.433 -0.0473 -0.1844  0.0586
  476TMC3     H 7139   1.027   1.722  10.310 -1.1951 -0.2110  1.1369
  476TMC3    H1 7140   1.047   1.889  10.699  0.1388 -0.1914  0.7821
  476TMC3    H2 7141   1.370   1.944  10.414 -0.2581 -0.4813  0.7812
  476TMC3    C7 7142   1.276   2.046  10.629 -0.1057  0.3206 -0.1774
  476TMC3    C8 7143   1.265   1.811  10.222 -0.8758  0.7943  0.8692
  476TMC3    O1 7144   1.356   2.112  10.559  0.8494 -0.3567  0.0304
  476TMC3    O2 7145   1.367   1.882  10.199  0.0156  0.1190 -0.2228
  477MPD2     C 7146   4.001   3.306  11.375  0.2779  0.4301 -0.1108
  477MPD2    C1 7147   3.873   3.251  11.348  0.1560  0.3978 -0.6819
  477MPD2    C2 7148   3.854   3.115  11.327  1.1663  0.4556 -0.6297
  477MPD2    C3 7149   3.966   3.032  11.337  0.5721  0.2089 -0.1108
  477MPD2    C4 7150   4.091   3.083  11.372 -0.3340  0.1065  0.8175
  477MPD2    C5 7151   4.098   3.216  11.390  0.2734  0.2288 -0.0717
  477MPD2     H 7152   3.755   3.073  11.317  0.8210  0.5998  1.9723
  477MPD2    H1 7153   4.179   3.022  11.388 -0.6969 -0.1749  1.8131
  477MPD2    H2 7154   4.028   3.408  11.398 -2.7543  1.1935  0.0355
  477MPD2    H3 7155   4.195   3.261  11.407  1.3714 -1.5655 -1.6213
  477MPD2     N 7156   3.953   2.891  11.320  0.9952  0.2911 -0.0411
  477MPD2    H5 7157   3.862   2.862  11.286  1.1895 -0.3081 -0.0572
  477MPD2    N1 7158   3.772   3.344  11.362  0.4119  0.5807 -0.8952
  477MPD2    H7 7159   3.794   3.442  11.374 -1.5327  0.5875  2.4487
  478TMC3    C1 7160   3.574   3.443  11.349 -0.3875 -0.0508 -0.0546
  478TMC3    C2 7161   3.605   3.518  11.460  0.3194  0.2277 -0.0146
  478TMC3    C3 7162   3.523   3.624  11.483  0.7877  0.3085  0.2354
  478TMC3    C4 7163   3.475   3.471  11.258 -0.2103 -0.3202 -0.0757
  478TMC3    C5 7164   3.406   3.589  11.282  0.3044 -0.6477 -0.2968
  478TMC3    C6 7165   3.433   3.669  11.385 -0.0953  0.3863 -0.8085
  478TMC3     C 7166   3.643   3.319  11.332 -0.0218  0.3489  0.4751
  478TMC3     O 7167   3.590   3.217  11.293  0.0634  0.0280 -0.4255
  478TMC3     H 7168   3.674   3.490  11.538 -2.5174 -1.3146  1.9654
  478TMC3    H1 7169   3.456   3.404  11.174  0.0508 -1.6520  0.9399
  478TMC3    H2 7170   3.366   3.753  11.397 -1.7301 -1.1842  1.1066
  478TMC3    C7 7171   3.298   3.640  11.183 -0.2623 -0.8760  0.6539
  478TMC3    C8 7172   3.534   3.704  11.603 -0.1863 -0.1016  0.3759
  478TMC3    O1 7173   3.275   3.757  11.174  0.0876 -0.4288  0.6227
  478TMC3    O2 7174   3.560   3.644  11.706  0.4158  0.8622 -0.3938
  479MPD2     C 7175   2.744   0.884  15.554 -0.2193  0.1257  0.0462
  479MPD2    C1 7176   2.649   0.826  15.634  0.2552 -0.2921  0.7242
  479MPD2    C2 7177   2.655   0.849  15.774 -0.6321  0.0618  0.0001
  479MPD2    C3 7178   2.743   0.942  15.830 -0.0582  0.2697  0.5857
  479MPD2    C4 7179   2.824   1.009  15.741  0.5445 -0.3685 -0.2156
  479MPD2    C5 7180   2.830   0.972  15.611  0.4838 -0.1658 -0.1657
  479MPD2     H 7181   2.592   0.788  15.837  0.7710 -2.0545 -0.6577
  479MPD2    H1 7182   2.890   1.089  15.773 -0.6049  1.5714 -2.7247
  479MPD2    H2 7183   2.748   0.855  15.449  0.4602 -0.6013  0.2813
  479MPD2    H3 7184   2.890   1.037  15.548  0.6778 -0.1127  0.0703
  479MPD2     N 7185   2.759   0.972  15.973  0.5828 -0.2787 -0.1834
  479MPD2    H5 7186   2.839   1.030  15.996  1.1972 -0.7198 -1.2037
  479MPD2    N1 7187   2.551   0.736  15.573  0.1670  0.4700  0.4848
  479MPD2    H7 7188   2.560   0.711  15.475 -1.5124 -2.2177  1.0170
  480TMC3    C1 7189   2.407   0.730  16.130 -0.5307  0.2512  0.6014
  480TMC3    C2 7190   2.302   0.807  16.076  0.2354 -0.1494 -0.3158
  480TMC3    C3 7191   2.333   0.923  16.015 -0.7409  0.3482  1.0257
  480TMC3    C4 7192   2.535   0.770  16.127 -0.6747 -0.7946 -0.0810
  480TMC3    C5 7193   2.560   0.884  16.059  0.4322  0.1066 -0.0959
  480TMC3    C6 7194   2.465   0.960  16.001 -0.6322 -0.0017 -0.2803
  480TMC3     C 7195   2.373   0.617  16.207  0.3283 -0.8213 -0.5135
  480TMC3     O 7196   2.467   0.545  16.245  0.1676 -0.0768 -0.0080
  480TMC3     H 7197   2.200   0.771  16.070 -0.2146  0.7688  1.7235
  480TMC3    H1 7198   2.620   0.727  16.179 -0.4419  2.0768  1.9526
  480TMC3    H2 7199   2.489   1.054  15.953 -0.5577  0.0642 -0.1113
  480TMC3    C7 7200   2.691   0.923  16.086  0.3299  0.7398 -0.9105
  480TMC3    C8 7201   2.240   0.960  15.904  0.5963 -0.0875  0.2395
  480TMC3    O1 7202   2.727   0.911  16.203  0.0887 -0.1132 -0.3816
  480TMC3    O2 7203   2.128   0.916  15.916  0.3591 -0.2936 -0.3194
  481MPD2     C 7204   4.540   0.138  14.470 -0.2369 -0.8432  0.3023
  481MPD2    C1 7205   4.414   0.179  14.426  0.2896  0.7857  0.2003
  481MPD2    C2 7206   4.312   0.187  14.515 -0.4438  0.4623  0.9386
  481MPD2    C3 7207   4.326   0.137  14.645 -0.0694  0.3711 -0.6904
  481MPD2    C4 7208   4.447   0.102  14.690 -0.4267 -0.4462  0.0574
  481MPD2    C5 7209   4.556   0.112  14.604 -0.4794  0.0354 -0.1833
  481MPD2     H 7210   4.215   0.231  14.495 -1.0332 -0.0095  2.8174
  481MPD2    H1 7211   4.462   0.041  14.779 -2.8551 -1.2167 -0.0621
  481MPD2    H2 7212   4.634   0.137  14.415 -0.3349  2.2982  0.0574
  481MPD2    H3 7213   4.645   0.069  14.648 -1.5269 -2.0060 -0.0111
  481MPD2     N 7214   4.223   0.138  14.737  0.3094  0.0770  0.0726
  481MPD2    H5 7215   4.252   0.107  14.829  0.8672  1.3084  0.3014
  481MPD2    N1 7216   4.400   0.222  14.294  0.0423  0.0454 -0.0356
  481MPD2    H7 7217   4.478   0.205  14.231  0.4097  0.6373  0.2533
  482TMC3    C1 7218   4.279   0.253  14.092  0.3006  0.0303 -0.2470
  482TMC3    C2 7219   4.345   0.147  14.029  0.3182  0.1073  0.2713
  482TMC3    C3 7220   4.293   0.120  13.907  0.3168  0.4555 -0.4777
  482TMC3    C4 7221   4.179   0.327  14.038  0.6529  0.7086 -0.6496
  482TMC3    C5 7222   4.128   0.290  13.917  0.6592 -1.0449  0.3430
  482TMC3    C6 7223   4.185   0.177  13.854  0.3712 -0.6763  0.0762
  482TMC3     C 7224   4.287   0.279  14.241 -0.7206 -0.2123  0.2189
  482TMC3     O 7225   4.188   0.331  14.288  0.0824 -0.2510  0.0245
  482TMC3     H 7226   4.404   0.080  14.090  0.0033  0.1566  0.6263
  482TMC3    H1 7227   4.153   0.424  14.080  0.6515  1.3934 -2.2093
  482TMC3    H2 7228   4.131   0.129  13.773 -0.9957 -0.4117  0.8272
  482TMC3    C7 7229   3.990   0.342  13.904 -0.4135  0.6885  0.1591
  482TMC3    C8 7230   4.330   4.735  13.844  0.6706  0.1191  0.3539
  482TMC3    O1 7231   3.931   0.390  14.002 -0.2712 -0.4596 -0.1219
  482TMC3    O2 7232   4.242   4.662  13.802 -0.4845 -0.1439  0.1236
  483TMC3    C1 7233   1.393   4.198   0.746  0.0618  0.6860  0.1928
  483TMC3    C2 7234   1.481   4.302   0.749  0.0391 -0.0408 -0.3674
  483TMC3    C3 7235   1.551   4.324   0.861  0.1278  0.1497  0.0082
  483TMC3    C4 7236   1.370   4.123   0.854 -0.2901 -0.4223 -0.3938
  483TMC3    C5 7237   1.440   4.150   0.967  0.6340 -0.1575 -0.0097
  483TMC3    C6 7238   1.538   4.240   0.971  0.5016  0.0114  0.3095
  483TMC3     C 7239   1.398   4.125   0.619  0.4674 -0.5113 -0.3197
  483TMC3     O 7240   1.299   4.152   0.553 -0.0591 -0.1506  0.2637
  483TMC3     H 7241   1.501   4.361   0.660  3.3642 -1.7448 -0.7332
  483TMC3    H1 7242   1.293   4.047   0.851 -0.1819 -0.6085  1.6208
  483TMC3    H2 7243   1.595   4.257   1.062  0.6512 -0.4167  0.2955
  483TMC3    C7 7244   1.466   4.028   1.044  0.0833 -0.3386 -0.3173
  483TMC3    C8 7245   1.687   4.371   0.845 -0.2457  0.4796  0.5319
  483TMC3    O1 7246   1.484   3.935   0.969  0.1311 -0.1599 -0.7406
  483TMC3    O2 7247   1.745   4.366   0.734  0.2782 -0.0562  0.0790
  484MPD2     C 7248   4.607   1.804  13.123  0.0190  0.0586 -0.5352
  484MPD2    C1 7249   4.515   1.800  13.019  0.9321  0.4847 -1.0358
  484MPD2    C2 7250   4.555   1.854  12.896  0.0748  0.1531 -0.0547
  484MPD2    C3 7251   4.684   1.895  12.883  0.5626 -0.3977 -0.2053
  484MPD2    C4 7252   0.045   1.879  12.983 -0.0360  1.0523  0.8543
  484MPD2    C5 7253   4.735   1.841  13.111  0.3108  0.2481  0.5757
  484MPD2     H 7254   4.493   1.852  12.807  0.6993  0.7912 -0.5090
  484MPD2    H1 7255   0.149   1.903  12.969 -0.3834  2.0867  0.0644
  484MPD2    H2 7256   4.576   1.751  13.212  0.3063  0.6940 -0.0598
  484MPD2    H3 7257   0.069   1.827  13.194 -1.2159 -1.7765  1.5284
  484MPD2     N 7258   0.009   1.926  12.760 -0.5290 -0.3779 -0.1465
  484MPD2    H5 7259   0.106   1.951  12.778 -1.1571  2.0918 -0.1114
  484MPD2    N1 7260   4.393   1.741  13.047  0.5068 -0.2361 -0.2316
  484MPD2    H7 7261   4.373   1.706  13.141 -1.6554  2.6445  0.3934
  485TMC3    C1 7262   0.051   2.029  12.551 -0.0833 -0.3657  0.0125
  485TMC3    C2 7263   0.190   2.037  12.577 -0.2643 -1.1010 -0.0362
  485TMC3    C3 7264   0.261   2.122  12.502  0.6353 -0.0290 -0.5351
  485TMC3    C4 7265   4.733   2.099  12.446 -0.2426  0.3487  0.0592
  485TMC3    C5 7266   0.071   2.187  12.381  0.5713 -0.4575  0.1104
  485TMC3    C6 7267   0.203   2.208  12.418 -0.2552 -0.7097 -0.3481
  485TMC3     C 7268   4.690   1.953  12.636  0.4659 -0.2527  0.8633
  485TMC3     O 7269   4.574   1.952  12.593  0.6119  0.5428  0.0820
  485TMC3     H 7270   0.238   1.950  12.620 -1.0272 -1.0777  0.8559
  485TMC3    H1 7271   4.629   2.083  12.420 -0.0500  2.9522 -2.2759
  485TMC3    H2 7272   0.264   2.275  12.359 -1.3268 -0.2967 -0.9805
  485TMC3    C7 7273   0.042   2.196  12.236 -0.0837  0.7157  0.3086
  485TMC3    C8 7274   0.386   2.073  12.444  0.2086  0.1649  0.5536
  485TMC3    O1 7275   4.662   2.208  12.195  0.0096  0.3667 -0.1978
  485TMC3    O2 7276   0.403   2.107  12.330 -0.0655 -0.2727 -0.1816
  486MPD2     C 7277   2.137   0.971  13.170 -0.0626 -0.2715 -0.0229
  486MPD2    C1 7278   2.070   0.936  13.061 -0.1706 -0.9607 -0.0853
  486MPD2    C2 7279   2.013   1.030  12.978 -0.1858  0.9095  0.6758
  486MPD2    C3 7280   2.019   1.159  13.017 -0.1126 -0.1079 -0.2198
  486MPD2    C4 7281   2.082   1.198  13.128  0.1128 -0.8855 -0.6613
  486MPD2    C5 7282   2.149   1.097  13.199  0.0869 -0.6905  0.0247
  486MPD2     H 7283   1.966   1.004  12.884 -1.1516 -0.7097  1.6074
  486MPD2    H1 7284   2.098   1.303  13.150  0.0424 -1.8378  3.9988
  486MPD2    H2 7285   2.163   0.889  13.235  0.6773 -0.5088 -0.6263
  486MPD2    H3 7286   2.209   1.122  13.286  1.6038 -0.2412 -1.1460
  486MPD2     N 7287   1.937   1.248  12.946 -0.0107  0.1564  0.7041
  486MPD2    H5 7288   1.880   1.201  12.876  0.1890  2.1901 -0.8366
  486MPD2    N1 7289   2.044   0.799  13.046  0.2988  0.7265 -0.3244
  486MPD2    H7 7290   2.072   0.729  13.114 -1.1942  0.1582 -0.2854
  487TMC3    C1 7291   1.965   0.596  12.950  0.3895 -1.2654  0.5725
  487TMC3    C2 7292   1.972   0.518  12.841  1.3252  0.1705  0.3263
  487TMC3    C3 7293   1.999   0.386  12.849  0.0730  0.6084  0.0705
  487TMC3    C4 7294   1.961   0.551  13.077  0.3016  0.2427  0.4561
  487TMC3    C5 7295   1.996   0.418  13.083 -0.1766 -1.0882 -0.4687
  487TMC3    C6 7296   2.024   0.334  12.972 -0.1995 -0.7796  0.5887
  487TMC3     C 7297   1.990   0.739  12.936 -0.4339 -0.7078 -0.0417
  487TMC3     O 7298   1.947   0.790  12.833  0.1456 -0.8244  0.1867
  487TMC3     H 7299   1.976   0.571  12.746  0.9441  2.2109  1.4577
  487TMC3    H1 7300   1.942   0.609  13.166 -0.1455  0.9081 -0.0822
  487TMC3    H2 7301   2.012   0.226  12.977 -1.0003 -0.7563 -0.6132
  487TMC3    C7 7302   1.960   0.361  13.209 -0.5592  0.2645 -0.3488
  487TMC3    C8 7303   1.912   0.284  12.795  0.2704 -0.0039  0.9035
  487TMC3    O1 7304   1.996   0.425  13.304  0.0122  0.3957  0.3239
  487TMC3    O2 7305   1.968   0.185  12.749  0.5000 -0.4941  0.6162
  488MPD2     C 7306   1.775   2.227  16.312 -0.0834  0.0267  0.1708
  488MPD2    C1 7307   1.793   2.308  16.428 -0.1668 -0.0729  0.4829
  488MPD2    C2 7308   1.757   2.251  16.548  0.5893  0.3653 -0.1726
  488MPD2    C3 7309   1.689   2.133  16.560 -1.3341 -0.1321  0.2775
  488MPD2    C4 7310   1.667   2.065  16.445  0.2785  0.5284  0.7696
  488MPD2    C5 7311   1.699   2.115  16.325 -0.1315  0.4852  0.0358
  488MPD2     H 7312   1.777   2.308  16.638 -2.8413  0.2619  0.6437
  488MPD2    H1 7313   1.621   1.967  16.455  1.5037 -0.0095  1.1587
  488MPD2    H2 7314   1.806   2.253  16.211  0.6540  0.6587  0.5559
  488MPD2    H3 7315   1.679   2.057  16.236  0.5944 -0.1209  0.2627
  488MPD2     N 7316   1.656   2.089  16.690  0.7091 -0.2442 -0.0809
  488MPD2    H5 7317   1.688   2.141  16.771  0.3061 -0.4513  0.2138
  488MPD2    N1 7318   1.853   2.438  16.424  0.3491 -0.2949  0.4439
  488MPD2    H7 7319   1.867   2.489  16.511  0.3180  0.0389  0.2542
  489TMC3    C1 7320   1.595   1.917  16.851  0.0012 -0.0793  0.0765
  489TMC3    C2 7321   1.707   1.962  16.913  0.6389  0.2459  0.2243
  489TMC3    C3 7322   1.700   1.975  17.046 -0.1289  0.1311 -0.3268
  489TMC3    C4 7323   1.482   1.876  16.918  0.0848 -0.2031  0.1246
  489TMC3    C5 7324   1.485   1.883  17.059  0.1361  0.2069  0.4952
  489TMC3    C6 7325   1.593   1.929  17.122 -0.0541  0.1133 -1.0316
  489TMC3     C 7326   1.573   1.975  16.716  0.1318  0.1415 -0.2737
  489TMC3     O 7327   1.496   1.925  16.640 -1.1668 -0.0194 -0.3302
  489TMC3     H 7328   1.790   1.992  16.851  1.4543 -0.8860  0.7956
  489TMC3    H1 7329   1.393   1.865  16.857  0.1512  0.4739 -0.0968
  489TMC3    H2 7330   1.597   1.926  17.230  0.2670  2.0096 -0.9967
  489TMC3    C7 7331   1.382   1.823  17.146  0.4141 -0.3677 -0.4555
  489TMC3    C8 7332   1.740   2.114  17.082  0.0604  0.2254  0.7688
  489TMC3    O1 7333   1.359   1.871  17.255 -0.1081 -0.1025  0.2401
  489TMC3    O2 7334   1.772   2.179  16.985  0.3361 -0.4624 -0.3563
  490MPD2     C 7335   2.788   2.206  17.083 -0.6123 -0.5547  0.1450
  490MPD2    C1 7336   2.790   2.140  17.205 -0.0252 -0.1358  0.3547
  490MPD2    C2 7337   2.913   2.101  17.258  0.0826 -0.8107  0.2406
  490MPD2    C3 7338   3.033   2.136  17.204 -0.1724  0.5766 -0.5518
  490MPD2    C4 7339   3.029   2.180  17.071  0.3261  0.5150  0.5830
  490MPD2    C5 7340   2.906   2.223  17.022 -0.4785 -0.4252  0.1234
  490MPD2     H 7341   2.917   2.029  17.339  0.6632 -1.1594 -0.1027
  490MPD2    H1 7342   3.121   2.207  17.020  0.5804 -1.0530  0.2354
  490MPD2    H2 7343   2.694   2.230  17.034  1.3990  0.1390 -3.3880
  490MPD2    H3 7344   2.912   2.277  16.928  2.0137  0.6899  0.9252
  490MPD2     N 7345   3.153   2.109  17.266  0.3177 -0.7162 -0.5414
  490MPD2    H5 7346   3.236   2.112  17.207  3.0625 -0.4633  3.3344
  490MPD2    N1 7347   2.679   2.118  17.286  0.4950  0.3009 -0.0829
  490MPD2    H7 7348   2.680   2.059  17.369 -1.1086 -0.5912 -0.7059
  491TMC3    C1 7349   2.476   2.161  17.380 -0.1951  0.1390  0.2738
  491TMC3    C2 7350   2.462   2.276  17.459  0.2257 -0.4307  0.5535
  491TMC3    C3 7351   2.405   2.266  17.581  0.0616 -0.2298  0.7086
  491TMC3    C4 7352   2.451   2.043  17.433  0.0345 -0.4935  0.1301
  491TMC3    C5 7353   2.372   2.038  17.546  0.0814 -0.8654  0.2048
  491TMC3    C6 7354   2.350   2.149  17.627  0.3104 -0.2166  0.5687
  491TMC3     C 7355   2.566   2.186  17.272 -0.4780  0.8586 -0.0568
  491TMC3     O 7356   2.537   2.286  17.204 -0.8618 -0.2328 -0.0626
  491TMC3     H 7357   2.487   2.368  17.409  0.8748 -0.5644  0.6255
  491TMC3    H1 7358   2.485   1.957  17.376  1.8412  0.3573 -0.0534
  491TMC3    H2 7359   2.320   2.143  17.731  1.3545  1.4792  0.9832
  491TMC3    C7 7360   2.342   1.907  17.596  0.0500 -0.6189 -0.4969
  491TMC3    C8 7361   2.340   2.396  17.615  0.0257 -0.4450 -0.5225
  491TMC3    O1 7362   2.311   1.893  17.716 -0.9795 -0.0537 -0.2048
  491TMC3    O2 7363   2.233   2.387  17.675  0.0432  0.2223 -0.3270
  492MPD2     C 7364   3.164   1.935  11.382  0.3371  0.1423  0.8550
  492MPD2    C1 7365   3.029   1.962  11.367  0.0730 -0.5779  0.2448
  492MPD2    C2 7366   2.942   1.972  11.473  0.8114  0.5872 -0.4113
  492MPD2    C3 7367   2.990   1.963  11.604 -0.2379  0.4315  0.0595
  492MPD2    C4 7368   3.124   1.934  11.617 -0.3572  0.5454  0.5836
  492MPD2    C5 7369   3.213   1.920  11.507 -0.0365 -0.3503  0.3980
  492MPD2     H 7370   2.839   2.002  11.455 -0.0960 -2.7413 -0.6299
  492MPD2    H1 7371   3.167   1.938  11.716  0.1727 -1.5568  0.4464
  492MPD2    H2 7372   3.236   1.923  11.301 -0.6056  0.2012  0.0062
  492MPD2    H3 7373   3.319   1.908  11.527  0.2844  0.9257 -0.4969
  492MPD2     N 7374   2.911   1.998  11.714  0.3354  0.1264 -0.0414
  492MPD2    H5 7375   2.813   2.021  11.698  0.6059  2.2318  1.4219
  492MPD2    N1 7376   2.989   1.985  11.230  0.1199 -0.4303  0.0443
  492MPD2    H7 7377   3.062   1.958  11.166 -0.6939  0.4238 -1.2380
  493TMC3    C1 7378   2.897   2.020  11.024 -0.7698  0.1171  0.2107
  493TMC3    C2 7379   3.014   2.074  10.979 -1.0523 -0.0027  0.5499
  493TMC3    C3 7380   3.032   2.084  10.842  0.3530  0.2323  0.4857
  493TMC3    C4 7381   2.800   1.976  10.941 -0.1787 -0.1087  0.2626
  493TMC3    C5 7382   2.823   1.991  10.805 -0.5659  0.2501  0.4557
  493TMC3    C6 7383   2.938   2.045  10.752  0.0885  0.2912  0.2494
  493TMC3     C 7384   2.874   2.011  11.168  0.1732  0.1368 -0.2201
  493TMC3     O 7385   2.761   2.016  11.213 -0.4352 -0.0935  0.5533
  493TMC3     H 7386   3.082   2.128  11.045 -1.7819 -1.5339  2.5600
  493TMC3    H1 7387   2.705   1.946  10.982 -1.1073  1.4755 -0.7181
  493TMC3    H2 7388   2.952   2.056  10.645 -0.9412 -1.5533 -0.0738
  493TMC3    C7 7389   2.726   1.940  10.706 -0.0619  0.1294 -0.5416
  493TMC3    C8 7390   3.154   2.147  10.784  0.6768 -0.2381  0.5705
  493TMC3    O1 7391   2.748   1.949  10.585  0.0222 -0.1314  0.4968
  493TMC3    O2 7392   3.144   2.196  10.671 -0.5354 -0.5734  0.1051
  494TMC3    C1 7393   3.404   3.989   0.587  0.2018  0.5618  0.0573
  494TMC3    C2 7394   3.386   3.862   0.626  0.1739  0.1401 -0.1913
  494TMC3    C3 7395   3.477   3.772   0.584  0.2771  0.4358  0.0505
  494TMC3    C4 7396   3.498   4.029   0.495 -0.5500 -0.1354 -0.7842
  494TMC3    C5 7397   3.586   3.937   0.447 -0.3140  0.8987 -0.3554
  494TMC3    C6 7398   3.579   3.806   0.492  1.1374  0.8164 -0.1966
  494TMC3     C 7399   3.310   4.078   0.647 -0.6378  0.4584 -0.0021
  494TMC3     O 7400   3.240   4.037   0.736  0.6006 -0.3317 -0.2199
  494TMC3     H 7401   3.303   3.832   0.689  1.0000 -2.3018 -0.2547
  494TMC3    H1 7402   3.490   4.123   0.442 -0.7450  0.7001  0.7382
  494TMC3    H2 7403   3.655   3.738   0.456  0.1374 -0.6139  0.3309
  494TMC3    C7 7404   3.672   3.972   0.339  0.4912  0.3617 -0.5027
  494TMC3    C8 7405   3.464   3.639   0.646  0.0242  0.2945 -0.0562
  494TMC3    O1 7406   3.704   3.877   0.266 -0.4711 -0.0648  0.2108
  494TMC3    O2 7407   3.408   3.623   0.754  0.0337  0.0056 -0.4801
  495TMC3    C1 7408   2.728   0.926  15.052  0.3705  0.2601  0.0523
  495TMC3    C2 7409   2.636   0.916  14.954  0.2717 -0.0001  0.1197
  495TMC3    C3 7410   2.512   0.971  14.967  0.1246  0.2216  0.0621
  495TMC3    C4 7411   2.684   0.995  15.165 -0.2615  0.1627 -0.7986
  495TMC3    C5 7412   2.566   1.053  15.173 -0.4787  0.1913 -0.8491
  495TMC3    C6 7413   2.469   1.035  15.072 -0.2920 -0.5709  0.2514
  495TMC3     C 7414   2.778   0.791  15.071 -0.4119  0.2031  0.5065
  495TMC3     O 7415   2.699   0.719  15.129  0.0513  0.0532  0.6968
  495TMC3     H 7416   2.662   0.859  14.866  0.3022  0.5253 -0.2066
  495TMC3    H1 7417   2.747   0.987  15.253 -0.0819  0.1504 -0.9277
  495TMC3    H2 7418   2.369   1.077  15.073  0.3680  0.9934  0.8076
  495TMC3    C7 7419   2.512   1.070  15.315  0.2473 -0.5301  0.4074
  495TMC3    C8 7420   2.413   0.884  14.914  0.8464  0.4443 -0.8190
  495TMC3    O1 7421   2.592   1.081  15.409  0.3575 -0.0281  0.2121
  495TMC3    O2 7422   2.311   0.940  14.874 -0.3100 -0.8652 -0.5966
  496MPD2     C 7423   0.095   1.143  15.270 -0.0549  0.0574  0.3616
  496MPD2    C1 7424   0.054   1.028  15.219 -0.3106  0.4588 -0.5206
  496MPD2    C2 7425   4.654   1.011  15.190  0.1938  0.4249 -0.7232
  496MPD2    C3 7426   4.564   1.112  15.221  0.3731  0.2138 -0.2015
  496MPD2    C4 7427   4.606   1.230  15.275 -0.4142  0.0182  1.0320
  496MPD2    C5 7428   0.005   1.246  15.293  0.7727 -0.0675 -0.3795
  496MPD2     H 7429   4.622   0.916  15.148 -0.1411 -0.2592  1.0725
  496MPD2    H1 7430   4.530   1.303  15.302 -1.7299 -1.4412  1.2759
  496MPD2    H2 7431   0.199   1.161  15.295  0.7739 -1.0377 -2.2230
  496MPD2    H3 7432   0.049   1.339  15.326  1.1692 -1.0938  1.9431
  496MPD2     N 7433   4.429   1.101  15.189  0.5071  0.7326 -0.3503
  496MPD2    H5 7434   4.375   1.184  15.210  0.3311  0.0706  1.7583
  496MPD2    N1 7435   0.145   0.926  15.203 -0.0258  0.0918  0.3798
  496MPD2    H7 7436   0.243   0.951  15.195  0.6638 -2.3776  0.9783
  497TMC3    C1 7437   4.229   1.013  15.111 -0.3755  0.8661  0.0954
  497TMC3    C2 7438   4.166   0.954  15.003  0.9811  0.2307  0.4755
  497TMC3    C3 7439   4.032   0.944  15.011 -0.0576  0.3431  0.0434
  497TMC3    C4 7440   4.164   1.052  15.230  0.3582 -1.2429 -0.1405
  497TMC3    C5 7441   4.028   1.031  15.228 -0.4856  0.4380  0.4772
  497TMC3    C6 7442   3.960   0.986  15.122 -0.7135  0.1947 -0.0214
  497TMC3     C 7443   4.373   1.002  15.111 -0.1766  0.2313 -0.5112
  497TMC3     O 7444   4.418   0.920  15.036  0.0886  0.2411 -0.5545
  497TMC3     H 7445   4.223   0.926  14.915  0.0595 -5.0964  1.5507
  497TMC3    H1 7446   4.218   1.096  15.313 -1.5408 -1.0167  0.9689
  497TMC3    H2 7447   3.855   0.962  15.125 -1.1141  1.9978  0.2165
  497TMC3    C7 7448   3.959   1.043  15.352  0.2879 -0.8158 -0.0032
  497TMC3    C8 7449   3.959   0.887  14.898 -0.4366 -0.0050 -0.1689
  497TMC3    O1 7450   3.841   1.014  15.351  0.0533 -0.4910  0.4561
  497TMC3    O2 7451   3.844   0.925  14.875 -0.0156 -0.3994  1.4683
  498MPD2     C 7452   0.598   1.855   9.171  0.4260 -0.4706  0.0073
  498MPD2    C1 7453   0.549   1.738   9.120 -0.3681 -0.1464 -0.7754
  498MPD2    C2 7454   0.445   1.689   9.183 -0.3775 -0.0141 -0.0389
  498MPD2    C3 7455   0.369   1.755   9.279 -0.4467 -0.0903  0.1013
  498MPD2    C4 7456   0.417   1.878   9.328  0.2296  0.2664  0.2800
  498MPD2    C5 7457   0.533   1.928   9.273  0.1410  0.0416 -0.3374
  498MPD2     H 7458   0.400   1.598   9.144  0.5359 -0.0702 -0.9599
  498MPD2    H1 7459   0.375   1.946   9.401  2.1451  2.0640 -0.3123
  498MPD2    H2 7460   0.684   1.910   9.134 -0.9650  1.3597 -0.5120
  498MPD2    H3 7461   0.567   2.026   9.303  0.5744 -0.6138  1.2975
  498MPD2     N 7462   0.259   1.678   9.335 -0.2098  0.0043 -0.1675
  498MPD2    H5 7463   0.261   1.578   9.314  0.6673 -0.0443  0.1428
  498MPD2    N1 7464   0.607   1.667   9.013  0.0166 -0.7332 -0.3311
  498MPD2    H7 7465   0.585   1.569   8.999 -2.6703 -0.3182  1.1375
  499TMC3    C1 7466   0.775   1.610   8.862  0.2564  0.1342 -0.4541
  499TMC3    C2 7467   0.693   1.523   8.802 -0.1373  0.4493  1.0789
  499TMC3    C3 7468   0.752   1.400   8.755  0.4469 -0.3931 -0.0597
  499TMC3    C4 7469   0.908   1.591   8.881 -0.0666 -0.4681  0.7082
  499TMC3    C5 7470   0.958   1.470   8.847 -0.0550 -0.3381 -0.5145
  499TMC3    C6 7471   0.881   1.375   8.776 -0.2214 -0.5942  0.0156
  499TMC3     C 7472   0.708   1.715   8.929 -0.1722  0.2590  0.3759
  499TMC3     O 7473   0.765   1.823   8.928  0.4507 -0.0006  0.5528
  499TMC3     H 7474   0.587   1.535   8.786 -0.0260 -0.7084 -0.5181
  499TMC3    H1 7475   0.976   1.665   8.922  1.9810 -1.0420 -1.6846
  499TMC3    H2 7476   0.918   1.285   8.729 -2.0901  0.3383 -3.2538
  499TMC3    C7 7477   1.083   1.429   8.914  0.3605 -0.0574  0.2729
  499TMC3    C8 7478   0.665   1.296   8.688  0.5224 -0.0832  0.7781
  499TMC3    O1 7479   1.151   1.510   8.979  0.4746  0.0446  0.3045
  499TMC3    O2 7480   0.701   1.179   8.701 -0.1004  0.2207 -0.4108
  500MPD2     C 7481   2.687   2.871   9.870 -0.1703  0.4412 -0.2245
  500MPD2    C1 7482   2.590   2.859   9.965  0.6454  0.6657 -0.0830
  500MPD2    C2 7483   2.487   2.779   9.943  0.3830 -0.3494 -0.0582
  500MPD2    C3 7484   2.473   2.700   9.829 -0.4843 -0.3641 -0.5123
  500MPD2    C4 7485   2.567   2.716   9.731  0.6221 -0.1864 -0.0302
  500MPD2    C5 7486   2.672   2.801   9.750  0.8337 -0.1319 -0.1017
  500MPD2     H 7487   2.423   2.764  10.030 -1.3533 -0.7892 -1.4161
  500MPD2    H1 7488   2.568   2.648   9.646  1.2375  2.4068 -2.1086
  500MPD2    H2 7489   2.771   2.937   9.889  0.8680 -1.0426  0.3735
  500MPD2    H3 7490   2.749   2.813   9.675  0.0238  1.5902 -0.6402
  500MPD2     N 7491   2.383   2.596   9.813  0.2458 -0.0640  0.0305
  500MPD2    H5 7492   2.392   2.530   9.736 -0.0217 -1.7384  1.4191
  500MPD2    N1 7493   2.585   2.939  10.082 -0.0446  0.3413 -0.3429
  500MPD2    H7 7494   2.514   2.924  10.153 -0.0731 -1.4769 -0.7464
  501TMC3    C1 7495   2.632   3.133  10.210  0.6080 -0.1560 -0.9013
  501TMC3    C2 7496   2.653   3.269  10.203 -0.1124  0.6393 -0.7832
  501TMC3    C3 7497   2.637   3.331  10.324 -0.2769 -0.5729  0.3508
  501TMC3    C4 7498   2.605   3.057  10.323  0.3392  0.1973 -0.1724
  501TMC3    C5 7499   2.599   3.128  10.438  0.5148  0.2263 -0.1245
  501TMC3    C6 7500   2.612   3.265  10.442  0.1518 -0.2104  0.0850
  501TMC3     C 7501   2.644   3.063  10.084  0.0934  0.0596  0.5466
  501TMC3     O 7502   2.701   3.123   9.993 -0.8050  0.3238 -0.7702
  501TMC3     H 7503   2.680   3.324  10.114  0.4676  1.4462 -0.1149
  501TMC3    H1 7504   2.598   2.949  10.327 -1.1120  0.2118 -2.3980
  501TMC3    H2 7505   2.583   3.321  10.530 -1.2849 -0.3036 -0.3147
  501TMC3    C7 7506   2.577   3.052  10.559 -0.3612  0.0721  0.3834
  501TMC3    C8 7507   2.652   3.477  10.339  0.0992 -0.4337 -0.0781
  501TMC3    O1 7508   2.508   2.945  10.556  0.0034  0.4040  0.2981
  501TMC3    O2 7509   2.726   3.503  10.432  0.4373 -0.2856  0.3401
  502TMC3    C1 7510   2.128   1.817  15.138 -0.0729 -0.1963 -0.0669
  502TMC3    C2 7511   2.078   1.929  15.081  0.8738 -0.3935 -0.4290
  502TMC3    C3 7512   1.945   1.931  15.056 -0.0080 -0.5282  0.3997
  502TMC3    C4 7513   2.053   1.708  15.169  0.1809  0.3492  0.5262
  502TMC3    C5 7514   1.914   1.719  15.148  0.0924  0.3068 -0.1381
  502TMC3    C6 7515   1.852   1.828  15.086  0.3126  0.5041 -0.7049
  502TMC3     C 7516   2.235   1.845  15.233 -0.5271  0.0654  0.1778
  502TMC3     O 7517   2.305   1.943  15.206  0.0959 -0.2772 -0.3034
  502TMC3     H 7518   2.145   2.002  15.037 -0.7639  1.3886  0.0704
  502TMC3    H1 7519   2.092   1.617  15.213  2.8931  1.3291  0.1753
  502TMC3    H2 7520   1.747   1.843  15.066  0.0411 -2.5355 -1.5821
  502TMC3    C7 7521   1.840   1.610  15.209 -0.2290 -0.4474 -0.4825
  502TMC3    C8 7522   1.888   2.068  15.046  0.0936  0.6270  0.0896
  502TMC3    O1 7523   1.900   1.529  15.271 -0.1773 -0.2424  0.5357
  502TMC3    O2 7524   1.948   2.142  14.966  0.2290 -0.2441  0.3937
  503MPD2     C 7525   3.705   2.512  17.139 -0.4046  0.3513 -0.3454
  503MPD2    C1 7526   3.766   2.525  17.252 -0.1868  0.3314 -0.4359
  503MPD2    C2 7527   3.831   2.415  17.303  0.2688 -0.5576 -0.1311
  503MPD2    C3 7528   3.849   2.297  17.232  0.0782 -0.0351  1.0100
  503MPD2    C4 7529   3.780   2.288  17.109  0.8245 -0.1371 -0.1379
  503MPD2    C5 7530   3.711   2.397  17.067  0.4888  0.3817 -0.3045
  503MPD2     H 7531   3.875   2.425  17.402 -0.5026  1.0758  0.0309
  503MPD2    H1 7532   3.791   2.205  17.039  0.6009 -1.2559  1.1693
  503MPD2    H2 7533   3.655   2.597  17.094 -2.5134 -0.2779  0.8266
  503MPD2    H3 7534   3.661   2.396  16.970 -1.5434  1.0931  0.7370
  503MPD2     N 7535   3.932   2.198  17.286  0.2193  0.0835  0.3162
  503MPD2    H5 7536   3.973   2.201  17.379 -0.4832 -2.5124  0.6978
  503MPD2    N1 7537   3.765   2.645  17.327  0.4018  0.0331 -0.4731
  503MPD2    H7 7538   3.776   2.637  17.427 -1.2933 -1.3993 -0.3957
  504TMC3    C1 7539   4.086   2.023  17.277 -0.5523  0.4936 -0.7155
  504TMC3    C2 7540   4.077   1.975  17.402 -0.1206  0.4280 -0.6452
  504TMC3    C3 7541   4.183   1.920  17.458 -0.7142 -0.4255 -0.1159
  504TMC3    C4 7542   4.202   2.038  17.211 -0.0230 -0.3732 -0.1559
  504TMC3    C5 7543   4.312   1.972  17.271 -0.5371 -0.3311 -0.4519
  504TMC3    C6 7544   4.297   1.904  17.391  0.3498  0.7752 -0.1301
  504TMC3     C 7545   3.980   2.091  17.213 -0.3684  0.4857 -0.3328
  504TMC3     O 7546   3.972   2.074  17.091 -0.3895  0.2721 -0.8471
  504TMC3     H 7547   3.982   1.976  17.455 -0.4546  0.9061 -1.2566
  504TMC3    H1 7548   4.205   2.073  17.108 -0.1229  1.3673  0.4360
  504TMC3    H2 7549   4.386   1.862  17.435 -0.7011 -1.0272  0.2749
  504TMC3    C7 7550   4.441   1.992  17.205  0.4916  0.3245 -0.0155
  504TMC3    C8 7551   4.169   1.799  17.532  0.0384  0.1904  0.4709
  504TMC3    O1 7552   4.440   2.051  17.099  1.0502 -0.6300  0.4241
  504TMC3    O2 7553   4.209   1.692  17.484  0.1659  0.3617 -0.5218
  505MPD2     C 7554   4.214   0.716  10.070  0.9591  0.3411  0.2193
  505MPD2    C1 7555   4.179   0.725   9.943  0.1686 -0.7477  0.3773
  505MPD2    C2 7556   4.251   0.656   9.851 -0.4208 -0.1473  0.7833
  505MPD2    C3 7557   4.359   0.573   9.892 -0.0319  0.3040 -0.4165
  505MPD2    C4 7558   4.393   0.564  10.027 -0.2155 -0.1728  0.4898
  505MPD2    C5 7559   4.318   0.645  10.112  0.2210  0.3027  0.5284
  505MPD2     H 7560   4.239   0.670   9.744  0.5705  3.5496  1.1716
  505MPD2    H1 7561   4.476   0.501  10.060  0.0246  0.1824  0.5608
  505MPD2    H2 7562   4.163   0.776  10.144 -2.7836  0.6490 -2.5688
  505MPD2    H3 7563   4.342   0.647  10.218 -1.4803 -1.2644  0.9299
  505MPD2     N 7564   4.441   0.517   9.791 -0.1058  0.0487 -0.6043
  505MPD2    H5 7565   4.402   0.530   9.698 -0.0216 -0.3784 -0.6980
  505MPD2    N1 7566   4.070   0.810   9.910  0.5265 -0.3344 -0.4360
  505MPD2    H7 7567   4.033   0.878   9.976  1.7488  0.2889 -0.3974
  506TMC3    C1 7568   3.885   0.864   9.766 -0.7878  0.3366  0.4620
  506TMC3    C2 7569   3.889   1.001   9.764  0.4396 -0.0695 -0.2473
  506TMC3    C3 7570   3.826   1.060   9.662  0.7910 -0.4458  0.5530
  506TMC3    C4 7571   3.816   0.799   9.668  0.3367 -0.1196 -0.8760
  506TMC3    C5 7572   3.755   0.868   9.568 -0.1871  0.0331  0.0774
  506TMC3    C6 7573   3.743   1.004   9.570  0.4500 -0.0692 -0.4534
  506TMC3     C 7574   4.004   0.791   9.790  0.3628  0.2641  0.2105
  506TMC3     O 7575   4.024   0.710   9.700 -0.5864 -0.2792 -0.7156
  506TMC3     H 7576   3.963   1.049   9.828 -0.2129  2.4967 -1.4560
  506TMC3    H1 7577   3.814   0.690   9.671 -0.5348 -0.0897 -0.4583
  506TMC3    H2 7578   3.690   1.053   9.488 -0.8166 -1.7962 -0.6678
  506TMC3    C7 7579   3.801   0.830   9.434  0.5228 -0.5961  0.3046
  506TMC3    C8 7580   3.849   1.208   9.651 -0.5801  0.5218  0.2799
  506TMC3    O1 7581   3.745   0.873   9.337 -0.6527 -0.0481  0.7111
  506TMC3    O2 7582   3.762   1.268   9.588  0.3659  0.0459  0.3164
  507TMC3    C1 7583   0.278   1.610  15.022 -0.2068  0.1193  1.1372
  507TMC3    C2 7584   0.199   1.547  14.929 -0.1829 -0.5514 -0.8978
  507TMC3    C3 7585   0.228   1.541  14.795  0.0667  0.4801 -0.3969
  507TMC3    C4 7586   0.382   1.684  14.977 -0.8643 -0.0851  0.6579
  507TMC3    C5 7587   0.409   1.678  14.844  0.3801 -0.4243 -0.5737
  507TMC3    C6 7588   0.348   1.592  14.758  0.5163 -0.4802 -0.2427
  507TMC3     C 7589   0.261   1.576  15.160 -0.2691 -0.3276  0.4807
  507TMC3     O 7590   0.151   1.533  15.197 -0.1929 -0.1127 -0.5705
  507TMC3     H 7591   0.115   1.488  14.963 -0.6548 -0.6059 -2.1761
  507TMC3    H1 7592   0.428   1.760  15.040  0.6797 -0.1129 -0.4415
  507TMC3    H2 7593   0.365   1.593  14.651  0.5113 -1.9596 -0.2600
  507TMC3    C7 7594   0.437   1.805  14.780  0.0867  0.5452 -0.2462
  507TMC3    C8 7595   0.126   1.575  14.699  0.3427  0.4756 -0.4826
  507TMC3    O1 7596   0.390   1.812  14.669  0.3699 -0.6030  0.0231
  507TMC3    O2 7597   0.155   1.574  14.582 -0.2766  0.2631  0.1358
  508MPD2     C 7598   1.285   4.016  16.340 -0.4291 -0.8454 -0.2038
  508MPD2    C1 7599   1.359   4.114  16.407 -0.4738  0.0343 -0.4006
  508MPD2    C2 7600   1.382   4.229  16.328  0.0665  0.1621 -0.2176
  508MPD2    C3 7601   1.328   4.236  16.203 -0.2817 -0.6018  0.2030
  508MPD2    C4 7602   1.245   4.139  16.148  0.1804  0.2964  0.1961
  508MPD2    C5 7603   1.226   4.025  16.220  0.5781 -0.2846  0.3333
  508MPD2     H 7604   1.426   4.318  16.371 -1.5716 -0.2258  2.2635
  508MPD2    H1 7605   1.209   4.129  16.047  0.7243  1.1350 -0.0814
  508MPD2    H2 7606   1.264   3.924  16.395  3.9566 -1.0423  1.1413
  508MPD2    H3 7607   1.161   3.951  16.175  0.5243  0.0041 -0.0628
  508MPD2     N 7608   1.363   4.355  16.131  0.0518 -0.1663 -0.1518
  508MPD2    H5 7609   1.426   4.417  16.180  0.9560  0.7332 -2.4464
  508MPD2    N1 7610   1.407   4.097  16.535  0.1771  0.4915 -0.1257
  508MPD2    H7 7611   1.377   4.014  16.585 -0.2585  0.1622 -0.9327
  509TMC3    C1 7612   1.349   4.687  15.811  0.1518 -0.4542  0.4658
  509TMC3    C2 7613   1.449   0.021  15.872  0.4042  0.1670 -0.2505
  509TMC3    C3 7614   1.519   4.690  15.972  0.2604  0.2535  0.0376
  509TMC3    C4 7615   1.309   4.566  15.850  0.4619  0.6259  0.5492
  509TMC3    C5 7616   1.370   4.518  15.961  0.3089  0.7636  0.2386
  509TMC3    C6 7617   1.478   4.570  16.020  0.2715 -0.2366 -0.7097
  509TMC3     C 7618   1.244   0.037  15.777  0.2925  0.0600  0.0348
  509TMC3     O 7619   1.144   0.015  15.843  0.5062  0.4519  0.0574
  509TMC3     H 7620   1.470   0.117  15.825 -0.7017  1.6878  2.3414
  509TMC3    H1 7621   1.214   4.522  15.822  1.5474 -3.4120  3.1448
  509TMC3    H2 7622   1.526   4.517  16.102 -1.1634  1.2909  1.1028
  509TMC3    C7 7623   1.321   4.388  16.004 -0.4565 -0.1660 -0.2566
  509TMC3    C8 7624   1.620   0.026  16.051  0.0615 -0.1704 -0.3081
  509TMC3    O1 7625   1.244   4.325  15.931  0.1478  0.2910  0.8776
  509TMC3    O2 7626   1.676   4.702  16.148  0.7089  0.1515 -0.5549
  510MPD2     C 7627   3.441   1.609  14.574  0.6106  0.3868  0.1529
  510MPD2    C1 7628   3.512   1.528  14.652  0.2471  0.0779  0.1671
  510MPD2    C2 7629   3.644   1.496  14.622 -0.3029  0.2275  0.6787
  510MPD2    C3 7630   3.700   1.542  14.505  0.6109  0.1581  0.2059
  510MPD2    C4 7631   3.637   1.639  14.438  0.6615  1.0684  0.5244
  510MPD2    C5 7632   3.512   1.669  14.473  0.3106  0.0393  0.1079
  510MPD2     H 7633   3.702   1.418  14.669  0.4407  1.1934  1.3628
  510MPD2    H1 7634   3.683   1.697  14.359  1.5466  0.6346  0.7203
  510MPD2    H2 7635   3.343   1.652  14.596 -0.0317  0.3383 -2.7126
  510MPD2    H3 7636   3.464   1.750  14.419 -1.8955 -0.2266  1.6610
  510MPD2     N 7637   3.831   1.495  14.475  0.1063 -0.6549 -0.8527
  510MPD2    H5 7638   3.881   1.443  14.547 -3.6091 -1.8497  0.8430
  510MPD2    N1 7639   3.432   1.465  14.757  0.1806 -0.4699  0.1636
  510MPD2    H7 7640   3.334   1.490  14.769  0.3701  0.4742 -0.2737
  511TMC3    C1 7641   3.406   1.310  14.939 -0.3225 -0.0529  0.5105
  511TMC3    C2 7642   3.322   1.402  15.008 -0.0115  0.2825 -0.1567
  511TMC3    C3 7643   3.281   1.380  15.137 -0.1636  0.1560  0.2323
  511TMC3    C4 7644   3.445   1.193  14.995 -0.2545 -0.6778  0.2971
  511TMC3    C5 7645   3.400   1.169  15.124 -0.8925  0.1870 -0.3345
  511TMC3    C6 7646   3.318   1.260  15.185  0.5343 -0.3822  0.5010
  511TMC3     C 7647   3.483   1.358  14.831 -0.2761  0.0515  0.2187
  511TMC3     O 7648   3.597   1.310  14.844  0.4726 -0.4903  0.4896
  511TMC3     H 7649   3.288   1.494  14.962 -2.0788 -1.0655 -1.3747
  511TMC3    H1 7650   3.510   1.123  14.943 -2.8822 -0.1824 -3.6475
  511TMC3    H2 7651   3.266   1.230  15.276 -1.7444  0.7604 -0.4147
  511TMC3    C7 7652   3.438   1.041  15.182  0.7467 -0.5911 -0.5394
  511TMC3    C8 7653   3.162   1.460  15.192 -0.2402 -0.0820 -0.1148
  511TMC3    O1 7654   3.479   0.950  15.113 -0.1588 -0.0773 -0.3261
  511TMC3    O2 7655   3.128   1.565  15.133 -0.9017 -0.3665  0.6430
  512TMC3    C1 7656   3.058   0.276  13.958  0.0372 -0.1463  0.2152
  512TMC3    C2 7657   3.061   0.319  13.823 -0.8638 -0.3607  0.1625
  512TMC3    C3 7658   3.149   0.251  13.744 -0.4973 -0.4729 -0.4260
  512TMC3    C4 7659   3.131   0.172  14.006 -0.3715 -0.8323  0.5765
  512TMC3    C5 7660   3.209   0.109  13.909 -0.5692  0.1999 -0.2172
  512TMC3    C6 7661   3.219   0.140  13.779  0.2939  0.5423 -0.0125
  512TMC3     C 7662   2.998   0.365  14.054 -0.3091  0.4326 -0.2776
  512TMC3     O 7663   2.918   0.321  14.134 -0.1475  0.6294  0.6162
  512TMC3     H 7664   3.002   0.403  13.789  1.0789  1.0773  0.3318
  512TMC3    H1 7665   3.126   0.143  14.111  2.8047 -0.3122  0.8694
  512TMC3    H2 7666   3.281   0.092  13.703 -0.2680  0.1845 -0.2430
  512TMC3    C7 7667   3.296   0.001  13.955 -0.1146  1.0611 -0.2702
  512TMC3    C8 7668   3.193   0.318  13.617 -0.5726  0.1199  0.8492
  512TMC3    O1 7669   3.324   0.011  14.076  0.5171 -0.8072  0.3774
  512TMC3    O2 7670   3.246   0.247  13.531  0.0466  0.2452 -0.5444
  513MPD2     C 7671   4.731   4.689  13.349  0.1372 -0.1532  0.0044
  513MPD2    C1 7672   0.067   0.069  13.325 -0.1980 -0.1443  0.0098
  513MPD2    C2 7673   0.089   0.162  13.426 -0.8911  0.4771  0.1047
  513MPD2    C3 7674   0.031   0.142  13.552 -1.1568 -0.4674  0.5291
  513MPD2    C4 7675   4.678   0.042  13.572  0.4040 -0.4627  0.0682
  513MPD2    C5 7676   4.667   4.681  13.471 -0.7544 -0.2337 -0.2565
  513MPD2     H 7677   0.154   0.245  13.399  0.1721  0.1864  1.8058
  513MPD2    H1 7678   4.626   0.025  13.665  0.1994 -0.2125  0.0004
  513MPD2    H2 7679   4.722   4.608  13.277  0.3230 -2.6521  2.7775
  513MPD2    H3 7680   4.603   4.597  13.496 -0.2756 -0.8975 -1.2437
  513MPD2     N 7681   0.045   0.255  13.633 -0.1775  0.0076 -0.2437
  513MPD2    H5 7682   0.100   0.332  13.597  0.2185 -0.7369 -1.2423
  513MPD2    N1 7683   0.131   0.102  13.196  0.4216 -0.3917 -0.3705
  513MPD2    H7 7684   0.197   0.179  13.202 -0.9233  0.4924  3.1711
  514TMC3    C1 7685   0.185   0.076  12.979 -0.5400 -0.0280 -0.4414
  514TMC3    C2 7686   0.100   0.110  12.880  0.0463 -0.1428  0.1241
  514TMC3    C3 7687   0.116   0.232  12.817  0.0865 -0.5495  0.4069
  514TMC3    C4 7688   0.286   0.161  13.014  0.0718 -0.3578 -0.3751
  514TMC3    C5 7689   0.289   0.292  12.962  0.5461 -0.3141  0.1955
  514TMC3    C6 7690   0.204   0.327  12.862  0.5686  0.3197  0.5670
  514TMC3     C 7691   0.119   0.023  13.085 -0.2348 -0.2755 -0.3171
  514TMC3     O 7692   0.043   4.669  13.048 -0.3938  0.0820  0.7151
  514TMC3     H 7693   0.018   0.047  12.848 -0.0280  0.4050 -0.7864
  514TMC3    H1 7694   0.350   0.126  13.094 -0.8367  1.4664  1.1449
  514TMC3    H2 7695   0.199   0.430  12.831 -0.1771 -0.2845 -1.3461
  514TMC3    C7 7696   0.295   0.386  13.075  0.6499  0.5252  0.3952
  514TMC3    C8 7697   0.057   0.244  12.687 -0.4255 -0.0125  0.5819
  514TMC3    O1 7698   0.312   0.332  13.186 -0.0915  0.6166  0.7430
  514TMC3    O2 7699   4.703   0.164  12.657 -0.3469  0.4618 -0.4778
  515MPD2     C 7700   2.719   2.242  14.513 -0.0234 -0.0389  0.7564
  515MPD2    C1 7701   2.610   2.320  14.554  0.6013 -0.4946 -0.0624
  515MPD2    C2 7702   2.632   2.458  14.575  0.4545  0.1884 -0.3414
  515MPD2    C3 7703   2.756   2.510  14.566  0.1638 -0.4634 -0.3157
  515MPD2    C4 7704   2.856   2.426  14.524  0.4706  0.6315  0.0459
  515MPD2    C5 7705   2.839   2.297  14.500 -0.3131 -0.0543 -0.2494
  515MPD2     H 7706   2.545   2.520  14.593  1.0885  1.6242 -2.2457
  515MPD2    H1 7707   2.958   2.464  14.521  0.2078  1.3971  0.7205
  515MPD2    H2 7708   2.715   2.135  14.494 -0.6940  0.0561  0.3560
  515MPD2    H3 7709   2.929   2.236  14.494 -1.7565 -2.0036 -2.1052
  515MPD2     N 7710   2.791   2.643  14.590  0.6161 -0.7083 -0.3293
  515MPD2    H5 7711   2.891   2.662  14.582  0.6172 -0.0661  1.2791
  515MPD2    N1 7712   2.481   2.272  14.561  0.7118  0.1109 -0.2460
  515MPD2    H7 7713   2.402   2.332  14.584  0.1969  0.1650 -2.1762
  516TMC3    C1 7714   2.315   2.110  14.516  0.8701  0.2906  0.5462
  516TMC3    C2 7715   2.237   2.204  14.456 -0.3334 -0.2531  0.4754
  516TMC3    C3 7716   2.110   2.171  14.447 -0.8263 -0.4693 -0.2578
  516TMC3    C4 7717   2.267   1.990  14.574  0.6469  0.3025  0.6294
  516TMC3    C5 7718   2.135   1.954  14.550  0.0823  0.4818  0.5683
  516TMC3    C6 7719   2.061   2.050  14.482  0.5897 -0.0513  0.4684
  516TMC3     C 7720   2.457   2.136  14.547  0.1372 -0.3621 -0.5499
  516TMC3     O 7721   2.528   2.034  14.562  0.4965  0.2081 -0.1359
  516TMC3     H 7722   2.294   2.291  14.427  0.7975 -0.7604  1.1807
  516TMC3    H1 7723   2.339   1.927  14.625  0.1924  1.5941  2.8917
  516TMC3    H2 7724   1.957   2.035  14.455  1.1628 -1.9262 -0.7348
  516TMC3    C7 7725   2.069   1.838  14.604  0.3190 -0.7425 -0.4039
  516TMC3    C8 7726   2.022   2.262  14.376  0.3927  0.7839 -0.1498
  516TMC3    O1 7727   1.958   1.806  14.563 -0.3262  0.1584  0.2114
  516TMC3    O2 7728   1.926   2.221  14.314  0.8354 -0.1073 -0.3521
  517MPD2     C 7729   1.998   4.128   0.071  0.1813  0.4714 -0.0890
  517MPD2    C1 7730   2.125   4.103   0.117 -0.0706 -0.0154  0.3333
  517MPD2    C2 7731   2.190   4.187   0.206  0.7038  0.8866  0.0617
  517MPD2    C3 7732   2.126   4.307   0.245 -0.8137 -0.3798 -0.6754
  517MPD2    C4 7733   1.998   4.332   0.195  0.4561 -0.4263 -0.4508
  517MPD2    C5 7734   1.935   4.244   0.110  0.1214  0.2151  0.3109
  517MPD2     H 7735   2.283   4.157   0.253  0.1405 -0.3215  0.4040
  517MPD2    H1 7736   1.944   4.421   0.224 -0.7905 -1.2726 -0.1930
  517MPD2    H2 7737   1.940   4.062   0.008  0.0234 -0.8773  1.4704
  517MPD2    H3 7738   1.834   4.269   0.082  0.0057 -2.1943 -1.4124
  517MPD2     N 7739   2.190   4.401   0.324 -0.1832  0.2428 -0.1873
  517MPD2    H5 7740   2.135   4.472   0.370  1.4210  1.1597  0.3054
  517MPD2    N1 7741   2.188   3.976   0.101 -0.3624 -0.4148  0.6360
  517MPD2    H7 7742   2.269   3.963   0.161  2.7887  1.2042 -3.2559
  518TMC3    C1 7743   2.234   3.766   0.034 -0.0197  0.0725  0.4685
  518TMC3    C2 7744   2.190   3.649  17.730 -0.2659  0.5750 -0.1251
  518TMC3    C3 7745   2.286   3.560  17.689 -0.3133  0.4594  0.2146
  518TMC3    C4 7746   2.364   3.803   0.048 -0.2402  0.1529  0.6204
  518TMC3    C5 7747   2.452   3.713   0.003  0.0878  0.4392 -0.3485
  518TMC3    C6 7748   2.419   3.590  17.693  0.3515  0.1204  0.0664
  518TMC3     C 7749   2.144   3.872   0.029 -0.0257 -0.5245 -0.3645
  518TMC3     O 7750   2.053   3.866  17.689  0.2874 -0.2098 -0.2079
  518TMC3     H 7751   2.087   3.618  17.739 -0.0561 -0.4487 -1.2516
  518TMC3    H1 7752   2.406   3.897   0.084  1.0930 -0.7946  1.5516
  518TMC3    H2 7753   2.488   3.507  17.684  0.8767  0.5793 -0.1338
  518TMC3    C7 7754   2.600   3.730   0.023  0.4681  0.6117  0.3606
  518TMC3    C8 7755   2.257   3.433  17.636  0.2073  0.8968 -0.0942
  518TMC3    O1 7756   2.621   3.820   0.101 -0.1001  0.1215  0.5248
  518TMC3    O2 7757   2.350   3.357  17.620  0.2570 -0.8799 -0.5958
  519MPD2     C 7758   3.999   1.879  14.491  0.0897  0.0443 -0.8149
  519MPD2    C1 7759   3.971   1.875  14.357 -0.3141  0.3644 -0.1246
  519MPD2    C2 7760   4.064   1.815  14.271 -0.3970  1.1849  0.3558
  519MPD2    C3 7761   4.195   1.798  14.317 -0.3759  0.3833 -0.4137
  519MPD2    C4 7762   4.224   1.810  14.448  0.1340 -0.5489  0.7802
  519MPD2    C5 7763   4.124   1.847  14.534  0.2387 -1.0150  0.3404
  519MPD2     H 7764   4.029   1.797  14.170  0.7424  2.1337 -0.2089
  519MPD2    H1 7765   4.324   1.789  14.483  0.7836 -0.0227 -0.7866
  519MPD2    H2 7766   3.930   1.910  14.569  1.1434 -0.0996  0.1739
  519MPD2    H3 7767   4.147   1.855  14.640 -0.8543  0.7462  0.4378
  519MPD2     N 7768   4.309   1.768  14.236  0.0588 -0.2267 -0.0854
  519MPD2    H5 7769   4.399   1.764  14.281 -0.9896 -1.6581  1.8930
  519MPD2    N1 7770   3.849   1.913  14.298  0.6562 -0.9352 -0.3116
  519MPD2    H7 7771   3.842   1.909  14.197 -0.6681 -2.0521 -0.1695
  520TMC3    C1 7772   4.432   1.758  14.037  0.3563  0.9433  0.3346
  520TMC3    C2 7773   4.439   1.803  13.908  0.5059  0.7023  0.4179
  520TMC3    C3 7774   4.539   1.767  13.826 -0.2868  0.7191 -0.4369
  520TMC3    C4 7775   4.516   1.667  14.083 -0.5313 -0.0766  0.1439
  520TMC3    C5 7776   4.600   1.612  13.991 -0.2483 -0.3568 -0.6037
  520TMC3    C6 7777   4.615   1.659  13.862  0.3754  0.4754 -0.4711
  520TMC3     C 7778   4.296   1.766  14.095  0.5157 -0.0593 -0.1000
  520TMC3     O 7779   4.198   1.759  14.020  0.2210 -0.0736  0.1436
  520TMC3     H 7780   4.367   1.873  13.868 -0.5033 -1.6055 -1.7530
  520TMC3    H1 7781   4.497   1.613  14.176 -0.1280 -1.6699 -0.6937
  520TMC3    H2 7782   4.704   1.633  13.806  0.2933 -2.2729  0.6486
  520TMC3    C7 7783   4.671   1.499  14.040  0.3774 -0.4744 -0.0472
  520TMC3    C8 7784   4.570   1.827  13.698  0.9910 -0.5876  0.3898
  520TMC3    O1 7785   4.669   1.479  14.161  0.1866 -0.1233 -0.2701
  520TMC3    O2 7786   4.678   1.811  13.644  0.5987  0.0234 -0.6186
  521MPD2     C 7787   0.306   0.384  17.600 -0.6326 -0.1211 -0.1118
  521MPD2    C1 7788   0.279   0.320  17.476  0.3171  0.0963  0.4138
  521MPD2    C2 7789   0.387   0.288  17.396  0.8889 -1.4277  0.2389
  521MPD2    C3 7790   0.515   0.327  17.431 -0.8764  0.2726 -0.5323
  521MPD2    C4 7791   0.537   0.396  17.551  0.5730  0.4209 -0.3791
  521MPD2    C5 7792   0.432   0.423  17.637 -0.7302 -0.4834 -0.3309
  521MPD2     H 7793   0.370   0.233  17.304  1.1261 -0.6802 -0.2523
  521MPD2    H1 7794   0.637   0.435  17.570  0.1657  0.9677  0.6050
  521MPD2    H2 7795   0.230   0.410  17.672 -0.5448  0.1257 -0.1084
  521MPD2    H3 7796   0.448   0.473  17.732 -0.2351 -2.2434  0.5097
  521MPD2     N 7797   0.619   0.281  17.346 -0.3568 -0.1794  0.1624
  521MPD2    H5 7798   0.594   0.240  17.256 -0.5027 -0.6940  0.4383
  521MPD2    N1 7799   0.146   0.265  17.471  0.3582 -0.3320  0.9042
  521MPD2    H7 7800   0.086   0.305  17.541 -1.5150 -1.2657 -0.1558
  522TMC3    C1 7801   0.842   0.209  17.285  0.0223 -0.0167  0.7631
  522TMC3    C2 7802   0.925   0.118  17.346 -0.1236 -0.3776 -0.4932
  522TMC3    C3 7803   0.968   0.013  17.275 -0.2898 -0.2140  0.1456
  522TMC3    C4 7804   0.809   0.205  17.155  0.6009 -0.5139  0.4491
  522TMC3    C5 7805   0.853   0.093  17.084 -0.4048 -0.4359  0.2392
  522TMC3    C6 7806   0.937   4.731  17.143  0.2006  0.7910 -0.3247
  522TMC3     C 7807   0.754   0.276  17.383 -0.5097  0.7683  0.3244
  522TMC3     O 7808   0.808   0.305  17.491 -0.8304  0.4389 -0.1017
  522TMC3     H 7809   0.956   0.129  17.449  0.2342  0.4896 -0.6941
  522TMC3    H1 7810   0.756   0.287  17.107  1.8145 -0.1985 -0.3546
  522TMC3    H2 7811   0.955   4.643  17.084 -1.9061  0.0587  0.1279
  522TMC3    C7 7812   0.831   0.085  16.939  0.2196  0.1605  0.0884
  522TMC3    C8 7813   1.042   4.649  17.355 -0.2293  0.2115 -0.3500
  522TMC3    O1 7814   0.885   4.727  16.879  0.4896  0.0489  0.0467
  522TMC3    O2 7815   1.012   4.642  17.472 -0.8785 -0.2478 -0.0046
  523MPD2     C 7816   2.701   0.450  10.398 -0.4209  0.9976 -0.1412
  523MPD2    C1 7817   2.695   0.349  10.307  0.3555  0.0189  0.5959
  523MPD2    C2 7818   2.615   0.376  10.192 -0.6979 -0.0475  0.1955
  523MPD2    C3 7819   2.540   0.485  10.178 -0.0064  0.1001  0.0589
  523MPD2    C4 7820   2.545   0.580  10.280 -0.0925 -0.0503 -0.0073
  523MPD2    C5 7821   2.622   0.558  10.390  0.3441 -0.1574  0.0386
  523MPD2     H 7822   2.611   0.304  10.111 -1.4191 -1.9756  1.9120
  523MPD2    H1 7823   2.483   0.669  10.276 -1.5019 -0.9394  2.7114
  523MPD2    H2 7824   2.766   0.439  10.484 -2.1239 -2.7614  0.6764
  523MPD2    H3 7825   2.614   0.635  10.466 -0.5266  1.1900 -1.4309
  523MPD2     N 7826   2.454   0.514  10.072 -0.1267  0.1035 -0.1003
  523MPD2    H5 7827   2.387   0.588  10.086  0.3889  0.8100 -1.3481
  523MPD2    N1 7828   2.765   0.232  10.328  0.5416 -0.1257 -0.4674
  523MPD2    H7 7829   2.813   0.225  10.417  1.2652  0.0613 -0.8468
  524TMC3    C1 7830   2.309   0.458   9.894  0.1419  0.5933  0.2503
  524TMC3    C2 7831   2.243   0.349   9.837 -0.5127 -0.4049  0.3643
  524TMC3    C3 7832   2.106   0.361   9.821 -0.2492  0.1927  0.0916
  524TMC3    C4 7833   2.251   0.576   9.913  0.3450  0.0092  0.8814
  524TMC3    C5 7834   2.123   0.590   9.868 -0.0883  0.3001 -0.3146
  524TMC3    C6 7835   2.042   0.485   9.830  0.1934 -0.0925 -0.0270
  524TMC3     C 7836   2.434   0.432   9.962  0.0609 -0.3526 -0.8507
  524TMC3     O 7837   2.492   0.330   9.921  0.5349 -0.0812 -0.1342
  524TMC3     H 7838   2.288   0.251   9.828  1.1880  0.2778  1.5652
  524TMC3    H1 7839   2.316   0.658   9.938 -0.5115  1.1767 -0.7185
  524TMC3    H2 7840   1.934   0.494   9.825  0.1926 -0.9280 -1.3269
  524TMC3    C7 7841   2.047   0.718   9.872  0.0083 -1.3904  0.1444
  524TMC3    C8 7842   2.032   0.234   9.830 -0.3851 -0.3928  0.1467
  524TMC3    O1 7843   2.076   0.789   9.963  0.6468  0.7121  0.0486
  524TMC3    O2 7844   2.099   0.134   9.800  0.1800 -0.4522  0.1611
  525MPD2     C 7845   0.636   1.695  14.503 -0.1178 -0.1024 -0.0716
  525MPD2    C1 7846   0.775   1.684  14.509  0.9095 -0.4268  0.0466
  525MPD2    C2 7847   0.852   1.793  14.465  0.1500 -1.0405  0.2021
  525MPD2    C3 7848   0.798   1.911  14.424  0.0864  0.0813 -0.5864
  525MPD2    C4 7849   0.665   1.925  14.414  0.5797  0.5283 -0.6871
  525MPD2    C5 7850   0.587   1.814  14.447 -0.3110 -0.2726 -0.2575
  525MPD2     H 7851   0.960   1.798  14.466  0.0835 -0.0046  2.5873
  525MPD2    H1 7852   0.621   2.020  14.386  2.3135  1.5196  0.0196
  525MPD2    H2 7853   0.568   1.614  14.523  0.1741 -0.5794 -1.0036
  525MPD2    H3 7854   0.480   1.825  14.435 -0.1614  0.1292 -1.2676
  525MPD2     N 7855   0.875   2.025  14.401  0.4738  0.0436  0.0799
  525MPD2    H5 7856   0.820   2.107  14.378  2.1372  1.1009 -0.1343
  525MPD2    N1 7857   0.840   1.572  14.559 -0.2783 -0.0929 -0.3138
  525MPD2    H7 7858   0.936   1.588  14.587 -0.1294  1.5488 -1.7787
  526TMC3    C1 7859   0.886   1.357  14.645 -0.2342  0.2339  0.6329
  526TMC3    C2 7860   0.866   1.295  14.764  0.0361 -0.2772 -0.3907
  526TMC3    C3 7861   0.972   1.239  14.829 -0.3655  0.0220  0.5777
  526TMC3    C4 7862   1.010   1.351  14.587  0.5335  0.8005  0.4166
  526TMC3    C5 7863   1.112   1.292  14.656  0.0094 -0.6098  0.1837
  526TMC3    C6 7864   1.100   1.234  14.776  0.8990 -0.2796 -0.6936
  526TMC3     C 7865   0.784   1.456  14.605  0.1244  0.6461  0.6035
  526TMC3     O 7866   0.668   1.417  14.621  0.4372 -0.0289  0.1544
  526TMC3     H 7867   0.769   1.303  14.813  0.3595 -0.7306  0.3098
  526TMC3    H1 7868   1.029   1.385  14.486  0.6206 -0.7030 -0.0842
  526TMC3    H2 7869   1.180   1.194  14.837 -0.3535 -0.7040  0.6518
  526TMC3    C7 7870   1.244   1.289  14.596 -0.1262  0.3436  0.5220
  526TMC3    C8 7871   0.956   1.226  14.968 -1.3621  0.5352 -0.6000
  526TMC3    O1 7872   1.281   1.389  14.532  0.3787 -0.5189  0.6798
  526TMC3    O2 7873   1.027   1.282  15.048 -0.5910 -0.2295  0.1473
  527MPD2     C 7874   3.298   0.599   0.870 -0.4878  0.6691  0.0052
  527MPD2    C1 7875   3.267   0.485   0.934  0.2279 -0.0817 -0.4595
  527MPD2    C2 7876   3.341   0.370   0.912 -0.4548 -0.6255  0.0206
  527MPD2    C3 7877   3.435   0.366   0.812 -0.1193 -0.0405 -0.5088
  527MPD2    C4 7878   3.460   0.484   0.751 -0.1589  0.4262  0.2969
  527MPD2    C5 7879   3.399   0.603   0.784 -0.3712  0.0665 -0.0530
  527MPD2     H 7880   3.320   0.279   0.967  0.2099 -1.4481 -1.1070
  527MPD2    H1 7881   3.547   0.511   0.691 -0.4564 -1.2600 -0.8789
  527MPD2    H2 7882   3.243   0.691   0.888  0.0231  0.8888  0.4269
  527MPD2    H3 7883   3.431   0.699   0.745  0.5835 -1.1728 -2.3604
  527MPD2     N 7884   3.504   0.241   0.790 -0.1831 -0.4662  0.4886
  527MPD2    H5 7885   3.450   0.167   0.835 -0.1397 -0.8691 -0.1218
  527MPD2    N1 7886   3.168   0.480   1.042 -0.4805 -0.2242 -0.1693
  527MPD2    H7 7887   3.171   0.396   1.098  2.9576  0.0462  0.0809
  528TMC3    C1 7888   3.011   0.559   1.198  0.0041 -0.5722  0.0238
  528TMC3    C2 7889   3.080   0.458   1.264  0.0547  0.4587 -0.4582
  528TMC3    C3 7890   3.011   0.361   1.325 -0.0779  0.4732  0.0133
  528TMC3    C4 7891   2.874   0.552   1.188 -0.8641 -0.2773  0.1844
  528TMC3    C5 7892   2.813   0.451   1.258 -0.1200 -0.2162  0.6584
  528TMC3    C6 7893   2.878   0.352   1.325 -0.0685  0.4621  0.8934
  528TMC3     C 7894   3.073   0.574   1.070  0.3135 -0.4918  0.7882
  528TMC3     O 7895   3.054   0.675   1.002 -0.4636  0.3567  0.1202
  528TMC3     H 7896   3.187   0.451   1.275 -0.3434 -2.2163  1.8588
  528TMC3    H1 7897   2.822   0.627   1.130  0.1992  0.5104  0.2453
  528TMC3    H2 7898   2.832   0.272   1.381 -0.4996  0.4210  0.4846
  528TMC3    C7 7899   2.667   0.441   1.250 -0.1212 -0.4187 -0.2590
  528TMC3    C8 7900   3.088   0.240   1.352  0.3293  0.0435  0.0743
  528TMC3    O1 7901   2.589   0.535   1.263  0.0999 -0.0586 -0.5021
  528TMC3    O2 7902   3.180   0.217   1.276  0.0271  0.3863 -0.2914
  529MPD2     C 7903   0.855   2.809   0.606 -0.0224 -0.2571  0.2249
  529MPD2    C1 7904   0.946   2.755   0.521 -0.0221  0.8646 -0.3025
  529MPD2    C2 7905   1.021   2.839   0.444 -0.5841  0.2337 -1.1153
  529MPD2    C3 7906   0.983   2.977   0.425 -0.2754 -0.3976 -0.5673
  529MPD2    C4 7907   0.894   3.025   0.512  0.1330 -0.4343  0.3996
  529MPD2    C5 7908   0.827   2.943   0.601  0.0151 -0.2633  0.2053
  529MPD2     H 7909   1.102   2.798   0.386  0.5553 -2.6064  2.4744
  529MPD2    H1 7910   0.872   3.130   0.524 -1.1263 -0.8396  1.6431
  529MPD2    H2 7911   0.803   2.752   0.681  3.2706 -2.6275  0.7186
  529MPD2    H3 7912   0.764   2.990   0.676 -1.8048 -1.4982 -0.5444
  529MPD2     N 7913   1.029   3.061   0.320  0.0170  0.6288 -0.7933
  529MPD2    H5 7914   0.973   3.145   0.326  0.6297  1.0397 -0.8255
  529MPD2    N1 7915   0.996   2.627   0.529 -0.3829 -0.4906  0.5706
  529MPD2    H7 7916   1.064   2.601   0.459  0.7299 -0.9878  1.8243
  530TMC3    C1 7917   1.024   2.405   0.587  0.2354 -0.1385  1.0007
  530TMC3    C2 7918   1.140   2.411   0.507 -0.4770 -0.0454  0.4554
  530TMC3    C3 7919   1.197   2.289   0.502  0.1695  0.5922 -0.1251
  530TMC3    C4 7920   0.975   2.302   0.670  0.3716  0.2397 -0.0470
  530TMC3    C5 7921   1.045   2.186   0.653 -0.0775  0.0155 -0.5298
  530TMC3    C6 7922   1.152   2.179   0.566 -0.2756  0.5929 -0.1043
  530TMC3     C 7923   0.958   2.524   0.600  0.3890  0.5021  0.4590
  530TMC3     O 7924   0.855   2.521   0.675  0.1588  0.3130  0.5661
  530TMC3     H 7925   1.197   2.499   0.480  1.4679 -0.9208  1.6947
  530TMC3    H1 7926   0.894   2.310   0.742 -1.2193  2.6354 -2.0764
  530TMC3    H2 7927   1.204   2.086   0.550  0.5415  0.5971  2.5541
  530TMC3    C7 7928   1.025   2.069   0.740  0.1260 -0.4434  0.1920
  530TMC3    C8 7929   1.337   2.288   0.463 -0.3439  0.1122  0.4461
  530TMC3    O1 7930   1.099   1.971   0.727 -0.1147  0.5189  0.1404
  530TMC3    O2 7931   1.362   2.312   0.348 -0.6443  0.3853  0.0472
  531MPD2     C 7932   0.274   0.833  13.309 -0.1961 -0.3483  0.2285
  531MPD2    C1 7933   0.248   0.707  13.356 -0.3067 -0.1938  0.5690
  531MPD2    C2 7934   0.255   0.605  13.268 -0.0725  0.2103  0.5479
  531MPD2    C3 7935   0.294   0.627  13.136  0.1251 -0.5373 -0.0153
  531MPD2    C4 7936   0.298   0.760  13.084  0.2377  0.3084  0.1377
  531MPD2    C5 7937   0.284   0.859  13.178  0.3291  0.8404  0.2951
  531MPD2     H 7938   0.224   0.508  13.305  0.2219  0.3743  1.2201
  531MPD2    H1 7939   0.316   0.785  12.980  0.4819  0.0650  0.1195
  531MPD2    H2 7940   0.281   0.920  13.374  0.2507 -1.1369  1.2340
  531MPD2    H3 7941   0.279   0.962  13.143 -4.0940 -0.0722 -1.7969
  531MPD2     N 7942   0.299   0.521  13.039 -0.1606 -0.7557 -0.2443
  531MPD2    H5 7943   0.315   0.538  12.941 -0.7779  2.2189  0.1466
  531MPD2    N1 7944   0.212   0.697  13.486 -0.0353  0.0335  0.9845
  531MPD2    H7 7945   0.233   0.774  13.549 -1.2246  1.3177 -0.1977
  532TMC3    C1 7946   0.117   0.593  13.675  0.3077  0.3307 -0.3245
  532TMC3    C2 7947   0.012   0.508  13.695 -0.0232  0.0441 -0.0935
  532TMC3    C3 7948   0.024   0.418  13.797 -0.0642  0.6392 -0.0893
  532TMC3    C4 7949   0.227   0.586  13.753  0.5409 -0.6722 -0.2758
  532TMC3    C5 7950   0.230   0.509  13.863 -0.5752 -0.1280  0.6714
  532TMC3    C6 7951   0.131   0.419  13.879  0.4021 -0.6436  0.0056
  532TMC3     C 7952   0.133   0.593  13.533 -0.5056 -0.6105  0.4675
  532TMC3     O 7953   0.079   0.506  13.463 -0.6595 -0.4038 -0.3778
  532TMC3     H 7954   4.652   0.509  13.643 -1.1844 -0.0525  2.0173
  532TMC3    H1 7955   0.318   0.645  13.742  1.5205 -1.2840  4.2540
  532TMC3    H2 7956   0.131   0.359  13.970  1.1975 -0.7528 -0.0641
  532TMC3    C7 7957   0.359   0.471  13.924 -0.8145  0.0443  0.9510
  532TMC3    C8 7958   4.714   0.288  13.749 -0.3948  0.1561 -0.1609
  532TMC3    O1 7959   0.402   0.543  14.010 -0.2976  0.3705  0.1803
  532TMC3    O2 7960   4.652   0.220  13.828  0.3723  0.1947 -0.1372
  533TMC3    C1 7961   1.064   2.178  14.408 -0.0973 -0.3093  0.3291
  533TMC3    C2 7962   1.195   2.201  14.384 -0.0093 -0.4860  0.6841
  533TMC3    C3 7963   1.236   2.332  14.401  0.0206 -0.1289 -0.6228
  533TMC3    C4 7964   0.971   2.270  14.456 -0.1511 -0.2198 -0.2048
  533TMC3    C5 7965   1.024   2.395  14.476 -0.2028 -0.0445  0.8472
  533TMC3    C6 7966   1.147   2.431  14.445 -0.2630 -0.6891  0.0054
  533TMC3     C 7967   1.012   2.041  14.397 -0.5224  0.2663  0.4392
  533TMC3     O 7968   1.094   1.957  14.372 -0.1720 -0.1347 -0.1298
  533TMC3     H 7969   1.263   2.121  14.356  0.6412 -0.0149  0.9063
  533TMC3    H1 7970   0.865   2.249  14.462 -0.5052  1.6789  0.1042
  533TMC3    H2 7971   1.186   2.531  14.464 -2.4098  0.2801 -0.6785
  533TMC3    C7 7972   0.990   2.457  14.606  0.0738 -0.3438  0.2042
  533TMC3    C8 7973   1.373   2.359  14.411  0.0258 -0.4485 -0.4506
  533TMC3    O1 7974   1.007   2.579  14.633  0.3995 -0.1070 -0.5074
  533TMC3    O2 7975   1.400   2.479  14.413 -0.0024 -0.1979 -0.1999
  534MPD2     C 7976   3.435   3.202   1.759  0.3929 -0.7190 -0.0656
  534MPD2    C1 7977   3.406   3.298   1.663 -0.2692 -0.3990  0.5650
  534MPD2    C2 7978   3.323   3.265   1.555  0.2115  0.0782 -0.0317
  534MPD2    C3 7979   3.257   3.153   1.540 -0.0340  0.3839 -0.4579
  534MPD2    C4 7980   3.270   3.065   1.639 -0.5706 -0.6101  0.6055
  534MPD2    C5 7981   3.361   3.088   1.743 -0.3082  0.0854  0.4836
  534MPD2     H 7982   3.306   3.338   1.476 -1.5604  0.4160  0.6556
  534MPD2    H1 7983   3.227   2.965   1.638 -0.4136 -0.6591 -1.5189
  534MPD2    H2 7984   3.507   3.208   1.839 -0.3314  1.6196  0.4248
  534MPD2    H3 7985   3.376   3.009   1.815 -1.3130 -1.1974 -0.7102
  534MPD2     N 7986   3.173   3.114   1.430 -0.3651 -0.0052 -0.0331
  534MPD2    H5 7987   3.130   3.023   1.442 -1.3860  0.6717  1.5148
  534MPD2    N1 7988   3.465   3.431   1.668 -1.0655  0.1484  0.3661
  534MPD2    H7 7989   3.440   3.490   1.589  1.2058 -0.5324 -0.8695
  535TMC3    C1 7990   3.069   3.128   1.221  0.0541  0.6655  0.3427
  535TMC3    C2 7991   2.976   3.032   1.268  0.0343 -0.5567 -0.4013
  535TMC3    C3 7992   2.916   2.952   1.176  0.1121  0.5700  0.6188
  535TMC3    C4 7993   3.105   3.136   1.089 -0.1265  0.4295 -0.6745
  535TMC3    C5 7994   3.053   3.045   1.003  0.2706  0.0106 -0.6081
  535TMC3    C6 7995   2.962   2.952   1.048 -0.1013 -0.7759 -0.5691
  535TMC3     C 7996   3.152   3.190   1.321 -0.0467 -0.7483 -0.2784
  535TMC3     O 7997   3.212   3.292   1.286  0.2119 -0.1014 -0.2535
  535TMC3     H 7998   2.958   3.031   1.375 -1.3189  2.9763 -0.6254
  535TMC3    H1 7999   3.177   3.212   1.061 -1.3977  1.7194 -0.4432
  535TMC3    H2 8000   2.926   2.880   0.976 -0.2321 -0.2671 -1.0112
  535TMC3    C7 8001   3.074   3.064   0.864 -0.7496 -0.0735  0.0145
  535TMC3    C8 8002   2.783   2.909   1.200 -0.6011 -0.2389  0.2726
  535TMC3    O1 8003   3.066   2.968   0.791  0.1972  0.3153 -0.5809
  535TMC3    O2 8004   2.719   2.878   1.102  0.2211  0.5366  0.4920
  536MPD2     C 8005   2.486   1.612  16.605  1.0916  0.2396  0.4069
  536MPD2    C1 8006   2.394   1.510  16.597  0.2238 -0.0821 -0.0243
  536MPD2    C2 8007   2.294   1.510  16.500 -0.2130  0.3125  0.3408
  536MPD2    C3 8008   2.294   1.608  16.400 -0.3190  0.6241 -0.4309
  536MPD2    C4 8009   2.401   1.690  16.402 -0.1663 -0.1337  0.1105
  536MPD2    C5 8010   2.493   1.698  16.500 -0.3492 -0.5998  0.3969
  536MPD2     H 8011   2.224   1.428  16.493 -1.0715  1.2279 -1.6967
  536MPD2    H1 8012   2.408   1.771  16.330 -0.0493 -0.5182 -0.3122
  536MPD2    H2 8013   2.544   1.627  16.696 -0.8804  0.9157  1.5647
  536MPD2    H3 8014   2.567   1.777  16.494  0.6245 -1.4211  1.4690
  536MPD2     N 8015   2.206   1.616  16.296  0.4485 -0.5410  0.5016
  536MPD2    H5 8016   2.227   1.687  16.226 -4.2043  0.9825  0.5864
  536MPD2    N1 8017   2.405   1.409  16.700 -0.1740  0.2315  0.6491
  536MPD2    H7 8018   2.487   1.416  16.761 -0.9414 -1.4155  1.8799
  537TMC3    C1 8019   2.339   1.242  16.850  0.4608  0.2423  0.2926
  537TMC3    C2 8020   2.379   1.314  16.955  0.1964 -0.4216 -0.2263
  537TMC3    C3 8021   2.330   1.281  17.080 -0.2144  0.4451  0.4959
  537TMC3    C4 8022   2.265   1.130  16.858 -0.3027  0.2224 -0.2677
  537TMC3    C5 8023   2.234   1.099  16.989  0.3047 -0.1523  0.9057
  537TMC3    C6 8024   2.248   1.175  17.101  0.6616 -0.6276  0.4426
  537TMC3     C 8025   2.317   1.307  16.721 -0.0078  0.3874 -0.3371
  537TMC3     O 8026   2.208   1.279  16.671 -0.8738  0.1758 -0.3539
  537TMC3     H 8027   2.441   1.402  16.946 -2.1197  1.1998 -0.3431
  537TMC3    H1 8028   2.229   1.079  16.769  0.8332  1.2422 -1.3273
  537TMC3    H2 8029   2.212   1.154  17.201  1.2834 -0.5501  0.6893
  537TMC3    C7 8030   2.160   0.977  17.010  0.5601 -0.1665  0.0356
  537TMC3    C8 8031   2.324   1.394  17.174 -0.3253  0.2101 -0.0623
  537TMC3    O1 8032   2.086   0.949  16.919 -0.2994  0.1601  0.4860
  537TMC3    O2 8033   2.370   1.499  17.128 -0.0197 -0.2733  0.6006
  538TMC3    C1 8034   3.557   0.264  11.339 -0.3914  0.1825 -0.6182
  538TMC3    C2 8035   3.618   0.148  11.298  0.0151  0.4607 -0.2832
  538TMC3    C3 8036   3.643   0.136  11.166 -0.0188 -0.4570 -0.4239
  538TMC3    C4 8037   3.516   0.360  11.250 -0.4519  0.9503  0.4624
  538TMC3    C5 8038   3.529   0.333  11.120 -0.4651 -0.2471  0.6335
  538TMC3    C6 8039   3.590   0.218  11.075 -0.5689 -0.1787  0.0610
  538TMC3     C 8040   3.497   0.266  11.470 -0.0570  0.0161 -0.0565
  538TMC3     O 8041   3.408   0.347  11.472  0.4809 -0.0310 -0.0095
  538TMC3     H 8042   3.644   0.066  11.364  0.8711 -0.6406 -2.0052
  538TMC3    H1 8043   3.455   0.440  11.291 -0.5324  1.6717 -1.0462
  538TMC3    H2 8044   3.591   0.203  10.968 -0.2120 -0.7282  0.1426
  538TMC3    C7 8045   3.407   0.373  11.049  0.3602  0.1157 -0.3468
  538TMC3    C8 8046   3.691   0.000  11.124  0.4057  0.6956 -0.8772
  538TMC3    O1 8047   3.311   0.402  11.115 -0.1654  0.7235  0.1098
  538TMC3    O2 8048   3.667   4.638  11.191 -0.4141 -0.2852 -0.1965
  539MPD2     C 8049   3.463   3.909  11.802  0.2483  0.3318  0.6183
  539MPD2    C1 8050   3.497   3.939  11.669  0.4694  0.6334 -0.2811
  539MPD2    C2 8051   3.511   4.076  11.636  0.2877  0.0294  0.1709
  539MPD2    C3 8052   3.473   4.171  11.722 -0.3201 -0.0827  0.3236
  539MPD2    C4 8053   3.440   4.134  11.852  0.3216 -0.4289 -0.1417
  539MPD2    C5 8054   3.436   4.005  11.896  0.0087  0.2917  1.1427
  539MPD2     H 8055   3.535   4.100  11.533  0.8862 -0.4836  0.1882
  539MPD2    H1 8056   3.401   4.210  11.919  3.0354  0.6569  0.1908
  539MPD2    H2 8057   3.459   3.806  11.837  0.9332 -0.2064 -0.8938
  539MPD2    H3 8058   3.417   3.987  12.001  0.7140 -1.7051  0.9362
  539MPD2     N 8059   3.462   4.310  11.700  0.7826 -0.7647  0.3632
  539MPD2    H5 8060   3.417   4.364  11.774  0.2588  0.3754 -0.7954
  539MPD2    N1 8061   3.524   3.840  11.576  0.3615 -0.5316 -0.2178
  539MPD2    H7 8062   3.548   3.866  11.481 -0.0179 -1.3390 -0.5407
  540TMC3    C1 8063   3.423   4.505  11.578 -0.3874 -0.5542  0.1863
  540TMC3    C2 8064   3.414   4.572  11.455 -0.7301  0.3978  0.8261
  540TMC3    C3 8065   3.331   4.687  11.463  0.5967  0.5665 -0.4655
  540TMC3    C4 8066   3.372   4.554  11.696  0.5588 -0.5330 -0.5709
  540TMC3    C5 8067   3.298   4.666  11.689 -0.0678 -0.1174 -0.3399
  540TMC3    C6 8068   3.278   4.732  11.579  0.2339  0.5644 -0.3563
  540TMC3     C 8069   3.477   4.372  11.576 -0.1033 -0.2269 -0.4348
  540TMC3     O 8070   3.510   4.327  11.468  0.3251 -0.1030 -0.6411
  540TMC3     H 8071   3.442   4.520  11.365  1.9456  1.3211  1.1411
  540TMC3    H1 8072   3.384   4.514  11.796  0.9856 -0.3184 -0.5364
  540TMC3    H2 8073   3.212   0.083  11.567 -0.1816  0.1775 -0.9077
  540TMC3    C7 8074   3.189   4.663  11.789  0.0047 -0.3413  0.3235
  540TMC3    C8 8075   3.275   4.735  11.343  0.1030 -0.3374  0.0721
  540TMC3    O1 8076   3.169   4.555  11.851 -0.2034 -0.5122 -0.2592
  540TMC3    O2 8077   3.252   0.119  11.329  0.5549  0.3330 -0.0922
  541MPD2     C 8078   1.681   0.735  13.293  0.5408  0.4458  0.2815
  541MPD2    C1 8079   1.574   0.677  13.232 -0.1333 -1.0709 -0.6171
  541MPD2    C2 8080   1.550   0.715  13.099  0.9790  0.3002 -0.0156
  541MPD2    C3 8081   1.617   0.825  13.041  0.0531 -0.2082  0.1883
  541MPD2    C4 8082   1.718   0.888  13.117 -0.5231 -0.2127  0.3763
  541MPD2    C5 8083   1.748   0.846  13.238 -0.5479 -0.0268  0.1924
  541MPD2     H 8084   1.479   0.654  13.045  0.7571 -0.4073  1.0778
  541MPD2    H1 8085   1.767   0.976  13.075 -0.9496  0.6177  1.6025
  541MPD2    H2 8086   1.717   0.698  13.389  0.0418  0.0498  0.3152
  541MPD2    H3 8087   1.830   0.896  13.289  0.4588  0.2187 -1.6585
  541MPD2     N 8088   1.579   0.875  12.917 -0.5900 -0.3784 -0.9071
  541MPD2    H5 8089   1.632   0.952  12.875  2.2774 -0.5018  2.4918
  541MPD2    N1 8090   1.499   0.573  13.284 -0.0547 -0.7580  0.0519
  541MPD2    H7 8091   1.420   0.540  13.229 -0.6780  0.8872 -0.0552
  542TMC3    C1 8092   1.477   0.878  12.712  0.0266 -0.2951  0.6211
  542TMC3    C2 8093   1.462   0.799  12.602 -0.3635  0.6990 -0.1000
  542TMC3    C3 8094   1.434   0.856  12.482  0.2137 -0.3623 -0.0744
  542TMC3    C4 8095   1.447   1.008  12.714 -0.7020  0.4390  0.4555
  542TMC3    C5 8096   1.410   1.069  12.596  0.2523 -0.1442 -0.1531
  542TMC3    C6 8097   1.409   0.993  12.480  0.3591  0.2316  0.1347
  542TMC3     C 8098   1.508   0.807  12.827  0.4380 -0.6208 -0.4592
  542TMC3     O 8099   1.462   0.691  12.827  0.2406  0.5512 -0.1722
  542TMC3     H 8100   1.490   0.694  12.596 -2.2399  0.2125 -0.1904
  542TMC3    H1 8101   1.460   1.075  12.798 -0.2590 -1.0014  1.5490
  542TMC3    H2 8102   1.368   1.041  12.392 -1.5254  1.0648  1.4747
  542TMC3    C7 8103   1.337   1.198  12.597 -0.2953 -0.0421 -0.0367
  542TMC3    C8 8104   1.403   0.780  12.361 -0.8629 -0.5370 -0.2079
  542TMC3    O1 8105   1.353   1.268  12.699 -0.3923 -0.5101  0.2580
  542TMC3    O2 8106   1.370   0.852  12.268 -0.5797  0.1261  0.1913
  543TMC3    C1 8107   0.733   1.951  17.342  0.8177  0.5983  0.1844
  543TMC3    C2 8108   0.744   1.837  17.412 -0.7476  0.6874  0.0216
  543TMC3    C3 8109   0.683   1.849  17.534  0.2419  0.2197 -0.6965
  543TMC3    C4 8110   0.685   2.072  17.396 -0.3572 -0.4345 -0.1339
  543TMC3    C5 8111   0.653   2.077  17.526 -0.1394  0.1729 -0.7959
  543TMC3    C6 8112   0.645   1.961  17.595  0.2528  0.7699 -0.1225
  543TMC3     C 8113   0.764   1.944  17.199 -0.8167  0.1127 -0.0529
  543TMC3     O 8114   0.823   1.842  17.176  0.3341  0.2180  0.6167
  543TMC3     H 8115   0.772   1.745  17.360  0.0535  2.8270 -3.3426
  543TMC3    H1 8116   0.687   2.164  17.339  1.4293  0.2155  1.0007
  543TMC3    H2 8117   0.603   1.954  17.694  0.4687  1.7377  0.0444
  543TMC3    C7 8118   0.630   2.198  17.605 -0.1132  0.0974 -0.7928
  543TMC3    C8 8119   0.649   1.718  17.583  0.5095  0.0754  0.4112
  543TMC3    O1 8120   0.605   2.183  17.722  0.6787 -0.0747 -0.5109
  543TMC3    O2 8121   0.710   1.623  17.537  0.5883 -0.6247  0.2729
  544MPD2     C 8122   0.339   1.415   0.118 -0.5157  0.8150 -0.3255
  544MPD2    C1 8123   0.432   1.384   0.018 -0.3801 -1.1552  0.6429
  544MPD2    C2 8124   0.509   1.485  17.696  0.1073  0.0926  0.1675
  544MPD2    C3 8125   0.473   1.617  17.730  0.1377 -0.9281  0.5573
  544MPD2    C4 8126   0.380   1.647   0.090  0.2495 -0.0889  0.5087
  544MPD2    C5 8127   0.313   1.549   0.154  0.3767 -0.8253 -0.7119
  544MPD2     H 8128   0.586   1.455  17.626 -1.4076 -2.3667 -0.4603
  544MPD2    H1 8129   0.357   1.751   0.109 -1.6364 -0.4148  0.0283
  544MPD2    H2 8130   0.277   1.341   0.167 -0.6847  1.1397 -0.0501
  544MPD2    H3 8131   0.228   1.569   0.218 -1.0391  1.1052 -3.2130
  544MPD2     N 8132   0.546   1.726  17.675 -1.0170 -0.0995 -0.3583
  544MPD2    H5 8133   0.523   1.820  17.707 -3.2160 -0.3576 -1.1573
  544MPD2    N1 8134   0.441   1.244   0.006  0.4000  0.0411 -0.6043
  544MPD2    H7 8135   0.380   1.190   0.065 -0.0803  1.1872 -0.0441
  545TMC3    C1 8136   0.489   1.038  17.646  0.7627 -0.4634  0.7180
  545TMC3    C2 8137   0.494   0.969  17.528 -0.6426 -0.1877 -1.0833
  545TMC3    C3 8138   0.435   0.844  17.529 -0.3091  0.2584  0.5829
  545TMC3    C4 8139   0.448   0.980   0.029 -0.0033 -0.5234 -0.1195
  545TMC3    C5 8140   0.417   0.848   0.021  0.9904 -0.1751  0.5104
  545TMC3    C6 8141   0.406   0.776  17.645  0.5538  0.0545 -0.1310
  545TMC3     C 8142   0.509   1.183  17.641 -0.1003  0.7011  0.3307
  545TMC3     O 8143   0.579   1.231  17.559  0.2950  0.6517  0.5854
  545TMC3     H 8144   0.533   1.026  17.445 -0.6827  2.8326  0.9613
  545TMC3    H1 8145   0.455   1.021   0.128  0.3440  0.8027 -0.6960
  545TMC3    H2 8146   0.389   0.669  17.645  1.4608 -0.0875  1.6129
  545TMC3    C7 8147   0.408   0.773   0.144 -0.0960  1.0240  0.0980
  545TMC3    C8 8148   0.457   0.762  17.413  0.4319 -0.5167 -0.7945
  545TMC3    O1 8149   0.348   0.668   0.155  0.2845  0.2518  1.2538
  545TMC3    O2 8150   0.544   0.804  17.339 -0.0656 -0.2390 -0.2240
  546MPD2     C 8151   1.983   1.997  17.524 -0.7873  0.0873 -0.0402
  546MPD2    C1 8152   2.033   2.010  17.397  0.2648 -0.3413 -0.1051
  546MPD2    C2 8153   2.065   2.133  17.343 -0.5581 -0.1802  0.1927
  546MPD2    C3 8154   2.059   2.249  17.421  0.3792 -0.1209  0.7827
  546MPD2    C4 8155   2.009   2.229  17.551 -0.4844 -0.3015  0.3631
  546MPD2    C5 8156   1.978   2.107  17.603  0.4369 -0.8584 -0.3541
  546MPD2     H 8157   2.100   2.148  17.242  0.4718 -2.3802  0.2330
  546MPD2    H1 8158   1.990   2.316  17.612  0.3976  0.1858 -0.0570
  546MPD2    H2 8159   1.978   1.900  17.572  0.2003  0.6500  1.2274
  546MPD2    H3 8160   1.947   2.092  17.706  2.6991  2.6098  0.8515
  546MPD2     N 8161   2.103   2.379  17.392 -0.4093  0.0359 -0.0742
  546MPD2    H5 8162   2.082   2.453  17.458  1.0911  0.8339 -0.4692
  546MPD2    N1 8163   2.037   1.890  17.322  0.3224  0.2731  0.7836
  546MPD2    H7 8164   2.012   1.803  17.368  0.1651  0.1137  0.4018
  547TMC3    C1 8165   2.043   1.740  17.135 -0.2363  0.5320  0.1609
  547TMC3    C2 8166   1.987   1.720  17.009  0.2777 -0.4802 -0.0191
  547TMC3    C3 8167   1.910   1.610  16.996  0.5053  0.2875  0.2449
  547TMC3    C4 8168   2.045   1.644  17.228 -0.2535 -0.1961  0.2876
  547TMC3    C5 8169   1.983   1.526  17.197  0.3805 -0.9438  0.1772
  547TMC3    C6 8170   1.914   1.505  17.081  0.2705 -1.1273 -0.2351
  547TMC3     C 8171   2.045   1.879  17.188  0.2717 -0.3433  0.0983
  547TMC3     O 8172   2.046   1.972  17.109  0.5953  0.0810  0.0572
  547TMC3     H 8173   1.967   1.805  16.945  1.4560 -0.5011 -0.4187
  547TMC3    H1 8174   2.085   1.657  17.328 -1.1913 -0.3449  0.6735
  547TMC3    H2 8175   1.852   1.417  17.065  2.0599 -2.8825  2.4017
  547TMC3    C7 8176   1.952   1.443  17.314 -0.1860 -1.5362  0.0478
  547TMC3    C8 8177   1.798   1.609  16.911 -0.0969 -0.2772  0.5023
  547TMC3    O1 8178   1.954   1.500  17.420  0.0952 -0.1247 -0.0362
  547TMC3    O2 8179   1.692   1.582  16.960  0.4467 -0.6596 -0.1919
  548MPD2     C 8180   2.063   2.653  12.926 -0.3596 -0.3561  0.5111
  548MPD2    C1 8181   1.979   2.542  12.912  0.3580 -0.4627  0.3963
  548MPD2    C2 8182   2.020   2.437  12.838  0.0881 -0.2088 -0.1285
  548MPD2    C3 8183   2.145   2.432  12.782 -0.2399 -0.6974 -0.4575
  548MPD2    C4 8184   2.231   2.537  12.801  0.5679  0.7177  0.3848
  548MPD2    C5 8185   2.192   2.647  12.880  0.8275  0.6425 -0.4562
  548MPD2     H 8186   1.949   2.355  12.830  0.7569 -0.6225 -1.8794
  548MPD2    H1 8187   2.326   2.559  12.755  0.6743 -0.9081 -0.1559
  548MPD2    H2 8188   2.031   2.735  12.989 -1.3828  1.3068 -2.2113
  548MPD2    H3 8189   2.247   2.741  12.881  0.5350  0.8041  0.9739
  548MPD2     N 8190   2.168   2.334  12.682 -0.8011 -0.2781 -0.2654
  548MPD2    H5 8191   2.091   2.272  12.661 -0.0010 -1.3489  0.0005
  548MPD2    N1 8192   1.843   2.554  12.955 -0.6311  0.6686 -0.1754
  548MPD2    H7 8193   1.827   2.636  13.012  1.2386  0.4653  0.6628
  549TMC3    C1 8194   1.620   2.525  12.999 -0.6682 -0.1154 -0.0066
  549TMC3    C2 8195   1.590   2.640  12.934  0.3227 -0.0488 -0.0635
  549TMC3    C3 8196   1.459   2.650  12.892 -0.6637  0.2855 -0.1767
  549TMC3    C4 8197   1.533   2.428  13.019  0.2134 -0.3149  0.3762
  549TMC3    C5 8198   1.409   2.438  12.973 -0.2551  0.2730 -0.3849
  549TMC3    C6 8199   1.367   2.550  12.901  0.4603  0.2433  0.6077
  549TMC3     C 8200   1.746   2.461  12.957  0.4032  0.3747  0.4581
  549TMC3     O 8201   1.764   2.339  12.953  0.4175 -0.3922 -0.3053
  549TMC3     H 8202   1.662   2.720  12.924 -0.4934  0.5333 -1.2845
  549TMC3    H1 8203   1.564   2.340  13.074 -0.7671 -1.0500 -0.2562
  549TMC3    H2 8204   1.261   2.558  12.880  0.8739  0.9787 -1.1989
  549TMC3    C7 8205   1.323   2.322  12.954  0.8212 -0.0958  0.5218
  549TMC3    C8 8206   1.421   2.780  12.848 -0.4511  0.4546 -0.1368
  549TMC3    O1 8207   1.200   2.337  12.949 -0.2408  0.4252 -0.2605
  549TMC3    O2 8208   1.504   2.867  12.868 -0.0480  0.3300  0.2878
  550TMC3    C1 8209   0.928   0.393  12.218 -0.5741  0.5097  0.4510
  550TMC3    C2 8210   1.014   0.451  12.311 -0.2705 -0.3895 -0.4151
  550TMC3    C3 8211   1.071   0.568  12.279 -0.0440  0.4679  0.2370
  550TMC3    C4 8212   0.927   0.443  12.089  0.1625  0.9621 -1.1744
  550TMC3    C5 8213   0.988   0.561  12.058 -0.2001  0.1830 -0.2688
  550TMC3    C6 8214   1.075   0.620  12.150 -0.0661 -0.0683 -0.3486
  550TMC3     C 8215   0.806   0.334  12.275 -0.3956  0.2583 -0.6857
  550TMC3     O 8216   0.824   0.263  12.372  0.4895 -0.3371  0.1063
  550TMC3     H 8217   1.016   0.425  12.416  2.7086 -1.0289 -0.6300
  550TMC3    H1 8218   0.867   0.407  12.006 -1.9010 -2.4803  1.8269
  550TMC3    H2 8219   1.132   0.708  12.125  0.7068 -1.1408 -2.4352
  550TMC3    C7 8220   0.896   0.662  12.005  0.1205 -0.3263 -0.5968
  550TMC3    C8 8221   1.020   0.683  12.358  0.6245 -0.4467 -0.7436
  550TMC3    O1 8222   0.786   0.615  11.997  0.5573 -0.4513  0.0607
  550TMC3    O2 8223   1.071   0.794  12.335 -0.7314 -0.0877  0.3681
  551TMC3    C1 8224   2.776   3.293  13.843 -0.2359 -0.6077  0.5372
  551TMC3    C2 8225   2.788   3.154  13.832 -0.2901 -0.0644 -0.4038
  551TMC3    C3 8226   2.844   3.096  13.954 -0.4621  0.3834 -0.0013
  551TMC3    C4 8227   2.834   3.376  13.936 -0.3981  0.1905  0.5337
  551TMC3    C5 8228   2.900   3.318  14.034  0.8318  0.8491 -0.3892
  551TMC3    C6 8229   2.906   3.179  14.042 -0.3487  0.1210 -0.3536
  551TMC3     C 8230   2.706   3.341  13.728  0.4528  0.8369 -0.0995
  551TMC3     O 8231   2.623   3.266  13.676  0.4857  0.1642 -0.2180
  551TMC3     H 8232   2.746   3.093  13.754  0.2573 -2.5040  1.1915
  551TMC3    H1 8233   2.812   3.482  13.944  0.7687  0.4093  0.7563
  551TMC3    H2 8234   2.936   3.132  14.135  0.0083 -2.8624 -1.9835
  551TMC3    C7 8235   2.961   3.386  14.147  0.2405 -0.0983 -0.1732
  551TMC3    C8 8236   2.882   2.955  13.940  0.0902  0.5079 -0.3123
  551TMC3    O1 8237   2.977   3.334  14.262 -0.1033 -0.1442  0.0099
  551TMC3    O2 8238   2.878   2.888  14.042  0.3463 -0.4301  0.1939
  552MPD2     C 8239   0.224   0.267  14.257  0.2907  0.7995  0.5786
  552MPD2    C1 8240   0.337   0.198  14.238 -0.0291 -0.8068 -0.1106
  552MPD2    C2 8241   0.431   0.203  14.340  0.1703 -0.1295  0.2362
  552MPD2    C3 8242   0.403   0.269  14.461 -0.3173 -0.3051 -0.1471
  552MPD2    C4 8243   0.282   0.334  14.475  0.0665 -0.6130 -0.5806
  552MPD2    C5 8244   0.201   0.333  14.371  0.4036  0.2446 -0.5471
  552MPD2     H 8245   0.524   0.148  14.334  0.1903  0.1118 -1.7394
  552MPD2    H1 8246   0.246   0.378  14.567  1.1611 -1.6913  0.3527
  552MPD2    H2 8247   0.141   0.272  14.187  3.1611 -1.5305 -2.9488
  552MPD2    H3 8248   0.104   0.371  14.399  0.0938 -0.4044 -0.7423
  552MPD2     N 8249   0.487   0.261  14.577 -0.0095  0.8809 -0.1903
  552MPD2    H5 8250   0.454   0.287  14.669 -0.0563 -0.4196  0.1542
  552MPD2    N1 8251   0.370   0.131  14.114  0.0873 -0.0435  0.4916
  552MPD2    H7 8252   0.462   0.088  14.100  0.9325  1.4900  1.3752
  553TMC3    C1 8253   0.327   0.012  13.917  0.0220  0.6972 -0.1309
  553TMC3    C2 8254   0.276   0.029  13.794 -0.6273  0.1713  0.4071
  553TMC3    C3 8255   0.299   4.669  13.704  0.1287  0.3167  0.2007
  553TMC3    C4 8256   0.391   4.636  13.959 -0.6077  0.4247 -0.5631
  553TMC3    C5 8257   0.405   4.544  13.863 -0.5788 -0.0491 -0.3815
  553TMC3    C6 8258   0.356   4.554  13.732 -0.4366 -0.1355 -0.0876
  553TMC3     C 8259   0.275   0.102  14.014  0.3010 -0.4095 -0.6250
  553TMC3     O 8260   0.157   0.129  13.996 -0.0083  0.5616  0.8642
  553TMC3     H 8261   0.233   0.122  13.757 -2.6423 -0.7138  0.5290
  553TMC3    H1 8262   0.415   4.621  14.064 -0.2636 -1.3960 -0.8961
  553TMC3    H2 8263   0.378   4.476  13.660 -0.0705  1.9977 -2.2591
  553TMC3    C7 8264   0.485   4.422  13.887  0.2902  0.5325 -0.0738
  553TMC3    C8 8265   0.352   4.719  13.587  0.3126  0.6218 -0.3575
  553TMC3    O1 8266   0.455   4.320  13.832  0.3664  0.1378  0.2806
  553TMC3    O2 8267   0.408   0.094  13.585 -0.1539  0.4411 -0.7143
  554TMC3    C1 8268   2.748   4.084  11.582  0.2415 -0.5069  0.0594
  554TMC3    C2 8269   2.650   4.021  11.503 -0.1657 -0.3769  0.8575
  554TMC3    C3 8270   2.656   4.038  11.366  0.1383 -0.5327 -0.6521
  554TMC3    C4 8271   2.841   4.166  11.520 -0.3882 -0.2969  0.5366
  554TMC3    C5 8272   2.843   4.174  11.383  0.3762  0.0777 -0.1377
  554TMC3    C6 8273   2.755   4.106  11.303  0.1699  0.3245 -0.3206
  554TMC3     C 8274   2.750   4.098  11.729  0.2400 -0.5594 -0.0749
  554TMC3     O 8275   2.860   4.134  11.771  0.2416 -0.0152  0.0183
  554TMC3     H 8276   2.575   3.957  11.548  1.1330 -1.7556  1.0627
  554TMC3    H1 8277   2.906   4.227  11.581 -1.5027 -1.1234  2.5694
  554TMC3    H2 8278   2.755   4.105  11.195 -0.8565  2.6960 -0.3580
  554TMC3    C7 8279   2.909   4.284  11.318  0.0564  0.7993  0.6517
  554TMC3    C8 8280   2.560   3.973  11.282  0.5958 -0.3339 -0.2031
  554TMC3    O1 8281   2.905   4.286  11.196 -0.1755  0.4978  0.4561
  554TMC3    O2 8282   2.564   4.013  11.163  0.3588  0.3619 -0.2462
  555TMC3    C1 8283   1.458   3.671  15.194 -0.5139 -0.1150  0.2006
  555TMC3    C2 8284   1.500   3.716  15.318 -0.3527 -0.3322 -0.3092
  555TMC3    C3 8285   1.470   3.637  15.425 -0.5039 -0.5539  0.9230
  555TMC3    C4 8286   1.379   3.563  15.182 -0.4036 -0.0187  0.7037
  555TMC3    C5 8287   1.348   3.491  15.289 -0.2461  0.9290 -0.6306
  555TMC3    C6 8288   1.389   3.534  15.413 -0.0346 -0.1239 -0.0730
  555TMC3     C 8289   1.525   3.722  15.076  0.2614 -0.1592 -0.4397
  555TMC3     O 8290   1.631   3.781  15.097  0.3359 -0.1325  0.1210
  555TMC3     H 8291   1.567   3.802  15.319  2.7050 -2.7152 -0.3009
  555TMC3    H1 8292   1.353   3.532  15.081 -1.0039  2.6789  0.0169
  555TMC3    H2 8293   1.386   3.466  15.498 -0.5018 -1.3363 -1.0541
  555TMC3    C7 8294   1.294   3.354  15.285  0.2777  0.1193 -0.2525
  555TMC3    C8 8295   1.484   3.709  15.551  0.6320  1.3534 -0.0925
  555TMC3    O1 8296   1.251   3.305  15.391 -0.3597  0.3225 -0.1741
  555TMC3    O2 8297   1.551   3.811  15.545 -0.2284  0.7791 -0.3797
  556MPD2     C 8298   4.026   0.839  10.544  0.3708 -0.2163 -0.1742
  556MPD2    C1 8299   4.044   0.741  10.642 -0.2491  0.1873 -0.5694
  556MPD2    C2 8300   4.031   0.602  10.605 -0.1034  0.2288  0.0900
  556MPD2    C3 8301   4.003   0.567  10.471  0.8075  0.1191  0.6286
  556MPD2    C4 8302   3.996   0.670  10.378  0.0341 -0.0486 -0.0165
  556MPD2    C5 8303   3.994   0.804  10.414  0.5257  0.7253 -1.0298
  556MPD2     H 8304   4.054   0.525  10.678  2.5753 -0.5085 -1.5179
  556MPD2    H1 8305   3.988   0.651  10.272 -1.1012  0.5698 -0.0356
  556MPD2    H2 8306   4.040   0.944  10.565 -2.0627  0.3739 -1.4896
  556MPD2    H3 8307   3.982   0.877  10.335 -1.3782  1.1458 -0.3378
  556MPD2     N 8308   4.008   0.435  10.435  0.0582 -0.3647 -0.4351
  556MPD2    H5 8309   4.012   0.362  10.506  0.1251 -0.3844 -0.4595
  556MPD2    N1 8310   4.064   0.764  10.781  0.2113 -0.0260  0.2378
  556MPD2    H7 8311   4.068   0.687  10.847  0.6112 -1.3308 -1.3055
  557TMC3    C1 8312   4.022   0.241  10.301 -0.0289 -0.3463 -0.0898
  557TMC3    C2 8313   3.933   0.170  10.220 -0.3982  0.1669  0.0013
  557TMC3    C3 8314   3.918   0.039  10.250 -0.0444  0.2286 -0.1182
  557TMC3    C4 8315   4.084   0.182  10.408  0.0143 -0.2886 -0.5800
  557TMC3    C5 8316   4.056   0.055  10.437  0.3244 -0.5464  0.0600
  557TMC3    C6 8317   3.984   4.714  10.349 -0.1008 -0.0912  0.2853
  557TMC3     C 8318   3.991   0.383  10.308 -0.0779 -0.1503  0.0605
  557TMC3     O 8319   3.936   0.432  10.208  0.8253  0.3041  0.1565
  557TMC3     H 8320   3.884   0.213  10.133 -0.8449 -0.9750 -0.3135
  557TMC3    H1 8321   4.174   0.224  10.451 -1.0068 -3.5860  4.7965
  557TMC3    H2 8322   3.965   4.611  10.375  0.5003 -0.1615  0.4405
  557TMC3    C7 8323   4.014   0.044  10.572  0.1918  0.0736 -0.0491
  557TMC3    C8 8324   3.849   4.695  10.153 -0.6556  0.1483  0.1922
  557TMC3    O1 8325   3.981   0.150  10.623  0.2784 -0.5094 -0.5482
  557TMC3    O2 8326   3.783   0.025  10.069 -0.1806  0.3272 -0.0010
  558TMC3    C1 8327   2.197   2.456   9.858 -0.8112  0.0713  0.4133
  558TMC3    C2 8328   2.067   2.464   9.892  0.2036  0.2350 -0.1757
  558TMC3    C3 8329   1.979   2.366   9.852 -0.1897  0.0259 -0.3845
  558TMC3    C4 8330   2.236   2.355   9.771 -0.4510 -0.3497 -0.6173
  558TMC3    C5 8331   2.147   2.255   9.736  0.1717  0.0017 -0.5861
  558TMC3    C6 8332   2.017   2.260   9.778  0.1360 -0.4461 -0.0350
  558TMC3     C 8333   2.285   2.566   9.899  0.2752 -0.3274 -0.2299
  558TMC3     O 8334   2.242   2.631   9.994 -0.1766 -0.1861 -0.4247
  558TMC3     H 8335   2.032   2.558   9.931  1.4722  0.2804  0.8175
  558TMC3    H1 8336   2.339   2.342   9.739  0.3001  0.7216  1.3825
  558TMC3    H2 8337   1.945   2.185   9.749  1.7875 -0.9310 -2.9189
  558TMC3    C7 8338   2.189   2.162   9.629  0.2702  0.0044 -0.0618
  558TMC3    C8 8339   1.840   2.370   9.897  0.3519 -0.1123 -0.2014
  558TMC3    O1 8340   2.298   2.187   9.580  0.2709  0.1909  0.0507
  558TMC3    O2 8341   1.751   2.308   9.836  0.5669  0.7663 -0.2046
  559MPD2     C 8342   2.152   3.602  10.298  0.2477  0.1257 -0.0422
  559MPD2    C1 8343   2.111   3.493  10.368  0.4429  0.1959  0.2484
  559MPD2    C2 8344   2.184   3.435  10.472  0.1275 -0.3953 -0.2295
  559MPD2    C3 8345   2.302   3.498  10.509  0.3226  0.1285 -0.7801
  559MPD2    C4 8346   2.345   3.610  10.437  0.5857  0.3075  0.4851
  559MPD2    C5 8347   2.273   3.656  10.332  0.1840  0.2067 -0.8389
  559MPD2     H 8348   2.138   3.354  10.528  1.7340 -0.1442  1.4336
  559MPD2    H1 8349   2.438   3.662  10.456 -0.6533  1.5366  3.2705
  559MPD2    H2 8350   2.088   3.651  10.225  1.5985 -0.5970 -1.7287
  559MPD2    H3 8351   2.301   3.743  10.273  1.1005 -0.3113 -1.1724
  559MPD2     N 8352   2.370   3.440  10.621  0.5512  0.6638  0.1244
  559MPD2    H5 8353   2.326   3.361  10.666 -1.2562  1.0489 -0.9811
  559MPD2    N1 8354   1.979   3.450  10.360  0.1607 -0.0594 -0.7005
  559MPD2    H7 8355   1.953   3.380  10.429 -0.8903  1.8388  0.8158
  560TMC3    C1 8356   2.473   3.426  10.821  0.2312 -0.1100  0.6871
  560TMC3    C2 8357   2.388   3.317  10.842  0.3240 -0.4591 -0.0065
  560TMC3    C3 8358   2.342   3.291  10.967 -0.4051 -0.2970  0.4091
  560TMC3    C4 8359   2.527   3.499  10.925  0.3062 -0.3512 -0.1721
  560TMC3    C5 8360   2.481   3.459  11.054  0.4469  0.1490 -0.1467
  560TMC3    C6 8361   2.389   3.363  11.074 -0.4254 -0.0232  0.0714
  560TMC3     C 8362   2.477   3.497  10.693 -0.3157 -0.6457  0.5696
  560TMC3     O 8363   2.534   3.606  10.682  0.2855  0.6720  0.2888
  560TMC3     H 8364   2.361   3.250  10.761  0.6036 -1.6582  0.8882
  560TMC3    H1 8365   2.581   3.590  10.902  3.1605 -2.1865 -0.8683
  560TMC3    H2 8366   2.348   3.347  11.173 -0.8992  0.8097  0.0101
  560TMC3    C7 8367   2.549   3.508  11.166 -0.3419  0.0531  0.2756
  560TMC3    C8 8368   2.216   3.222  10.973 -0.1106 -0.0610  0.3460
  560TMC3    O1 8369   2.534   3.448  11.269 -0.3449  0.0192  0.1135
  560TMC3    O2 8370   2.184   3.152  10.878 -0.0514 -0.1809 -0.3684
  561TMC3    C1 8371   0.298   2.414  10.708 -1.0972  0.4248  0.0831
  561TMC3    C2 8372   0.235   2.310  10.775 -0.0498 -0.0095 -0.1650
  561TMC3    C3 8373   0.098   2.321  10.790 -0.1581 -0.4118 -0.1549
  561TMC3    C4 8374   0.237   2.528  10.668 -0.2720  0.2027  0.0284
  561TMC3    C5 8375   0.102   2.534  10.681 -0.2480 -0.5221 -0.3993
  561TMC3    C6 8376   0.032   2.436  10.748  0.0439 -0.6610  0.8266
  561TMC3     C 8377   0.439   2.402  10.667  0.1797  0.3677 -1.1481
  561TMC3     O 8378   0.504   2.504  10.657 -0.2859 -0.2504  0.2587
  561TMC3     H 8379   0.290   2.223  10.806 -0.6028  0.0751  1.0457
  561TMC3    H1 8380   0.294   2.608  10.622  1.4616 -0.9460  0.1800
  561TMC3    H2 8381   4.660   2.449  10.756 -0.2129 -0.5893 -2.7316
  561TMC3    C7 8382   0.037   2.652  10.645  0.3109  0.1250  0.5539
  561TMC3    C8 8383   0.028   2.227  10.867  0.2268  0.4346  0.6723
  561TMC3    O1 8384   4.652   2.649  10.619 -0.4288 -0.1487 -0.0463
  561TMC3    O2 8385   0.027   2.106  10.851 -0.6532 -0.0204  0.3916
  562TMC3    C1 8386   0.995   3.868  16.579  0.2805  0.3791  0.4056
  562TMC3    C2 8387   0.973   3.996  16.544 -0.2372  0.2393  0.1305
  562TMC3    C3 8388   0.938   4.030  16.420  0.3200 -0.6450  0.2803
  562TMC3    C4 8389   0.987   3.765  16.487  0.6263  0.3205 -0.6266
  562TMC3    C5 8390   0.945   3.800  16.358  0.5619  0.0889  0.3392
  562TMC3    C6 8391   0.917   3.928  16.328 -0.1862 -0.4967 -0.3760
  562TMC3     C 8392   1.055   3.829  16.704 -0.9376  0.2002  0.8362
  562TMC3     O 8393   1.121   3.726  16.703 -0.0479 -0.0451 -0.5564
  562TMC3     H 8394   0.997   4.074  16.616  1.0992  0.4108 -0.5009
  562TMC3    H1 8395   1.016   3.666  16.518 -0.6636  0.3791  0.7883
  562TMC3    H2 8396   0.900   3.954  16.224  2.0652 -2.4190 -1.2307
  562TMC3    C7 8397   0.953   3.707  16.250 -0.7067 -0.3307 -0.5958
  562TMC3    C8 8398   0.898   4.166  16.396  0.2046  0.4909 -0.2971
  562TMC3    O1 8399   0.945   3.748  16.136  0.1409  0.8912  0.0253
  562TMC3    O2 8400   0.928   4.251  16.480  0.2332 -0.4916 -0.2169
  563MPD2     C 8401   3.266   0.587  15.714 -0.4706  0.0107  0.7833
  563MPD2    C1 8402   3.312   0.636  15.836  0.6473  0.4120 -0.3420
  563MPD2    C2 8403   3.413   0.578  15.901  0.2884 -0.4384 -0.3436
  563MPD2    C3 8404   3.489   0.475  15.843  0.1852 -0.2800  0.0141
  563MPD2    C4 8405   3.446   0.430  15.719 -0.0779 -0.2065 -0.0019
  563MPD2    C5 8406   3.329   0.475  15.664  0.7726 -0.8156  0.0551
  563MPD2     H 8407   3.447   0.601  16.002 -2.1036  3.7038 -0.4738
  563MPD2    H1 8408   3.506   0.350  15.675 -0.5310 -0.2270 -0.5743
  563MPD2    H2 8409   3.193   0.639  15.653  1.5693  2.0113  0.0329
  563MPD2    H3 8410   3.297   0.419  15.576 -1.1725  2.1826 -1.1475
  563MPD2     N 8411   3.598   0.421  15.913  0.6164  0.1666  0.9561
  563MPD2    H5 8412   3.615   0.465  16.003 -1.7452  0.4623  1.2708
  563MPD2    N1 8413   3.244   0.742  15.900 -0.2819 -0.4453  0.1906
  563MPD2    H7 8414   3.145   0.756  15.882  0.0381  0.1992 -1.0534
  564TMC3    C1 8415   3.224   0.841  16.114 -0.2795  0.1856  0.7632
  564TMC3    C2 8416   3.094   0.793  16.112  0.4304  0.2174  0.1224
  564TMC3    C3 8417   3.036   0.770  16.232 -0.1153  0.9524 -1.0365
  564TMC3    C4 8418   3.298   0.853  16.233  0.1329 -0.5197  0.6876
  564TMC3    C5 8419   3.241   0.814  16.355 -0.8264 -0.2587 -0.1399
  564TMC3    C6 8420   3.109   0.776  16.350 -0.1344 -0.1724  0.5608
  564TMC3     C 8421   3.301   0.827  15.993 -0.0537  0.0063  0.4470
  564TMC3     O 8422   3.421   0.852  15.999  0.0043 -0.2772 -0.6235
  564TMC3     H 8423   3.037   0.809  16.021  0.5779  0.9712  0.1611
  564TMC3    H1 8424   3.404   0.872  16.234  0.1347 -0.4110 -0.7977
  564TMC3    H2 8425   3.055   0.757  16.442 -0.1805  1.2340  0.8284
  564TMC3    C7 8426   3.328   0.701  16.390 -0.4120 -0.0577 -0.4508
  564TMC3    C8 8427   2.954   0.654  16.224 -0.0941 -0.2589 -0.0424
  564TMC3    O1 8428   3.452   0.705  16.381  0.7485 -0.0778 -0.5439
  564TMC3    O2 8429   2.926   0.596  16.330  0.0933  0.1793 -0.2889
  565TMC3    C1 8430   3.801   1.426  10.419  0.2481  0.2805  0.0073
  565TMC3    C2 8431   3.852   1.410  10.546 -0.3012 -0.2642  0.2588
  565TMC3    C3 8432   3.852   1.283  10.597 -0.0593 -0.3241  0.0696
  565TMC3    C4 8433   3.753   1.313  10.354  0.3005  0.5411  0.4146
  565TMC3    C5 8434   3.759   1.189  10.407  0.2444 -0.3725 -0.8086
  565TMC3    C6 8435   3.824   1.168  10.529 -0.7603 -0.1137 -0.0986
  565TMC3     C 8436   3.782   1.557  10.349  0.3150 -0.3354  0.2978
  565TMC3     O 8437   3.741   1.562  10.235  0.1279 -0.1381  0.0788
  565TMC3     H 8438   3.876   1.492  10.613 -1.0155 -0.3730  0.6468
  565TMC3    H1 8439   3.702   1.332  10.260 -1.5467 -3.2070  0.6760
  565TMC3    H2 8440   3.803   1.076  10.582  0.6102  0.5306  1.5605
  565TMC3    C7 8441   3.725   1.072  10.330  0.0457  0.1284  0.6217
  565TMC3    C8 8442   3.891   1.261  10.733  0.7230 -0.3381  0.7958
  565TMC3    O1 8443   3.740   0.969  10.393  0.4766 -0.0961  0.3090
  565TMC3    O2 8444   3.952   1.358  10.782  0.8694  0.1671 -0.3498
  566MPD2     C 8445   0.427   3.158  14.237  0.6429  0.1516 -1.0084
  566MPD2    C1 8446   0.425   3.253  14.144  0.3136 -0.2026 -0.3803
  566MPD2    C2 8447   0.305   3.300  14.088  0.1709 -0.4809  0.4497
  566MPD2    C3 8448   0.178   3.254  14.131  0.3787 -0.5092 -0.4654
  566MPD2    C4 8449   0.183   3.173  14.239  0.6792  0.0178  0.3864
  566MPD2    C5 8450   0.303   3.120  14.288 -0.6382  0.4784 -0.0930
  566MPD2     H 8451   0.293   3.389  14.027 -0.9394  0.3893  1.9220
  566MPD2    H1 8452   0.087   3.154  14.286  0.1414  0.4607 -0.5492
  566MPD2    H2 8453   0.515   3.110  14.278 -1.0145 -0.4779  1.8396
  566MPD2    H3 8454   0.306   3.035  14.356  1.1866  1.1809  0.6869
  566MPD2     N 8455   0.056   3.308  14.083  0.0887  0.0519  0.0337
  566MPD2    H5 8456   4.715   3.303  14.151  0.0160  0.9456  0.0257
  566MPD2    N1 8457   0.553   3.287  14.089 -0.6225 -0.4629 -0.1706
  566MPD2    H7 8458   0.627   3.229  14.128 -0.1970  0.3666  0.2486
  567TMC3    C1 8459   0.716   3.353  13.939 -0.3835  0.0619  0.2697
  567TMC3    C2 8460   0.732   3.404  13.815 -0.1663  0.3782 -0.0565
  567TMC3    C3 8461   0.857   3.465  13.775 -0.2136 -0.3551 -0.0663
  567TMC3    C4 8462   0.816   3.365  14.035  0.1461 -0.2926  0.4340
  567TMC3    C5 8463   0.931   3.437  14.002  0.0373  0.5575 -0.2054
  567TMC3    C6 8464   0.952   3.488  13.872 -0.1474 -0.3648 -0.8521
  567TMC3     C 8465   0.572   3.343  13.970  0.2482  0.3164  0.3493
  567TMC3     O 8466   0.496   3.416  13.911 -0.2722  0.2293 -0.0148
  567TMC3     H 8467   0.660   3.377  13.738 -2.3190 -1.2070  2.5077
  567TMC3    H1 8468   0.805   3.309  14.128 -0.7068 -1.3018 -0.2717
  567TMC3    H2 8469   1.049   3.526  13.840  0.6787 -1.7986 -0.0492
  567TMC3    C7 8470   1.045   3.442  14.091 -0.1166  0.6505  0.4048
  567TMC3    C8 8471   0.860   3.524  13.640 -0.0314  1.0968 -0.1990
  567TMC3    O1 8472   1.154   3.467  14.040  0.7360 -0.2756 -0.5584
  567TMC3    O2 8473   0.761   3.501  13.568 -0.2567  0.1045 -0.4438
  568MPD2     C 8474   3.031   3.816  16.522 -0.5489 -0.9289 -0.2305
  568MPD2    C1 8475   3.017   3.900  16.632 -0.1445  0.3748 -0.4333
  568MPD2    C2 8476   2.992   4.028  16.604  0.2553  0.2613 -0.3335
  568MPD2    C3 8477   2.990   4.085  16.472  0.3733 -0.2639 -0.0950
  568MPD2    C4 8478   3.013   4.000  16.365 -0.2317  0.1370 -0.3075
  568MPD2    C5 8479   3.015   3.866  16.391  0.1095 -0.4362 -0.5503
  568MPD2     H 8480   2.979   4.099  16.685 -1.0607 -0.1479 -0.1860
  568MPD2    H1 8481   3.000   4.025  16.260 -1.3776 -0.3326 -0.2764
  568MPD2    H2 8482   3.039   3.709  16.532  0.2312 -0.7698  0.9061
  568MPD2    H3 8483   3.012   3.787  16.317  1.9996 -0.6838 -0.3667
  568MPD2     N 8484   2.980   4.221  16.460 -0.1351 -0.3639  0.6978
  568MPD2    H5 8485   2.975   4.269  16.549  0.3352 -0.4753  0.7856
  568MPD2    N1 8486   3.021   3.844  16.762 -0.2619 -0.6260 -0.4658
  568MPD2    H7 8487   3.047   3.746  16.770  2.4175  0.1486  0.2589
  569TMC3    C1 8488   2.980   4.439  16.371  0.2911  0.3949  0.5848
  569TMC3    C2 8489   2.916   4.487  16.485 -0.6684  0.7370  0.7407
  569TMC3    C3 8490   2.882   4.618  16.477 -0.7296 -0.2335 -1.0581
  569TMC3    C4 8491   3.006   4.508  16.256 -0.3527  0.1070 -0.2483
  569TMC3    C5 8492   2.973   4.643  16.263  0.1842 -0.3070 -0.0466
  569TMC3    C6 8493   2.907   4.696  16.372  0.1192 -0.7484 -0.6706
  569TMC3     C 8494   2.982   4.298  16.344 -0.4331 -0.2830 -0.2141
  569TMC3     O 8495   2.977   4.273  16.223 -0.0321 -0.2686 -0.2397
  569TMC3     H 8496   2.912   4.437  16.581 -2.5787 -0.6320 -0.0398
  569TMC3    H1 8497   3.053   4.462  16.171 -0.7667  0.3210 -0.5965
  569TMC3    H2 8498   2.899   0.065  16.401 -0.6571 -1.1346  0.5155
  569TMC3    C7 8499   3.002   4.731  16.148  0.0228 -0.2114 -0.3510
  569TMC3    C8 8500   2.858   4.693  16.597  0.4838 -0.1536  0.3761
  569TMC3    O1 8501   3.059   4.674  16.056  0.0375  0.2640  0.0572
  569TMC3    O2 8502   2.757   0.022  16.591 -0.3675 -0.0380 -0.1965
  570TMC3    C1 8503   1.998   2.598  16.342  0.2739  0.3363  0.3551
  570TMC3    C2 8504   2.095   2.641  16.249 -0.6633 -0.1174  0.8637
  570TMC3    C3 8505   2.174   2.751  16.283  0.2790  0.6012  0.8212
  570TMC3    C4 8506   1.968   2.674  16.456  0.1229  0.0170  1.0960
  570TMC3    C5 8507   2.050   2.779  16.481 -0.2851  0.1627 -0.1890
  570TMC3    C6 8508   2.160   2.810  16.411 -0.9173 -0.4835  0.0774
  570TMC3     C 8509   1.920   2.483  16.316  0.6973 -0.4773  0.5000
  570TMC3     O 8510   1.936   2.435  16.204 -0.4586  0.0270  0.1442
  570TMC3     H 8511   2.097   2.601  16.148  1.3508 -2.7772  1.9383
  570TMC3    H1 8512   1.883   2.662  16.522 -1.7447  0.3593 -1.2610
  570TMC3    H2 8513   2.214   2.902  16.431 -2.9413  0.5838  0.5905
  570TMC3    C7 8514   1.988   2.876  16.566 -0.0276 -1.1522  0.1020
  570TMC3    C8 8515   2.295   2.769  16.219  0.8107 -0.9045  0.2018
  570TMC3    O1 8516   1.914   2.835  16.654  0.4398 -0.1360 -0.0405
  570TMC3    O2 8517   2.365   2.867  16.252  0.2447 -0.7507  0.4417
  571MPD2     C 8518   0.413   4.565   0.156  0.3683 -0.4273  0.2442
  571MPD2    C1 8519   0.308   4.621   0.083 -0.5235 -0.5795  0.7722
  571MPD2    C2 8520   0.259   0.008   0.125  0.4240  0.1391  0.7853
  571MPD2    C3 8521   0.324   0.090   0.219  0.2050  0.0762 -0.0939
  571MPD2    C4 8522   0.439   0.034   0.275  0.3588 -0.2531  0.3516
  571MPD2    C5 8523   0.474   4.638   0.251  0.3335  0.0415 -0.3314
  571MPD2     H 8524   0.173   0.050   0.073  0.9360 -0.2284 -0.3668
  571MPD2    H1 8525   0.496   0.083   0.353 -0.4816  0.9150  0.2316
  571MPD2    H2 8526   0.450   4.466   0.136  0.4821 -0.6467  1.5597
  571MPD2    H3 8527   0.558   4.598   0.306 -2.4986 -2.1940  2.3558
  571MPD2     N 8528   0.274   0.219   0.262 -0.5499 -0.1158  0.0499
  571MPD2    H5 8529   0.323   0.271   0.334 -0.6386  0.3682 -0.2371
  571MPD2    N1 8530   0.244   4.530  17.730 -0.0039  0.4995 -0.2363
  571MPD2    H7 8531   0.289   4.442  17.711  0.6127  0.8670 -0.4853
  572TMC3    C1 8532   0.147   0.413   0.297 -1.2224  0.0303 -0.1285
  572TMC3    C2 8533   0.155   0.398   0.437  0.6153 -0.0479  0.2779
  572TMC3    C3 8534   0.107   0.501   0.511  0.1503  0.1657 -0.5714
  572TMC3    C4 8535   0.090   0.522   0.233  0.1956  0.7946  0.1613
  572TMC3    C5 8536   0.057   0.628   0.310  0.5090 -0.2495  0.5980
  572TMC3    C6 8537   0.064   0.618   0.444 -1.2004  0.3792 -0.0062
  572TMC3     C 8538   0.174   0.297   0.215  0.7196 -0.2971  0.1571
  572TMC3     O 8539   0.111   0.287   0.110  0.0727 -0.2282 -0.2945
  572TMC3     H 8540   0.161   0.297   0.477 -2.6795 -0.6161 -0.7124
  572TMC3    H1 8541   0.076   0.513   0.125  3.4397 -0.9730 -0.1181
  572TMC3    H2 8542   0.024   0.699   0.504  0.5320  0.3777  1.1456
  572TMC3    C7 8543   0.021   0.752   0.244 -0.1597  0.0220 -0.1020
  572TMC3    C8 8544   0.036   0.462   0.635  0.4061 -0.4248  0.0719
  572TMC3    O1 8545   0.025   0.748   0.125  0.3474  0.2522 -0.0963
  572TMC3    O2 8546   0.102   0.383   0.699  0.0353 -0.1826 -0.6161
  573MPD2     C 8547   1.036   1.144   1.462  0.6793  0.0290 -0.1140
  573MPD2    C1 8548   1.158   1.135   1.385  0.7948 -0.8581 -0.7491
  573MPD2    C2 8549   1.171   1.043   1.279  0.1476 -0.3529  0.2657
  573MPD2    C3 8550   1.061   0.961   1.245 -0.3680 -0.0506  0.0815
  573MPD2    C4 8551   0.946   0.967   1.325  0.2120 -0.2052  0.4781
  573MPD2    C5 8552   0.937   1.055   1.428 -0.0072  0.6677 -0.4135
  573MPD2     H 8553   1.261   1.050   1.219  0.4683  0.8925  0.8981
  573MPD2    H1 8554   0.860   0.910   1.293  0.4762 -1.5867  2.1948
  573MPD2    H2 8555   1.028   1.217   1.542  0.6461 -0.8207  0.6570
  573MPD2    H3 8556   0.839   1.048   1.472  0.6594  0.6319  1.0572
  573MPD2     N 8557   1.053   0.879   1.129 -0.0565  0.0163 -0.2247
  573MPD2    H5 8558   0.965   0.837   1.102  0.0536  1.1033 -2.2961
  573MPD2    N1 8559   1.264   1.221   1.430  0.9832  0.2513 -0.0120
  573MPD2    H7 8560   1.237   1.283   1.506  0.8087  2.0004 -1.4994
  574TMC3    C1 8561   1.120   0.794   0.916 -0.8629  0.3591 -0.3045
  574TMC3    C2 8562   0.984   0.789   0.880  0.0195 -0.4444 -0.6816
  574TMC3    C3 8563   0.949   0.759   0.756  0.1130  0.4445 -0.0681
  574TMC3    C4 8564   1.210   0.750   0.825 -0.2861 -0.0412 -0.4914
  574TMC3    C5 8565   1.166   0.717   0.695  0.3795  0.1404  0.0185
  574TMC3    C6 8566   1.035   0.707   0.665 -0.0079 -0.2391 -0.1906
  574TMC3     C 8567   1.159   0.856   1.045 -0.0429 -0.3074  0.1493
  574TMC3     O 8568   1.277   0.866   1.062  0.4257  0.2357 -0.7139
  574TMC3     H 8569   0.905   0.825   0.945 -0.3321 -1.8354 -0.3414
  574TMC3    H1 8570   1.317   0.762   0.838 -0.5515 -0.1939  1.8346
  574TMC3    H2 8571   1.005   0.684   0.563  0.4316  1.6388 -0.7397
  574TMC3    C7 8572   1.258   0.670   0.596  0.0051  0.6357  0.4683
  574TMC3    C8 8573   0.810   0.738   0.742 -0.1491 -0.7015  0.0750
  574TMC3    O1 8574   1.223   0.582   0.515 -0.3892  0.2722  0.1086
  574TMC3    O2 8575   0.749   0.694   0.839  0.4831 -0.3158 -0.0998
  575TMC3    C1 8576   4.400   1.416  11.433 -0.2038  0.8098 -0.0179
  575TMC3    C2 8577   4.360   1.369  11.553  0.7176  0.4081 -0.1097
  575TMC3    C3 8578   4.236   1.306  11.564 -0.3654 -1.0101  0.6846
  575TMC3    C4 8579   4.312   1.404  11.323 -0.3270 -0.5898  0.4860
  575TMC3    C5 8580   4.190   1.339  11.341 -0.3717 -0.5372 -0.2799
  575TMC3    C6 8581   4.148   1.292  11.462  0.2990 -0.2128  1.0632
  575TMC3     C 8582   4.526   1.485  11.425  0.1086 -0.4387  0.4568
  575TMC3     O 8583   4.592   1.488  11.530 -0.0150 -0.1605 -0.3052
  575TMC3     H 8584   4.418   1.393  11.642 -1.9651  0.1171  1.7050
  575TMC3    H1 8585   4.345   1.422  11.221 -0.8704  1.4058  0.6644
  575TMC3    H2 8586   4.048   1.252  11.474  0.1158 -0.4901 -1.3091
  575TMC3    C7 8587   4.114   1.311  11.219 -0.9441 -0.2728 -0.0759
  575TMC3    C8 8588   4.183   1.264  11.689  0.3949 -0.2295  0.3185
  575TMC3    O1 8589   4.151   1.370  11.116  0.4495  0.2712  0.0304
  575TMC3    O2 8590   4.067   1.277  11.713  0.0254  0.0276 -0.1232
  576MPD2     C 8591   3.508   2.591  11.546 -0.1718  0.0731 -0.3084
  576MPD2    C1 8592   3.620   2.518  11.583  0.3194 -0.0626  0.2863
  576MPD2    C2 8593   3.626   2.477  11.720 -0.2312  0.4608  0.9856
  576MPD2    C3 8594   3.522   2.519  11.803 -0.7474 -0.1360 -0.0008
  576MPD2    C4 8595   3.417   2.597  11.758 -0.7877 -0.6760  0.1868
  576MPD2    C5 8596   3.410   2.630  11.630 -1.0456 -0.4415 -0.3460
  576MPD2     H 8597   3.701   2.411  11.762 -0.4085  0.5822  1.4913
  576MPD2    H1 8598   3.334   2.632  11.818 -1.3193 -1.3927 -0.1214
  576MPD2    H2 8599   3.501   2.640  11.449 -0.9756 -1.7385 -1.1529
  576MPD2    H3 8600   3.325   2.692  11.605 -1.2048  0.3440  2.0803
  576MPD2     N 8601   3.539   2.483  11.938  0.0136 -0.1310  0.1002
  576MPD2    H5 8602   3.629   2.444  11.962  1.0479  1.7624 -0.6565
  576MPD2    N1 8603   3.719   2.473  11.497  0.2621  0.4263 -0.8891
  576MPD2    H7 8604   3.807   2.454  11.545  0.1202  0.1109 -0.7489
  577TMC3    C1 8605   3.838   2.503  11.302 -0.6686 -0.6597  0.1939
  577TMC3    C2 8606   3.921   2.398  11.287  0.5403 -0.0234 -0.1629
  577TMC3    C3 8607   4.056   2.429  11.262 -0.3751  0.1257 -1.0900
  577TMC3    C4 8608   3.875   2.636  11.299 -0.1803 -0.1367 -0.2592
  577TMC3    C5 8609   4.005   2.660  11.297 -0.8691  0.1557 -0.4222
  577TMC3    C6 8610   4.096   2.560  11.274  0.2951  0.3022  0.6260
  577TMC3     C 8611   3.710   2.484  11.359 -0.1704 -0.2592 -0.3528
  577TMC3     O 8612   3.605   2.503  11.299  0.5243 -0.4229 -0.3483
  577TMC3     H 8613   3.881   2.298  11.302  1.1295 -0.5502 -2.1226
  577TMC3    H1 8614   3.799   2.711  11.317  0.8241  1.0124 -0.8720
  577TMC3    H2 8615   4.200   2.585  11.260  0.2827  0.3475  0.6145
  577TMC3    C7 8616   4.053   2.801  11.331  0.3349 -0.1942 -0.0965
  577TMC3    C8 8617   4.141   2.310  11.233  0.3323  0.1480  0.3197
  577TMC3    O1 8618   4.167   2.807  11.374  0.1391 -0.4131 -0.2015
  577TMC3    O2 8619   4.079   2.205  11.230  0.4715  0.0120 -0.1947
  578MPD2     C 8620   1.536   2.910   0.915 -0.0378  0.4937  0.3280
  578MPD2    C1 8621   1.640   2.901   0.829 -0.3862 -0.3181 -0.2908
  578MPD2    C2 8622   1.729   2.802   0.858  0.0782 -0.0592 -0.4203
  578MPD2    C3 8623   1.709   2.710   0.958  0.1849  0.4363 -0.0679
  578MPD2    C4 8624   1.604   2.725   1.040 -0.7293 -0.8753 -0.3266
  578MPD2    C5 8625   1.517   2.822   1.021  0.4666  0.2757 -0.4123
  578MPD2     H 8626   1.801   2.780   0.780  0.6040  1.9232 -0.4821
  578MPD2    H1 8627   1.586   2.662   1.126 -0.8862 -0.2130  0.1260
  578MPD2    H2 8628   1.452   2.977   0.898 -0.9554 -0.5922  0.5694
  578MPD2    H3 8629   1.433   2.827   1.089  0.3329 -0.6873 -0.5008
  578MPD2     N 8630   1.817   2.627   0.989  0.5094 -0.5177 -0.3662
  578MPD2    H5 8631   1.814   2.579   1.079  0.7130  0.4334  0.1514
  578MPD2    N1 8632   1.658   3.000   0.734  0.2734  0.8889  0.1027
  578MPD2    H7 8633   1.588   3.073   0.723  0.4046  1.2380  1.5234
  579TMC3    C1 8634   2.041   2.526   0.991 -0.3390  0.8775  0.1847
  579TMC3    C2 8635   2.049   2.572   1.125 -1.0726  0.0727  0.5825
  579TMC3    C3 8636   2.158   2.528   1.203  0.0286 -0.2604  0.0165
  579TMC3    C4 8637   2.137   2.441   0.938  0.1536 -0.3361 -0.4449
  579TMC3    C5 8638   2.232   2.393   1.024  0.2357 -0.3246  0.3865
  579TMC3    C6 8639   2.250   2.433   1.154  0.0518 -0.4478 -0.3296
  579TMC3     C 8640   1.928   2.588   0.907 -0.3564 -0.3986 -0.2762
  579TMC3     O 8641   1.943   2.600   0.786 -0.3059  0.4315 -0.4505
  579TMC3     H 8642   1.977   2.640   1.168 -1.4444 -0.8472  1.4325
  579TMC3    H1 8643   2.133   2.425   0.831  0.9962 -1.0203 -0.3720
  579TMC3    H2 8644   2.325   2.392   1.221  1.2125  1.6656 -0.3308
  579TMC3    C7 8645   2.334   2.301   0.969  0.3905 -0.6670  0.4510
  579TMC3    C8 8646   2.202   2.623   1.303 -0.0706  0.2784 -0.1659
  579TMC3    O1 8647   2.437   2.286   1.030  0.6473  0.2353  0.3989
  579TMC3    O2 8648   2.117   2.677   1.373 -0.0919  0.6524 -0.0135
  580TMC3    C1 8649   1.263   1.944  11.811 -0.1074  0.2604  0.3220
  580TMC3    C2 8650   1.281   1.890  11.688  0.1208  0.0304  0.2588
  580TMC3    C3 8651   1.317   1.755  11.694  0.0319 -0.3976 -0.0492
  580TMC3    C4 8652   1.270   1.869  11.932  0.4308  0.1750 -0.1655
  580TMC3    C5 8653   1.297   1.738  11.939 -0.6649  0.0724  0.0385
  580TMC3    C6 8654   1.323   1.684  11.812 -0.2840 -0.9545  0.5113
  580TMC3     C 8655   1.299   2.087  11.823 -0.7337  0.0266  0.8064
  580TMC3     O 8656   1.250   2.161  11.733  0.0108  0.1195  0.0841
  580TMC3     H 8657   1.260   1.944  11.597  0.9577  0.4721  0.3334
  580TMC3    H1 8658   1.255   1.923  12.025 -0.3625 -1.1764  0.4855
  580TMC3    H2 8659   1.342   1.578  11.800 -0.6220 -0.9098 -0.4169
  580TMC3    C7 8660   1.357   1.674  12.053  0.5320  0.2089 -0.7598
  580TMC3    C8 8661   1.377   1.699  11.571 -0.5000 -0.4791  0.2691
  580TMC3    O1 8662   1.374   1.743  12.158  0.3224  0.5096  0.2087
  580TMC3    O2 8663   1.393   1.576  11.563 -0.1240 -0.2174  0.1738
  581MPD2     C 8664   3.444   1.688  15.185 -0.1152 -0.7723 -0.2662
  581MPD2    C1 8665   3.561   1.673  15.108 -0.3583 -0.1562  0.3779
  581MPD2    C2 8666   3.598   1.772  15.014  0.0420  0.1665  0.3655
  581MPD2    C3 8667   3.529   1.889  15.011 -0.5162  0.0718  0.4905
  581MPD2    C4 8668   3.429   1.917  15.102 -0.5153 -0.0536  0.5742
  581MPD2    C5 8669   3.373   1.812  15.181  0.3793 -0.1503  0.4754
  581MPD2     H 8670   3.673   1.744  14.940  0.1028 -1.3722  1.0045
  581MPD2    H1 8671   3.365   2.005  15.098 -2.7296 -1.6776  0.6324
  581MPD2    H2 8672   3.419   1.604  15.247  2.2871 -1.4177 -0.1841
  581MPD2    H3 8673   3.285   1.828  15.242  0.3855  0.8119  0.2247
  581MPD2     N 8674   3.547   1.982  14.908  0.3057  0.2559  0.4508
  581MPD2    H5 8675   3.592   1.950  14.823 -2.0103  0.3063 -0.8208
  581MPD2    N1 8676   3.626   1.549  15.123  0.0225  0.4803 -0.8687
  581MPD2    H7 8677   3.584   1.485  15.190  2.2085 -0.3305 -0.2886
  582TMC3    C1 8678   3.795   1.394  15.150  0.2767  0.4983  0.2745
  582TMC3    C2 8679   3.920   1.428  15.197 -0.0946 -0.1814 -0.2905
  582TMC3    C3 8680   3.934   1.393  15.332 -1.1543  0.0166 -0.6694
  582TMC3    C4 8681   3.704   1.329  15.228 -0.1220  0.4011 -0.9685
  582TMC3    C5 8682   3.715   1.304  15.367  0.1593  0.9082  0.3948
  582TMC3    C6 8683   3.841   1.342  15.413  0.9700  0.4931 -0.3302
  582TMC3     C 8684   3.748   1.509  15.077  0.8398 -0.2799  0.6592
  582TMC3     O 8685   3.819   1.572  14.999  0.1331 -0.1472 -0.1716
  582TMC3     H 8686   3.990   1.490  15.142 -0.4171  0.5036  0.0659
  582TMC3    H1 8687   3.605   1.312  15.187 -0.9206 -1.4332  1.6386
  582TMC3    H2 8688   3.870   1.334  15.517  4.2247  0.3356 -1.2766
  582TMC3    C7 8689   3.603   1.363  15.446  0.1891 -1.3935 -0.0583
  582TMC3    C8 8690   3.996   1.493  15.395 -0.3835  0.1291 -0.1763
  582TMC3    O1 8691   3.493   1.314  15.411 -0.8225  0.1946 -0.1241
  582TMC3    O2 8692   3.914   1.585  15.411  0.5589  0.2476  0.0623
  583MPD2     C 8693   4.156   3.374  16.874  0.1763  0.7478  0.3465
  583MPD2    C1 8694   4.146   3.486  16.800 -0.6222 -0.0840  0.2540
  583MPD2    C2 8695   4.085   3.597  16.856  0.0820 -0.4106  0.0887
  583MPD2    C3 8696   4.046   3.598  16.990  0.3530  0.1147 -0.0951
  583MPD2    C4 8697   4.049   3.475  17.056  0.0966 -0.2470 -0.0498
  583MPD2    C5 8698   4.108   3.367  16.999 -0.2565 -0.0272  0.2188
  583MPD2     H 8699   4.085   3.691  16.803 -1.0081 -0.4948 -0.0623
  583MPD2    H1 8700   4.004   3.458  17.153  0.9461  1.7586  0.6898
  583MPD2    H2 8701   4.220   3.291  16.848 -1.4257 -0.1767 -0.6478
  583MPD2    H3 8702   4.117   3.275  17.056  0.3013 -0.8864 -1.2432
  583MPD2     N 8703   3.973   3.708  17.042 -0.3598  0.1159  0.0490
  583MPD2    H5 8704   3.952   3.793  16.991  0.2855 -0.2063 -0.7491
  583MPD2    N1 8705   4.191   3.495  16.661 -0.0418  0.4299 -0.1409
  583MPD2    H7 8706   4.174   3.581  16.610 -1.4893 -0.7924 -1.6947
  584TMC3    C1 8707   3.894   3.854  17.218  0.0011 -0.1352  0.5282
  584TMC3    C2 8708   3.914   3.964  17.141  0.0592 -0.1398 -0.0908
  584TMC3    C3 8709   3.925   4.088  17.207 -0.0656  0.0799  0.0364
  584TMC3    C4 8710   3.878   3.865  17.356 -0.6690  0.0340  0.5500
  584TMC3    C5 8711   3.886   3.990  17.414 -0.2314  0.1734 -1.0137
  584TMC3    C6 8712   3.903   4.103  17.342 -0.1077 -0.4063  0.4371
  584TMC3     C 8713   3.933   3.722  17.176 -0.6533  0.7022  0.5007
  584TMC3     O 8714   3.946   3.643  17.264 -0.1805  0.2036  0.3390
  584TMC3     H 8715   3.950   3.954  17.039  0.8157 -1.9390  0.3509
  584TMC3    H1 8716   3.858   3.779  17.420 -0.3697 -1.0363 -0.8128
  584TMC3    H2 8717   3.889   4.197  17.394  1.2425 -0.4743  0.9123
  584TMC3    C7 8718   3.843   3.996  17.555  0.4413 -0.3316 -0.6656
  584TMC3    C8 8719   3.949   4.204  17.118 -0.0865 -0.9539  0.0899
  584TMC3    O1 8720   3.775   3.905  17.602  0.2706  0.6978  0.1964
  584TMC3    O2 8721   3.912   4.191  16.999  0.1686  0.1483 -0.3298
  585MPD2     C 8722   3.301   2.564   0.303 -0.2497  0.5778  0.3322
  585MPD2    C1 8723   3.402   2.602   0.217  0.3754  0.0675  0.0030
  585MPD2    C2 8724   3.443   2.514   0.112  0.0988  0.1690 -0.3830
  585MPD2    C3 8725   3.391   2.386   0.105  0.4873  0.0574 -0.6320
  585MPD2    C4 8726   3.291   2.342   0.192  0.5737 -0.0697 -0.1259
  585MPD2    C5 8727   3.254   2.436   0.291  0.3895 -0.2649 -0.0477
  585MPD2     H 8728   3.507   2.552   0.033  1.1975 -0.6231  0.1176
  585MPD2    H1 8729   3.240   2.246   0.189  0.4385 -0.0166  0.6221
  585MPD2    H2 8730   3.273   2.635   0.380 -0.0120  3.5706 -2.3215
  585MPD2    H3 8731   3.177   2.406   0.361  0.7689 -0.3976  0.3090
  585MPD2     N 8732   3.427   2.298   0.008  0.1537 -0.1324  0.5057
  585MPD2    H5 8733   3.381   2.208   0.011  0.5879 -0.3597  0.2935
  585MPD2    N1 8734   3.437   2.739   0.221 -0.1543  0.1148 -0.3299
  585MPD2    H7 8735   3.396   2.796   0.294 -0.8914 -0.5403 -0.2221
  586TMC3    C1 8736   3.484   2.227  17.534 -0.4209  0.1231 -0.0434
  586TMC3    C2 8737   3.580   2.172  17.451 -0.0836 -0.1034  1.2981
  586TMC3    C3 8738   3.528   2.076  17.359 -0.8503  0.8908  0.1024
  586TMC3    C4 8739   3.351   2.189  17.531 -0.5322 -0.3230  0.1522
  586TMC3    C5 8740   3.308   2.096  17.444 -0.3029  0.2343  0.3576
  586TMC3    C6 8741   3.392   2.041  17.348  0.2352  0.1630  1.1390
  586TMC3     C 8742   3.520   2.316  17.647 -0.0306 -0.2455 -0.5921
  586TMC3     O 8743   3.617   2.389  17.630  0.1231  0.0332 -0.4738
  586TMC3     H 8744   3.685   2.196  17.458  0.4789 -2.0786 -0.3665
  586TMC3    H1 8745   3.273   2.244  17.582  0.4597  0.9312  0.2853
  586TMC3    H2 8746   3.359   1.948  17.303  2.0594 -0.0627  0.2775
  586TMC3    C7 8747   3.172   2.122  17.404 -0.3064  0.1605  0.0057
  586TMC3    C8 8748   3.622   1.968  17.330 -0.3905  0.3558  0.6121
  586TMC3    O1 8749   3.089   2.149  17.488 -0.2064 -0.6015  0.4471
  586TMC3    O2 8750   3.718   1.948  17.406 -0.1600  0.5366  0.0034
  587TMC3    C1 8751   0.803   1.156  15.973  0.1497  0.2219 -0.2374
  587TMC3    C2 8752   0.791   1.228  16.090  0.7474  0.2795 -0.3269
  587TMC3    C3 8753   0.903   1.234  16.163  0.0347 -0.0825  0.1809
  587TMC3    C4 8754   0.912   1.090  15.929  0.7039 -0.2782 -0.3939
  587TMC3    C5 8755   1.020   1.103  16.004  0.6354  0.0844  0.5924
  587TMC3    C6 8756   1.018   1.170  16.126  0.2281  0.3359  0.9313
  587TMC3     C 8757   0.695   1.152  15.877  0.9441 -0.5578  0.1148
  587TMC3     O 8758   0.722   1.148  15.756  0.3277  1.0708  0.2928
  587TMC3     H 8759   0.702   1.286  16.112  0.3110 -0.1063 -1.0738
  587TMC3    H1 8760   0.920   1.042  15.832  3.3420  0.1863 -0.3891
  587TMC3    H2 8761   1.105   1.163  16.189 -0.8695  1.3752  2.5703
  587TMC3    C7 8762   1.119   1.001  15.984 -0.3141  0.4080 -0.3536
  587TMC3    C8 8763   0.885   1.278  16.304  0.0862 -0.6267  0.3240
  587TMC3    O1 8764   1.086   0.901  15.921 -0.1321  0.0579 -0.0902
  587TMC3    O2 8765   0.962   1.221  16.383 -0.7015 -0.5298  0.0275
  588TMC3    C1 8766   3.189   3.824  10.091  0.5871  0.4934 -0.1472
  588TMC3    C2 8767   3.135   3.702  10.086 -0.6851 -0.0209 -0.1054
  588TMC3    C3 8768   3.181   3.605  10.170 -0.8847  0.0714  0.5164
  588TMC3    C4 8769   3.296   3.853  10.182 -0.9816 -0.0558 -0.4594
  588TMC3    C5 8770   3.343   3.751  10.258  0.0314  0.3664  0.2687
  588TMC3    C6 8771   3.285   3.626  10.250 -0.0132 -0.3870  0.1224
  588TMC3     C 8772   3.171   3.931   9.990 -0.4949  0.8564  0.2229
  588TMC3     O 8773   3.204   3.900   9.875 -0.2319  0.1641 -0.1265
  588TMC3     H 8774   3.041   3.688  10.034 -0.6550  0.8589 -0.4054
  588TMC3    H1 8775   3.362   3.934  10.154 -1.6637  0.6673  0.0492
  588TMC3    H2 8776   3.325   3.552  10.318  0.3818 -1.7988 -1.6558
  588TMC3    C7 8777   3.457   3.773  10.350  0.1508  0.6092 -0.2241
  588TMC3    C8 8778   3.123   3.470  10.137  0.4560 -0.8461 -0.0396
  588TMC3    O1 8779   3.525   3.679  10.389  0.3688  0.2154  0.0792
  588TMC3    O2 8780   3.035   3.469  10.052  0.3710  0.1141 -0.1269
  589TMC3    C1 8781   2.397   1.499   1.275 -0.1361  0.1028 -0.2420
  589TMC3    C2 8782   2.507   1.525   1.352  0.0316  0.3932  0.7718
  589TMC3    C3 8783   2.622   1.461   1.317 -0.5848 -0.0443 -0.2496
  589TMC3    C4 8784   2.400   1.415   1.166 -0.0390  0.5293  0.2907
  589TMC3    C5 8785   2.518   1.351   1.141 -0.7902 -0.1504  0.9450
  589TMC3    C6 8786   2.629   1.368   1.225  0.5056 -0.2739 -0.7297
  589TMC3     C 8787   2.272   1.570   1.300 -0.1877  0.4060  0.0130
  589TMC3     O 8788   2.188   1.561   1.211  0.5900 -0.1394  0.4756
  589TMC3     H 8789   2.508   1.603   1.428 -0.2244  0.0785  1.0996
  589TMC3    H1 8790   2.306   1.391   1.116  0.7784  0.5073 -1.2346
  589TMC3    H2 8791   2.713   1.301   1.213  0.6170 -0.0944 -0.9370
  589TMC3    C7 8792   2.506   1.217   1.090 -0.5269 -0.2578 -0.6876
  589TMC3    C8 8793   2.727   1.475   1.411  0.2654  0.4612 -0.6600
  589TMC3    O1 8794   2.406   1.149   1.111 -0.0753  0.0264  0.2464
  589TMC3    O2 8795   2.689   1.516   1.518  0.0683 -0.1197 -0.1823
  590MPD2     C 8796   2.117   4.160  17.096 -0.0027  0.5608  0.3439
  590MPD2    C1 8797   2.040   4.236  17.008  0.3661  0.1668 -0.0925
  590MPD2    C2 8798   2.089   4.348  16.945 -0.6749  0.5323  0.2641
  590MPD2    C3 8799   2.225   4.370  16.957 -0.6494 -0.2077 -0.5334
  590MPD2    C4 8800   2.300   4.293  17.043  0.4332  0.7316 -0.8229
  590MPD2    C5 8801   2.246   4.188  17.116 -0.6130 -0.0635 -0.1122
  590MPD2     H 8802   2.035   4.418  16.882 -1.8433 -0.8382 -0.2647
  590MPD2    H1 8803   2.407   4.302  17.062  0.6888 -1.3683 -1.2462
  590MPD2    H2 8804   2.076   4.069  17.140  1.4181  0.9597  2.5087
  590MPD2    H3 8805   2.312   4.125  17.175  2.8682  1.6512 -2.1343
  590MPD2     N 8806   2.279   4.472  16.877  0.1109 -0.4574  0.8040
  590MPD2    H5 8807   2.214   4.525  16.820  1.7886  0.1654 -0.5312
  590MPD2    N1 8808   1.913   4.182  16.992  0.2964 -0.3689 -0.1036
  590MPD2    H7 8809   1.886   4.097  17.041 -1.1096 -0.8021 -1.6222
  591TMC3    C1 8810   2.425   4.584  16.743  0.1812  0.0476  0.5416
  591TMC3    C2 8811   2.502   4.549  16.630 -0.0383  0.0381  0.2379
  591TMC3    C3 8812   2.478   4.620  16.516 -0.9991  0.0629 -0.7507
  591TMC3    C4 8813   2.336   4.686  16.749  0.2162 -0.5212 -0.5900
  591TMC3    C5 8814   2.316   0.010  16.628 -0.8375  0.3474  0.6515
  591TMC3    C6 8815   2.382   4.715  16.514  0.4473 -0.9718 -0.0698
  591TMC3     C 8816   2.408   4.486  16.848  0.4562  0.0380  0.6067
  591TMC3     O 8817   2.511   4.430  16.889 -0.0211 -0.3504 -0.7181
  591TMC3     H 8818   2.568   4.462  16.624 -0.7271 -0.4869  0.2381
  591TMC3    H1 8819   2.285   4.714  16.841  0.5613  0.3905 -0.6765
  591TMC3    H2 8820   2.348   0.031  16.424  0.4439 -0.0199  0.4687
  591TMC3    C7 8821   2.230   0.133  16.632 -0.1751  0.2741  0.5143
  591TMC3    C8 8822   2.545   4.578  16.392  0.2707 -0.3163  0.2285
  591TMC3    O1 8823   2.137   0.139  16.715 -0.0384  0.4312  0.2131
  591TMC3    O2 8824   2.594   4.463  16.395  0.0564  0.4807  0.6331
  592MPD2     C 8825   2.137   1.668  11.720  0.8610  0.7096  0.5716
  592MPD2    C1 8826   2.058   1.688  11.832 -0.4418  0.3203 -0.0165
  592MPD2    C2 8827   2.008   1.575  11.902  0.3799 -0.2026  0.3724
  592MPD2    C3 8828   2.047   1.449  11.875 -0.2672 -0.7297  0.2992
  592MPD2    C4 8829   2.118   1.429  11.760 -0.3762 -0.4874  0.0914
  592MPD2    C5 8830   2.171   1.534  11.683  0.7404  0.9996 -0.0504
  592MPD2     H 8831   1.937   1.593  11.982 -1.6858 -0.8524 -1.3291
  592MPD2    H1 8832   2.145   1.328  11.729 -0.0879 -0.6837  0.9491
  592MPD2    H2 8833   2.157   1.757  11.661 -0.1023  0.8833  0.5032
  592MPD2    H3 8834   2.238   1.513  11.600  1.1697 -0.2150  0.6035
  592MPD2     N 8835   2.030   1.355  11.978  0.1066  0.0044 -0.5715
  592MPD2    H5 8836   1.969   1.390  12.051  1.6044  1.0968  0.1583
  592MPD2    N1 8837   2.027   1.822  11.846 -0.4561 -0.2897  0.2241
  592MPD2    H7 8838   2.095   1.886  11.807 -2.0117  2.8383  2.6264
  593TMC3    C1 8839   1.932   2.013  11.921  0.2380  0.1678 -0.3760
  593TMC3    C2 8840   1.886   2.069  12.035 -0.6772 -0.0880 -0.1203
  593TMC3    C3 8841   1.896   2.208  12.046  0.2020 -0.2840  0.7515
  593TMC3    C4 8842   1.979   2.089  11.824 -0.0464 -0.3455 -0.4331
  593TMC3    C5 8843   1.987   2.224  11.835 -0.5795  0.3589 -0.4049
  593TMC3    C6 8844   1.946   2.294  11.949  0.5315  0.0537  0.5873
  593TMC3     C 8845   1.929   1.869  11.923 -0.0266  0.3578 -0.7184
  593TMC3     O 8846   1.846   1.812  11.992 -0.0313 -0.7078 -0.9872
  593TMC3     H 8847   1.848   2.012  12.119  3.8850 -2.1118  0.6292
  593TMC3    H1 8848   2.011   2.038  11.733  1.9868 -2.8834  1.6833
  593TMC3    H2 8849   1.931   2.401  11.960  1.0953  0.5890 -3.5630
  593TMC3    C7 8850   2.086   2.288  11.754 -0.3974 -0.6011  0.2924
  593TMC3    C8 8851   1.892   2.252  12.184  0.2468 -0.0388 -0.0812
  593TMC3    O1 8852   2.145   2.208  11.681 -0.0039 -0.3471  0.1082
  593TMC3    O2 8853   1.820   2.204  12.275  0.2907  0.5836 -0.2666
  594MPD2     C 8854   1.248   0.153  15.104  0.4683 -0.1908 -0.0900
  594MPD2    C1 8855   1.210   0.180  14.972  0.2948 -0.2102 -0.4047
  594MPD2    C2 8856   1.303   0.236  14.882 -0.4987 -0.2551  0.0903
  594MPD2    C3 8857   1.435   0.263  14.916 -0.6902 -0.0030 -0.1350
  594MPD2    C4 8858   1.461   0.256  15.050 -0.1447 -0.8268 -0.3275
  594MPD2    C5 8859   1.370   0.206  15.139  0.0563 -0.1779 -0.1580
  594MPD2     H 8860   1.276   0.259  14.780  0.7012  0.1045 -0.1490
  594MPD2    H1 8861   1.559   0.290  15.082  0.7705 -2.4715 -1.3743
  594MPD2    H2 8862   1.178   0.105  15.171  0.2960  0.0740 -0.0852
  594MPD2    H3 8863   1.396   0.200  15.244  0.3279 -0.6422 -0.2479
  594MPD2     N 8864   1.521   0.313  14.814 -0.1242  0.1307  0.2666
  594MPD2    H5 8865   1.477   0.327  14.724  0.0374 -0.7543  0.0543
  594MPD2    N1 8866   1.075   0.149  14.940 -0.4736 -0.8269 -0.1782
  594MPD2    H7 8867   1.024   0.111  15.019  1.4505 -0.2790  1.3216
  595TMC3    C1 8868   1.903   0.523  14.675 -0.0419 -0.2482  0.2265
  595TMC3    C2 8869   1.836   0.414  14.710 -0.2232 -0.9235 -0.4136
  595TMC3    C3 8870   1.702   0.404  14.710  0.5291  0.0127  0.1794
  595TMC3    C4 8871   1.839   0.631  14.625 -0.3883 -0.2927  0.5126
  595TMC3    C5 8872   1.700   0.630  14.642 -0.7719 -0.0205 -0.4276
  595TMC3    C6 8873   1.625   0.516  14.674  0.3379 -0.3368  0.2499
  595TMC3     C 8874   2.040   0.544  14.706  0.2102 -0.2338  0.5960
  595TMC3     O 8875   2.098   0.631  14.640  0.1979  0.0836  0.1611
  595TMC3     H 8876   1.885   0.326  14.750  1.9216  0.5241  0.1277
  595TMC3    H1 8877   1.892   0.725  14.618 -0.8467 -0.0505  0.2921
  595TMC3    H2 8878   1.516   0.514  14.672  0.3596 -1.1398 -0.1438
  595TMC3    C7 8879   1.626   0.752  14.652  0.6116 -0.0608  0.0793
  595TMC3    C8 8880   1.657   0.332  14.826  0.1052  0.0860  0.7057
  595TMC3    O1 8881   1.511   0.749  14.687  0.2122  0.1849 -0.0698
  595TMC3    O2 8882   1.736   0.313  14.917  0.2844  0.1105 -0.0762
  596MPD2     C 8883   0.188   3.178  16.799 -0.4057  0.4843 -1.2379
  596MPD2    C1 8884   0.198   3.298  16.739 -0.4776  0.3137  0.2017
  596MPD2    C2 8885   0.206   3.298  16.602 -0.1240  0.1185 -0.2559
  596MPD2    C3 8886   0.207   3.179  16.527 -0.1928 -0.2795 -0.3477
  596MPD2    C4 8887   0.189   3.054  16.592 -0.6428  0.1667 -0.0471
  596MPD2    C5 8888   0.179   3.060  16.730  0.3913 -0.0857  0.2258
  596MPD2     H 8889   0.216   3.391  16.549  0.6441 -0.7793 -1.6727
  596MPD2    H1 8890   0.184   2.960  16.537  1.2906 -0.7199  1.2984
  596MPD2    H2 8891   0.183   3.165  16.907 -0.0624 -0.0832 -1.2917
  596MPD2    H3 8892   0.178   2.972  16.793  3.5183  0.9072  1.6713
  596MPD2     N 8893   0.198   3.182  16.386 -0.6973  0.0775  0.3143
  596MPD2    H5 8894   0.184   3.092  16.341 -0.1152  0.8043 -1.3291
  596MPD2    N1 8895   0.203   3.423  16.807 -0.4115 -0.1418 -0.2287
  596MPD2    H7 8896   0.215   3.506  16.750 -0.7456  0.0545 -0.0140
  597TMC3    C1 8897   0.130   3.591  16.954 -0.3661  0.4453 -0.7481
  597TMC3    C2 8898   0.166   3.684  16.859 -0.4474  0.1904  0.8059
  597TMC3    C3 8899   0.157   3.815  16.887 -0.2551 -0.1784  0.4063
  597TMC3    C4 8900   0.050   3.628  17.055 -0.2104  0.4543  0.5897
  597TMC3    C5 8901   0.030   3.758  17.074  0.0003 -0.3488  0.2454
  597TMC3    C6 8902   0.080   3.851  16.993 -0.0539 -0.4767  0.5501
  597TMC3     C 8903   0.150   3.448  16.936 -0.1907  0.3893  0.7915
  597TMC3     O 8904   0.107   3.376  17.023 -0.5622 -0.6336  0.0652
  597TMC3     H 8905   0.237   3.648  16.785 -2.6197  0.4987 -1.4224
  597TMC3    H1 8906   0.016   3.560  17.132 -1.0033  1.0805  0.7856
  597TMC3    H2 8907   0.056   3.956  17.008 -2.5617 -1.3435  2.6670
  597TMC3    C7 8908   4.668   3.798  17.165 -0.3021 -0.3385 -0.7049
  597TMC3    C8 8909   0.196   3.918  16.797  0.7609 -0.4210 -0.1791
  597TMC3    O1 8910   4.655   3.736  17.273 -0.0742  0.9180  0.6727
  597TMC3    O2 8911   0.179   4.034  16.832  0.4761 -0.4807  0.7990
  598TMC3    C1 8912   3.652   0.219  15.449  0.0487 -0.2379 -0.2117
  598TMC3    C2 8913   3.553   0.126  15.412  0.7531  0.7126  0.5077
  598TMC3    C3 8914   3.437   0.182  15.357 -0.2241 -0.3021  0.4124
  598TMC3    C4 8915   3.640   0.350  15.434 -0.3295 -0.2706  0.1549
  598TMC3    C5 8916   3.524   0.397  15.380 -0.8418  0.3343  0.2809
  598TMC3    C6 8917   3.417   0.322  15.349  0.0670 -0.1055 -0.3952
  598TMC3     C 8918   3.782   0.163  15.466 -0.7774 -0.0680 -0.1667
  598TMC3     O 8919   3.796   0.057  15.408 -0.4044 -0.3859  0.2910
  598TMC3     H 8920   3.563   0.021  15.435 -0.3774  0.5173  0.1369
  598TMC3    H1 8921   3.721   0.422  15.440 -0.4478 -0.3224  2.2253
  598TMC3    H2 8922   3.328   0.369  15.310 -0.3956 -0.7562 -0.1406
  598TMC3    C7 8923   3.499   0.537  15.365 -0.2768 -0.2931 -0.5722
  598TMC3    C8 8924   3.317   0.100  15.342 -0.2197  0.0086 -0.0476
  598TMC3    O1 8925   3.432   0.575  15.271 -0.0121  0.0557  0.8895
  598TMC3    O2 8926   3.217   0.163  15.323 -0.3585 -0.1284 -0.4579
  599MPD2     C 8927   3.193   2.745  15.873  0.1811  0.5656  0.4663
  599MPD2    C1 8928   3.175   2.610  15.872 -0.0505 -0.1002  0.0283
  599MPD2    C2 8929   3.065   2.557  15.945  0.0750  0.4665  0.3841
  599MPD2    C3 8930   2.968   2.643  16.001  0.3596 -0.0448 -0.1792
  599MPD2    C4 8931   2.998   2.775  16.006 -0.1314 -0.4254 -0.0429
  599MPD2    C5 8932   3.113   2.826  15.951 -0.1849 -0.1996 -0.8823
  599MPD2     H 8933   3.046   2.451  15.943 -1.2162  0.6711  2.6547
  599MPD2    H1 8934   2.932   2.839  16.064 -0.3621  1.7115 -2.6722
  599MPD2    H2 8935   3.281   2.790  15.828  0.7310 -0.4664  0.5034
  599MPD2    H3 8936   3.122   2.934  15.959  0.5789 -0.4100  1.2420
  599MPD2     N 8937   2.854   2.604  16.071 -0.6457  0.3232 -1.0652
  599MPD2    H5 8938   2.813   2.676  16.129 -0.4044  1.3847 -2.2052
  599MPD2    N1 8939   3.278   2.526  15.821  0.0210  0.5531 -0.5779
  599MPD2    H7 8940   3.366   2.570  15.794 -0.5924  0.3049 -2.9644
  600TMC3    C1 8941   2.703   2.447  16.159  0.3267  0.5594  0.0151
  600TMC3    C2 8942   2.652   2.325  16.147  0.8915 -0.1422  0.1418
  600TMC3    C3 8943   2.545   2.291  16.227  0.1595 -0.2617  0.2005
  600TMC3    C4 8944   2.674   2.534  16.264  0.4876  0.0627  0.7180
  600TMC3    C5 8945   2.558   2.500  16.340  0.3637  0.2883  0.0691
  600TMC3    C6 8946   2.503   2.373  16.329  0.3531  0.4148  0.2308
  600TMC3     C 8947   2.808   2.476  16.056 -0.2755 -0.7109  0.1370
  600TMC3     O 8948   2.834   2.387  15.977  0.2893 -0.4899 -0.2573
  600TMC3     H 8949   2.674   2.262  16.061  2.5035  0.7623 -0.1237
  600TMC3    H1 8950   2.726   2.629  16.273 -1.7495  1.0733  2.7835
  600TMC3    H2 8951   2.411   2.366  16.386 -0.1970  1.5964 -0.5101
  600TMC3    C7 8952   2.526   2.579  16.459 -0.5559  0.1363 -0.1275
  600TMC3    C8 8953   2.455   2.198  16.161 -0.5148  0.9030 -0.0912
  600TMC3    O1 8954   2.437   2.523  16.530  0.9575  0.1377 -0.0436
  600TMC3    O2 8955   2.439   2.202  16.042 -0.1717 -0.6403  0.3699
  601MPD2     C 8956   4.596   1.235   0.238 -0.1666  0.4802  0.6585
  601MPD2    C1 8957   4.664   1.154   0.150  0.6573 -1.0482 -0.1123
  601MPD2    C2 8958   4.684   1.024   0.167  0.6047 -0.0394  0.2758
  601MPD2    C3 8959   4.661   0.976   0.289 -0.2568  0.2016 -0.0134
  601MPD2    C4 8960   4.607   1.054   0.390 -0.0652 -0.0741  0.4910
  601MPD2    C5 8961   4.567   1.182   0.359 -0.0955 -0.3119  0.1260
  601MPD2     H 8962   0.018   0.978   0.097  0.7238  0.5047  0.0351
  601MPD2    H1 8963   4.581   1.032   0.493 -0.0366 -1.3990  0.2171
  601MPD2    H2 8964   4.567   1.336   0.213  0.9378  0.9165  1.1148
  601MPD2    H3 8965   4.519   1.246   0.433  2.5446 -0.5256  1.9908
  601MPD2     N 8966   4.701   0.846   0.327  0.0808 -0.4688  0.6632
  601MPD2    H5 8967   4.674   0.825   0.423  2.4868  1.4860  1.7648
  601MPD2    N1 8968   4.721   1.211   0.033 -0.8843 -0.1218 -0.3485
  601MPD2    H7 8969   4.730   1.149  17.693  0.9170  0.1761 -0.3727
  602TMC3    C1 8970   0.089   1.378  17.627 -1.1296  0.1395  0.0329
  602TMC3    C2 8971   0.065   1.498  17.573  0.4621 -0.8679  0.0377
  602TMC3    C3 8972   0.118   1.524  17.448  0.5553  0.3522  0.4375
  602TMC3    C4 8973   0.176   1.283  17.575 -0.1790 -0.0513  0.1548
  602TMC3    C5 8974   0.212   1.307  17.448  0.1898 -0.1674 -0.0356
  602TMC3    C6 8975   0.193   1.430  17.383 -0.0002  0.0099 -0.0187
  602TMC3     C 8976   0.015   1.350   0.010 -0.5006 -0.0321  0.3912
  602TMC3     O 8977   4.717   1.443   0.080  0.2027 -0.3662 -0.3829
  602TMC3     H 8978   0.027   1.582  17.630  0.6152 -1.4154  0.9533
  602TMC3    H1 8979   0.198   1.182  17.609 -0.1060  0.2073  0.8830
  602TMC3    H2 8980   0.220   1.449  17.280  1.0004  0.1168  0.2607
  602TMC3    C7 8981   0.268   1.206  17.362 -0.1613  0.9094 -0.5411
  602TMC3    C8 8982   0.026   1.611  17.367 -0.1104 -0.7320  0.2267
  602TMC3    O1 8983   0.231   1.091  17.380  0.0560  0.1138  0.0213
  602TMC3    O2 8984   4.654   1.634  17.417 -0.3797 -0.9170 -0.0680
  603TMC3    C1 8985   3.368   1.262  10.945 -0.7853 -0.8325  0.3666
  603TMC3    C2 8986   3.467   1.296  11.039  0.2584 -0.0164 -0.2795
  603TMC3    C3 8987   3.487   1.424  11.081 -0.2562  0.3506  0.0016
  603TMC3    C4 8988   3.284   1.365  10.904  0.3552  1.0744 -0.2585
  603TMC3    C5 8989   3.312   1.496  10.939  0.1617 -0.2309  0.0873
  603TMC3    C6 8990   3.406   1.534  11.033 -0.2955 -0.8672 -0.4047
  603TMC3     C 8991   3.354   1.122  10.901 -0.7837 -0.6635  0.6595
  603TMC3     O 8992   3.427   1.048  10.965 -0.1737 -0.0812  0.2154
  603TMC3     H 8993   3.527   1.214  11.076 -1.9609 -0.6523  1.9763
  603TMC3    H1 8994   3.189   1.345  10.857 -0.3152  1.4022  0.9577
  603TMC3    H2 8995   3.385   1.621  11.093  1.6827 -0.0948 -0.8287
  603TMC3    C7 8996   3.259   1.602  10.854 -0.9138  0.0547 -0.6042
  603TMC3    C8 8997   3.546   1.430  11.217 -0.0758  0.2189 -0.1188
  603TMC3    O1 8998   3.268   1.712  10.903 -0.6773 -0.4879 -0.5027
  603TMC3    O2 8999   3.584   1.330  11.261  0.3068 -0.1534 -0.1405
  604MPD2     C 9000   4.324   0.033  16.465  0.2384 -0.0397 -0.7152
  604MPD2    C1 9001   4.199   4.733  16.430 -0.1405  0.2367 -0.5890
  604MPD2    C2 9002   4.180   4.666  16.310 -0.5683 -0.2394 -0.1903
  604MPD2    C3 9003   4.281   4.639  16.228 -0.1595  0.1280 -0.4752
  604MPD2    C4 9004   4.404   4.697  16.251 -0.0717 -0.5820  0.5690
  604MPD2    C5 9005   4.422   0.032  16.367  0.4863 -0.2029  1.0330
  604MPD2     H 9006   4.080   4.635  16.282 -1.2674  1.1130  0.8352
  604MPD2    H1 9007   4.493   4.701  16.189 -1.0584  0.5499 -0.7805
  604MPD2    H2 9008   4.337   0.100  16.549  0.6497 -1.9430  0.7384
  604MPD2    H3 9009   4.518   0.071  16.397  0.0346  1.9538 -0.2970
  604MPD2     N 9010   4.262   4.574  16.094  0.9685 -0.3509  0.2832
  604MPD2    H5 9011   4.168   4.560  16.058 -0.4201 -1.2716  4.2448
  604MPD2    N1 9012   4.103   0.030  16.528 -0.2433  0.7847  0.2006
  604MPD2    H7 9013   4.137   0.079  16.610  1.7912 -0.8480  0.3460
  605TMC3    C1 9014   3.901   0.062  16.646 -0.1528  0.2332 -0.5423
  605TMC3    C2 9015   3.990   0.114  16.735  0.2280  0.3288  0.2488
  605TMC3    C3 9016   3.982   0.249  16.781  0.1694  0.8521 -0.6517
  605TMC3    C4 9017   3.783   0.135  16.622  0.2455  0.8857  0.3794
  605TMC3    C5 9018   3.776   0.264  16.666 -0.2018  0.0505 -0.6091
  605TMC3    C6 9019   3.872   0.318  16.749 -0.3528 -0.0146 -0.2072
  605TMC3     C 9020   3.966   0.009  16.527  0.3360 -0.2419  0.6714
  605TMC3     O 9021   3.897   4.684  16.442  0.7661 -0.0317 -0.0502
  605TMC3     H 9022   4.083   0.063  16.761 -0.5165 -1.3056 -0.2836
  605TMC3    H1 9023   3.714   0.089  16.552  0.6609  1.6687 -0.5398
  605TMC3    H2 9024   3.869   0.422  16.778  1.0034 -0.4185  1.3475
  605TMC3    C7 9025   3.657   0.336  16.632  0.0599 -0.1275  0.2072
  605TMC3    C8 9026   4.113   0.320  16.781  0.2740  0.1148  0.2284
  605TMC3    O1 9027   3.649   0.452  16.661 -0.1347 -0.2490 -0.2182
  605TMC3    O2 9028   4.194   0.260  16.714  1.0431 -0.0555  0.0572
  606TMC3    C1 9029   0.059   3.155   0.108  0.5969  0.1103  0.1009
  606TMC3    C2 9030   0.171   3.235   0.123  0.0369  0.1631 -0.4650
  606TMC3    C3 9031   0.223   3.275   0.006 -0.6657  0.2370 -0.0332
  606TMC3    C4 9032   0.003   3.120  17.725 -0.0250 -0.4873 -0.3499
  606TMC3    C5 9033   0.079   3.145  17.614  0.6756  0.6216 -0.1120
  606TMC3    C6 9034   0.191   3.225  17.622  0.0316  0.3966  0.7686
  606TMC3     C 9035   4.728   3.100   0.229 -0.3375 -0.0946  0.2436
  606TMC3     O 9036   4.625   3.036   0.205 -0.0850 -0.1692 -0.3419
  606TMC3     H 9037   0.206   3.270   0.220  0.9407  0.5379 -0.9331
  606TMC3    H1 9038   4.645   3.064  17.720  0.8036 -1.7264 -2.0498
  606TMC3    H2 9039   0.236   3.251  17.526 -0.0148  0.1315  0.6758
  606TMC3    C7 9040   0.068   3.052  17.502 -0.0067 -0.5059 -0.1483
  606TMC3    C8 9041   0.345   3.352   0.023 -0.4883 -0.3507  0.5204
  606TMC3    O1 9042   0.140   3.065  17.404 -0.5042 -0.4698 -0.4911
  606TMC3    O2 9043   0.408   3.344   0.129 -0.4684  0.2164  0.4253
  607MPD2     C 9044   2.352   1.686  12.075 -0.2381  0.6128  0.9435
  607MPD2    C1 9045   2.411   1.750  12.184  0.0977  0.1637 -0.0220
  607MPD2    C2 9046   2.428   1.680  12.299  0.0922  0.3449  0.1703
  607MPD2    C3 9047   2.379   1.558  12.315 -1.0821  0.3669  0.3713
  607MPD2    C4 9048   2.318   1.493  12.210  0.3090  0.2268 -0.0600
  607MPD2    C5 9049   2.303   1.561  12.091  0.5498  0.5986 -0.1095
  607MPD2     H 9050   2.490   1.727  12.375 -0.4647 -0.2625  1.0110
  607MPD2    H1 9051   2.277   1.393  12.205  0.0322  0.4678 -2.8089
  607MPD2    H2 9052   2.336   1.738  11.982 -1.4816 -0.5724  0.4890
  607MPD2    H3 9053   2.257   1.512  12.006  2.2100 -2.8139  0.9396
  607MPD2     N 9054   2.420   1.492  12.434 -0.0392 -0.0883  0.1473
  607MPD2    H5 9055   2.466   1.548  12.505  0.6175 -0.9161  0.3710
  607MPD2    N1 9056   2.489   1.865  12.160 -0.3140 -0.3720 -0.1727
  607MPD2    H7 9057   2.551   1.891  12.236  0.1347 -2.0336  0.0437
  608TMC3    C1 9058   2.644   1.994  12.040 -1.0318  0.1441  0.2115
  608TMC3    C2 9059   2.674   2.056  12.155  0.0895 -0.1111  0.1180
  608TMC3    C3 9060   2.795   2.120  12.164  0.4866  0.0038 -0.2477
  608TMC3    C4 9061   2.725   1.988  11.932 -1.0306 -0.3614 -0.0742
  608TMC3    C5 9062   2.847   2.051  11.941  0.5117  0.5151  0.0726
  608TMC3    C6 9063   2.887   2.115  12.056 -0.4321  0.1976  1.1733
  608TMC3     C 9064   2.528   1.903  12.031  0.0031  0.0230 -0.0406
  608TMC3     O 9065   2.486   1.885  11.920  0.0185  0.1328 -0.0559
  608TMC3     H 9066   2.604   2.073  12.237 -1.0299 -1.0306 -0.6506
  608TMC3    H1 9067   2.708   1.928  11.843  1.4073 -2.0385  0.5977
  608TMC3    H2 9068   2.986   2.159  12.068  0.1935 -0.6203 -0.8719
  608TMC3    C7 9069   2.956   2.018  11.844  0.0217  0.3022 -0.9098
  608TMC3    C8 9070   2.865   2.104  12.290 -0.1290 -0.2398 -0.1693
  608TMC3    O1 9071   3.068   2.033  11.894 -0.2636  0.2692 -0.6915
  608TMC3    O2 9072   2.983   2.139  12.295  0.2141  0.3406 -0.1297
  609TMC3    C1 9073   0.735   4.447   9.546 -0.9908 -0.1556 -0.0430
  609TMC3    C2 9074   0.611   4.395   9.556  0.5061 -0.0601 -0.4665
  609TMC3    C3 9075   0.590   4.268   9.522 -0.1375  0.2532 -0.0162
  609TMC3    C4 9076   0.838   4.377   9.485  0.3828  0.0196  0.4758
  609TMC3    C5 9077   0.820   4.251   9.454  0.1107  0.2544 -0.0303
  609TMC3    C6 9078   0.699   4.199   9.473  0.6108 -0.0323  0.5638
  609TMC3     C 9079   0.742   4.588   9.543 -0.0281  0.4730 -0.2166
  609TMC3     O 9080   0.637   4.649   9.533 -0.9090 -0.7659 -0.4639
  609TMC3     H 9081   0.539   4.452   9.613 -0.6893 -0.6557 -1.3730
  609TMC3    H1 9082   0.933   4.421   9.454  0.8478 -0.7172  0.8490
  609TMC3    H2 9083   0.685   4.094   9.450  1.4622 -0.1595  0.6351
  609TMC3    C7 9084   0.940   4.179   9.413  0.1337 -0.2748 -0.1519
  609TMC3    C8 9085   0.461   4.197   9.539  0.3987  0.2654 -0.0176
  609TMC3    O1 9086   1.047   4.242   9.402  0.9455  0.4003  0.3091
  609TMC3    O2 9087   0.414   4.110   9.468  0.2922  0.6168  0.8028
  610TMC3    C1 9088   3.050   1.259  12.759 -0.5825  0.9796 -0.3683
  610TMC3    C2 9089   3.116   1.345  12.678 -0.2566  0.1744  0.6165
  610TMC3    C3 9090   3.216   1.284  12.602 -0.0165 -0.0561 -0.1768
  610TMC3    C4 9091   3.071   1.128  12.770  0.1583  0.9948 -0.1033
  610TMC3    C5 9092   3.166   1.067  12.697 -0.2822  0.1818  0.0123
  610TMC3    C6 9093   3.240   1.152  12.617 -0.5245  0.0250 -0.4767
  610TMC3     C 9094   2.941   1.315  12.846  0.1485  1.1352  0.7927
  610TMC3     O 9095   2.921   1.433  12.842 -0.8362  0.1353  0.7809
  610TMC3     H 9096   3.095   1.451  12.686 -2.0640  0.1120 -3.1816
  610TMC3    H1 9097   3.008   1.074  12.841  2.8621  0.1018  1.6027
  610TMC3    H2 9098   3.326   1.110  12.565 -0.5253  1.8658 -1.9484
  610TMC3    C7 9099   3.220   0.942  12.742  0.0053  0.4135  0.0704
  610TMC3    C8 9100   3.336   1.363  12.600 -0.4491 -0.0763  0.2456
  610TMC3    O1 9101   3.339   0.919  12.710 -0.2650 -0.3633  1.0360
  610TMC3    O2 9102   3.445   1.316  12.626  0.0006  0.0335  0.5655
  611MPD2     C 9103   2.197   1.528   9.804 -0.0153 -0.6899  0.1598
  611MPD2    C1 9104   2.251   1.449   9.906 -0.0626  0.3701 -0.1311
  611MPD2    C2 9105   2.387   1.441   9.926 -0.2456  0.2852  0.0372
  611MPD2    C3 9106   2.464   1.528   9.854  0.0321  0.2346  0.3040
  611MPD2    C4 9107   2.406   1.607   9.754 -0.3002 -0.4084 -0.5979
  611MPD2    C5 9108   2.277   1.606   9.725 -0.0890  0.3519  0.0914
  611MPD2     H 9109   2.431   1.378  10.002 -0.0272 -1.6469 -1.7172
  611MPD2    H1 9110   2.473   1.669   9.695 -0.8296  1.7155  1.0402
  611MPD2    H2 9111   2.089   1.527   9.798 -0.0569 -3.0375  1.4637
  611MPD2    H3 9112   2.228   1.671   9.654 -0.2998  0.9451  0.7743
  611MPD2     N 9113   2.601   1.554   9.872 -0.4038  0.2242  0.0122
  611MPD2    H5 9114   2.636   1.622   9.806 -1.9741  1.0343  0.0078
  611MPD2    N1 9115   2.163   1.379   9.985 -0.1034  0.0881  0.0148
  611MPD2    H7 9116   2.064   1.388   9.968 -0.3519 -0.5320  1.1292
  612TMC3    C1 9117   2.817   1.532   9.975 -0.0226 -0.1277 -0.6091
  612TMC3    C2 9118   2.889   1.477  10.084  0.4388  0.3036 -0.2531
  612TMC3    C3 9119   3.013   1.526  10.099 -0.1137 -0.1387 -0.3461
  612TMC3    C4 9120   2.875   1.616   9.881  0.0995 -0.1148 -0.5069
  612TMC3    C5 9121   3.009   1.633   9.899 -0.5303  0.0319 -0.6731
  612TMC3    C6 9122   3.088   1.589  10.004  0.0353 -0.4004 -0.8494
  612TMC3     C 9123   2.676   1.498   9.975 -0.1908  0.3945  0.0411
  612TMC3     O 9124   2.634   1.432  10.067 -0.9842 -0.5725 -0.4126
  612TMC3     H 9125   2.845   1.422  10.166  3.2424 -1.3290  0.1456
  612TMC3    H1 9126   2.820   1.648   9.793  1.6130  0.0445 -1.4081
  612TMC3    H2 9127   3.185   1.629  10.030  0.6705 -2.3810 -0.1189
  612TMC3    C7 9128   3.075   1.695   9.785  0.1176  0.4213  1.0688
  612TMC3    C8 9129   3.069   1.522  10.232 -0.1074  0.0534  0.5991
  612TMC3    O1 9130   3.001   1.741   9.702 -0.1745  0.3317  0.5112
  612TMC3    O2 9131   3.047   1.423  10.299  0.0210  0.2735 -0.3716
  613MPD2     C 9132   1.259   3.157  16.938 -0.1927  0.0209  0.0835
  613MPD2    C1 9133   1.221   3.214  16.814  0.9759  0.0459  0.5064
  613MPD2    C2 9134   1.134   3.147  16.729  0.5512 -0.3142 -0.1280
  613MPD2    C3 9135   1.092   3.019  16.763 -0.1224  0.1123  0.2310
  613MPD2    C4 9136   1.145   2.961  16.874 -0.3832  0.2067 -0.0102
  613MPD2    C5 9137   1.217   3.032  16.962  0.2479 -0.2341  0.1010
  613MPD2     H 9138   1.096   3.198  16.642 -0.9381  3.6788  2.8292
  613MPD2    H1 9139   1.107   2.865  16.905  0.9219 -0.9797 -2.1345
  613MPD2    H2 9140   1.320   3.201  17.016 -0.0654 -0.1419  0.0748
  613MPD2    H3 9141   1.249   2.983  17.052 -0.2165 -1.1979 -0.2618
  613MPD2     N 9142   1.004   2.932  16.687  0.4996  0.4021  0.4271
  613MPD2    H5 9143   0.988   2.839  16.724 -0.5384 -0.5164 -2.3516
  613MPD2    N1 9144   1.277   3.346  16.789 -0.4078 -0.0850  0.5099
  613MPD2    H7 9145   1.326   3.382  16.870  0.4816  0.1055 -0.1085
  614TMC3    C1 9146   1.261   3.381  16.549 -0.5553 -0.9172  0.2238
  614TMC3    C2 9147   1.328   3.265  16.516  0.4660  0.1310  0.1239
  614TMC3    C3 9148   1.352   3.243  16.380  0.6992 -0.7478  0.5755
  614TMC3    C4 9149   1.239   3.479  16.455  0.4493 -0.0093 -0.0039
  614TMC3    C5 9150   1.275   3.457  16.324  0.4917  0.2835  0.8927
  614TMC3    C6 9151   1.333   3.340  16.287 -0.8925 -1.0645  0.1852
  614TMC3     C 9152   1.288   3.433  16.681 -0.9370  0.4558  0.5810
  614TMC3     O 9153   1.343   3.542  16.677  0.3348  0.5050  0.1717
  614TMC3     H 9154   1.344   3.187  16.589  0.8395 -0.5325 -0.6591
  614TMC3    H1 9155   1.205   3.577  16.488 -0.0534 -0.6740  1.4449
  614TMC3    H2 9156   1.346   3.317  16.182  0.7898  0.5224  0.0342
  614TMC3    C7 9157   1.305   3.573  16.238  0.0209 -0.5005 -0.6309
  614TMC3    C8 9158   1.328   3.104  16.344 -0.0363 -0.6900  0.3803
  614TMC3    O1 9159   1.283   3.684  16.287  0.1980 -0.5052  0.1349
  614TMC3    O2 9160   1.285   3.033  16.435  0.8159  0.2576  0.3123
  615MPD2     C 9161   1.215   4.679  16.451 -0.0063 -0.9780 -1.0407
  615MPD2    C1 9162   1.123   0.038  16.408 -0.3360 -0.2658 -0.2135
  615MPD2    C2 9163   1.034   0.011  16.307  0.6046 -0.0821  0.3378
  615MPD2    C3 9164   1.033   4.632  16.237  0.0112 -0.4217  0.1790
  615MPD2    C4 9165   1.128   4.542  16.268  0.4765 -0.5399 -0.1606
  615MPD2    C5 9166   1.211   4.563  16.381  0.6103 -0.5901  0.6165
  615MPD2     H 9167   0.957   0.086  16.291 -0.5037 -1.2346  0.2739
  615MPD2    H1 9168   1.137   4.446  16.219 -0.9140 -0.5955 -0.2913
  615MPD2    H2 9169   1.266   4.687  16.546  1.5658 -1.0216 -1.8971
  615MPD2    H3 9170   1.280   4.483  16.408  1.0300 -0.1461  0.8711
  615MPD2     N 9171   0.946   4.596  16.133  0.2241 -0.0603  0.0274
  615MPD2    H5 9172   0.953   4.505  16.089 -0.2969 -0.1748  0.1762
  615MPD2    N1 9173   1.101   0.165  16.476  0.5952  0.8389 -0.6929
  615MPD2    H7 9174   1.029   0.222  16.433  0.2818  1.0956  0.1802
  616TMC3    C1 9175   1.129   0.350  16.616 -0.0043  0.2728 -0.5006
  616TMC3    C2 9176   1.225   0.431  16.663 -0.2552  0.3648  0.0575
  616TMC3    C3 9177   1.177   0.542  16.728 -0.7160  0.5133  0.7674
  616TMC3    C4 9178   0.994   0.382  16.619  0.0717 -0.2538  0.1402
  616TMC3    C5 9179   0.960   0.512  16.655  0.0915  0.4168 -0.3892
  616TMC3    C6 9180   1.051   0.594  16.714 -0.3835 -0.8791  0.2381
  616TMC3     C 9181   1.180   0.222  16.576  0.8159 -0.3744  0.1505
  616TMC3     O 9182   1.276   0.178  16.634  0.3694 -0.1473 -0.2480
  616TMC3     H 9183   1.330   0.403  16.670 -0.9791 -1.7609  2.5387
  616TMC3    H1 9184   0.919   0.307  16.595 -0.7585  0.3495  0.8551
  616TMC3    H2 9185   1.012   0.691  16.741  0.1962 -0.7118  0.4674
  616TMC3    C7 9186   0.840   0.562  16.609 -0.4680  0.3284  0.0579
  616TMC3    C8 9187   1.257   0.626  16.811  0.3026  0.1346  0.1478
  616TMC3    O1 9188   0.798   0.657  16.671  0.1197 -0.6252 -0.0382
  616TMC3    O2 9189   1.201   0.683  16.902  0.2101 -0.1708 -0.2946
  617MPD2     C 9190   3.721   3.536  13.455 -0.5090 -0.0976  0.0144
  617MPD2    C1 9191   3.773   3.483  13.572 -0.0663 -0.1933 -0.5849
  617MPD2    C2 9192   3.699   3.402  13.657 -0.3061  0.2345  0.5646
  617MPD2    C3 9193   3.565   3.373  13.632  0.5230  0.0793 -0.6042
  617MPD2    C4 9194   3.507   3.428  13.521  0.2650 -0.1325  0.8061
  617MPD2    C5 9195   3.582   3.510  13.436 -0.0634  0.5326 -0.2799
  617MPD2     H 9196   3.752   3.354  13.739 -0.1098 -1.8966 -0.8168
  617MPD2    H1 9197   3.402   3.410  13.500  0.5359 -2.4718  1.3838
  617MPD2    H2 9198   3.769   3.595  13.377 -3.3991  1.8609 -0.2886
  617MPD2    H3 9199   3.541   3.563  13.350 -1.6424 -0.3568 -0.0574
  617MPD2     N 9200   3.496   3.270  13.702  0.1407  0.3544  0.5182
  617MPD2    H5 9201   3.403   3.246  13.669  0.2922  2.8913 -1.7594
  617MPD2    N1 9202   3.904   3.518  13.605  0.4588  0.0796  0.4966
  617MPD2    H7 9203   3.956   3.555  13.526  0.2375 -2.0907 -0.6593
  618TMC3    C1 9204   4.102   3.424  13.683  0.9391 -0.1869 -0.3177
  618TMC3    C2 9205   4.183   3.395  13.784  0.8497  0.0267 -1.0273
  618TMC3    C3 9206   4.290   3.311  13.768 -0.0003  0.7184  0.2345
  618TMC3    C4 9207   4.125   3.379  13.554  0.4114  0.0098  0.3852
  618TMC3    C5 9208   4.244   3.309  13.538  0.1337 -1.0908 -0.6515
  618TMC3    C6 9209   4.328   3.278  13.644  0.0895 -0.3913 -0.2862
  618TMC3     C 9210   3.970   3.469  13.717  0.4534 -0.6277 -0.7504
  618TMC3     O 9211   3.935   3.471  13.837 -0.6422  0.4904 -0.1930
  618TMC3     H 9212   4.167   3.428  13.886 -0.5509  0.6982 -1.4705
  618TMC3    H1 9213   4.076   3.416  13.464  1.3262 -0.0565 -0.1376
  618TMC3    H2 9214   4.399   3.196  13.633  2.0321  1.2454  0.1697
  618TMC3    C7 9215   4.230   3.210  13.428 -0.7430  0.2816  0.5584
  618TMC3    C8 9216   4.334   3.236  13.884  0.3506  0.1328  0.0201
  618TMC3    O1 9217   4.117   3.173  13.395 -0.0752  0.5007 -0.3925
  618TMC3    O2 9218   4.276   3.263  13.989 -0.3552 -0.0477  0.5420
  619MPD2     C 9219   0.994   4.290  13.382  1.3302  0.6322 -0.5601
  619MPD2    C1 9220   0.935   4.374  13.291  0.1362 -0.4206 -0.2907
  619MPD2    C2 9221   0.832   4.324  13.212  0.6814  0.7762  0.3065
  619MPD2    C3 9222   0.791   4.191  13.227  0.7683 -0.2725 -0.3836
  619MPD2    C4 9223   0.846   4.119  13.326  0.0180 -0.0347  0.1602
  619MPD2    C5 9224   0.951   4.164  13.400 -0.1625 -0.4434  0.2889
  619MPD2     H 9225   0.781   4.396  13.148  0.4381  1.3621  1.1689
  619MPD2    H1 9226   0.810   4.019  13.348 -2.2028  0.6941 -0.1407
  619MPD2    H2 9227   1.083   4.319  13.437  0.4986  1.4077  0.3896
  619MPD2    H3 9228   0.997   4.099  13.474  0.1420 -0.1931  0.3191
  619MPD2     N 9229   0.685   4.136  13.154 -0.4823 -0.3021 -0.1593
  619MPD2    H5 9230   0.649   4.049  13.193  1.2880 -0.2504  1.5791
  619MPD2    N1 9231   0.979   4.506  13.270 -0.8474 -0.0376 -0.2793
  619MPD2    H7 9232   0.916   4.556  13.208  0.8237 -1.0249 -2.7607
  620TMC3    C1 9233   1.058   4.713  13.352 -0.0741 -0.6303  0.3261
  620TMC3    C2 9234   0.978   0.036  13.262 -0.5044 -0.1134  0.6223
  620TMC3    C3 9235   0.908   0.156  13.283  0.2248  0.1388 -0.3015
  620TMC3    C4 9236   1.078   0.037  13.476  0.9401  0.0766  0.8345
  620TMC3    C5 9237   1.003   0.151  13.502 -0.7073  0.5332 -0.3348
  620TMC3    C6 9238   0.938   0.221  13.398  0.3021 -0.7731 -0.1208
  620TMC3     C 9239   1.080   4.571  13.341  0.4596  0.2360 -0.0534
  620TMC3     O 9240   1.162   4.529  13.416 -0.4972 -0.6451  1.0832
  620TMC3     H 9241   0.964   4.728  13.164 -3.8628  1.0543  0.6061
  620TMC3    H1 9242   1.148   4.727  13.546  0.4438  0.0804  1.3346
  620TMC3    H2 9243   0.895   0.317  13.424 -1.1495 -1.2754 -0.6767
  620TMC3    C7 9244   0.954   0.160  13.638 -0.2789  0.2246 -0.0812
  620TMC3    C8 9245   0.760   0.147  13.274 -0.2647 -0.2234 -0.3211
  620TMC3    O1 9246   1.038   0.141  13.726 -0.0014 -0.9180 -0.3992
  620TMC3    O2 9247   0.700   0.201  13.362 -0.1885  0.1070  0.0667
  621MPD2     C 9248   1.271   4.174  10.017 -0.5121  0.2743  0.2918
  621MPD2    C1 9249   1.222   4.272  10.100 -0.8816  0.4597  0.4940
  621MPD2    C2 9250   1.306   4.377  10.129  0.3784  0.6814 -0.1755
  621MPD2    C3 9251   1.435   4.371  10.090  0.0424 -0.3032  0.2988
  621MPD2    C4 9252   1.486   4.266  10.015 -0.3685 -0.1327  0.1808
  621MPD2    C5 9253   1.395   4.174   9.969 -0.3722 -0.2154  0.2835
  621MPD2     H 9254   1.258   4.466  10.166 -0.3456  0.0358  0.4355
  621MPD2    H1 9255   1.588   4.265   9.976  1.0274 -0.8613  3.8295
  621MPD2    H2 9256   1.203   4.095   9.988  1.2366 -1.4447  0.8121
  621MPD2    H3 9257   1.419   4.086   9.910 -0.8188 -0.8565  1.0510
  621MPD2     N 9258   1.515   4.478  10.142  0.3590 -0.4615  0.0317
  621MPD2    H5 9259   1.473   4.553  10.195  0.5193  1.2278 -2.2364
  621MPD2    N1 9260   1.097   4.267  10.166 -0.0521 -0.2788  0.4207
  621MPD2    H7 9261   1.075   4.337  10.236 -0.1437  0.0500  0.0624
  622TMC3    C1 9262   0.881   4.212  10.236 -0.0976  0.3600 -0.3521
  622TMC3    C2 9263   0.846   4.344  10.228 -0.4316  0.2545  0.0159
  622TMC3    C3 9264   0.726   4.382  10.284 -0.4645  0.3675  0.3083
  622TMC3    C4 9265   0.797   4.119  10.287 -0.8521 -0.3191  0.1540
  622TMC3    C5 9266   0.682   4.166  10.352 -0.0432  1.0005 -0.1412
  622TMC3    C6 9267   0.649   4.299  10.354 -0.3403 -0.0256 -0.0513
  622TMC3     C 9268   0.994   4.178  10.156 -0.3145 -0.1084 -0.0219
  622TMC3     O 9269   0.989   4.067  10.103  0.2325 -0.4027  0.3911
  622TMC3     H 9270   0.904   4.409  10.164 -0.8706  0.6973  0.0668
  622TMC3    H1 9271   0.834   4.017  10.291 -1.6285 -0.5479  1.3788
  622TMC3    H2 9272   0.552   4.334  10.385 -0.6770  0.8392 -2.0529
  622TMC3    C7 9273   0.587   4.071  10.412  0.5235  0.0170  1.0811
  622TMC3    C8 9274   0.675   4.518  10.251  0.2444 -0.4951  0.2680
  622TMC3    O1 9275   0.486   4.121  10.460 -0.2682 -1.0059 -0.2051
  622TMC3    O2 9276   0.762   4.591  10.205  0.7015  0.0767  0.3155
  623MPD2     C 9277   4.416   0.151  15.934 -0.3469  0.1273 -0.4679
  623MPD2    C1 9278   4.346   0.225  16.023  0.0467 -0.1953 -0.2631
  623MPD2    C2 9279   4.410   0.304  16.117 -0.1243  0.8485  0.1883
  623MPD2    C3 9280   4.543   0.299  16.125  0.3020  0.2127  0.3874
  623MPD2    C4 9281   4.615   0.229  16.034  0.3621 -0.2326  0.1892
  623MPD2    C5 9282   4.551   0.150  15.940  0.6691  0.0543 -0.6289
  623MPD2     H 9283   4.345   0.350  16.191 -1.2786 -0.4778  0.0129
  623MPD2    H1 9284   4.724   0.226  16.042  0.3309 -0.3042  0.6155
  623MPD2    H2 9285   4.369   0.084  15.863  0.2770  0.5917 -1.3214
  623MPD2    H3 9286   4.608   0.089  15.871 -0.4868 -0.3989 -1.1670
  623MPD2     N 9287   4.604   0.345  16.240  0.3069  0.5062 -0.3160
  623MPD2    H5 9288   4.541   0.376  16.313  1.3586 -1.0409  1.2357
  623MPD2    N1 9289   4.210   0.228  16.029  0.8743 -0.4586  0.2104
  623MPD2    H7 9290   4.181   0.299  16.096  0.6774  0.2884 -0.6712
  624TMC3    C1 9291   0.237   0.445  16.533  0.3283 -0.4823 -1.0522
  624TMC3    C2 9292   0.165   0.537  16.613  1.0991 -0.2725  0.6825
  624TMC3    C3 9293   0.027   0.539  16.585 -0.0247  0.4624  0.7466
  624TMC3    C4 9294   0.180   0.375  16.427 -0.0362  0.2498  0.1959
  624TMC3    C5 9295   0.047   0.390  16.401 -0.1084  1.0281 -0.1515
  624TMC3    C6 9296   4.702   0.471  16.478  0.4631  0.2956 -0.6145
  624TMC3     C 9297   0.355   0.402  16.605  0.3220 -0.3895 -0.1600
  624TMC3     O 9298   0.378   0.452  16.712  0.1849 -0.2976 -0.0841
  624TMC3     H 9299   0.214   0.589  16.695  0.7758 -1.8496  1.8769
  624TMC3    H1 9300   0.239   0.303  16.371 -0.0200 -0.2400  0.8325
  624TMC3    H2 9301   4.601   0.505  16.457  0.1477  0.0156  0.4160
  624TMC3    C7 9302   0.006   0.356  16.260 -0.1537 -0.3925 -0.1613
  624TMC3    C8 9303   4.676   0.624  16.665  0.1054  0.4314  0.1034
  624TMC3    O1 9304   0.095   0.355  16.178  0.3519 -0.0245  0.4714
  624TMC3    O2 9305   4.725   0.714  16.732 -0.4316 -0.4076  0.3561
  625MPD2     C 9306   4.584   1.397   0.917  0.1341 -0.1645  0.8247
  625MPD2    C1 9307   4.574   1.535   0.918  0.3981  0.0733  0.3569
  625MPD2    C2 9308   4.677   1.607   0.964 -0.1748  0.3926 -0.1134
  625MPD2    C3 9309   0.064   1.541   0.998 -0.5683  0.1820 -0.5709
  625MPD2    C4 9310   0.067   1.404   1.006 -0.1461  0.3766  0.4671
  625MPD2    C5 9311   4.692   1.333   0.972  0.2529 -0.2239  0.1543
  625MPD2     H 9312   4.665   1.715   0.972  1.8330  0.7261 -1.7161
  625MPD2    H1 9313   0.150   1.353   1.052  0.7396  0.9253 -0.5312
  625MPD2    H2 9314   4.498   1.337   0.889 -0.4533  1.0579 -0.0039
  625MPD2    H3 9315   4.697   1.225   0.968 -0.7421 -0.1897 -2.0501
  625MPD2     N 9316   0.178   1.615   1.016 -0.4103  0.2126 -0.3473
  625MPD2    H5 9317   0.168   1.716   1.012  0.1071  0.3464  1.6427
  625MPD2    N1 9318   4.456   1.610   0.886 -0.1829  0.6125  0.2743
  625MPD2    H7 9319   4.460   1.711   0.893  0.8733  0.5459  0.7360
  626TMC3    C1 9320   4.257   1.659   0.785  0.2967  0.0576  0.0210
  626TMC3    C2 9321   4.216   1.663   0.657  0.1185  0.2470 -0.4021
  626TMC3    C3 9322   4.165   1.780   0.605  0.1897  0.6396 -0.4521
  626TMC3    C4 9323   4.247   1.765   0.865  0.0244 -0.5335  0.3674
  626TMC3    C5 9324   4.194   1.877   0.812 -0.3762 -0.9395 -0.3335
  626TMC3    C6 9325   4.162   1.889   0.681 -0.1495  0.4498 -0.0254
  626TMC3     C 9326   4.344   1.555   0.830  0.6148  0.0586 -0.2392
  626TMC3     O 9327   4.333   1.440   0.786 -0.1815  0.8284  0.5450
  626TMC3     H 9328   4.236   1.578   0.592 -1.8564  0.0932 -0.8098
  626TMC3    H1 9329   4.252   1.758   0.973  0.3275  0.6464  0.4261
  626TMC3    H2 9330   4.121   1.980   0.639 -0.1169  0.1631 -0.6780
  626TMC3    C7 9331   4.195   1.993   0.893  0.2683  0.8541  0.0191
  626TMC3    C8 9332   4.147   1.802   0.463  0.1038  0.4851  0.4137
  626TMC3    O1 9333   4.294   2.004   0.959  0.3774 -0.5107  0.1020
  626TMC3    O2 9334   4.159   1.920   0.433 -0.2820 -0.4515 -0.0262
  627MPD2     C 9335   3.215   1.881  14.301 -0.2333 -0.4430 -0.4535
  627MPD2    C1 9336   3.207   1.881  14.439  0.0345 -0.7294 -0.8807
  627MPD2    C2 9337   3.122   1.790  14.503  0.2114 -0.2206  0.1158
  627MPD2    C3 9338   3.065   1.693  14.430 -0.3876 -0.0287  0.3111
  627MPD2    C4 9339   3.072   1.701  14.288  0.1136  0.1926 -0.1797
  627MPD2    C5 9340   3.148   1.794  14.223  0.1481 -0.9377  0.4036
  627MPD2     H 9341   3.129   1.790  14.612  0.8484 -2.3423  0.0722
  627MPD2    H1 9342   3.015   1.633  14.225  0.6743 -0.4598  0.0136
  627MPD2    H2 9343   3.280   1.946  14.244 -0.1164  0.6343  0.8913
  627MPD2    H3 9344   3.157   1.792  14.115 -2.7142 -1.1214  0.1618
  627MPD2     N 9345   2.980   1.598  14.495 -0.0239  0.2023 -0.0600
  627MPD2    H5 9346   2.937   1.628  14.581  0.6879  2.9014 -0.6569
  627MPD2    N1 9347   3.290   1.964  14.516  0.0253 -0.4732  0.1153
  627MPD2    H7 9348   3.278   1.948  14.616 -2.8875 -0.9412 -0.2836
  628TMC3    C1 9349   3.401   2.159  14.572 -0.9750 -0.0209 -0.0552
  628TMC3    C2 9350   3.447   2.097  14.683  0.2990 -0.1735  1.0382
  628TMC3    C3 9351   3.499   2.173  14.781  0.5311 -0.2928  0.0526
  628TMC3    C4 9352   3.407   2.299  14.561  0.1416 -0.7684 -0.0927
  628TMC3    C5 9353   3.459   2.373  14.662 -1.1710 -0.1649 -1.2470
  628TMC3    C6 9354   3.510   2.312  14.777 -0.5218 -0.1706  0.1378
  628TMC3     C 9355   3.344   2.079  14.469  0.4794 -0.0418  0.1736
  628TMC3     O 9356   3.318   2.138  14.362 -0.3727  0.6915 -0.0133
  628TMC3     H 9357   3.431   1.991  14.696 -0.2573 -0.3294 -1.0232
  628TMC3    H1 9358   3.378   2.358  14.474 -1.7353  0.9716  1.7285
  628TMC3    H2 9359   3.537   2.372  14.863 -1.1041 -1.6969  1.3736
  628TMC3    C7 9360   3.483   2.515  14.656  0.0007  0.2029  0.1061
  628TMC3    C8 9361   3.505   2.110  14.911  0.6207  0.6228  0.3997
  628TMC3    O1 9362   3.533   2.566  14.755 -0.0944 -0.4515  0.3081
  628TMC3    O2 9363   3.481   2.174  15.013  0.6127 -0.3752  0.2846
  629MPD2     C 9364   1.682   0.899  16.885  0.0003 -0.5321 -0.0877
  629MPD2    C1 9365   1.711   0.774  16.843  1.2055  0.1516 -0.3643
  629MPD2    C2 9366   1.610   0.685  16.805  0.4629 -0.2946  0.0693
  629MPD2    C3 9367   1.480   0.713  16.820 -0.4355 -0.6514  0.6834
  629MPD2    C4 9368   1.452   0.835  16.870  0.1663  0.2595 -0.8066
  629MPD2    C5 9369   1.549   0.927  16.900 -0.3688 -0.7279 -0.4447
  629MPD2     H 9370   1.631   0.581  16.781 -2.3130 -0.9958  0.6632
  629MPD2    H1 9371   1.348   0.859  16.891 -0.5054 -2.0727 -1.5542
  629MPD2    H2 9372   1.758   0.965  16.924  0.3280  0.6973 -2.8403
  629MPD2    H3 9373   1.510   1.018  16.942  1.3492  1.0710 -2.7585
  629MPD2     N 9374   1.390   0.612  16.791 -0.1889  0.3609 -0.1468
  629MPD2    H5 9375   1.425   0.541  16.728 -1.8665 -0.0565 -0.6269
  629MPD2    N1 9376   1.845   0.732  16.847 -0.8308 -0.3785 -0.4471
  629MPD2    H7 9377   1.920   0.799  16.866  1.3081 -2.4968 -1.4856
  630TMC3    C1 9378   2.041   0.605  16.836 -0.1737 -0.5334  0.5716
  630TMC3    C2 9379   2.107   0.704  16.757 -0.1896  0.3954 -0.0013
  630TMC3    C3 9380   2.243   0.706  16.761 -0.4418  0.0632  0.1916
  630TMC3    C4 9381   2.105   0.517  16.910 -0.1178  0.5524  0.5792
  630TMC3    C5 9382   2.240   0.537  16.923  0.1333 -0.6689  0.2654
  630TMC3    C6 9383   2.314   0.624  16.845  0.6741  0.3912  0.3324
  630TMC3     C 9384   1.895   0.607  16.839  0.4057  0.9803 -0.1549
  630TMC3     O 9385   1.828   0.503  16.842 -0.2568  0.3918  1.0294
  630TMC3     H 9386   2.053   0.777  16.697  0.4584  2.1517  1.5473
  630TMC3    H1 9387   2.036   0.477  16.984  1.0431  1.3695  2.1254
  630TMC3    H2 9388   2.421   0.633  16.856  1.0949  0.1328 -3.5699
  630TMC3    C7 9389   2.306   0.472  17.039 -0.1353  0.4744  0.0633
  630TMC3    C8 9390   2.315   0.811  16.693 -0.2187 -0.1125  1.0315
  630TMC3    O1 9391   2.257   0.367  17.087  0.8918  0.2367 -0.3961
  630TMC3    O2 9392   2.418   0.852  16.748  0.3715 -0.4156  0.3449
  631MPD2     C 9393   0.128   0.200  15.516  0.1243 -0.1454 -0.3046
  631MPD2    C1 9394   0.248   0.245  15.477  0.6937 -0.3604 -0.1875
  631MPD2    C2 9395   0.360   0.178  15.525 -0.2984 -0.1622 -0.0227
  631MPD2    C3 9396   0.354   0.088  15.627  0.1490 -0.2551 -0.4414
  631MPD2    C4 9397   0.228   0.051  15.670 -0.4581 -0.1642  0.1551
  631MPD2    C5 9398   0.118   0.111  15.614  0.4154 -0.0615  0.0334
  631MPD2     H 9399   0.454   0.209  15.482 -0.6364  1.2183  0.2117
  631MPD2    H1 9400   0.205   4.712  15.746 -0.4388  1.2793  1.5672
  631MPD2    H2 9401   0.035   0.237  15.474  1.4893  2.6594 -0.8875
  631MPD2    H3 9402   0.015   0.079  15.631 -0.0836  0.9741 -1.0234
  631MPD2     N 9403   0.472   0.028  15.676 -0.9261  0.3251 -0.2196
  631MPD2    H5 9404   0.556   0.062  15.630 -1.3563 -1.2567 -2.2099
  631MPD2    N1 9405   0.252   0.347  15.376 -0.2989 -0.3364 -0.0874
  631MPD2    H7 9406   0.167   0.364  15.324 -1.4542 -1.3335  1.4840
  632TMC3    C1 9407   0.350   0.532  15.282 -0.3331  0.2252  0.0593
  632TMC3    C2 9408   0.232   0.596  15.264  0.4836 -0.6009  0.8034
  632TMC3    C3 9409   0.245   0.719  15.205 -0.0296 -0.8885  0.0007
  632TMC3    C4 9410   0.464   0.582  15.241 -0.1677 -0.4393 -0.6516
  632TMC3    C5 9411   0.474   0.703  15.174 -0.1538 -0.5314 -0.3248
  632TMC3    C6 9412   0.360   0.778  15.162 -0.0911 -0.5670  0.2117
  632TMC3     C 9413   0.356   0.439  15.387 -0.5309  0.7975  0.0555
  632TMC3     O 9414   0.447   0.438  15.469 -0.0370  0.4661  0.1130
  632TMC3     H 9415   0.137   0.556  15.298 -1.4118  2.7712 -0.5336
  632TMC3    H1 9416   0.555   0.529  15.266 -0.2393 -0.3830 -0.2661
  632TMC3    H2 9417   0.358   0.873  15.110 -0.1100  0.0139  1.2710
  632TMC3    C7 9418   0.558   0.714  15.062  0.3986  0.6133  0.0772
  632TMC3    C8 9419   0.122   0.794  15.214  0.6070  0.2166  0.0085
  632TMC3    O1 9420   0.516   0.787  14.974  0.6218 -0.6599  0.1310
  632TMC3    O2 9421   0.021   0.740  15.249  0.3448  0.3320  0.5512
  633MPD2     C 9422   4.408   3.228  17.424  0.2562  0.4515  0.9697
  633MPD2    C1 9423   4.386   3.188  17.293  0.4166  0.0168  0.0240
  633MPD2    C2 9424   4.320   3.071  17.277  0.5856  0.2866 -0.4558
  633MPD2    C3 9425   4.286   2.988  17.380 -0.2327 -0.1456  0.1862
  633MPD2    C4 9426   4.326   3.021  17.510 -0.5186  0.3941 -0.1796
  633MPD2    C5 9427   4.377   3.146  17.527 -0.4444  0.4901 -0.4384
  633MPD2     H 9428   4.274   3.052  17.181  0.5098 -1.3165 -0.0928
  633MPD2    H1 9429   4.316   2.959  17.599  0.3589  0.2797 -0.1582
  633MPD2    H2 9430   4.451   3.324  17.449 -0.4812  0.4380  2.2973
  633MPD2    H3 9431   4.403   3.182  17.626  0.5961  1.3898 -1.0384
  633MPD2     N 9432   4.202   2.874  17.369 -0.3046  0.5280  0.2470
  633MPD2    H5 9433   4.186   2.828  17.457  0.5121  0.1571  0.1960
  633MPD2    N1 9434   4.421   3.263  17.179 -0.2052  0.3038 -0.0642
  633MPD2    H7 9435   4.423   3.215  17.089 -0.5997  2.9198 -1.4748
  634TMC3    C1 9436   4.488   3.423  17.032 -0.4003 -0.0762  0.2685
  634TMC3    C2 9437   4.540   3.322  16.955  0.2955 -0.0765 -0.0582
  634TMC3    C3 9438   4.555   3.343  16.823  0.5019  0.6068  0.0194
  634TMC3    C4 9439   4.473   3.554  16.983 -0.5811  0.0459  0.4497
  634TMC3    C5 9440   4.493   3.567  16.851  0.3742  0.3344 -0.1800
  634TMC3    C6 9441   4.522   3.465  16.767 -0.9960 -0.2523 -0.1059
  634TMC3     C 9442   4.447   3.394  17.173 -0.0673  0.6711  0.6133
  634TMC3     O 9443   4.433   3.479  17.258  0.6079  0.1997  0.3517
  634TMC3     H 9444   4.586   3.230  16.987  3.3802  1.1232 -0.9333
  634TMC3    H1 9445   4.487   3.631  17.058  1.1217 -0.7645  0.9583
  634TMC3    H2 9446   4.541   3.498  16.665  2.0125 -1.2169  0.1618
  634TMC3    C7 9447   4.446   3.684  16.788 -0.2778  0.7889 -0.0507
  634TMC3    C8 9448   4.588   3.235  16.730  0.3842 -0.5284 -0.6719
  634TMC3    O1 9449   4.493   3.714  16.680 -0.1849 -0.1260  0.4009
  634TMC3    O2 9450   4.569   3.124  16.771 -0.0720 -0.3223  0.0972
  635TMC3    C1 9451   0.075   4.443  17.584  0.4474 -0.3832 -0.4776
  635TMC3    C2 9452   0.079   4.322  17.640 -0.4031  0.0927 -0.0112
  635TMC3    C3 9453   0.031   4.221  17.564  0.0770 -0.0628 -0.1983
  635TMC3    C4 9454   0.019   4.462  17.458  0.6196  0.0093  0.0053
  635TMC3    C5 9455   4.704   4.361  17.383 -0.5447  0.1577  0.4188
  635TMC3    C6 9456   4.717   4.230  17.438  0.3788  0.2400 -0.3864
  635TMC3     C 9457   0.122   4.561  17.661 -0.5887  0.9167 -0.5372
  635TMC3     O 9458   0.060   4.668  17.654 -0.5417 -0.4753  0.1458
  635TMC3     H 9459   0.103   4.306   0.006  1.7692  3.0881 -0.0429
  635TMC3    H1 9460   0.009   4.560  17.415 -0.7349 -1.6318 -3.4164
  635TMC3    H2 9461   4.664   4.150  17.389 -0.5797 -0.1060  1.2081
  635TMC3    C7 9462   4.627   4.395  17.267 -0.0334  0.4114 -0.0600
  635TMC3    C8 9463   0.019   4.088  17.632 -0.1557  0.2841 -0.2080
  635TMC3    O1 9464   4.543   4.478  17.284 -0.6880  0.3925  0.7336
  635TMC3    O2 9465   4.656   4.024  17.599 -0.0216 -0.1294 -0.4704
  636MPD2     C 9466   1.008   3.471  16.070  0.5100  0.1854 -0.4267
  636MPD2    C1 9467   0.967   3.467  16.202  0.4965 -0.9770  1.3467
  636MPD2    C2 9468   0.961   3.335  16.259 -0.4761 -0.2187 -0.2917
  636MPD2    C3 9469   0.982   3.222  16.179  0.0610  0.3175  0.3049
  636MPD2    C4 9470   1.033   3.239  16.054 -0.6478  0.2018  0.6289
  636MPD2    C5 9471   1.051   3.362  16.002 -0.2544 -0.0758 -0.0458
  636MPD2     H 9472   0.941   3.315  16.364  0.6032  0.1549 -0.0124
  636MPD2    H1 9473   1.064   3.152  15.997 -2.3474 -0.2828  0.4587
  636MPD2    H2 9474   1.015   3.569  16.023  1.0662  0.6200  0.5687
  636MPD2    H3 9475   1.090   3.381  15.903  0.7009  0.2052  0.3835
  636MPD2     N 9476   0.951   3.096  16.236  0.4354 -0.3920  0.1813
  636MPD2    H5 9477   0.917   3.100  16.332 -3.6547 -1.8789 -1.2244
  636MPD2    N1 9478   0.949   3.577  16.290 -0.5395 -1.0042 -0.9569
  636MPD2    H7 9479   0.923   3.552  16.385  1.4778  0.5532  0.0278
  637TMC3    C1 9480   0.897   2.862  16.255  0.1348 -0.1654  0.0259
  637TMC3    C2 9481   0.859   2.907  16.375 -0.7600 -0.0395 -0.4871
  637TMC3    C3 9482   0.922   2.854  16.484  0.1792 -0.2528  0.0132
  637TMC3    C4 9483   0.991   2.760  16.242 -0.0632  0.1371  0.1263
  637TMC3    C5 9484   1.055   2.712  16.356 -0.8770 -0.2491  0.1744
  637TMC3    C6 9485   1.017   2.749  16.481 -0.0476 -0.1751  0.3168
  637TMC3     C 9486   0.939   2.974  16.169  0.5432  0.8723 -0.5896
  637TMC3     O 9487   0.968   2.940  16.055 -0.1693 -0.3367  0.9634
  637TMC3     H 9488   0.784   2.984  16.386 -0.1856  0.0903  2.5393
  637TMC3    H1 9489   1.016   2.729  16.141 -2.4332 -0.1691 -0.3790
  637TMC3    H2 9490   1.077   2.710  16.563  1.0019  0.2882 -0.2335
  637TMC3    C7 9491   1.164   2.621  16.338 -0.1298 -1.0501  0.2455
  637TMC3    C8 9492   0.954   2.969  16.566  0.2557  0.1976  0.1608
  637TMC3    O1 9493   1.197   2.546  16.431  0.4259  0.2325 -0.0372
  637TMC3    O2 9494   0.941   3.082  16.522  0.1639  0.2779 -0.0027
  638MPD2     C 9495   0.948   2.451  14.904 -0.1578  0.7668  0.0195
  638MPD2    C1 9496   0.935   2.345  14.816 -0.1539  0.1269  0.0753
  638MPD2    C2 9497   0.922   2.218  14.867 -0.6214  0.7444 -0.2880
  638MPD2    C3 9498   0.931   2.197  15.005  1.5972  0.0354  0.2088
  638MPD2    C4 9499   0.934   2.303  15.098 -0.1390 -0.0429 -0.2834
  638MPD2    C5 9500   0.946   2.430  15.040  0.2971  0.3955 -0.6576
  638MPD2     H 9501   0.898   2.138  14.798 -0.8634 -0.7903  1.5432
  638MPD2    H1 9502   0.932   2.284  15.205 -1.0046 -0.4595 -0.3677
  638MPD2    H2 9503   0.954   2.552  14.867  2.2268  0.8572  0.6633
  638MPD2    H3 9504   0.973   2.511  15.107 -0.2229  0.6214 -0.7236
  638MPD2     N 9505   0.932   2.060  15.048  0.0002  0.2732 -0.0171
  638MPD2    H5 9506   0.903   1.982  14.990  2.2541  0.4698 -1.4249
  638MPD2    N1 9507   0.941   2.352  14.677  0.4504  0.4410  0.6862
  638MPD2    H7 9508   0.933   2.262  14.630  2.7741  0.4631  0.2641
  639TMC3    C1 9509   0.957   1.874  15.190  0.0540  0.6969 -0.0419
  639TMC3    C2 9510   0.871   1.810  15.115  0.3109 -0.2756  0.4768
  639TMC3    C3 9511   0.852   1.672  15.128 -0.0458 -0.3791  0.1248
  639TMC3    C4 9512   1.030   1.816  15.288 -0.1878 -0.0400 -0.4502
  639TMC3    C5 9513   1.015   1.682  15.286 -0.2455 -1.0794  0.1752
  639TMC3    C6 9514   0.929   1.606  15.221 -0.1462 -0.0891 -0.4046
  639TMC3     C 9515   0.972   2.021  15.171  0.8093 -0.2499  0.8902
  639TMC3     O 9516   1.035   2.080  15.260  0.5171 -0.1277 -0.4014
  639TMC3     H 9517   0.805   1.864  15.048  0.3873  0.6021  1.1064
  639TMC3    H1 9518   1.105   1.871  15.344 -1.2069  0.8541  0.0297
  639TMC3    H2 9519   0.946   1.499  15.214  1.1267  0.1004 -0.3488
  639TMC3    C7 9520   1.118   1.596  15.345 -0.6386 -0.4786 -0.1994
  639TMC3    C8 9521   0.748   1.605  15.047 -0.2364  0.2654  0.6562
  639TMC3    O1 9522   1.080   1.504  15.418 -0.7682  0.2309 -0.6334
  639TMC3    O2 9523   0.721   1.656  14.940  0.5686 -0.4398 -1.0250
  640MPD2     C 9524   1.366   0.681   9.725  0.3027  0.2787  0.5523
  640MPD2    C1 9525   1.257   0.669   9.632 -0.3054  0.0010 -0.5616
  640MPD2    C2 9526   1.167   0.768   9.619 -0.0429 -0.5435 -0.4462
  640MPD2    C3 9527   1.174   0.879   9.709  0.0922  0.1070 -0.0195
  640MPD2    C4 9528   1.284   0.897   9.792 -0.4509  0.6366 -0.5134
  640MPD2    C5 9529   1.385   0.802   9.797 -0.0303 -0.4725  0.3065
  640MPD2     H 9530   1.082   0.755   9.553 -0.1901  0.7470 -0.5235
  640MPD2    H1 9531   1.289   0.984   9.856  0.8135 -1.5418  2.3726
  640MPD2    H2 9532   1.439   0.605   9.750  0.8155 -0.2576 -2.6210
  640MPD2    H3 9533   1.468   0.816   9.866  1.8728 -0.1656 -2.0710
  640MPD2     N 9534   1.065   0.967   9.725 -0.0144  0.1213  0.0535
  640MPD2    H5 9535   1.092   1.041   9.789  0.5574 -1.1878  1.3419
  640MPD2    N1 9536   1.256   0.549   9.547  0.0604  0.3604  0.2387
  640MPD2    H7 9537   1.314   0.470   9.574 -1.3355 -0.8543 -0.2853
  641TMC3    C1 9538   1.155   0.385   9.405 -0.1858  0.2418 -0.3506
  641TMC3    C2 9539   1.259   0.299   9.424  0.5017 -0.0746 -0.1201
  641TMC3    C3 9540   1.235   0.168   9.392 -0.6918 -0.4449 -0.3851
  641TMC3    C4 9541   1.036   0.338   9.351  0.6265 -0.6284 -0.0299
  641TMC3    C5 9542   1.018   0.202   9.331  0.7113  0.5937  0.2604
  641TMC3    C6 9543   1.123   0.117   9.341  0.8758  0.5456 -0.3768
  641TMC3     C 9544   1.168   0.528   9.446  0.9239  0.4801 -0.5783
  641TMC3     O 9545   1.087   0.603   9.394  0.2123  0.2054 -0.8320
  641TMC3     H 9546   1.352   0.338   9.464  0.9542 -0.2267 -1.0178
  641TMC3    H1 9547   0.954   0.409   9.360 -1.0402 -2.5088 -0.2688
  641TMC3    H2 9548   1.116   0.014   9.310  0.6210  0.2556  0.6537
  641TMC3    C7 9549   0.890   0.155   9.275  1.2059 -0.3634 -0.9867
  641TMC3    C8 9550   1.349   0.080   9.400  0.2762 -0.1222 -0.6542
  641TMC3    O1 9551   0.798   0.239   9.267  0.5734 -0.3838 -0.2422
  641TMC3    O2 9552   1.319   4.697   9.393 -0.0119 -0.1156  0.0656
  642TMC3    C1 9553   2.265   2.219  12.516 -0.5087 -0.1855 -0.4523
  642TMC3    C2 9554   2.301   2.263  12.392  0.4212  0.5512  0.5458
  642TMC3    C3 9555   2.256   2.187  12.291 -0.0203  0.2479  0.0121
  642TMC3    C4 9556   2.197   2.105  12.543 -0.1042  0.2675 -0.3523
  642TMC3    C5 9557   2.154   2.028  12.437  0.6380  0.1315 -0.3436
  642TMC3    C6 9558   2.180   2.074  12.308  0.2345  0.1682 -0.5547
  642TMC3     C 9559   2.282   2.323  12.610  0.3755  0.0753  0.5399
  642TMC3     O 9560   2.393   2.379  12.612 -0.0215  0.3284  0.0533
  642TMC3     H 9561   2.349   2.359  12.375  1.4628 -0.4386 -2.0249
  642TMC3    H1 9562   2.158   2.078  12.640  0.4249  0.0825 -0.1896
  642TMC3    H2 9563   2.147   2.006  12.230  0.5771 -2.2313  1.3850
  642TMC3    C7 9564   2.107   1.891  12.453 -0.2630  0.2700 -0.3433
  642TMC3    C8 9565   2.293   2.217  12.151 -0.2960 -0.2853 -0.0457
  642TMC3    O1 9566   2.059   1.847  12.352  0.2816 -0.1992 -0.1012
  642TMC3    O2 9567   2.204   2.196  12.071 -0.5315  0.4218 -0.1934
  643TMC3    C1 9568   1.461   1.325   0.273  0.8476 -0.1014 -0.4032
  643TMC3    C2 9569   1.367   1.425   0.252  0.4255  0.0985  0.3870
  643TMC3    C3 9570   1.343   1.467   0.126 -1.0256 -0.3172  0.2065
  643TMC3    C4 9571   1.524   1.259   0.169  0.5693 -0.1184 -0.5550
  643TMC3    C5 9572   1.493   1.310   0.045 -0.8325 -0.6420 -0.1518
  643TMC3    C6 9573   1.404   1.410   0.016  0.5395  0.6429  0.3320
  643TMC3     C 9574   1.504   1.311   0.408 -0.2302 -0.0363  0.8840
  643TMC3     O 9575   1.434   1.351   0.500  0.0606  0.6329 -0.0618
  643TMC3     H 9576   1.310   1.466   0.334 -0.0997 -0.0439  0.0880
  643TMC3    H1 9577   1.610   1.196   0.182  0.4828 -0.4561 -1.6298
  643TMC3    H2 9578   1.392   1.436  17.651  1.7115 -1.7446 -0.4108
  643TMC3    C7 9579   1.595   1.307  17.683 -0.5409  0.2516  0.0912
  643TMC3    C8 9580   1.245   1.573   0.119 -0.3390  0.0940  0.3722
  643TMC3    O1 9581   1.609   1.403  17.608  0.1920 -0.1144 -0.0491
  643TMC3    O2 9582   1.172   1.581   0.215  0.0345 -0.8019  0.2964
  644MPD2     C 9583   0.970   1.346   9.256 -0.4596  0.0851  0.4038
  644MPD2    C1 9584   0.958   1.215   9.222  0.4265  0.0339  0.0897
  644MPD2    C2 9585   0.847   1.169   9.155  0.3877  0.3235  0.4351
  644MPD2    C3 9586   0.744   1.255   9.115 -0.3395  0.4037  0.4292
  644MPD2    C4 9587   0.765   1.389   9.144  0.0503 -0.2577 -0.4478
  644MPD2    C5 9588   0.874   1.427   9.215 -0.1762 -0.0845  0.5670
  644MPD2     H 9589   0.832   1.064   9.132  0.6321  1.0950 -3.1684
  644MPD2    H1 9590   0.694   1.469   9.132  0.9878  1.0895  2.8746
  644MPD2    H2 9591   1.052   1.398   9.305  1.4033 -1.5932 -0.9155
  644MPD2    H3 9592   0.883   1.533   9.235  2.0471  0.0134 -0.9490
  644MPD2     N 9593   0.632   1.202   9.045  0.3665 -0.7608  0.0910
  644MPD2    H5 9594   0.630   1.100   9.041 -0.0170 -0.6741 -2.0409
  644MPD2    N1 9595   1.061   1.137   9.271  0.4408  0.0856  0.2020
  644MPD2    H7 9596   1.141   1.186   9.309  0.0895 -1.3079  2.7578
  645TMC3    C1 9597   0.421   1.195   8.937  0.0661 -0.0247  0.4911
  645TMC3    C2 9598   0.421   1.059   8.957 -0.4970  0.2095  1.1201
  645TMC3    C3 9599   0.325   0.977   8.909  0.6268  0.8889 -0.0765
  645TMC3    C4 9600   0.312   1.256   8.872  0.1046  0.4313 -0.2769
  645TMC3    C5 9601   0.212   1.175   8.833  0.2763 -0.7637 -0.3897
  645TMC3    C6 9602   0.212   1.036   8.848  0.1005  0.5990 -0.7199
  645TMC3     C 9603   0.518   1.276   9.004  0.5719  0.1471  0.4645
  645TMC3     O 9604   0.500   1.397   9.018 -0.9201 -0.0774 -0.3327
  645TMC3     H 9605   0.507   1.011   9.003  0.0178 -0.3717 -0.4700
  645TMC3    H1 9606   0.307   1.364   8.873  1.7885  0.4939  0.5121
  645TMC3    H2 9607   0.148   0.976   8.785  0.6766  0.2275 -0.9567
  645TMC3    C7 9608   0.104   1.238   8.747  0.4486  0.5711 -0.3310
  645TMC3    C8 9609   0.337   0.830   8.908  0.9546 -0.5537  0.7143
  645TMC3    O1 9610   0.124   1.356   8.729 -0.2631 -0.3831 -0.0033
  645TMC3    O2 9611   0.236   0.764   8.884  0.4274 -0.7244 -0.4584
  646MPD2     C 9612   1.172   0.763  14.537 -0.6154  0.6410 -0.0659
  646MPD2    C1 9613   1.124   0.836  14.648 -0.0359 -0.4250 -0.0013
  646MPD2    C2 9614   1.006   0.908  14.652  0.7391  0.0539 -0.0027
  646MPD2    C3 9615   0.932   0.924  14.531  0.1756 -0.0936  0.5573
  646MPD2    C4 9616   0.985   0.861  14.417 -0.4955 -0.1994 -0.0668
  646MPD2    C5 9617   1.098   0.777  14.426  0.7982  0.4365 -0.1751
  646MPD2     H 9618   0.976   0.959  14.742 -0.6864 -2.6788  1.0525
  646MPD2    H1 9619   0.947   0.868  14.316  0.7986  0.4180 -0.5120
  646MPD2    H2 9620   1.266   0.709  14.536 -0.3015  1.1878 -0.2608
  646MPD2    H3 9621   1.119   0.724  14.334 -0.9136 -0.8858  0.1956
  646MPD2     N 9622   0.816   1.009  14.535 -0.4580 -0.7691  0.3594
  646MPD2    H5 9623   0.780   1.025  14.628 -0.3782  0.0939  0.2413
  646MPD2    N1 9624   1.204   0.804  14.764  0.0987 -0.1714  0.8498
  646MPD2    H7 9625   1.287   0.747  14.753 -1.7712 -2.5164 -0.9101
  647TMC3    C1 9626   1.239   0.779  14.991  0.0140 -0.0431  0.2029
  647TMC3    C2 9627   1.167   0.735  15.103  0.1582 -0.0485 -0.3858
  647TMC3    C3 9628   1.219   0.625  15.170  0.6654 -0.3417  0.6655
  647TMC3    C4 9629   1.363   0.727  14.958 -0.7439 -0.2134  0.2278
  647TMC3    C5 9630   1.410   0.624  15.035  0.3890 -0.2525  0.3981
  647TMC3    C6 9631   1.336   0.558  15.131 -0.0375  0.5966 -0.1062
  647TMC3     C 9632   1.171   0.849  14.889  0.3488 -0.4739  0.0049
  647TMC3     O 9633   1.083   0.918  14.936  0.6257  0.2785 -0.4006
  647TMC3     H 9634   1.073   0.777  15.137  0.1395  0.9321 -1.6862
  647TMC3    H1 9635   1.425   0.776  14.884 -0.8505 -2.0653 -1.0783
  647TMC3    H2 9636   1.379   0.473  15.183  0.5158  2.3399  2.2556
  647TMC3    C7 9637   1.554   0.617  15.062  0.0628 -0.0009 -0.4156
  647TMC3    C8 9638   1.154   0.582  15.294  0.2732  0.0020  0.2544
  647TMC3    O1 9639   1.598   0.523  15.129  0.2733  0.2366  0.9093
  647TMC3    O2 9640   1.044   0.624  15.298  0.1301  0.3000 -0.1651
  648TMC3    C1 9641   0.171   3.250  16.166  0.1390 -0.5688 -0.3396
  648TMC3    C2 9642   0.257   3.156  16.116 -0.0325  0.4894  0.6224
  648TMC3    C3 9643   0.268   3.135  15.981  0.5021  0.5061  0.5038
  648TMC3    C4 9644   0.101   3.334  16.081  0.0175  0.2102  0.3777
  648TMC3    C5 9645   0.111   3.318  15.950  0.5897 -0.0494 -0.3057
  648TMC3    C6 9646   0.193   3.216  15.897  0.2192  0.2097  0.1934
  648TMC3     C 9647   0.181   3.293  16.307 -0.2835 -0.2357 -0.1148
  648TMC3     O 9648   0.166   3.411  16.331 -0.3826  0.2911  0.1569
  648TMC3     H 9649   0.307   3.097  16.192 -1.2214 -0.8320  0.3961
  648TMC3    H1 9650   0.050   3.422  16.117  1.0639  0.5862  0.9485
  648TMC3    H2 9651   0.204   3.204  15.790  1.1803  2.6261  0.0110
  648TMC3    C7 9652   0.067   3.427  15.861 -0.0083  0.4779 -0.1771
  648TMC3    C8 9653   0.270   2.995  15.956  0.1796 -0.0439  0.2420
  648TMC3    O1 9654   0.111   3.422  15.744  0.0934 -0.1670  0.1337
  648TMC3    O2 9655   0.211   2.923  16.035  0.2393  0.0398 -0.3457
  649TMC3    C1 9656   4.347   4.202  12.262 -0.1536  0.6538 -0.2256
  649TMC3    C2 9657   4.408   4.102  12.182 -0.2574 -0.3171  0.0615
  649TMC3    C3 9658   4.408   3.977  12.242  0.5784  0.6274 -1.2213
  649TMC3    C4 9659   4.293   4.183  12.386 -0.1602 -0.0891 -0.3118
  649TMC3    C5 9660   4.295   4.053  12.432  0.5277  0.2188  0.0002
  649TMC3    C6 9661   4.364   3.952  12.368  0.3729 -0.0689 -0.9032
  649TMC3     C 9662   4.334   4.334  12.211  0.0961  0.7063 -0.7350
  649TMC3     O 9663   4.224   4.384  12.228  0.4155  0.0194 -0.3348
  649TMC3     H 9664   4.437   4.122  12.079  0.0562  0.7387  0.3535
  649TMC3    H1 9665   4.247   4.261  12.445 -0.8920 -0.6268 -0.1645
  649TMC3    H2 9666   4.350   3.849  12.397  0.2108 -0.1058 -1.1134
  649TMC3    C7 9667   4.296   4.034  12.577  0.2681  0.3960  0.0082
  649TMC3    C8 9668   4.477   3.863  12.177 -0.1305 -0.2998 -0.0339
  649TMC3    O1 9669   4.215   4.097  12.639 -0.4366  0.4111 -1.0311
  649TMC3    O2 9670   4.461   3.756  12.235  0.0197  0.7217 -0.3361
  650TMC3    C1 9671   1.825   1.443  12.871 -0.7455 -0.6573  0.1884
  650TMC3    C2 9672   1.757   1.554  12.913 -0.2155  0.2503  0.2089
  650TMC3    C3 9673   1.658   1.604  12.836  0.9122  0.1047 -0.7024
  650TMC3    C4 9674   1.797   1.382  12.756  0.1533 -0.7905  0.3761
  650TMC3    C5 9675   1.703   1.445  12.675 -0.0361  0.2749  0.4324
  650TMC3    C6 9676   1.628   1.556  12.711  0.0839 -0.4053 -0.2005
  650TMC3     C 9677   1.919   1.379  12.970 -0.8231 -0.0414 -0.1733
  650TMC3     O 9678   1.957   1.455  13.056  0.4273 -0.0711 -0.9571
  650TMC3     H 9679   1.784   1.610  13.002 -0.2945  4.0019 -2.1070
  650TMC3    H1 9680   1.853   1.301  12.711  1.1794  0.0150  0.2236
  650TMC3    H2 9681   1.556   1.604  12.646 -0.3515  1.7756  1.8781
  650TMC3    C7 9682   1.665   1.368  12.557 -1.1303 -0.3230 -0.2607
  650TMC3    C8 9683   1.603   1.732  12.861  0.6922 -0.5309  0.1340
  650TMC3    O1 9684   1.693   1.246  12.550 -0.0796 -0.4059 -0.4388
  650TMC3    O2 9685   1.678   1.820  12.903 -0.0675  0.1900  0.4423
  651MPD2     C 9686   0.904   3.331  10.266 -0.1370 -0.5884  0.3179
  651MPD2    C1 9687   0.912   3.417  10.371  0.3796 -0.2502  0.4230
  651MPD2    C2 9688   1.036   3.450  10.414  0.8382  0.6595  0.2954
  651MPD2    C3 9689   1.154   3.421  10.337  0.3188  0.0632 -0.2286
  651MPD2    C4 9690   1.136   3.351  10.222 -0.1714 -1.5492 -0.0477
  651MPD2    C5 9691   1.012   3.297  10.193  0.6830  0.1928  0.1659
  651MPD2     H 9692   1.055   3.515  10.498 -0.2952  1.8154 -0.3464
  651MPD2    H1 9693   1.218   3.326  10.157  1.1336  1.7969  0.3099
  651MPD2    H2 9694   0.817   3.271  10.243 -0.4685 -0.8254  2.1243
  651MPD2    H3 9695   0.997   3.222  10.116 -0.9267  1.5994 -0.9115
  651MPD2     N 9696   1.281   3.471  10.376 -0.1081  0.5560 -0.3010
  651MPD2    H5 9697   1.282   3.523  10.463  0.4243  1.8449 -1.0661
  651MPD2    N1 9698   0.800   3.459  10.447  0.0494  1.0046  0.4494
  651MPD2    H7 9699   0.808   3.540  10.508  3.5710  0.1342  1.1097
  652TMC3    C1 9700   1.748   3.486  10.364 -0.2525 -0.1120  0.1899
  652TMC3    C2 9701   1.632   3.488  10.291  0.5558 -0.6081 -0.2021
  652TMC3    C3 9702   1.515   3.498  10.359  0.1619  0.3070 -0.4132
  652TMC3    C4 9703   1.753   3.501  10.501 -0.2517  0.0016 -0.9929
  652TMC3    C5 9704   1.631   3.533  10.556  0.0932  0.4102 -0.1486
  652TMC3    C6 9705   1.507   3.521  10.491 -0.1308  0.3276 -0.7107
  652TMC3     C 9706   1.877   3.502  10.285 -0.7796 -0.0601 -0.5982
  652TMC3     O 9707   1.867   3.582  10.193 -0.1130 -0.1911 -0.7420
  652TMC3     H 9708   1.639   3.473  10.184  1.1503 -3.2422  0.2073
  652TMC3    H1 9709   1.848   3.511  10.554 -1.0502 -1.4799  0.7351
  652TMC3    H2 9710   1.425   3.530  10.561 -0.8809 -0.8769 -1.4422
  652TMC3    C7 9711   1.622   3.551  10.696 -0.3397 -0.4606 -0.2626
  652TMC3    C8 9712   1.397   3.453  10.298 -0.4871  0.3565  1.1522
  652TMC3    O1 9713   1.537   3.496  10.762  0.2617 -0.0583  0.1556
  652TMC3    O2 9714   1.420   3.385  10.195 -0.1841 -0.2051  0.7898
  653MPD2     C 9715   4.254   3.393   0.122  0.2394  0.9343  0.6106
  653MPD2    C1 9716   4.159   3.462   0.051  0.5018  0.1931  0.1781
  653MPD2    C2 9717   4.073   3.395  17.709 -0.2086  0.4297  0.2455
  653MPD2    C3 9718   4.067   3.256  17.699  0.3753 -0.4070  0.5202
  653MPD2    C4 9719   4.154   3.190   0.047  0.3928 -0.2536 -0.2993
  653MPD2    C5 9720   4.249   3.262   0.121  0.0712 -0.6107 -0.1408
  653MPD2     H 9721   3.990   3.446  17.661 -0.5231  0.3030  0.6523
  653MPD2    H1 9722   4.146   3.085   0.075  1.3811 -0.6518 -1.4865
  653MPD2    H2 9723   4.327   3.436   0.189 -0.1746  1.0548  0.9918
  653MPD2    H3 9724   4.317   3.205   0.183 -0.7026 -3.0059 -1.4775
  653MPD2     N 9725   3.974   3.203  17.614 -0.2797 -0.0968  0.3747
  653MPD2    H5 9726   3.917   3.274  17.570 -2.1144 -1.5863  0.3644
  653MPD2    N1 9727   4.143   3.599   0.060 -0.4943  0.0350 -0.3771
  653MPD2    H7 9728   4.084   3.638  17.726 -0.0997  0.2400 -0.5831
  654TMC3    C1 9729   3.843   3.031  17.504 -0.3314 -0.1519  0.0560
  654TMC3    C2 9730   3.761   3.132  17.457 -0.1565 -0.2190 -0.2136
  654TMC3    C3 9731   3.677   3.099  17.358  0.7663  0.1552  0.2412
  654TMC3    C4 9732   3.844   2.896  17.454 -0.1564 -0.2887 -0.5553
  654TMC3    C5 9733   3.735   2.869  17.372  0.0049 -0.0551 -0.9226
  654TMC3    C6 9734   3.653   2.965  17.324 -0.3688 -0.4903  0.5658
  654TMC3     C 9735   3.957   3.068  17.584 -0.6038 -0.1676 -0.3453
  654TMC3     O 9736   4.015   2.970  17.627 -0.4616  0.1051  0.1400
  654TMC3     H 9737   3.765   3.236  17.487  1.4364 -0.3816  0.1350
  654TMC3    H1 9738   3.906   2.818  17.497 -0.0429  1.8180  3.1749
  654TMC3    H2 9739   3.566   2.926  17.272 -1.7351  1.5132  1.3721
  654TMC3    C7 9740   3.737   2.766  17.278  0.5367  0.0280 -0.2812
  654TMC3    C8 9741   3.597   3.195  17.284  0.3494 -0.4890 -0.5831
  654TMC3    O1 9742   3.704   2.802  17.164  0.9151  0.3456 -0.0009
  654TMC3    O2 9743   3.568   3.300  17.338  0.3437 -0.0560 -0.2382
  655MPD2     C 9744   0.759   3.342  15.736 -0.1672 -0.1118  0.0024
  655MPD2    C1 9745   0.702   3.413  15.633 -0.7576 -0.2017  0.4757
  655MPD2    C2 9746   0.757   3.394  15.505  0.4660 -0.1218  0.2476
  655MPD2    C3 9747   0.853   3.293  15.487 -0.4137 -0.2146  0.3453
  655MPD2    C4 9748   0.900   3.216  15.587  0.4044 -0.4250  0.0563
  655MPD2    C5 9749   0.860   3.249  15.716  0.6194 -0.2295  0.2438
  655MPD2     H 9750   0.722   3.459  15.425 -3.1914 -1.5969  0.6453
  655MPD2    H1 9751   0.972   3.137  15.570  0.5570 -0.3668  0.4217
  655MPD2    H2 9752   0.739   3.343  15.842  1.5390 -1.1202  0.3418
  655MPD2    H3 9753   0.901   3.193  15.799  1.3203 -0.2089 -0.0870
  655MPD2     N 9754   0.914   3.260  15.363 -0.0940  0.0470  0.0980
  655MPD2    H5 9755   0.968   3.173  15.361  0.1629  0.2512 -1.5475
  655MPD2    N1 9756   0.590   3.503  15.660  0.0961  0.1911  0.1683
  655MPD2    H7 9757   0.564   3.560  15.579  1.7476 -1.2756 -1.3914
  656TMC3    C1 9758   0.428   3.623  15.787  0.2162 -0.1867  0.4318
  656TMC3    C2 9759   0.366   3.621  15.907 -0.1811 -0.4256 -0.2123
  656TMC3    C3 9760   0.315   3.731  15.948 -0.2628 -0.1049 -0.6694
  656TMC3    C4 9761   0.437   3.733  15.709 -0.5428  0.1314 -0.5824
  656TMC3    C5 9762   0.381   3.843  15.752 -0.3839 -0.1459  0.5966
  656TMC3    C6 9763   0.315   3.848  15.872 -0.5456 -0.3439 -0.4067
  656TMC3     C 9764   0.517   3.507  15.780 -0.5753 -0.1959 -0.1623
  656TMC3     O 9765   0.536   3.437  15.878 -0.1748  0.0037  0.5314
  656TMC3     H 9766   0.365   3.529  15.963 -0.5775 -0.3258 -0.0532
  656TMC3    H1 9767   0.497   3.738  15.619 -2.1947  0.0090 -1.6844
  656TMC3    H2 9768   0.280   3.942  15.911  1.1015  0.0413  0.1401
  656TMC3    C7 9769   0.360   3.947  15.658 -0.1062 -0.0969  0.2734
  656TMC3    C8 9770   0.238   3.726  16.078  0.3660  0.9697  0.1962
  656TMC3    O1 9771   0.423   3.943  15.558 -0.1990 -0.2128  0.1224
  656TMC3    O2 9772   0.206   3.619  16.131 -0.0973 -0.3346  0.5629
  657TMC3    C1 9773   4.270   2.854  15.072 -0.0089 -0.7457  0.9198
  657TMC3    C2 9774   4.367   2.866  14.975  0.3523  0.5109  0.4311
  657TMC3    C3 9775   4.418   2.991  14.961  0.3343  0.3959  0.0400
  657TMC3    C4 9776   4.223   2.963  15.148  0.1851 -0.9385 -0.2083
  657TMC3    C5 9777   4.276   3.087  15.115 -0.0675 -0.0701 -0.1561
  657TMC3    C6 9778   4.375   3.102  15.029  0.0342 -0.6855 -0.4476
  657TMC3     C 9779   4.225   2.725  15.116 -0.2710 -0.3376 -0.4224
  657TMC3     O 9780   4.113   2.732  15.161 -0.6655 -0.4344  0.3383
  657TMC3     H 9781   4.391   2.791  14.900  0.7866  0.6660  0.4141
  657TMC3    H1 9782   4.142   2.955  15.220  0.8963  0.4780  0.7375
  657TMC3    H2 9783   4.413   3.200  15.004  0.2501 -0.4014  0.9877
  657TMC3    C7 9784   4.246   3.198  15.197  0.4025  0.2902  0.5639
  657TMC3    C8 9785   4.519   3.018  14.866  0.5651  0.5781 -0.3393
  657TMC3    O1 9786   4.264   3.306  15.142  0.2160 -0.3896  0.0852
  657TMC3    O2 9787   4.539   3.135  14.833 -0.0794  0.0204 -0.1114
  658MPD2     C 9788   1.244   3.470  14.563  0.1057 -0.6204  0.1292
  658MPD2    C1 9789   1.111   3.420  14.578  0.3272  0.4763  0.3978
  658MPD2    C2 9790   1.040   3.420  14.459 -0.1843  0.3904  0.2949
  658MPD2    C3 9791   1.095   3.436  14.333 -0.0143  0.1189  0.0523
  658MPD2    C4 9792   1.226   3.471  14.325 -0.4677  0.1569  0.0407
  658MPD2    C5 9793   1.297   3.498  14.437  0.3418  0.0391 -1.3287
  658MPD2     H 9794   0.938   3.383  14.463 -0.1530  0.3043  0.2782
  658MPD2    H1 9795   1.277   3.487  14.231 -1.4991 -0.5294 -0.6424
  658MPD2    H2 9796   1.308   3.485  14.649  1.1034  1.5595 -0.9972
  658MPD2    H3 9797   1.402   3.524  14.428  0.4378  0.1013  0.0486
  658MPD2     N 9798   1.007   3.427  14.225 -0.1018 -0.3883 -0.0225
  658MPD2    H5 9799   0.909   3.409  14.244 -1.0484  2.6633 -1.9416
  658MPD2    N1 9800   1.051   3.386  14.697  0.1671  0.5764 -0.0374
  658MPD2    H7 9801   0.955   3.353  14.693  0.0285  0.8710  0.8331
  659TMC3    C1 9802   1.023   3.305  14.920  0.4561 -0.2215  0.4738
  659TMC3    C2 9803   1.031   3.353  15.048 -0.4661 -0.0881  0.4894
  659TMC3    C3 9804   0.980   3.265  15.142  0.3237 -0.5708  0.2071
  659TMC3    C4 9805   0.984   3.179  14.883 -0.2262 -0.0451 -0.5150
  659TMC3    C5 9806   0.946   3.089  14.983 -0.4703 -0.1470  0.2744
  659TMC3    C6 9807   0.942   3.137  15.113  0.0872  0.1667 -0.8599
  659TMC3     C 9808   1.113   3.367  14.821  0.7237 -0.6746  0.1612
  659TMC3     O 9809   1.227   3.389  14.858 -0.4891  0.0335 -0.4107
  659TMC3     H 9810   1.072   3.450  15.071  1.1681 -1.3947  3.0113
  659TMC3    H1 9811   0.985   3.145  14.780  0.8263  0.3758 -0.6428
  659TMC3    H2 9812   0.907   3.069  15.190  1.2534  1.9531  1.2344
  659TMC3    C7 9813   0.833   3.002  14.962 -0.5487 -0.1574 -0.0124
  659TMC3    C8 9814   0.915   3.336  15.255  0.1620  0.1429  0.5669
  659TMC3    O1 9815   0.827   2.903  15.033 -0.7352 -0.5042  0.5908
  659TMC3    O2 9816   0.875   3.449  15.237  0.2273 -0.2546 -0.1558
  660MPD2     C 9817   3.023   2.358  12.572  0.3108 -0.0755 -0.4367
  660MPD2    C1 9818   2.942   2.439  12.651  0.0896 -0.0744 -0.1312
  660MPD2    C2 9819   2.953   2.447  12.789 -0.4620 -0.0501 -0.3096
  660MPD2    C3 9820   3.039   2.356  12.851 -0.0426 -0.2506 -0.7311
  660MPD2    C4 9821   3.118   2.270  12.773 -0.4317 -0.2979  0.5711
  660MPD2    C5 9822   3.112   2.274  12.637  0.0311  0.4701  0.4260
  660MPD2     H 9823   2.890   2.516  12.844 -0.7041  1.3186 -2.2928
  660MPD2    H1 9824   3.171   2.186  12.817  0.2114  0.4715  1.2427
  660MPD2    H2 9825   3.022   2.349  12.464 -0.5069  1.1469 -0.5236
  660MPD2    H3 9826   3.174   2.207  12.578 -2.2703 -1.8107  0.6137
  660MPD2     N 9827   3.046   2.334  12.986  0.2549  0.2698 -0.1571
  660MPD2    H5 9828   3.090   2.247  13.015 -1.2653 -0.2785  0.4710
  660MPD2    N1 9829   2.853   2.527  12.572 -0.2454 -0.6308  0.4075
  660MPD2    H7 9830   2.866   2.526  12.472 -2.4697  0.3705  0.1298
  661TMC3    C1 9831   2.690   2.690  12.532  0.5086  0.9990  0.0214
  661TMC3    C2 9832   2.755   2.735  12.418  0.5984  0.1318 -0.6689
  661TMC3    C3 9833   2.679   2.783  12.315  0.0260  0.4517 -0.2109
  661TMC3    C4 9834   2.555   2.689  12.541 -0.3075  0.2172  0.2506
  661TMC3    C5 9835   2.480   2.743  12.439 -0.6142 -0.2153  0.2394
  661TMC3    C6 9836   2.540   2.791  12.321  0.0206  0.2253 -0.0128
  661TMC3     C 9837   2.759   2.602  12.625 -0.1328  0.4071 -0.0308
  661TMC3     O 9838   2.696   2.585  12.730  0.6729 -0.1084 -0.3414
  661TMC3     H 9839   2.863   2.722  12.414  0.7005  1.0056 -0.6418
  661TMC3    H1 9840   2.498   2.662  12.630  0.9430 -1.7009  0.4759
  661TMC3    H2 9841   2.472   2.825  12.244  0.4309 -0.6445 -0.7664
  661TMC3    C7 9842   2.340   2.738  12.464 -0.4474 -0.1631 -0.7527
  661TMC3    C8 9843   2.743   2.772  12.183 -0.0896 -0.8303 -0.5919
  661TMC3    O1 9844   2.302   2.778  12.577  0.5376  0.5895  0.2886
  661TMC3    O2 9845   2.852   2.718  12.181  0.3810 -0.2952 -0.0283
  662MPD2     C 9846   3.733   1.540  17.057 -0.2586 -0.7855  0.1090
  662MPD2    C1 9847   3.784   1.584  17.170 -0.1860 -0.2485  0.4738
  662MPD2    C2 9848   3.740   1.705  17.225 -0.6032 -0.0148 -0.0618
  662MPD2    C3 9849   3.646   1.783  17.162  0.4586 -0.0784  0.1157
  662MPD2    C4 9850   3.593   1.737  17.045  0.6851 -0.5384 -0.6466
  662MPD2    C5 9851   3.630   1.612  16.997 -0.6323  0.5121  0.2691
  662MPD2     H 9852   3.783   1.749  17.314 -0.7918 -0.0915  0.0673
  662MPD2    H1 9853   3.517   1.793  16.993  1.1998  0.8227  0.0702
  662MPD2    H2 9854   3.756   1.441  17.018 -2.5636  0.2781 -3.9668
  662MPD2    H3 9855   3.583   1.569  16.910  0.3254 -1.7735  0.8866
  662MPD2     N 9856   3.588   1.902  17.212  0.3699 -0.1819 -0.2836
  662MPD2    H5 9857   3.514   1.944  17.158  0.2320 -0.3229 -0.2053
  662MPD2    N1 9858   3.876   1.511  17.242  0.2058  0.9660  0.3696
  662MPD2    H7 9859   3.893   1.544  17.336 -2.1301  0.2705  1.0274
  663TMC3    C1 9860   4.038   1.346  17.291 -0.2383  0.3096  0.4964
  663TMC3    C2 9861   3.997   1.340  17.419  0.5589 -0.3479  0.1666
  663TMC3    C3 9862   4.067   1.257  17.510 -0.2075 -0.0176  0.1251
  663TMC3    C4 9863   4.137   1.270  17.247 -0.4041 -0.2335  0.1105
  663TMC3    C5 9864   4.184   1.167  17.321  0.0502 -0.4437 -0.1549
  663TMC3    C6 9865   4.164   1.166  17.456  0.0158  0.2749  0.0976
  663TMC3     C 9866   3.939   1.398  17.196  0.4412  0.7989 -0.4093
  663TMC3     O 9867   3.907   1.320  17.108 -0.2966 -0.2123  0.6533
  663TMC3     H 9868   3.910   1.397  17.450 -1.5867 -2.9749 -1.0036
  663TMC3    H1 9869   4.172   1.279  17.145  2.1546  0.5799  1.0685
  663TMC3    H2 9870   4.230   1.120  17.528  1.8249  1.7333 -0.6026
  663TMC3    C7 9871   4.202   1.034  17.256 -0.2467  0.0785 -0.4708
  663TMC3    C8 9872   3.985   1.180  17.596 -0.3218 -0.3248  0.3003
  663TMC3    O1 9873   4.233   1.022  17.138 -0.2127 -0.0933  0.2036
  663TMC3    O2 9874   4.025   1.064  17.609  0.7319  0.7293 -0.5522
  664MPD2     C 9875   1.866   4.735   0.042 -0.5504 -0.2815 -0.1477
  664MPD2    C1 9876   1.939   0.116   0.067 -0.3973 -0.0303 -0.1054
  664MPD2    C2 9877   1.897   0.192   0.179  0.6438  0.4184 -0.2750
  664MPD2    C3 9878   1.811   0.141   0.268 -0.0105  0.5275 -0.7085
  664MPD2    C4 9879   1.737   0.026   0.244 -0.3162 -0.5878  0.1462
  664MPD2    C5 9880   1.776   4.687   0.132  0.2094  0.5920  0.2183
  664MPD2     H 9881   1.942   0.286   0.207 -2.2846  2.8225 -3.6695
  664MPD2    H1 9882   1.658   4.729   0.310 -2.5356 -1.7813 -3.1364
  664MPD2    H2 9883   1.888   4.681  17.690  0.2209  0.2445 -0.2740
  664MPD2    H3 9884   1.723   4.593   0.117  0.2326  0.4182  1.1953
  664MPD2     N 9885   1.787   0.227   0.384 -0.1490 -0.6101  0.1505
  664MPD2    H5 9886   1.844   0.310   0.396 -0.6554 -0.7254  3.2493
  664MPD2    N1 9887   2.043   0.164  17.728 -0.1344 -0.1616  0.1780
  664MPD2    H7 9888   2.092   0.237   0.039  2.3996 -0.6562 -1.5912
  665TMC3    C1 9889   1.710   0.301   0.588 -0.3865  0.1880 -0.4488
  665TMC3    C2 9890   1.603   0.329   0.665  0.4636 -0.4717 -0.1297
  665TMC3    C3 9891   1.617   0.425   0.769  0.4309  0.4672 -0.3808
  665TMC3    C4 9892   1.827   0.366   0.600  0.5662  0.2979  0.3655
  665TMC3    C5 9893   1.835   0.464   0.693 -0.1193 -0.7769 -0.9523
  665TMC3    C6 9894   1.731   0.504   0.774  0.2881 -0.7877  0.0632
  665TMC3     C 9895   1.696   0.203   0.483  0.4229  0.1778 -0.2161
  665TMC3     O 9896   1.598   0.127   0.481 -0.7020 -0.0153  0.1702
  665TMC3     H 9897   1.532   0.250   0.687  1.5725 -1.4945 -0.2873
  665TMC3    H1 9898   1.920   0.332   0.555 -0.8755 -1.2496 -1.4076
  665TMC3    H2 9899   1.728   0.588   0.843  2.4171 -1.3151  0.7986
  665TMC3    C7 9900   1.957   0.547   0.693 -0.0910 -0.1256 -1.0202
  665TMC3    C8 9901   1.516   0.448   0.865 -0.2719  0.1509  0.1186
  665TMC3    O1 9902   2.048   0.510   0.624 -0.2093  0.1475 -0.0788
  665TMC3    O2 9903   1.558   0.500   0.967 -0.1310  0.4023 -0.4737
  666TMC3    C1 9904   1.719   4.586  10.218 -0.2467  0.0409 -0.1787
  666TMC3    C2 9905   1.840   4.577  10.276  0.0593  0.1101  0.6541
  666TMC3    C3 9906   1.886   4.681  10.348 -0.3051  0.6234 -0.3408
  666TMC3    C4 9907   1.647   4.704  10.221 -0.3231  0.0039 -0.4722
  666TMC3    C5 9908   1.700   0.073  10.289  0.0539  0.1451 -0.2843
  666TMC3    C6 9909   1.819   0.064  10.358  0.2147 -0.3842 -0.0693
  666TMC3     C 9910   1.656   4.468  10.161  0.1044  0.7770  1.3956
  666TMC3     O 9911   1.728   4.370  10.139  0.2688  0.6423  0.0210
  666TMC3     H 9912   1.877   4.476  10.275  1.7331  0.6985  4.0838
  666TMC3    H1 9913   1.554   4.718  10.168  0.2025 -1.0238 -1.6547
  666TMC3    H2 9914   1.849   0.137  10.433 -1.1932  0.0751  0.0398
  666TMC3    C7 9915   1.638   0.210  10.260  0.7079  0.2267 -0.3081
  666TMC3    C8 9916   1.980   4.648  10.453 -0.2946 -0.1340  0.6430
  666TMC3    O1 9917   1.519   0.202  10.229 -0.1247 -0.2838  0.8129
  666TMC3    O2 9918   2.007   4.529  10.464 -0.0214 -0.4137  0.3578
  667MPD2     C 9919   3.103   0.130  14.936  0.4910  0.1436 -0.0486
  667MPD2    C1 9920   3.015   0.135  15.038 -0.6971 -0.1290 -0.1277
  667MPD2    C2 9921   2.910   0.043  15.030 -0.8240  0.2729 -0.5809
  667MPD2    C3 9922   2.906   4.676  14.935  0.3797  0.0210 -0.0815
  667MPD2    C4 9923   3.007   4.672  14.842 -0.7964  0.8545 -0.1594
  667MPD2    C5 9924   3.104   0.033  14.841 -0.5794 -0.5530 -0.1994
  667MPD2     H 9925   2.829   0.061  15.100  0.4704 -0.2997  1.0932
  667MPD2    H1 9926   3.007   4.592  14.769 -1.1462  1.2557 -0.5951
  667MPD2    H2 9927   3.191   0.192  14.923  0.9374 -0.4227  0.2977
  667MPD2    H3 9928   3.185   0.040  14.768  0.2771  1.3764  0.9253
  667MPD2     N 9929   2.797   4.595  14.909  0.0518  0.4686  0.1113
  667MPD2    H5 9930   2.793   4.549  14.818 -2.2269 -1.5835  1.2570
  667MPD2    N1 9931   3.017   0.246  15.130 -0.7088 -0.3644  0.0507
  667MPD2    H7 9932   2.939   0.254  15.194 -1.2411  1.9917 -0.8947
  668TMC3    C1 9933   3.076   0.458  15.223 -0.1691 -1.0472  0.1215
  668TMC3    C2 9934   3.132   0.581  15.198 -0.0146  0.3187  0.0442
  668TMC3    C3 9935   3.107   0.680  15.292 -0.0487 -0.1251  0.6023
  668TMC3    C4 9936   2.990   0.440  15.328 -0.0390  0.2948 -0.2285
  668TMC3    C5 9937   2.970   0.533  15.417  0.3595  0.1750  0.3025
  668TMC3    C6 9938   3.029   0.656  15.402 -0.3289  1.0799  0.0432
  668TMC3     C 9939   3.106   0.352  15.124  0.4037 -0.3511 -0.5572
  668TMC3     O 9940   3.208   0.372  15.059  0.2637 -0.7196 -0.2139
  668TMC3     H 9941   3.190   0.605  15.109 -0.4334  2.9118  0.4808
  668TMC3    H1 9942   2.952   0.340  15.345  1.4746 -0.5425 -1.7812
  668TMC3    H2 9943   2.999   0.734  15.471  0.9690  2.9037 -1.4447
  668TMC3    C7 9944   2.885   0.511  15.534  0.3065 -0.1755 -0.4822
  668TMC3    C8 9945   3.093   0.820  15.244  0.6149 -0.1689 -0.5302
  668TMC3    O1 9946   2.883   0.595  15.625 -0.5787  0.4938 -0.1093
  668TMC3    O2 9947   3.024   0.891  15.311 -0.4467  0.5957 -0.3669
  669TMC3    C1 9948   0.672   0.101  14.918  0.0194 -0.8879 -1.0835
  669TMC3    C2 9949   0.606   0.165  14.814  0.5654  0.1330  0.3016
  669TMC3    C3 9950   0.681   0.203  14.702  0.3136 -0.2236 -0.4483
  669TMC3    C4 9951   0.804   0.077  14.915  0.6020  0.3918 -0.0419
  669TMC3    C5 9952   0.877   0.135  14.813  0.3127 -0.2323  0.2184
  669TMC3    C6 9953   0.814   0.190  14.706 -0.1154  0.5038  0.3457
  669TMC3     C 9954   0.598   0.044  15.029 -0.3059 -0.0015  0.5305
  669TMC3     O 9955   0.665   4.705  15.104  0.5321 -0.3048 -0.0272
  669TMC3     H 9956   0.499   0.175  14.823  0.3904 -2.0751  0.5930
  669TMC3    H1 9957   0.847   0.030  15.002 -1.1589  0.6285  0.9620
  669TMC3    H2 9958   0.867   0.242  14.627 -1.3102 -0.3163 -1.0173
  669TMC3    C7 9959   1.021   0.155  14.817  0.5175  0.1744  0.1908
  669TMC3    C8 9960   0.620   0.229  14.569 -0.6254 -0.7365 -0.0967
  669TMC3    O1 9961   1.083   0.181  14.717 -0.3299  0.3777 -0.2022
  669TMC3    O2 9962   0.697   0.235  14.479 -0.1069  0.0816 -0.1860
  670MPD2     C 9963   3.741   2.831  13.949 -0.1640 -0.6594 -0.0115
  670MPD2    C1 9964   3.738   2.740  13.845  0.0996 -0.1485  0.0697
  670MPD2    C2 9965   3.698   2.613  13.883 -0.2701 -0.1689  0.4144
  670MPD2    C3 9966   3.644   2.579  14.007  0.8436  0.0046  0.2940
  670MPD2    C4 9967   3.641   2.679  14.100  0.0128  0.1279 -0.3164
  670MPD2    C5 9968   3.701   2.798  14.075 -0.2913  0.1265  0.2741
  670MPD2     H 9969   3.708   2.531  13.813 -2.3261  0.3473 -0.4860
  670MPD2    H1 9970   3.604   2.668  14.202 -2.3978  0.8492 -1.1235
  670MPD2    H2 9971   3.796   2.923  13.938 -0.3522 -0.4779  0.5692
  670MPD2    H3 9972   3.700   2.876  14.150  0.4309 -0.7152  1.1596
  670MPD2     N 9973   3.617   2.443  14.035  0.0182  0.6285  0.7273
  670MPD2    H5 9974   3.619   2.373  13.961  0.9575  1.9809 -0.5077
  670MPD2    N1 9975   3.785   2.759  13.714  0.8997  0.2064  0.0332
  670MPD2    H7 9976   3.788   2.669  13.667  1.4847 -0.0412  0.5514
  671TMC3    C1 9977   3.585   2.255  14.172 -0.3265  0.2760 -0.6231
  671TMC3    C2 9978   3.641   2.187  14.284 -0.2354  0.5410 -0.3310
  671TMC3    C3 9979   3.673   2.057  14.262 -0.8572  0.5423 -0.9934
  671TMC3    C4 9980   3.556   2.185  14.050 -0.0820 -0.1722 -1.0555
  671TMC3    C5 9981   3.581   2.046  14.044 -0.6265  0.8626  0.1746
  671TMC3    C6 9982   3.638   1.983  14.151  0.0583  0.0456  0.4295
  671TMC3     C 9983   3.603   2.399  14.167 -0.2072  0.0110  0.0753
  671TMC3     O 9984   3.621   2.459  14.273  0.4115  0.1146  0.6174
  671TMC3     H 9985   3.672   2.244  14.371  0.6518  0.1967 -0.4235
  671TMC3    H1 9986   3.504   2.239  13.972 -1.3654 -1.4058 -1.0742
  671TMC3    H2 9987   3.668   1.880  14.139 -0.0173  0.0068  0.5783
  671TMC3    C7 9988   3.581   1.992  13.909 -0.4413 -0.1433 -0.4477
  671TMC3    C8 9989   3.764   2.004  14.356  0.2637 -0.1071  0.0458
  671TMC3    O1 9990   3.554   2.071  13.823 -0.2725 -0.1965  0.1473
  671TMC3    O2 9991   3.752   2.030  14.471 -0.3293 -0.1139 -0.0142
  672MPD2     C 9992   3.672   3.135   1.509  1.0992 -0.1549 -0.0713
  672MPD2    C1 9993   3.640   3.212   1.396 -0.1259 -0.8525  0.1721
  672MPD2    C2 9994   3.709   3.326   1.368 -0.2397 -0.7094  0.1804
  672MPD2    C3 9995   3.802   3.373   1.456  0.6730 -0.4364  0.2109
  672MPD2    C4 9996   3.846   3.290   1.559  0.3921  0.0821 -0.0262
  672MPD2    C5 9997   3.771   3.176   1.590 -0.6202 -0.3639 -0.1622
  672MPD2     H 9998   3.685   3.372   1.274 -0.8059  0.5620  0.9525
  672MPD2    H1 9999   3.929   3.309   1.626 -0.4169  2.4159  0.3087
  672MPD2    H210000   3.617   3.049   1.546  1.9241 -0.5096  0.3452
  672MPD2    H310001   3.794   3.119   1.680  0.0580  0.6206  0.2929
  672MPD2     N10002   3.874   3.491   1.435  0.4305 -0.1650  0.7236
  672MPD2    H510003   3.965   3.504   1.477 -0.1225 -0.1834  1.9214
  672MPD2    N110004   3.549   3.154   1.302 -0.0560  0.7456  0.0294
  672MPD2    H710005   3.507   3.214   1.231  3.0982  1.1619 -1.4869
  673TMC3    C110006   3.403   2.991   1.198  0.4968 -0.1878  0.4131
  673TMC3    C210007   3.351   2.864   1.218  0.3391  0.2087  0.0140
  673TMC3    C310008   3.320   2.784   1.106 -0.1794  0.5616  0.1438
  673TMC3    C410009   3.425   3.041   1.073 -0.2220  0.2196 -0.2652
  673TMC3    C510010   3.404   2.959   0.967 -0.1747 -0.3558  0.5086
  673TMC3    C610011   3.350   2.836   0.977  0.6425 -0.2433 -0.9183
  673TMC3     C10012   3.505   3.019   1.301 -0.0956  0.7711 -0.3079
  673TMC3     O10013   3.538   2.921   1.360 -0.2973 -0.5444  0.6998
  673TMC3     H10014   3.302   2.844   1.312  3.0946 -1.0072  1.2127
  673TMC3    H110015   3.481   3.132   1.056 -0.1883  0.4962  1.3803
  673TMC3    H210016   3.346   2.769   0.891  2.4702 -1.6528  0.0833
  673TMC3    C710017   3.441   3.011   0.830 -0.3243  0.3277 -0.5132
  673TMC3    C810018   3.384   2.660   1.134  0.4348 -0.6376 -0.2219
  673TMC3    O110019   3.453   2.922   0.744  0.0638 -0.3006  0.4330
  673TMC3    O210020   3.344   2.569   1.065  0.1788 -0.2608  0.1713
  674MPD2     C10021   4.308   2.897   0.381 -0.9601  0.7240 -0.4522
  674MPD2    C110022   4.239   2.815   0.301  0.0777  0.3645  0.0834
  674MPD2    C210023   4.108   2.844   0.267  0.1148  0.3189 -0.0822
  674MPD2    C310024   4.054   2.966   0.304  0.0011 -0.7667  0.0500
  674MPD2    C410025   4.119   3.050   0.386 -0.6786  0.3889 -0.4681
  674MPD2    C510026   4.255   3.020   0.419  0.1896 -0.1548 -0.4108
  674MPD2     H10027   4.050   2.764   0.223 -2.5232  1.2767  1.6802
  674MPD2    H110028   4.070   3.144   0.409 -1.7469  0.1226 -1.6276
  674MPD2    H210029   4.412   2.880   0.406 -1.5418 -1.6637  0.3615
  674MPD2    H310030   4.300   3.088   0.490  0.9730 -0.2303 -0.8283
  674MPD2     N10031   3.928   3.003   0.239 -0.7038  0.2130  0.6256
  674MPD2    H510032   3.885   2.922   0.196  0.7118  0.1812 -0.7225
  674MPD2    N110033   4.301   2.689   0.268 -0.3441 -0.5635 -0.3249
  674MPD2    H710034   4.389   2.668   0.313 -0.9408 -0.5449  0.8595
  675TMC3    C110035   4.335   2.472   0.168 -0.0547 -0.6991 -0.3255
  675TMC3    C210036   4.277   2.377   0.082  0.1731 -1.1098  0.3622
  675TMC3    C310037   4.266   2.248   0.118  0.5554 -0.2794  0.2626
  675TMC3    C410038   4.386   2.430   0.285 -0.4499  0.1942  0.4040
  675TMC3    C510039   4.397   2.291   0.305 -0.2279 -0.0266  0.6053
  675TMC3    C610040   4.326   2.196   0.234  0.2728  0.0275 -0.8614
  675TMC3     C10041   4.261   2.591   0.175  0.2427 -0.2013  0.2636
  675TMC3     O10042   4.165   2.586   0.098  0.6535  0.3378 -0.3919
  675TMC3     H10043   4.231   2.395  17.725 -1.5412 -1.1809  1.1751
  675TMC3    H110044   4.417   2.502   0.359 -2.5502  1.3641  0.1597
  675TMC3    H210045   4.312   2.093   0.264  1.3446  0.8757  2.4524
  675TMC3    C710046   4.474   2.247   0.417  0.2973 -0.3398  0.0972
  675TMC3    C810047   4.131   2.192   0.113 -0.6077 -0.0179  0.5066
  675TMC3    O110048   4.521   2.136   0.401  0.0084  0.7856 -0.3448
  675TMC3    O210049   4.101   2.090   0.048  0.5169 -0.2598 -0.4288
  676MPD2     C10050   2.073   1.352  11.236 -0.1775  0.0820  0.1393
  676MPD2    C110051   1.944   1.316  11.275  0.2817  0.1800 -0.0813
  676MPD2    C210052   1.888   1.197  11.235  0.3946 -0.1348  0.0198
  676MPD2    C310053   1.957   1.098  11.172 -0.5526 -0.3639 -0.4214
  676MPD2    C410054   2.085   1.129  11.136  0.2502  0.5665 -0.4115
  676MPD2    C510055   2.140   1.253  11.162 -0.0057  0.7268 -0.8884
  676MPD2     H10056   1.781   1.194  11.253  0.7011  0.2510  1.9003
  676MPD2    H110057   2.140   1.052  11.083 -1.8971 -1.3217  0.1062
  676MPD2    H210058   2.122   1.447  11.258  3.0282 -0.8777 -2.7643
  676MPD2    H310059   2.238   1.265  11.118  0.5591 -0.1483  0.1198
  676MPD2     N10060   1.900   0.976  11.123 -0.0694 -0.5832  0.3146
  676MPD2    H510061   1.964   0.917  11.071  0.2149  0.9790 -1.1039
  676MPD2    N110062   1.862   1.401  11.351 -0.6542 -0.2166  0.0786
  676MPD2    H710063   1.777   1.359  11.387 -0.8369 -0.5786 -0.7873
  677TMC3    C110064   1.801   1.566  11.497 -0.0299 -0.0727  0.4637
  677TMC3    C210065   1.754   1.480  11.598  0.4558  0.1861 -0.2127
  677TMC3    C310066   1.712   1.534  11.712 -0.6671  0.2336  0.4023
  677TMC3    C410067   1.797   1.702  11.516 -0.1535  0.2382  0.3543
  677TMC3    C510068   1.759   1.750  11.643  0.1107 -0.2278 -0.0850
  677TMC3    C610069   1.710   1.666  11.743 -0.4530 -0.1785  0.4854
  677TMC3     C10070   1.887   1.531  11.388 -1.0173 -0.1851 -0.2420
  677TMC3     O10071   1.970   1.611  11.355 -0.2414 -0.3097 -0.0283
  677TMC3     H10072   1.758   1.373  11.581 -0.7325 -0.0750  1.1583
  677TMC3    H110073   1.825   1.771  11.438  0.9745  0.3116  0.8234
  677TMC3    H210074   1.665   1.696  11.837  0.9485 -1.1948  1.4795
  677TMC3    C710075   1.737   1.892  11.666  0.1338 -0.2211 -0.2542
  677TMC3    C810076   1.654   1.446  11.810 -1.1258 -0.0005 -0.4924
  677TMC3    O110077   1.658   1.919  11.754  0.7200  0.7682  0.3129
  677TMC3    O210078   1.668   1.491  11.923  0.1707 -0.0894 -0.4533
  678MPD2     C10079   3.216   1.472   1.555  0.1089  0.4856 -0.3422
  678MPD2    C110080   3.205   1.450   1.419  0.2190  0.0315 -0.5742
  678MPD2    C210081   3.085   1.457   1.351 -0.8655 -0.1638 -0.6040
  678MPD2    C310082   2.971   1.472   1.423  0.6145 -0.5470 -0.7104
  678MPD2    C410083   2.977   1.502   1.555 -0.0862 -1.0817 -0.9371
  678MPD2    C510084   3.099   1.505   1.615 -0.4563 -0.0691 -0.7142
  678MPD2     H10085   3.081   1.428   1.246 -0.3617 -0.9864 -0.3996
  678MPD2    H110086   2.892   1.520   1.619 -0.3799 -1.4583 -1.2287
  678MPD2    H210087   3.307   1.466   1.613 -0.2555 -4.1553 -0.2429
  678MPD2    H310088   3.094   1.516   1.723  1.4093  0.9147 -0.7294
  678MPD2     N10089   2.855   1.457   1.356  0.1584 -0.0660  0.0402
  678MPD2    H510090   2.865   1.457   1.255  1.1751  0.0586  0.1429
  678MPD2    N110091   3.322   1.424   1.345  0.8903  0.0516 -0.8128
  678MPD2    H710092   3.319   1.451   1.247  1.0458  1.6099 -0.3978
  679TMC3    C110093   3.670   1.245   1.156 -0.1866 -0.3507  0.0751
  679TMC3    C210094   3.611   1.262   1.282 -0.3507  0.6256 -0.1331
  679TMC3    C310095   3.550   1.382   1.295  0.3196 -0.1069 -0.7438
  679TMC3    C410096   3.666   1.336   1.059  0.5080  0.2145  0.0177
  679TMC3    C510097   3.594   1.448   1.075  0.0153 -0.3653  0.4122
  679TMC3    C610098   3.542   1.474   1.196  0.0602  0.0996  1.1205
  679TMC3     C10099   3.686   1.112   1.108 -0.1795  0.7155 -1.1457
  679TMC3     O10100   3.746   1.084   1.005  0.1791  0.9809  0.4836
  679TMC3     H10101   3.609   1.182   1.355  2.4382 -0.3353 -1.0975
  679TMC3    H110102   3.711   1.309   0.964  1.5483 -0.8730  0.8077
  679TMC3    H210103   3.492   1.569   1.215  1.9483  1.1365  0.9473
  679TMC3    C710104   3.537   1.508   0.963  0.0518 -0.0232  0.2251
  679TMC3    C810105   3.438   1.375   1.392  0.0520  0.4592  0.1679
  679TMC3    O110106   3.546   1.432   0.869 -0.1015  0.4031  0.2960
  679TMC3    O210107   3.447   1.297   1.486  0.5913  0.3039 -0.9923
  680MPD2     C10108   4.660   4.350  13.793  0.2223  0.0893  0.0179
  680MPD2    C110109   4.526   4.368  13.752 -0.1625  0.6346  0.2211
  680MPD2    C210110   4.458   4.481  13.780 -0.0129  0.6910  0.8071
  680MPD2    C310111   4.529   4.587  13.841 -0.1447  0.1583 -0.7000
  680MPD2    C410112   4.664   4.577  13.872 -0.3630 -0.2989  0.0757
  680MPD2    C510113   4.731   4.457  13.848 -0.1606 -0.0317 -0.0782
  680MPD2     H10114   4.355   4.491  13.750  0.5372  1.0618 -0.9552
  680MPD2    H110115   4.716   4.666  13.907  1.4381 -0.8253 -1.2981
  680MPD2    H210116   4.717   4.259  13.778 -2.6994 -2.2113  2.9131
  680MPD2    H310117   0.100   4.441  13.872  0.0022  0.8851 -0.1633
  680MPD2     N10118   4.464   4.714  13.870 -0.2322 -0.1676  0.3368
  680MPD2    H510119   4.518   0.057  13.906  1.0658 -1.5783  1.4432
  680MPD2    N110120   4.457   4.276  13.674 -0.6032 -0.0042 -0.1218
  680MPD2    H710121   4.364   4.303  13.645 -0.9178  0.0511  0.9337
  681TMC3    C110122   4.415   4.102  13.531 -0.1860 -0.3873 -0.5123
  681TMC3    C210123   4.287   4.151  13.540 -0.3082  0.7952  0.2583
  681TMC3    C310124   4.200   4.110  13.440 -0.5512  0.2123 -0.2842
  681TMC3    C410125   4.461   4.019  13.438  0.5601 -0.3292 -0.6628
  681TMC3    C510126   4.374   3.991  13.339  0.0923 -0.2731 -0.0596
  681TMC3    C610127   4.246   4.034  13.337  0.3430  0.1161 -0.5930
  681TMC3     C10128   4.510   4.162  13.623  0.4542  0.3670 -0.5050
  681TMC3     O10129   4.621   4.109  13.642  0.0226  0.4576 -0.3500
  681TMC3     H10130   4.238   4.181  13.632 -0.8367  0.2258  0.1632
  681TMC3    H110131   4.568   4.009  13.427  0.6386 -0.8041  0.5794
  681TMC3    H210132   4.181   4.022  13.251 -0.3922  0.8883 -0.1438
  681TMC3    C710133   4.426   3.911  13.232 -0.2787 -0.2717  0.7028
  681TMC3    C810134   4.062   4.144  13.450 -0.4366  0.4352 -0.0300
  681TMC3    O110135   4.492   3.814  13.265  0.6811 -0.5774  0.5140
  681TMC3    O210136   3.973   4.071  13.409  0.2071 -0.1876 -0.3053
  682MPD2     C10137   0.780   1.274  10.406  0.8198  0.0037 -0.3218
  682MPD2    C110138   0.780   1.146  10.458 -0.6125  0.4435  0.1503
  682MPD2    C210139   0.717   1.117  10.576 -0.6094  0.9894  0.2120
  682MPD2    C310140   0.656   1.221  10.647  0.2868 -0.0205 -0.6391
  682MPD2    C410141   0.657   1.349  10.591 -0.3660  1.0184  0.0489
  682MPD2    C510142   0.725   1.374  10.474  0.3674  0.6644 -0.6030
  682MPD2     H10143   0.702   1.016  10.613  0.6303  0.3627 -1.0049
  682MPD2    H110144   0.609   1.434  10.638  0.5979  0.8344  1.3471
  682MPD2    H210145   0.807   1.296  10.303  0.7016  3.3314  0.3581
  682MPD2    H310146   0.714   1.477  10.443  0.6170  0.2186 -2.1741
  682MPD2     N10147   0.578   1.208  10.759 -0.0944 -0.2847 -0.1150
  682MPD2    H510148   0.530   1.292  10.789 -2.8426 -2.1735  0.8170
  682MPD2    N110149   0.849   1.041  10.389 -0.4569  0.4080  0.3804
  682MPD2    H710150   0.825   0.946  10.416 -1.7811  0.8174  0.6628
  683TMC3    C110151   0.434   1.180  11.138  0.3032  0.1131 -0.1073
  683TMC3    C210152   0.352   1.084  11.178  0.1163  0.1266 -0.1164
  683TMC3    C310153   0.310   0.995  11.080  0.1893  0.5696 -0.0561
  683TMC3    C410154   0.479   1.196  11.014 -0.6199  0.1633  0.6731
  683TMC3    C510155   0.443   1.102  10.925 -0.2780  0.2081 -0.3684
  683TMC3    C610156   0.347   1.005  10.950  0.1891 -0.1745  0.0714
  683TMC3     C10157   0.510   1.247  11.238 -0.0262  0.3167  0.1195
  683TMC3     O10158   0.570   1.346  11.201 -0.5754  0.1573 -0.2952
  683TMC3     H10159   0.305   1.081  11.276  1.6751 -3.4440  0.5473
  683TMC3    H110160   0.567   1.260  11.013  0.6580 -1.6065  0.8087
  683TMC3    H210161   0.336   0.932  10.871 -0.4445  1.2390 -1.1601
  683TMC3    C710162   0.536   1.083  10.814  0.2074 -0.0413  0.3549
  683TMC3    C810163   0.202   0.903  11.093 -0.1444  0.9514  0.2609
  683TMC3    O110164   0.563   0.969  10.784 -0.2431  0.0714 -0.2020
  683TMC3    O210165   0.135   0.877  10.994  0.0183 -0.2632 -0.2732
  684MPD2     C10166   3.926   0.587  16.517 -0.1565 -0.1022  0.4921
  684MPD2    C110167   3.877   0.604  16.390 -0.2815  0.0870  0.5518
  684MPD2    C210168   3.843   0.732  16.356 -0.4169  0.8506 -0.3893
  684MPD2    C310169   3.877   0.839  16.432 -0.5915  0.7040  0.0827
  684MPD2    C410170   3.947   0.817  16.548 -0.1071  0.0071  0.3751
  684MPD2    C510171   3.965   0.692  16.598 -0.8334  0.4161 -0.1510
  684MPD2     H10172   3.787   0.749  16.265  0.6372 -0.6472 -1.3103
  684MPD2    H110173   3.987   0.900  16.604 -1.1260 -0.0061  1.1277
  684MPD2    H210174   3.946   0.488  16.556 -0.8505 -0.1826  0.6584
  684MPD2    H310175   4.011   0.670  16.694 -0.0378 -0.9612 -0.8454
  684MPD2     N10176   3.865   0.972  16.394  0.3051  0.9786  0.3936
  684MPD2    H510177   3.916   1.033  16.457  2.1933 -0.2556  0.0849
  684MPD2    N110178   3.853   0.499  16.301  0.8563  0.5967  0.2101
  684MPD2    H710179   3.806   0.516  16.212  1.8271 -0.7056 -0.5408
  685TMC3    C110180   3.880   0.292  16.191 -0.4289 -0.5720 -0.3038
  685TMC3    C210181   3.776   0.325  16.112  0.2885  0.9447  0.2029
  685TMC3    C310182   3.790   0.299  15.977 -0.1466 -0.3143  0.0331
  685TMC3    C410183   3.990   0.219  16.152  0.1435  0.4923 -0.0462
  685TMC3    C510184   3.998   0.178  16.023 -0.0326 -0.3529  0.0400
  685TMC3    C610185   3.896   0.222  15.942 -0.6305 -0.2991 -0.3222
  685TMC3     C10186   3.899   0.368  16.312  0.0123 -0.4603 -0.0232
  685TMC3     O10187   3.965   0.326  16.406  0.3374 -0.2930 -0.1060
  685TMC3     H10188   3.691   0.381  16.149  0.3926  1.8939 -0.9717
  685TMC3    H110189   4.072   0.201  16.220  0.1690  1.3089  0.1355
  685TMC3    H210190   3.917   0.219  15.836  1.8643 -1.2402  0.2030
  685TMC3    C710191   4.123   0.149  15.964  0.7260  0.2031 -0.1826
  685TMC3    C810192   3.682   0.320  15.880 -0.1731  0.6251  0.2706
  685TMC3    O110193   4.136   0.059  15.881 -0.1866  0.2163 -0.0933
  685TMC3    O210194   3.695   0.266  15.774  0.7825 -0.1212  0.4618
  686MPD2     C10195   0.700   0.256  15.420  0.2094  0.1579 -0.3780
  686MPD2    C110196   0.717   0.233  15.555 -0.4487  0.4035 -0.1754
  686MPD2    C210197   0.799   0.125  15.586 -0.3356  0.3493 -0.4066
  686MPD2    C310198   0.862   0.049  15.491  0.0656 -0.0154  0.2674
  686MPD2    C410199   0.851   0.088  15.365 -0.1859  0.2160 -0.1735
  686MPD2    C510200   0.773   0.198  15.332 -0.3276  0.0493  0.1039
  686MPD2     H10201   0.796   0.100  15.691  2.1048  0.6477 -0.2624
  686MPD2    H110202   0.908   0.039  15.287  0.7227  3.1139 -1.3138
  686MPD2    H210203   0.632   0.325  15.372 -0.3181 -0.0224  0.1036
  686MPD2    H310204   0.768   0.225  15.227  2.6909  2.5764  0.6074
  686MPD2     N10205   0.928   4.665  15.515 -0.5238  0.3218 -0.3673
  686MPD2    H510206   0.983   4.630  15.437 -0.2238  0.4711 -0.2264
  686MPD2    N110207   0.641   0.306  15.649  0.2692 -0.0786 -0.2688
  686MPD2    H710208   0.560   0.356  15.612 -0.6966 -2.2311 -1.0624
  687TMC3    C110209   0.830   4.606  15.737  0.5321 -0.7008 -0.1737
  687TMC3    C210210   0.695   4.617  15.703 -0.6598  0.0975 -0.4850
  687TMC3    C310211   0.618   4.641  15.819 -0.1031  0.5070 -0.2617
  687TMC3    C410212   0.879   4.610  15.865 -0.7234 -0.1370  0.5965
  687TMC3    C510213   0.787   4.638  15.967  0.0394  0.3638 -0.1123
  687TMC3    C610214   0.652   4.654  15.945 -0.0479 -0.3528 -0.9400
  687TMC3     C10215   0.939   4.592  15.634  1.1229 -0.7601  0.2099
  687TMC3     O10216   1.026   4.511  15.665  0.2015 -0.1843 -0.1616
  687TMC3     H10217   0.650   4.591  15.607 -1.1850  1.4206 -0.5966
  687TMC3    H110218   0.985   4.599  15.883 -0.4845  1.3880  0.1677
  687TMC3    H210219   0.584   4.659  16.030 -0.1858 -0.3660 -1.0495
  687TMC3    C710220   0.834   4.668  16.102  0.7857 -0.0551  0.3387
  687TMC3    C810221   0.480   4.683  15.786 -0.3111 -0.2567 -0.6347
  687TMC3    O110222   0.769   0.013  16.169 -0.4134  0.2623  0.4067
  687TMC3    O210223   0.401   4.659  15.876 -0.1219  0.0966 -0.1612
  688MPD2     C10224   4.297   4.118  17.310  0.2165  0.3618  0.0926
  688MPD2    C110225   4.346   4.010  17.380 -0.6742  0.3310 -0.0840
  688MPD2    C210226   4.437   3.920  17.317 -0.2957  0.6505  0.0797
  688MPD2    C310227   4.479   3.955  17.189 -0.7744 -0.0449 -0.4638
  688MPD2    C410228   4.424   4.060  17.125  0.1912  0.5003 -0.3657
  688MPD2    C510229   4.333   4.141  17.181  0.2163 -0.1511 -1.1469
  688MPD2     H10230   4.486   3.835  17.363 -0.0640  1.5997  1.5604
  688MPD2    H110231   4.469   4.085  17.029 -0.3297  1.5170 -0.3445
  688MPD2    H210232   4.215   4.180  17.346  0.3681  0.9365 -0.5371
  688MPD2    H310233   4.288   4.224  17.128 -1.1023 -0.3480 -0.3342
  688MPD2     N10234   4.581   3.895  17.119 -0.1020  0.1841 -0.0048
  688MPD2    H510235   4.589   3.927  17.023  1.2429 -0.5601 -0.1260
  688MPD2    N110236   4.300   3.976  17.508  0.2655  0.1539 -0.3409
  688MPD2    H710237   4.337   3.890  17.546  3.0598  0.9212 -1.3219
  689TMC3    C110238   4.186   3.998  17.710 -0.2714 -0.5189  0.4441
  689TMC3    C210239   4.172   4.080   0.082  0.0365 -0.2476  0.3977
  689TMC3    C310240   4.160   4.029   0.210 -0.3957  0.8989 -0.4802
  689TMC3    C410241   4.190   3.862  17.737  0.0764 -0.1445  1.2373
  689TMC3    C510242   4.168   3.818   0.121  0.2610 -0.6242  0.8624
  689TMC3    C610243   4.150   3.894   0.230  0.1001 -0.2425 -0.3981
  689TMC3     C10244   4.231   4.061  17.591  0.6056  0.4492  0.4722
  689TMC3     O10245   4.208   4.181  17.582  0.4103  0.5269 -0.0182
  689TMC3     H10246   4.189   4.187   0.074  0.1033 -0.3978 -1.3389
  689TMC3    H110247   4.215   3.793  17.657 -0.0986  2.6439 -1.2437
  689TMC3    H210248   4.115   3.860   0.327 -0.3180  1.1029 -0.0859
  689TMC3    C710249   4.194   3.680   0.160 -1.1355 -0.1782 -0.1042
  689TMC3    C810250   4.148   4.119   0.320  0.2616  0.8155 -0.1286
  689TMC3    O110251   4.242   3.649   0.265  0.4303  0.2571  0.2125
  689TMC3    O210252   4.072   4.089   0.410 -0.6163  0.1182  0.5305
  690MPD2     C10253   2.205   1.330  15.997  0.8338  0.0068 -0.2663
  690MPD2    C110254   2.116   1.297  15.894  0.1394  0.3113  0.3227
  690MPD2    C210255   2.154   1.330  15.767 -0.6956 -0.4051  0.2944
  690MPD2    C310256   2.275   1.395  15.739 -0.1989 -0.5079  0.2011
  690MPD2    C410257   2.363   1.408  15.848  0.1475 -0.1360  0.1034
  690MPD2    C510258   2.329   1.371  15.975 -0.2434  0.2711 -0.6945
  690MPD2     H10259   2.084   1.309  15.687  1.5334  2.2493 -2.3410
  690MPD2    H110260   2.464   1.447  15.842 -0.0606  0.6302  1.4713
  690MPD2    H210261   2.179   1.321  16.102 -0.6829 -1.0881 -0.7437
  690MPD2    H310262   2.396   1.398  16.056 -3.2241  1.7957  1.3021
  690MPD2     N10263   2.310   1.426  15.601 -0.4232  1.1028  0.1989
  690MPD2    H510264   2.248   1.398  15.526 -0.5337  0.2334  0.6142
  690MPD2    N110265   1.995   1.226  15.918 -0.0355  0.0681  0.0371
  690MPD2    H710266   1.942   1.207  15.834  1.3178  0.6033 -0.9487
  691TMC3    C110267   1.860   1.077  16.018  0.2822  0.4126  0.5047
  691TMC3    C210268   1.779   1.079  15.908  0.6240 -0.8652 -0.2475
  691TMC3    C310269   1.728   0.961  15.862  0.5174  0.0138 -0.7822
  691TMC3    C410270   1.890   0.962  16.086  0.2153  0.1338  0.7457
  691TMC3    C510271   1.833   0.844  16.034 -0.1887  0.2211  0.6047
  691TMC3    C610272   1.771   0.843  15.918 -0.2993  0.0996  0.3230
  691TMC3     C10273   1.954   1.184  16.042  0.6383 -0.0576 -0.0240
  691TMC3     O10274   1.986   1.198  16.161 -0.3548 -0.6690 -0.1210
  691TMC3     H10275   1.754   1.172  15.859  0.5244 -1.0187 -0.4885
  691TMC3    H110276   1.962   0.967  16.167 -0.4644 -3.6159  1.5691
  691TMC3    H210277   1.737   0.751  15.872 -1.2938 -0.3928  2.0124
  691TMC3    C710278   1.882   0.710  16.084 -0.3040 -0.6437 -0.5106
  691TMC3    C810279   1.631   0.959  15.753 -0.0158  0.1055  0.3813
  691TMC3    O110280   1.976   0.718  16.162  0.1270 -0.3767 -0.1483
  691TMC3    O210281   1.622   0.851  15.695  0.0230  0.3666 -0.8098
  692TMC3    C110282   3.377   2.304  15.785  0.1925 -1.3666 -0.1553
  692TMC3    C210283   3.484   2.346  15.863  0.5518  0.0902 -0.6839
  692TMC3    C310284   3.576   2.249  15.906  0.1025 -0.1669  0.1940
  692TMC3    C410285   3.353   2.175  15.758  0.9068 -0.4129 -0.6336
  692TMC3    C510286   3.443   2.077  15.800  0.7025  0.2899 -0.2751
  692TMC3    C610287   3.550   2.116  15.870 -0.1483  0.5184 -0.3583
  692TMC3     C10288   3.256   2.388  15.790  0.3488  0.3275  0.7484
  692TMC3     O10289   3.145   2.336  15.776 -0.4207  0.3097  0.0750
  692TMC3     H10290   3.500   2.451  15.884  1.1588 -0.5887  2.2726
  692TMC3    H110291   3.269   2.149  15.696  0.9550 -0.1510 -0.8111
  692TMC3    H210292   3.605   2.041  15.926  1.0215  0.8385 -1.0860
  692TMC3    C710293   3.386   1.945  15.831 -0.1150 -0.6154 -0.0073
  692TMC3    C810294   3.638   2.269  16.040 -0.5340 -0.5556  0.0849
  692TMC3    O110295   3.265   1.931  15.813 -0.3271  0.3515  0.7206
  692TMC3    O210296   3.670   2.171  16.108 -0.2987  0.2027  0.5568
  693MPD2     C10297   3.136   0.342  10.616  0.6168 -0.3405 -0.3698
  693MPD2    C110298   3.096   0.339  10.747 -1.4282  0.1810 -0.4787
  693MPD2    C210299   3.186   0.356  10.847 -0.1772 -0.0579 -0.1853
  693MPD2    C310300   3.319   0.368  10.816  0.2899  0.7018  0.2806
  693MPD2    C410301   3.359   0.362  10.687  0.0471 -0.2598  0.2674
  693MPD2    C510302   3.267   0.361  10.587  0.3319 -0.2489 -0.2514
  693MPD2     H10303   3.155   0.372  10.950 -1.2786 -1.7360 -0.2632
  693MPD2    H110304   3.463   0.361  10.656  0.2745 -0.4337  1.0328
  693MPD2    H210305   3.063   0.345  10.536 -2.6005 -1.8487  2.4828
  693MPD2    H310306   3.296   0.373  10.483 -1.1421 -2.3531 -0.9294
  693MPD2     N10307   3.425   0.363  10.911  0.0336  0.3481 -0.0223
  693MPD2    H510308   3.518   0.351  10.872 -0.5472 -0.7569 -1.0752
  693MPD2    N110309   2.966   0.302  10.786 -0.0986 -0.2324 -0.1448
  693MPD2    H710310   2.941   0.313  10.884 -0.1293  0.1267 -0.1930
  694TMC3    C110311   2.752   0.192  10.773 -0.2536  0.5082 -0.3055
  694TMC3    C210312   2.705   0.071  10.718  0.4994  0.6949 -0.1325
  694TMC3    C310313   2.639   4.734  10.808  0.2930 -0.6856 -0.4036
  694TMC3    C410314   2.733   0.232  10.901  0.1802  0.2714  0.5794
  694TMC3    C510315   2.668   0.143  10.988 -0.0156  0.2597 -0.5828
  694TMC3    C610316   2.616   0.027  10.942 -0.9421 -0.0022  0.3841
  694TMC3     C10317   2.872   0.243  10.701  0.6967  0.1258  0.6033
  694TMC3     O10318   2.886   0.214  10.584 -0.5226  0.0722  0.0457
  694TMC3     H10319   2.720   0.038  10.616  1.7779 -0.4147  0.4080
  694TMC3    H110320   2.775   0.326  10.935 -1.1749  0.1087  2.7506
  694TMC3    H210321   2.572   4.692  11.013 -0.2958  1.1794  1.9709
  694TMC3    C710322   2.725   0.143  11.121  0.2121  0.1486  0.6552
  694TMC3    C810323   2.575   4.603  10.769  0.1274 -0.7103  0.5634
  694TMC3    O110324   2.740   0.245  11.186 -0.3790  0.3789 -0.0238
  694TMC3    O210325   2.559   4.519  10.857  0.0014 -0.8266  0.8443
  695MPD2     C10326   4.546   1.972  13.438  0.0479 -1.0763 -0.2524
  695MPD2    C110327   4.439   1.946  13.527  0.1726  0.3812  0.0432
  695MPD2    C210328   4.312   1.967  13.473 -0.1741 -0.3827  0.1171
  695MPD2    C310329   4.289   2.021  13.348 -0.0306  0.3612 -0.0064
  695MPD2    C410330   4.393   2.064  13.277 -0.5075 -0.2146 -0.9157
  695MPD2    C510331   4.523   2.041  13.322 -0.7579  0.3217  0.3066
  695MPD2     H10332   4.229   1.929  13.531 -0.7697  1.5124  0.5257
  695MPD2    H110333   4.391   2.120  13.184 -0.3449 -1.2263 -1.5264
  695MPD2    H210334   4.649   1.954  13.465  0.1767 -1.3204 -0.8896
  695MPD2    H310335   4.599   2.089  13.262  1.2280 -1.6715  1.2051
  695MPD2     N10336   4.155   2.044  13.312  0.4818  0.2482  0.2164
  695MPD2    H510337   4.082   2.003  13.368  0.3089  1.5258  0.9291
  695MPD2    N110338   4.451   1.876  13.643 -0.8051  0.4003  0.3851
  695MPD2    H710339   4.364   1.872  13.695 -1.0336 -0.8247 -0.1018
  696TMC3    C110340   3.965   2.131  13.195  0.6753  0.2257 -0.5364
  696TMC3    C210341   3.888   2.044  13.262 -0.3895 -0.7351 -0.6862
  696TMC3    C310342   3.768   2.085  13.308  0.4462  0.8199  0.1732
  696TMC3    C410343   3.915   2.248  13.155  0.1385  0.1821 -0.1513
  696TMC3    C510344   3.786   2.281  13.194 -0.0941  0.1635 -0.2273
  696TMC3    C610345   3.707   2.200  13.270  0.5739 -0.1661 -0.1716
  696TMC3     C10346   4.114   2.121  13.208 -0.2125  0.6894  0.3758
  696TMC3     O10347   4.182   2.194  13.137  0.3917  0.4934 -0.8503
  696TMC3     H10348   3.920   1.949  13.303 -0.3822 -0.3935  0.0986
  696TMC3    H110349   3.976   2.319  13.100  1.7463  0.2468  1.6929
  696TMC3    H210350   3.603   2.230  13.281  0.4500  0.1011 -2.0592
  696TMC3    C710351   3.756   2.426  13.188 -0.1076  0.8065 -0.1385
  696TMC3    C810352   3.704   2.009  13.408  0.4477  0.2813  0.0591
  696TMC3    O110353   3.829   2.484  13.105  0.2101  0.7257  0.0876
  696TMC3    O210354   3.604   2.064  13.457  0.0698 -0.1407 -0.4135
  697MPD2     C10355   3.103   3.660  15.979  0.2009  0.1574 -0.5585
  697MPD2    C110356   3.132   3.581  15.879 -0.0839  0.6598 -0.7331
  697MPD2    C210357   3.209   3.624  15.778 -0.4276  0.0152 -0.2729
  697MPD2    C310358   3.245   3.762  15.769  0.4410 -0.4259 -0.8349
  697MPD2    C410359   3.206   3.846  15.879 -0.6746 -0.6272 -0.2717
  697MPD2    C510360   3.125   3.793  15.983  0.0905  0.6935  0.3017
  697MPD2     H10361   3.241   3.555  15.701 -0.2124  0.7499 -0.8401
  697MPD2    H110362   3.237   3.948  15.898  1.2430 -1.5094  1.2854
  697MPD2    H210363   3.053   3.625  16.069  1.4632 -1.0911 -0.3302
  697MPD2    H310364   3.105   3.855  16.069  2.7632  2.7309 -0.5425
  697MPD2     N10365   3.328   3.802  15.662 -0.4596 -0.1479 -0.4428
  697MPD2    H510366   3.361   3.730  15.597 -1.2574 -1.3694  0.5071
  697MPD2    N110367   3.087   3.451  15.875  0.2843  0.0613  0.1057
  697MPD2    H710368   3.104   3.405  15.786 -1.8492  0.1579 -0.3532
  698TMC3    C110369   3.443   3.940  15.516  0.0905 -0.0069  0.4644
  698TMC3    C210370   3.512   4.053  15.498  0.1169  0.3048 -0.2870
  698TMC3    C310371   3.598   4.061  15.382  0.3584  0.0638 -0.4610
  698TMC3    C410372   3.425   3.840  15.421  0.0185  0.1634  0.5629
  698TMC3    C510373   3.481   3.870  15.300 -0.4400  0.6296  0.0733
  698TMC3    C610374   3.571   3.972  15.285 -0.4849  0.2092 -0.5134
  698TMC3     C10375   3.382   3.923  15.649 -0.1133 -0.0616 -0.0035
  698TMC3     O10376   3.370   4.021  15.725 -0.6564  0.5020  0.3343
  698TMC3     H10377   3.520   4.126  15.578  1.7293 -1.4473  1.1501
  698TMC3    H110378   3.350   3.761  15.423 -3.3138  3.2564 -1.1765
  698TMC3    H210379   3.597   4.001  15.184  0.3598  1.8035  0.1558
  698TMC3    C710380   3.411   3.850  15.176 -0.1306 -0.3229  0.2000
  698TMC3    C810381   3.626   4.196  15.337  0.1199 -0.0948  0.3468
  698TMC3    O110382   3.403   3.946  15.103 -0.0810  0.1939 -0.3467
  698TMC3    O210383   3.745   4.230  15.332  0.5835  0.0476  0.6264
  699TMC3    C110384   2.996   2.371  13.214 -0.3929  0.0755  0.2549
  699TMC3    C210385   2.995   2.240  13.233 -0.6548 -0.5811 -0.1581
  699TMC3    C310386   2.961   2.195  13.360  0.3303  0.0721 -0.7878
  699TMC3    C410387   2.952   2.459  13.313  0.3657  0.2271 -0.1290
  699TMC3    C510388   2.894   2.404  13.423  0.9027  0.6162  0.0141
  699TMC3    C610389   2.900   2.274  13.457 -0.2712 -0.5043  0.1695
  699TMC3     C10390   2.997   2.424  13.077 -0.6957 -0.2542  0.2738
  699TMC3     O10391   2.951   2.537  13.062  0.2319 -0.5331  0.4167
  699TMC3     H10392   3.039   2.166  13.168  0.7610  0.9637 -0.9566
  699TMC3    H110393   2.978   2.564  13.305 -0.8506  0.3456 -2.7137
  699TMC3    H210394   2.861   2.221  13.543  0.9107 -1.2526  0.2480
  699TMC3    C710395   2.805   2.480  13.504 -0.3774  0.2343  0.2168
  699TMC3    C810396   2.982   2.059  13.399 -0.0999 -0.2506 -0.4700
  699TMC3    O110397   2.745   2.423  13.595 -0.5208  0.1813  0.3135
  699TMC3    O210398   2.894   1.990  13.447  0.5142  0.0386  0.4608
  700TMC3    C110399   2.133   4.355  17.544 -0.4438 -0.6965  0.2688
  700TMC3    C210400   2.220   4.254  17.516 -0.2029  0.1733 -0.0237
  700TMC3    C310401   2.331   4.232  17.593  0.3531 -0.4279 -0.6137
  700TMC3    C410402   2.164   4.444  17.645  0.7310 -0.3833  0.3990
  700TMC3    C510403   2.286   4.437  17.710 -0.5407  0.6300  0.2738
  700TMC3    C610404   2.363   4.318  17.696 -0.1368  0.0675 -0.5550
  700TMC3     C10405   2.082   4.418  17.427  0.6941 -0.5141  0.0177
  700TMC3     O10406   1.963   4.444  17.424  0.5933 -0.3340 -0.2859
  700TMC3     H10407   2.198   4.194  17.428  0.3329 -0.6014  0.3646
  700TMC3    H110408   2.114   4.540  17.647  1.5851  0.0742 -0.0732
  700TMC3    H210409   2.461   4.316   0.003 -0.9660 -1.2346  1.1778
  700TMC3    C710410   2.344   4.559   0.029  0.3779  0.0802  0.1124
  700TMC3    C810411   2.421   4.118  17.561 -0.1666 -0.0232 -0.1115
  700TMC3    O110412   2.265   4.636   0.076  0.3728 -0.5553 -0.0064
  700TMC3    O210413   2.535   4.122  17.607 -0.7466  0.0002 -0.1728
  701TMC3    C110414   2.368   3.057  15.841 -0.7604  0.3080  0.3981
  701TMC3    C210415   2.407   2.991  15.725  0.6845  0.2739  0.0892
  701TMC3    C310416   2.498   3.060  15.646 -0.5688  0.9443  0.1454
  701TMC3    C410417   2.416   3.179  15.878 -0.0659  0.1806  0.2475
  701TMC3    C510418   2.487   3.249  15.786  0.4482  0.0333  0.1344
  701TMC3    C610419   2.533   3.189  15.674  0.4045  0.1219  0.0234
  701TMC3     C10420   2.258   3.010  15.929 -0.8346  0.0230  0.4468
  701TMC3     O10421   2.259   3.054  16.044  0.2720  0.3205 -0.1892
  701TMC3     H10422   2.374   2.890  15.702 -0.6850  0.7633 -0.1149
  701TMC3    H110423   2.381   3.228  15.968 -1.6433  0.6562 -0.6307
  701TMC3    H210424   2.587   3.244  15.598 -0.5643 -0.5804 -1.1799
  701TMC3    C710425   2.557   3.376  15.817 -0.1597  0.3818 -0.3165
  701TMC3    C810426   2.538   3.020  15.506 -0.1719 -0.4510  0.1314
  701TMC3    O110427   2.606   3.446  15.732 -0.2110 -0.4778 -0.5206
  701TMC3    O210428   2.653   3.049  15.474  0.0742 -0.1976 -0.5510
  702MPD2     C10429   2.145   0.616  10.688  0.7336 -0.3905 -0.1930
  702MPD2    C110430   2.022   0.679  10.674 -0.5690 -0.2545 -0.4260
  702MPD2    C210431   2.007   0.787  10.587  0.4587  0.0514  0.2650
  702MPD2    C310432   2.104   0.824  10.502 -0.0003  0.3041  0.1212
  702MPD2    C410433   2.225   0.761  10.513 -0.5537 -0.1191 -0.9609
  702MPD2    C510434   2.239   0.662  10.609  0.0372  0.1125 -0.1928
  702MPD2     H10435   1.913   0.841  10.593 -0.1464 -0.9418 -0.3054
  702MPD2    H110436   2.315   0.779  10.454  2.2968 -1.6982  2.9013
  702MPD2    H210437   2.170   0.540  10.761  0.2116 -0.7683 -0.4132
  702MPD2    H310438   2.335   0.612  10.614  0.4706  1.0536  0.8612
  702MPD2     N10439   2.086   0.931  10.416  0.1882  0.0660 -0.1863
  702MPD2    H510440   2.167   0.978  10.376  0.2156 -0.4495 -0.7457
  702MPD2    N110441   1.919   0.651  10.766  0.1534  0.0282 -0.4999
  702MPD2    H710442   1.849   0.725  10.763  1.5859  1.4474  0.8683
  703TMC3    C110443   1.977   1.111  10.317  0.1138  0.3680 -0.3465
  703TMC3    C210444   1.870   1.193  10.330 -0.2568  1.3735  0.5431
  703TMC3    C310445   1.864   1.305  10.251  0.5089 -0.2765  0.2960
  703TMC3    C410446   2.080   1.138  10.222  0.2457  0.7908  0.2866
  703TMC3    C510447   2.077   1.257  10.154  0.8859 -0.5648  0.1589
  703TMC3    C610448   1.967   1.344  10.167  0.6723  0.4062  0.2335
  703TMC3     C10449   1.965   0.988  10.383  0.3189  0.2021  0.1658
  703TMC3     O10450   1.852   0.941  10.404  0.1906 -0.0014  0.0002
  703TMC3     H10451   1.786   1.169  10.394 -0.6616  0.3413 -0.3791
  703TMC3    H110452   2.151   1.060  10.196 -1.4535 -0.3716 -0.8735
  703TMC3    H210453   1.967   1.430  10.102  1.5021  0.1173 -0.1534
  703TMC3    C710454   2.199   1.298  10.088  0.1348  0.3952 -0.4235
  703TMC3    C810455   1.769   1.405  10.280 -0.2047 -0.8734  0.5070
  703TMC3    O110456   2.306   1.262  10.126 -0.0468  0.1069  0.1424
  703TMC3    O210457   1.793   1.519  10.243 -0.0278  0.4265 -0.1509
  704TMC3    C110458   3.694   3.077  12.442  0.5736 -0.1340 -0.0710
  704TMC3    C210459   3.718   3.008  12.330 -0.2395 -0.2795 -0.1188
  704TMC3    C310460   3.770   2.885  12.344  0.7840 -0.0952 -0.0890
  704TMC3    C410461   3.726   3.036  12.568 -0.3437 -0.5426 -0.0899
  704TMC3    C510462   3.783   2.910  12.576 -0.8748 -0.1881  0.0429
  704TMC3    C610463   3.789   2.825  12.466 -0.1137 -0.0464 -0.0740
  704TMC3     C10464   3.625   3.202  12.432  0.1344  0.0831  0.0514
  704TMC3     O10465   3.569   3.249  12.527  0.9816  0.0257  0.5887
  704TMC3     H10466   3.676   3.030  12.233  0.3441 -1.5807 -0.6588
  704TMC3    H110467   3.693   3.094  12.654 -1.4049 -3.5614  1.5467
  704TMC3    H210468   3.846   2.733  12.478 -0.5437 -0.1920  0.8659
  704TMC3    C710469   3.883   2.889  12.678 -0.2929  0.1362 -0.3906
  704TMC3    C810470   3.825   2.815  12.230  0.4834  0.0363 -0.0237
  704TMC3    O110471   3.926   2.776  12.678 -0.0191  0.4108 -0.2035
  704TMC3    O210472   3.841   2.696  12.252 -0.8209  0.1836  0.1544
  705MPD2     C10473   3.736   1.859  16.553 -0.3191 -0.7733  0.1326
  705MPD2    C110474   3.700   1.927  16.443  0.0769 -0.7497  0.5318
  705MPD2    C210475   3.582   1.993  16.456 -0.3402 -0.1873  0.2148
  705MPD2    C310476   3.498   1.987  16.565  0.1555 -0.0170 -0.2503
  705MPD2    C410477   3.534   1.911  16.671 -0.0400  0.0720 -0.8625
  705MPD2    C510478   3.654   1.841  16.664  0.4254 -0.1118  0.0223
  705MPD2     H10479   3.554   2.047  16.366  1.6809 -0.3774 -0.5449
  705MPD2    H110480   3.478   1.894  16.762 -1.0940  1.5722 -1.2282
  705MPD2    H210481   3.837   1.824  16.571 -0.6241 -1.2339  0.9748
  705MPD2    H310482   3.704   1.800  16.751  0.5060  0.2749  0.1593
  705MPD2     N10483   3.380   2.065  16.568  0.0238  0.2855 -0.2508
  705MPD2    H510484   3.354   2.102  16.477  1.6790  0.6759 -0.5749
  705MPD2    N110485   3.788   1.939  16.331  0.2542  0.1008 -1.1353
  705MPD2    H710486   3.762   1.996  16.251  0.6804  0.4401 -1.0293
  706TMC3    C110487   4.085   1.867  16.002  0.1208  0.0227 -0.1549
  706TMC3    C210488   4.056   1.985  15.948 -0.2400 -1.1242  0.5771
  706TMC3    C310489   3.998   2.079  16.027 -0.5428  0.7767 -0.1627
  706TMC3    C410490   4.050   1.835  16.133 -0.4016 -0.4053  0.8437
  706TMC3    C510491   3.981   1.925  16.199 -0.3557 -0.6256 -0.1849
  706TMC3    C610492   3.958   2.046  16.159  0.0517 -0.7652 -0.2113
  706TMC3     C10493   4.170   1.765  15.945  0.2616 -0.1624  0.4475
  706TMC3     O10494   4.244   1.698  16.017  0.1364 -0.6258 -0.3609
  706TMC3     H10495   4.085   2.003  15.845 -1.2546 -0.5255  0.4045
  706TMC3    H110496   4.069   1.736  16.174 -2.7796  0.1246  3.2248
  706TMC3    H210497   3.917   2.115  16.232  0.3450  0.2080 -0.9656
  706TMC3    C710498   3.909   1.873  16.309  0.1228 -0.0418 -0.1963
  706TMC3    C810499   3.991   2.219  15.976  0.1598 -0.4209 -0.2728
  706TMC3    O110500   3.967   1.787  16.369 -0.0159  0.1130 -0.2632
  706TMC3    O210501   4.016   2.241  15.858  0.3859  0.1436 -0.5434
  707TMC3    C110502   0.736   1.413   2.062  0.2916  0.9569  0.9124
  707TMC3    C210503   0.691   1.292   2.009  0.0296 -0.1066 -0.3777
  707TMC3    C310504   0.565   1.290   1.956  0.0091 -0.6121 -0.4733
  707TMC3    C410505   0.658   1.520   2.073 -1.5198  0.7630  0.1848
  707TMC3    C510506   0.528   1.499   2.055  0.1845  0.5322 -0.9185
  707TMC3    C610507   0.480   1.388   1.990 -0.1019  0.1231 -0.1776
  707TMC3     C10508   0.886   1.424   2.062  0.2232 -0.4568 -0.2066
  707TMC3     O10509   0.946   1.323   2.021  0.6864 -0.2225  0.2856
  707TMC3     H10510   0.757   1.206   2.001 -1.5761 -1.2203 -1.6142
  707TMC3    H110511   0.693   1.610   2.123  0.1811  0.0103  0.3391
  707TMC3    H210512   0.381   1.397   1.948 -0.7601 -2.1794  0.8581
  707TMC3    C710513   0.426   1.601   2.072 -0.2300 -0.1639  0.0557
  707TMC3    C810514   0.520   1.193   1.849 -0.2081 -0.0917  1.0238
  707TMC3    O110515   0.309   1.565   2.065 -0.2848 -0.2826  0.8232
  707TMC3    O210516   0.401   1.195   1.822 -0.1189  0.2795 -0.0196
  708MPD2     C10517   2.479   0.361  14.097 -0.5384 -0.1466 -0.6484
  708MPD2    C110518   2.388   0.289  14.163 -0.2034 -0.3698 -0.3894
  708MPD2    C210519   2.419   0.239  14.289 -0.3214 -0.3309 -0.3478
  708MPD2    C310520   2.544   0.254  14.340 -0.1643  0.2680  0.4899
  708MPD2    C410521   2.638   0.324  14.269 -0.0181 -0.0007  0.5666
  708MPD2    C510522   2.606   0.384  14.147 -0.0486 -0.1223 -0.0903
  708MPD2     H10523   2.340   0.191  14.345 -0.6631  0.8375  0.1683
  708MPD2    H110524   2.737   0.328  14.313  0.3327 -0.3703 -0.1675
  708MPD2    H210525   2.457   0.427  14.014 -0.3260 -0.9910 -1.3764
  708MPD2    H310526   2.683   0.436  14.091  0.6021  0.0991  1.0321
  708MPD2     N10527   2.585   0.184  14.458  0.2021 -0.1370  0.0827
  708MPD2    H510528   2.665   0.232  14.498  1.5886 -0.4715 -2.2820
  708MPD2    N110529   2.251   0.273  14.128 -0.7072 -0.7538 -0.0285
  708MPD2    H710530   2.197   0.212  14.188 -0.7343 -2.7150 -2.0583
  709TMC3    C110531   2.046   0.297  14.014  0.3331  0.4718 -0.6703
  709TMC3    C210532   1.985   0.253  13.896  0.4272 -0.2564 -0.4104
  709TMC3    C310533   1.862   0.190  13.909 -0.1299  0.6962  0.4519
  709TMC3    C410534   1.990   0.270  14.137  0.1253 -0.4525  0.2336
  709TMC3    C510535   1.870   0.201  14.137 -0.1039 -0.7267 -0.0554
  709TMC3    C610536   1.806   0.151  14.028  0.2394  0.3215 -0.0038
  709TMC3     C10537   2.191   0.315  14.011 -0.2176 -0.1456 -0.0113
  709TMC3     O10538   2.240   0.355  13.908  0.1539 -0.0953  0.6269
  709TMC3     H10539   2.042   0.252  13.804  0.4696 -0.4216 -0.3816
  709TMC3    H110540   2.032   0.315  14.227 -0.1916  0.1609  0.0701
  709TMC3    H210541   1.709   0.104  14.027  0.6847 -0.5862 -0.4231
  709TMC3    C710542   1.822   0.151  14.265 -0.1813 -0.3698 -0.3551
  709TMC3    C810543   1.809   0.123  13.789 -0.8237  0.0836  0.3000
  709TMC3    O110544   1.702   0.127  14.281  0.2812  0.4196  0.7274
  709TMC3    O210545   1.750   0.018  13.810  0.3687 -0.9520 -0.0286
  710TMC3    C110546   3.129   1.609   0.177  0.0124  0.6171  0.2723
  710TMC3    C210547   3.213   1.533   0.092  0.2323 -0.1207  0.3902
  710TMC3    C310548   3.297   1.445   0.147  0.5961 -0.2855  0.4113
  710TMC3    C410549   3.133   1.597   0.313 -0.3071 -0.4791 -0.0492
  710TMC3    C510550   3.232   1.520   0.366 -0.1423  0.6248 -1.3445
  710TMC3    C610551   3.320   1.443   0.285  0.0672  0.0542 -0.2943
  710TMC3     C10552   3.004   1.660   0.129  0.6149 -0.3833 -0.9267
  710TMC3     O10553   2.963   1.602   0.027  0.2079  0.5637  0.4655
  710TMC3     H10554   3.209   1.547  17.724 -0.9967 -0.9864  0.3200
  710TMC3    H110555   3.043   1.624   0.367 -1.2998 -1.1082 -1.3940
  710TMC3    H210556   3.394   1.375   0.325 -1.5943 -1.5244  0.0747
  710TMC3    C710557   3.271   1.547   0.500 -0.5560  0.5210 -0.4739
  710TMC3    C810558   3.396   1.387   0.060  0.0443 -0.0676  0.0329
  710TMC3    O110559   3.350   1.459   0.535 -0.1502 -0.4425 -0.0100
  710TMC3    O210560   3.411   1.442  17.685 -0.1635  0.5748 -0.1838
  711TMC3    C110561   2.792   2.837  14.706 -0.5992 -0.3832 -0.3482
  711TMC3    C210562   2.783   2.828  14.840 -0.9517 -0.5720 -0.1011
  711TMC3    C310563   2.894   2.844  14.914 -0.9499 -0.0792  0.0882
  711TMC3    C410564   2.915   2.862  14.652  0.4533 -0.3068 -0.2268
  711TMC3    C510565   3.031   2.874  14.728 -0.1802 -0.1479 -0.0364
  711TMC3    C610566   3.019   2.876  14.866 -0.7524 -0.4159  0.0689
  711TMC3     C10567   2.709   2.738  14.640 -0.3407 -0.7288 -0.4150
  711TMC3     O10568   2.588   2.744  14.644  0.1843  0.1631 -0.0553
  711TMC3     H10569   2.693   2.796  14.890 -0.6433 -1.0099  0.1752
  711TMC3    H110570   2.920   2.871  14.544  2.4671 -2.8807 -0.3622
  711TMC3    H210571   3.103   2.899  14.930  0.9593  0.7246 -2.5795
  711TMC3    C710572   3.118   2.769  14.689 -0.8816 -0.8212 -0.0736
  711TMC3    C810573   2.913   2.756  15.025  0.0392  0.1429 -0.0609
  711TMC3    O110574   3.088   2.721  14.580  0.6821 -0.0718  0.1285
  711TMC3    O210575   2.843   2.659  15.017  0.3467  0.0539 -0.1528
  712MPD2     C10576   0.100   3.792  13.603 -0.1996  0.3308  0.0800
  712MPD2    C110577   0.019   3.789  13.492 -0.2395 -1.0026 -0.5963
  712MPD2    C210578   0.082   3.821  13.371  0.6827  0.5545 -0.2270
  712MPD2    C310579   0.214   3.854  13.367  0.1339  0.1220 -0.0275
  712MPD2    C410580   0.294   3.845  13.480 -1.2539  0.0451 -0.4375
  712MPD2    C510581   0.237   3.809  13.595  0.0116  0.1899  0.2324
  712MPD2     H10582   0.023   3.829  13.280  0.6080 -0.7742 -0.2854
  712MPD2    H110583   0.401   3.855  13.476 -1.1326  0.6444  3.9113
  712MPD2    H210584   0.065   3.746  13.694  0.7363  0.1168  0.3367
  712MPD2    H310585   0.313   3.806  13.672  0.3617  0.7942 -0.0815
  712MPD2     N10586   0.283   3.904  13.252 -0.8942  0.5172 -0.6891
  712MPD2    H510587   0.381   3.930  13.258 -0.3467 -1.3339 -1.4539
  712MPD2    N110588   4.619   3.743  13.497  0.6872 -0.9412 -0.1542
  712MPD2    H710589   4.560   3.760  13.416  0.8552 -2.2476 -0.5373
  713TMC3    C110590   0.322   3.984  13.045  0.4586 -0.3927  0.0014
  713TMC3    C210591   0.437   4.044  13.090 -1.0099 -0.8103  0.1633
  713TMC3    C310592   0.522   4.097  12.994 -0.7888  0.0421 -0.1757
  713TMC3    C410593   0.282   3.996  12.914  0.0423 -0.2306  0.1639
  713TMC3    C510594   0.360   4.063  12.827 -0.3769  0.3571  0.3516
  713TMC3    C610595   0.492   4.096  12.866 -0.2581  0.0200  0.5992
  713TMC3     C10596   0.223   3.928  13.135  0.2258 -0.6619  0.1465
  713TMC3     O10597   0.108   3.957  13.107 -0.2052 -0.1995 -0.5295
  713TMC3     H10598   0.465   4.056  13.194  2.8135 -1.3806 -0.8305
  713TMC3    H110599   0.193   3.942  12.888  1.3766 -2.9952  1.3174
  713TMC3    H210600   0.547   4.165  12.803 -2.2435 -0.6432 -1.8340
  713TMC3    C710601   0.291   4.106  12.702 -0.0712  0.2656 -0.5125
  713TMC3    C810602   0.633   4.182  13.039 -0.3787 -0.1566 -0.5926
  713TMC3    O110603   0.358   4.142  12.609  0.5889 -0.1747  0.4279
  713TMC3    O210604   0.689   4.261  12.965  0.1390  0.0086  0.2743
  714MPD2     C10605   1.798   2.047   0.491 -0.2164  0.2206  0.4367
  714MPD2    C110606   1.758   2.081   0.624 -0.3137 -0.1664 -0.2547
  714MPD2    C210607   1.637   2.142   0.644 -0.4944  0.2808  0.8204
  714MPD2    C310608   1.551   2.183   0.533 -0.5822 -0.6793  0.4613
  714MPD2    C410609   1.602   2.160   0.405 -0.3266  0.4352 -0.3510
  714MPD2    C510610   1.721   2.103   0.390 -0.2812  0.1937  0.1351
  714MPD2     H10611   1.597   2.150   0.744  1.8220  1.0312  1.6827
  714MPD2    H110612   1.547   2.175   0.312 -1.5059  0.8834  0.4178
  714MPD2    H210613   1.895   2.007   0.465  0.4953  2.1963  0.0305
  714MPD2    H310614   1.765   2.086   0.292 -1.4237  1.7128 -0.6412
  714MPD2     N10615   1.426   2.239   0.557 -0.2935 -0.6571 -0.2588
  714MPD2    H510616   1.393   2.246   0.653 -0.9371  1.3502 -0.6282
  714MPD2    N110617   1.850   2.047   0.727  0.3465  0.0161  0.4458
  714MPD2    H710618   1.934   1.999   0.698  0.8818  1.2529 -0.0443
  715TMC3    C110619   1.930   2.006   0.942  0.4289 -0.3335 -0.0937
  715TMC3    C210620   2.006   1.902   0.900  0.4506 -0.1281 -0.2305
  715TMC3    C310621   2.118   1.866   0.969 -0.0550  0.1952 -0.0646
  715TMC3    C410622   1.971   2.085   1.051  0.8205 -0.0153  0.0410
  715TMC3    C510623   2.094   2.048   1.107  0.0904 -0.6365 -0.5174
  715TMC3    C610624   2.154   1.934   1.077  0.3514  0.0690  0.9536
  715TMC3     C10625   1.823   2.062   0.857  0.5858  0.1094  0.7344
  715TMC3     O10626   1.755   2.144   0.918  0.0417  0.4186  0.4529
  715TMC3     H10627   1.982   1.843   0.812 -0.7849  1.4365 -0.9449
  715TMC3    H110628   1.912   2.173   1.072  0.2120  0.1689 -2.4977
  715TMC3    H210629   2.224   1.884   1.143  0.1877 -0.5961  0.6232
  715TMC3    C710630   2.137   2.130   1.221 -0.1818  0.8993  0.0496
  715TMC3    C810631   2.188   1.742   0.944 -0.1877 -0.4824  0.2107
  715TMC3    O110632   2.254   2.122   1.245 -0.1451 -0.1041 -0.1585
  715TMC3    O210633   2.117   1.662   0.885  0.5895 -0.0502  0.1938
  716MPD2     C10634   1.720   0.112   9.444 -0.3939 -0.1957 -0.8198
  716MPD2    C110635   1.600   0.055   9.419 -0.5777  0.2813  0.9311
  716MPD2    C210636   1.604   4.658   9.387  0.4716  0.4369  0.0605
  716MPD2    C310637   1.714   4.581   9.385  0.3667  0.0659 -0.2663
  716MPD2    C410638   1.837   4.643   9.397  0.4005 -0.3563  0.6360
  716MPD2    C510639   1.838   0.039   9.436 -0.1072  0.5635 -0.2897
  716MPD2     H10640   1.516   4.596   9.378  2.1226 -2.0287  0.6618
  716MPD2    H110641   1.931   4.589   9.403  1.0424  0.9157  2.1222
  716MPD2    H210642   1.727   0.218   9.468  0.3091 -0.5749  0.6467
  716MPD2    H310643   1.935   0.085   9.450 -0.4989  2.6823 -4.2435
  716MPD2     N10644   1.702   4.440   9.364 -0.3787  0.0166 -0.4731
  716MPD2    H510645   1.606   4.408   9.358 -0.1733 -0.2239 -2.3652
  716MPD2    N110646   1.477   0.132   9.415 -0.0508  0.3058 -0.3289
  716MPD2    H710647   1.490   0.233   9.422  0.6080  0.2788 -1.2445
  717TMC3    C110648   1.746   4.220   9.338 -0.0075 -0.5400 -0.3871
  717TMC3    C210649   1.620   4.206   9.285 -0.4359 -0.4583 -0.6708
  717TMC3    C310650   1.566   4.079   9.274 -0.2772 -0.5555  0.1052
  717TMC3    C410651   1.828   4.110   9.373  0.0284 -0.2436  0.8012
  717TMC3    C510652   1.775   3.987   9.357  0.4218 -0.4095  0.4093
  717TMC3    C610653   1.643   3.975   9.316 -1.2881  0.0733  0.1663
  717TMC3     C10654   1.801   4.346   9.365  0.7210 -0.7187  0.0949
  717TMC3     O10655   1.922   4.359   9.386  0.3776 -0.0242 -0.1523
  717TMC3     H10656   1.556   4.291   9.261  1.7854  1.7564  1.2390
  717TMC3    H110657   1.923   4.135   9.418  0.4825 -3.7923  1.8421
  717TMC3    H210658   1.609   3.872   9.312 -1.0751 -0.0016  0.2713
  717TMC3    C710659   1.855   3.868   9.363 -0.1740 -0.3827  0.3079
  717TMC3    C810660   1.427   4.079   9.281  0.0437 -0.1270 -0.2189
  717TMC3    O110661   1.795   3.763   9.359 -0.5083 -0.0021 -0.3691
  717TMC3    O210662   1.370   4.178   9.327 -0.1832 -0.2204  0.9434
  718MPD2     C10663   1.340   4.026  12.915  0.2909 -0.1097  1.3713
  718MPD2    C110664   1.292   4.032  12.786  0.0307  0.1376 -0.0065
  718MPD2    C210665   1.231   3.921  12.730 -1.0141 -0.1707  0.9098
  718MPD2    C310666   1.209   3.814  12.810  0.2039  0.2681 -0.0728
  718MPD2    C410667   1.257   3.806  12.940  0.7515 -0.7249 -1.1211
  718MPD2    C510668   1.320   3.919  12.994 -0.2354 -0.2721  0.8330
  718MPD2     H10669   1.190   3.919  12.630 -0.7938  0.7030  0.8060
  718MPD2    H110670   1.245   3.725  13.011  0.0249 -0.4333 -0.9123
  718MPD2    H210671   1.387   4.112  12.960  0.4949  1.6023 -2.0962
  718MPD2    H310672   1.349   3.916  13.098  1.7002 -1.8477  0.2409
  718MPD2     N10673   1.160   3.699  12.747  0.1040 -0.5803 -0.9814
  718MPD2    H510674   1.132   3.701  12.649 -0.1175 -0.3856 -0.9148
  718MPD2    N110675   1.326   4.148  12.709 -0.3744 -0.3269 -0.4063
  718MPD2    H710676   1.394   4.216  12.740  0.9147 -1.4741 -0.6883
  719TMC3    C110677   1.325   4.269  12.496 -0.0071  0.0953  0.6915
  719TMC3    C210678   1.256   4.275  12.381 -0.2160  0.3594 -0.0540
  719TMC3    C310679   1.322   4.296  12.265  0.3321 -0.2476  0.3466
  719TMC3    C410680   1.459   4.283  12.492 -0.3010  0.2342  0.6110
  719TMC3    C510681   1.522   4.309  12.374 -0.3293  0.3812 -0.0337
  719TMC3    C610682   1.457   4.308  12.260 -0.2589 -0.2971 -0.3962
  719TMC3     C10683   1.266   4.173  12.591  0.7372  0.1384 -0.2828
  719TMC3     O10684   1.159   4.134  12.557 -0.1125 -0.7712  0.0778
  719TMC3     H10685   1.148   4.275  12.386 -0.2085 -3.1266  0.2133
  719TMC3    H110686   1.508   4.296  12.588 -1.3668 -1.8639  1.4345
  719TMC3    H210687   1.493   4.337  12.162  0.9649 -2.1984 -0.5076
  719TMC3    C710688   1.666   4.289  12.366 -0.4370 -0.3959 -0.2352
  719TMC3    C810689   1.280   4.204  12.169 -0.1287  0.0251 -0.3700
  719TMC3    O110690   1.715   4.317  12.261 -0.4655 -0.1771  0.1056
  719TMC3    O210691   1.337   4.192  12.062  0.2031  0.0618 -0.5670
  720MPD2     C10692   4.700   0.875  14.319  0.3251  0.0342  0.4289
  720MPD2    C110693   4.724   0.812  14.201  0.2669  0.8555 -0.0371
  720MPD2    C210694   0.097   0.725  14.189  0.0827 -0.0192 -0.2438
  720MPD2    C310695   0.188   0.717  14.296 -0.7308 -0.4445 -0.0780
  720MPD2    C410696   0.156   0.779  14.417  0.1062  0.6307 -1.0187
  720MPD2    C510697   0.043   0.850  14.431  0.2038 -0.3659 -0.2763
  720MPD2     H10698   0.111   0.677  14.093 -1.0805  2.7170 -1.7750
  720MPD2    H110699   0.214   0.770  14.508  2.7005  2.3519 -2.5054
  720MPD2    H210700   4.608   0.931  14.329 -1.1003 -2.2908  0.2749
  720MPD2    H310701   0.023   0.908  14.520  0.2237  1.7690 -1.6570
  720MPD2     N10702   0.311   0.655  14.270 -0.6284 -0.7828 -0.2456
  720MPD2    H510703   0.332   0.623  14.177  1.4174  2.6010 -0.9634
  720MPD2    N110704   4.632   0.831  14.094  0.2249 -0.0218 -0.4250
  720MPD2    H710705   4.652   0.765  14.020  0.2286  1.6931 -1.9694
  721TMC3    C110706   0.536   0.612  14.324 -0.6100 -0.1862 -0.2389
  721TMC3    C210707   0.617   0.564  14.425 -0.3103  0.2426 -0.6449
  721TMC3    C310708   0.750   0.562  14.395 -0.2444 -0.9600 -0.3157
  721TMC3    C410709   0.575   0.657  14.206 -0.0580  0.5888  0.4147
  721TMC3    C510710   0.708   0.634  14.175 -0.4662  0.4207 -0.0385
  721TMC3    C610711   0.796   0.587  14.270 -0.3667 -0.0417  0.3067
  721TMC3     C10712   0.406   0.648  14.370  0.1243  0.0673 -0.1662
  721TMC3     O10713   0.397   0.649  14.490 -0.0917  0.1013  0.4985
  721TMC3     H10714   0.581   0.527  14.520  1.4211  0.2284  0.0162
  721TMC3    H110715   0.506   0.711  14.143 -1.4593 -0.7481  0.7948
  721TMC3    H210716   0.903   0.569  14.263 -0.1000  1.8012 -0.3548
  721TMC3    C710717   0.774   0.687  14.055 -0.3225  0.2760  0.1551
  721TMC3    C810718   0.840   0.548  14.505  0.5533  0.3884  0.3105
  721TMC3    O110719   0.896   0.693  14.058  0.0115 -0.6613 -0.1537
  721TMC3    O210720   0.950   0.501  14.482 -0.5784  0.5551  0.5868
  722MPD2     C10721   3.975   4.003  13.081  0.0387  0.2102 -0.1455
  722MPD2    C110722   3.915   4.126  13.097 -0.0927 -0.7605 -0.4947
  722MPD2    C210723   3.795   4.127  13.163 -0.2073  0.3815 -0.0851
  722MPD2    C310724   3.735   4.008  13.209  0.7115  0.1702  0.4026
  722MPD2    C410725   3.807   3.893  13.200  0.0252  0.2691  0.7103
  722MPD2    C510726   3.927   3.891  13.138  0.3724 -0.3990  0.7081
  722MPD2     H10727   3.743   4.220  13.181 -0.7405  0.2292 -0.8376
  722MPD2    H110728   3.778   3.803  13.252  0.8869  0.0854  0.8756
  722MPD2    H210729   4.074   3.993  13.037 -0.3960 -3.0422 -0.3879
  722MPD2    H310730   3.990   3.805  13.123 -0.3146 -0.6646 -0.6115
  722MPD2     N10731   3.607   4.015  13.278  0.1529 -0.1169 -0.3153
  722MPD2    H510732   3.571   4.108  13.298 -3.3386 -1.8733  1.5378
  722MPD2    N110733   3.970   4.246  13.045 -0.9990 -0.3538 -0.4118
  722MPD2    H710734   3.910   4.328  13.040 -0.6102 -0.0032  0.7916
  723TMC3    C110735   3.409   3.919  13.379 -0.0249 -0.5785 -0.5077
  723TMC3    C210736   3.347   3.798  13.401  0.0764 -0.4073 -0.1765
  723TMC3    C310737   3.286   3.767  13.525  0.4652  0.2790  0.2780
  723TMC3    C410738   3.417   4.000  13.489 -0.6407 -0.1131 -0.5891
  723TMC3    C510739   3.359   3.962  13.608 -0.2828 -0.3248 -0.1119
  723TMC3    C610740   3.292   3.852  13.630  0.5775  0.0303 -0.1976
  723TMC3     C10741   3.524   3.909  13.286  0.1500 -0.2956  0.1958
  723TMC3     O10742   3.551   3.796  13.243  0.7761  0.2657  0.1542
  723TMC3     H10743   3.351   3.719  13.327  2.8536 -2.1283  1.7852
  723TMC3    H110744   3.469   4.095  13.483 -4.0680  1.8667  0.7240
  723TMC3    H210745   3.252   3.818  13.725  1.5993 -4.6265 -1.4435
  723TMC3    C710746   3.404   4.036  13.731 -0.2171  0.5173 -0.0106
  723TMC3    C810747   3.188   3.660  13.523 -0.7958 -0.1221 -0.2135
  723TMC3    O110748   3.425   3.982  13.840  0.6677  0.6044  0.4652
  723TMC3    O210749   3.169   3.595  13.626  0.3814  0.3547 -0.6009
  724TMC3    C110750   3.580   1.966  10.621 -0.1508  0.1382 -0.7552
  724TMC3    C210751   3.501   1.986  10.511  0.2430 -0.8061  0.4190
  724TMC3    C310752   3.484   2.108  10.461 -0.2803 -0.5628  0.1702
  724TMC3    C410753   3.661   2.067  10.657 -0.2393 -0.2024 -0.0876
  724TMC3    C510754   3.651   2.190  10.597 -0.1379  0.3001 -0.6080
  724TMC3    C610755   3.553   2.215  10.503  0.3422  0.3710  1.0214
  724TMC3     C10756   3.609   1.837  10.670  0.0806 -0.7986 -0.1198
  724TMC3     O10757   3.688   1.825  10.767  0.5242  0.2401  0.5447
  724TMC3     H10758   3.436   1.910  10.471 -1.7454  0.9189  0.3684
  724TMC3    H110759   3.729   2.060  10.741  0.9067  1.9243 -0.8536
  724TMC3    H210760   3.534   2.319  10.480  0.5770 -0.1912 -1.6193
  724TMC3    C710761   3.749   2.293  10.609  0.2614 -0.2902  0.1449
  724TMC3    C810762   3.390   2.134  10.355  0.3849 -0.2854  0.0269
  724TMC3    O110763   3.733   2.399  10.556 -0.0221 -0.4029 -0.0593
  724TMC3    O210764   3.314   2.050  10.306 -0.2659 -0.2717 -0.2432
  725TMC3    C110765   0.688   1.462  12.649  0.5520  0.1528 -0.0002
  725TMC3    C210766   0.576   1.541  12.622  0.2367  0.0125 -0.4041
  725TMC3    C310767   0.487   1.504  12.529  0.0461 -0.0668  0.5705
  725TMC3    C410768   0.702   1.339  12.588 -0.0380 -0.0687 -0.5327
  725TMC3    C510769   0.600   1.298  12.501  0.2732 -0.3827 -0.6096
  725TMC3    C610770   0.495   1.377  12.471 -0.0489 -0.3496  0.2690
  725TMC3     C10771   0.773   1.502  12.760  0.1579  0.0456 -0.0364
  725TMC3     O10772   0.749   1.612  12.805  0.1441  0.2399  0.0415
  725TMC3     H10773   0.555   1.628  12.682 -0.1625 -0.0881 -0.3981
  725TMC3    H110774   0.775   1.261  12.604  1.8087  1.4697 -1.5090
  725TMC3    H210775   0.414   1.350  12.405 -0.2281  0.6438  0.0832
  725TMC3    C710776   0.567   1.159  12.482 -0.2261 -0.0372 -0.2772
  725TMC3    C810777   0.371   1.582  12.502 -0.3090  0.3690 -0.0815
  725TMC3    O110778   0.445   1.136  12.480 -0.6486 -0.7139  0.6355
  725TMC3    O210779   0.313   1.635  12.596  0.1319 -0.0844 -0.0533
  726MPD2     C10780   3.089   3.015  10.938 -0.0680 -0.7794  0.7807
  726MPD2    C110781   3.095   3.071  10.807  0.2961  0.2608  0.3263
  726MPD2    C210782   3.020   3.011  10.709  0.1121 -0.5774  0.0147
  726MPD2    C310783   2.934   2.906  10.740  0.7493  0.0840  0.5462
  726MPD2    C410784   2.932   2.854  10.864 -0.4679  0.7222 -0.1594
  726MPD2    C510785   3.014   2.905  10.961 -0.3408 -0.0485  0.0594
  726MPD2     H10786   3.026   3.033  10.603 -0.9094  0.2191  0.1224
  726MPD2    H110787   2.877   2.763  10.885  1.2433 -0.2958 -0.0874
  726MPD2    H210788   3.156   3.048  11.016  0.0729  0.4562  0.1353
  726MPD2    H310789   3.030   2.861  11.058  0.0809  0.8570  0.4053
  726MPD2     N10790   2.853   2.834  10.651 -0.3410  0.2467  0.5328
  726MPD2    H510791   2.796   2.762  10.693 -0.8816 -0.6594 -1.7307
  726MPD2    N110792   3.178   3.179  10.773  0.5791  0.1501 -0.0756
  726MPD2    H710793   3.170   3.209  10.676 -3.4987  1.9800  0.8242
  727TMC3    C110794   3.335   3.343  10.783  0.7181  0.1146 -0.3839
  727TMC3    C210795   3.458   3.377  10.818  0.7707  0.1490 -0.7286
  727TMC3    C310796   3.495   3.502  10.776 -0.5356 -0.2121  0.5444
  727TMC3    C410797   3.247   3.418  10.706 -0.6694 -0.5501 -0.6424
  727TMC3    C510798   3.285   3.548  10.676  0.1551  0.2325  0.6516
  727TMC3    C610799   3.409   3.589  10.712 -0.3275  0.1922 -0.0626
  727TMC3     C10800   3.279   3.228  10.851 -0.2776 -0.1112 -0.2430
  727TMC3     O10801   3.325   3.191  10.960  0.2199 -0.2799 -0.3295
  727TMC3     H10802   3.521   3.306  10.869  1.9030 -0.0262 -2.3763
  727TMC3    H110803   3.143   3.391  10.694 -0.7353 -0.6133  0.0999
  727TMC3    H210804   3.452   3.677  10.664  1.6478 -0.9074 -0.2874
  727TMC3    C710805   3.183   3.632  10.608  0.7917  0.3666  0.3136
  727TMC3    C810806   3.634   3.539  10.785  0.6095  0.4278 -0.1564
  727TMC3    O110807   3.093   3.586  10.538  0.1902 -0.0492  0.0297
  727TMC3    O210808   3.715   3.454  10.805  0.7862 -0.4909 -0.3384
  728TMC3    C110809   2.458   1.498  15.423 -0.1142  0.2550  0.3840
  728TMC3    C210810   2.561   1.582  15.376 -0.3250  0.3520 -0.2959
  728TMC3    C310811   2.587   1.573  15.245  0.1003 -0.2679  0.8999
  728TMC3    C410812   2.397   1.411  15.340  0.3226  0.4922  0.8475
  728TMC3    C510813   2.436   1.407  15.208 -0.5865 -0.7212  0.2929
  728TMC3    C610814   2.537   1.483  15.156 -0.3180  0.2049  0.5042
  728TMC3     C10815   2.421   1.497  15.562  0.6414 -0.0363 -0.1441
  728TMC3     O10816   2.514   1.540  15.633  0.3208  0.3909  0.2013
  728TMC3     H10817   2.620   1.645  15.441  1.3342 -0.4370 -1.0425
  728TMC3    H110818   2.309   1.351  15.360  0.5218  0.0144  0.2867
  728TMC3    H210819   2.581   1.471  15.058 -0.0738  0.1790  0.6157
  728TMC3    C710820   2.330   1.386  15.117  0.1960 -0.5499  0.6604
  728TMC3    C810821   2.670   1.679  15.187  0.1997 -0.1715 -0.6462
  728TMC3    O110822   2.265   1.284  15.132  0.3038 -0.1284  0.3224
  728TMC3    O210823   2.729   1.658  15.083 -0.4825  0.4756  0.3349
  729MPD2     C10824   4.127   2.610  16.502 -0.1436  0.4466  0.4932
  729MPD2    C110825   4.218   2.541  16.577 -0.8643 -0.0093 -0.4801
  729MPD2    C210826   4.191   2.509  16.708 -0.3877  0.1691  0.5288
  729MPD2    C310827   4.073   2.548  16.762 -0.1226 -0.0050  0.1053
  729MPD2    C410828   3.976   2.607  16.683 -0.6291 -0.5599  0.2271
  729MPD2    C510829   4.003   2.630  16.552 -0.5214 -0.3686  0.1607
  729MPD2     H10830   4.269   2.466  16.770 -0.9425 -1.7693 -0.1048
  729MPD2    H110831   3.888   2.647  16.731  0.6629  0.1299  2.0183
  729MPD2    H210832   4.150   2.636  16.400 -0.9858 -1.0779 -0.0768
  729MPD2    H310833   3.922   2.678  16.499 -0.1148  0.8713  0.6656
  729MPD2     N10834   4.039   2.520  16.898  0.1485  0.4625 -0.6029
  729MPD2    H510835   3.955   2.562  16.937  0.3114  2.0397 -1.9915
  729MPD2    N110836   4.346   2.533  16.517 -0.1280  0.2810 -0.0178
  729MPD2    H710837   4.351   2.588  16.432  1.8696  1.5098  0.8995
  730TMC3    C110838   4.101   2.494  17.122  0.4543  0.7192  0.0709
  730TMC3    C210839   4.175   2.429  17.215  0.8843 -1.0546  0.0516
  730TMC3    C310840   4.207   2.488  17.334  0.4595  0.5490 -0.2921
  730TMC3    C410841   4.066   2.624  17.145 -0.2342  0.3079  0.1519
  730TMC3    C510842   4.099   2.686  17.261  0.2359  0.2756  0.3547
  730TMC3    C610843   4.147   2.610  17.363 -0.1838 -0.7620 -0.8033
  730TMC3     C10844   4.113   2.453  16.985 -0.3411 -0.5180  0.3521
  730TMC3     O10845   4.184   2.358  16.956  0.0539  0.0129 -0.4290
  730TMC3     H10846   4.212   2.333  17.181 -1.2032 -1.0948 -2.1125
  730TMC3    H110847   4.020   2.693  17.075 -1.0212  1.6502  1.9970
  730TMC3    H210848   4.155   2.649  17.464  1.1773  0.5754 -1.4112
  730TMC3    C710849   4.154   2.819  17.251 -0.3998  0.3699 -0.1696
  730TMC3    C810850   4.353   2.485  17.339 -0.2885 -0.1349  0.4973
  730TMC3    O110851   4.183   2.858  17.134  0.0559 -0.3017 -0.5575
  730TMC3    O210852   4.415   2.396  17.288 -0.4454  0.0924  0.0545
  731MPD2     C10853   4.600   0.572  12.353 -0.4635  0.4600  0.5117
  731MPD2    C110854   4.725   0.612  12.379 -0.0700  0.5026  0.1237
  731MPD2    C210855   0.067   0.533  12.460  0.6289 -0.4556  0.4398
  731MPD2    C310856   0.020   0.409  12.508  0.8728 -0.1564 -0.4365
  731MPD2    C410857   4.628   0.369  12.471  0.5616  0.0641 -0.1732
  731MPD2    C510858   4.559   0.452  12.393 -0.5868  0.7001  0.6806
  731MPD2     H10859   0.167   0.562  12.491  0.4470  1.2017 -0.4909
  731MPD2    H110860   4.580   0.279  12.505 -2.6954  2.9677  2.9617
  731MPD2    H210861   4.537   0.642  12.298 -0.1780 -0.9194 -1.5728
  731MPD2    H310862   4.462   0.418  12.356 -0.3687  0.8375 -0.0214
  731MPD2     N10863   0.108   0.338  12.601  0.3729  0.7441  0.1900
  731MPD2    H510864   0.186   0.392  12.637  1.5766  0.7239 -2.4445
  731MPD2    N110865   0.034   0.726  12.312 -0.3555  0.7796 -0.3556
  731MPD2    H710866   4.717   0.770  12.238 -1.3983  1.4231  0.7718
  732TMC3    C110867   0.193   0.880  12.221  0.3549 -0.2525 -0.2092
  732TMC3    C210868   0.114   0.876  12.108  0.5193  0.8406  0.4247
  732TMC3    C310869   0.132   0.978  12.023  0.4323 -0.8528  0.1441
  732TMC3    C410870   0.291   0.968  12.249 -0.2606  0.4369 -0.3917
  732TMC3    C510871   0.298   1.067  12.155  0.2719  0.9650 -0.5059
  732TMC3    C610872   0.224   1.070  12.042  0.1774  0.1000 -0.1937
  732TMC3     C10873   0.163   0.779  12.324 -0.2687  0.6106  0.1622
  732TMC3     O10874   0.245   0.768  12.416  0.4488 -0.3384  0.5267
  732TMC3     H10875   0.044   0.795  12.088 -1.3803  2.1703  1.6815
  732TMC3    H110876   0.351   0.963  12.340 -2.8877 -2.2252  1.1876
  732TMC3    H210877   0.235   1.155  11.976 -0.2513  0.0808 -0.2903
  732TMC3    C710878   0.429   1.118  12.126 -0.1877 -0.5348  0.3167
  732TMC3    C810879   0.056   0.987  11.905  0.0393 -0.8686  0.1086
  732TMC3    O110880   0.442   1.238  12.099 -0.5141  0.1153  0.5167
  732TMC3    O210881   0.089   1.070  11.825 -0.2750 -0.5042  0.0221
  733TMC3    C110882   0.828   3.419  12.646  0.0812 -0.0195  0.3264
  733TMC3    C210883   0.921   3.437  12.742  0.3805 -0.3735  0.4177
  733TMC3    C310884   1.045   3.497  12.709 -0.6721  0.7308  0.5774
  733TMC3    C410885   0.851   3.453  12.518  0.3600 -0.2252  0.4182
  733TMC3    C510886   0.970   3.502  12.483  0.8910  0.3329  0.1125
  733TMC3    C610887   1.058   3.545  12.583 -0.0448 -0.8783 -0.4047
  733TMC3     C10888   0.693   3.397  12.693  0.6078 -0.5182 -0.2761
  733TMC3     O10889   0.611   3.432  12.612 -0.1042  0.3094 -0.1457
  733TMC3     H10890   0.913   3.423  12.850  1.9456 -0.1258  0.5677
  733TMC3    H110891   0.779   3.424  12.442  3.5680 -2.4932 -1.7418
  733TMC3    H210892   1.159   3.570  12.553  1.1967 -3.7374  1.4057
  733TMC3    C710893   1.004   3.545  12.352 -0.8068 -0.2756 -0.3406
  733TMC3    C810894   1.114   3.581  12.808  0.6818 -0.1890 -0.0801
  733TMC3    O110895   0.975   3.474  12.258 -0.3285  0.1385  0.2106
  733TMC3    O210896   1.088   3.553  12.929  0.3126 -0.0520  0.1356
  734MPD2     C10897   2.982   1.789  12.665  0.5276 -0.0315 -0.2496
  734MPD2    C110898   2.851   1.760  12.634 -0.1897 -0.0956 -0.1053
  734MPD2    C210899   2.793   1.841  12.543  0.4389 -0.8979 -1.0407
  734MPD2    C310900   2.857   1.944  12.474 -0.4794  0.0189  0.3418
  734MPD2    C410901   2.986   1.970  12.521 -0.1635 -0.0900 -0.5300
  734MPD2    C510902   3.051   1.893  12.614 -0.7091  0.5554 -0.4017
  734MPD2     H10903   2.690   1.831  12.510  0.1679 -2.3802  0.2563
  734MPD2    H110904   3.030   2.066  12.493 -0.8935 -0.1839 -2.0287
  734MPD2    H210905   3.044   1.713  12.711 -1.5499 -1.4758  0.1473
  734MPD2    H310906   3.150   1.912  12.655 -0.0141 -0.8661 -1.4176
  734MPD2     N10907   2.799   2.019  12.372  0.0323  0.1811 -0.1684
  734MPD2    H510908   2.706   1.992  12.340  0.9883 -2.1125 -0.9484
  734MPD2    N110909   2.789   1.635  12.682  0.9608  0.3329 -0.0891
  734MPD2    H710910   2.842   1.564  12.732  1.0862 -0.3094 -1.1216
  735TMC3    C110911   2.646   1.461  12.658 -0.1840  0.2593 -0.3671
  735TMC3    C210912   2.515   1.425  12.636 -0.0903 -0.2778 -0.2979
  735TMC3    C310913   2.494   1.317  12.562  0.1322  0.1846 -0.3049
  735TMC3    C410914   2.752   1.392  12.601  0.0175  0.2678 -0.0162
  735TMC3    C510915   2.718   1.278  12.538 -0.3841 -0.0403  0.2191
  735TMC3    C610916   2.594   1.236  12.513  0.1605 -0.0229  0.2858
  735TMC3     C10917   2.658   1.604  12.655 -0.7873  0.5518  0.2488
  735TMC3     O10918   2.561   1.669  12.616 -0.0659  0.2965  0.1810
  735TMC3     H10919   2.436   1.478  12.689  0.8255  1.2331 -0.4187
  735TMC3    H110920   2.857   1.421  12.601  0.2349 -0.5045 -1.3208
  735TMC3    H210921   2.565   1.154  12.449  0.7350  1.0168 -1.3048
  735TMC3    C710922   2.821   1.219  12.468 -0.2083  0.4203  0.2564
  735TMC3    C810923   2.411   1.354  12.451 -0.2891 -0.0492 -0.1968
  735TMC3    O110924   2.916   1.291  12.428  0.6621 -0.1840  0.9219
  735TMC3    O210925   2.368   1.265  12.382 -0.2049  0.0471 -0.8678
  736MPD2     C10926   2.909   0.860  12.447 -0.9166  0.4062 -0.4223
  736MPD2    C110927   2.924   0.996  12.432  0.3797  0.4298 -0.2695
  736MPD2    C210928   3.034   1.047  12.358 -0.6074 -0.7241 -0.9922
  736MPD2    C310929   3.116   0.953  12.297  0.0208  0.5598 -0.5222
  736MPD2    C410930   3.105   0.821  12.324  0.5149  0.3592 -0.5186
  736MPD2    C510931   2.996   0.767  12.394  0.6498  0.4336 -0.3529
  736MPD2     H10932   3.050   1.150  12.328 -0.5797 -0.0227  1.4315
  736MPD2    H110933   3.177   0.747  12.294 -1.4339 -1.1313 -1.5140
  736MPD2    H210934   2.845   0.808  12.518 -0.8272 -0.4234 -0.9539
  736MPD2    H310935   2.980   0.662  12.417  2.5542  0.1809 -0.1972
  736MPD2     N10936   3.225   0.977  12.214 -0.6092 -0.2889  0.5752
  736MPD2    H510937   3.279   0.893  12.193  1.3159  1.7389 -2.5407
  736MPD2    N110938   2.821   1.081  12.482  0.6660 -0.1106  0.2075
  736MPD2    H710939   2.742   1.043  12.534 -0.1387  1.4501  0.1128
  737TMC3    C110940   3.384   1.111  12.091 -0.3392  0.5792  1.2069
  737TMC3    C210941   3.415   1.237  12.041 -0.3358  0.7515  0.3517
  737TMC3    C310942   3.487   1.253  11.925  0.0353  0.1367 -0.1021
  737TMC3    C410943   3.421   1.005  12.024 -0.3590  0.0016  0.0915
  737TMC3    C510944   3.496   1.013  11.905 -0.1480  0.3550  0.0079
  737TMC3    C610945   3.525   1.140  11.854 -0.3549  0.0980  0.1015
  737TMC3     C10946   3.274   1.108  12.182  0.3876  0.3290 -1.0517
  737TMC3     O10947   3.247   1.208  12.245 -0.3794 -0.9022 -0.6473
  737TMC3     H10948   3.394   1.327  12.097  0.4014  0.7368  0.6440
  737TMC3    H110949   3.419   0.907  12.070  1.8932  0.6446  1.5291
  737TMC3    H210950   3.588   1.145  11.766 -0.9077 -1.0507 -0.3626
  737TMC3    C710951   3.538   0.887  11.838  0.3972  0.4882 -0.1053
  737TMC3    C810952   3.514   1.385  11.860 -0.5684  0.6605  0.3668
  737TMC3    O110953   3.500   0.777  11.876  0.3751  0.8291  0.1589
  737TMC3    O210954   3.475   1.474  11.935  0.0772 -0.6480  0.3494
  738MPD2     C10955   3.385   4.403  15.143 -0.0064 -0.8499  0.0491
  738MPD2    C110956   3.501   4.376  15.213  0.1987  0.1926  0.3776
  738MPD2    C210957   3.612   4.450  15.175 -0.3548 -0.3758  0.0180
  738MPD2    C310958   3.598   4.556  15.086  0.7942  0.1572 -0.5087
  738MPD2    C410959   3.475   4.593  15.038  0.3458 -0.2209  0.0809
  738MPD2    C510960   3.367   4.512  15.065 -0.2136  0.3431 -0.0319
  738MPD2     H10961   3.712   4.434  15.214  0.8426  0.6026 -2.6460
  738MPD2    H110962   3.449   4.686  14.989  0.5554 -0.6781 -0.9026
  738MPD2    H210963   3.292   4.349  15.158  0.1949 -1.3268 -0.4412
  738MPD2    H310964   3.276   4.532  15.008 -0.5358  0.4568  0.5275
  738MPD2     N10965   3.710   4.637  15.062  0.1780  0.1652  0.1569
  738MPD2    H510966   3.791   4.627  15.123 -0.1936 -2.9484  0.1607
  738MPD2    N110967   3.507   4.257  15.293  0.9283 -0.5001 -0.1851
  738MPD2    H710968   3.418   4.210  15.301  0.2547  1.4010  3.6204
  739TMC3    C110969   3.836   0.074  14.961 -0.3910  0.4792  1.0025
  739TMC3    C210970   3.895   0.102  14.838 -0.7814 -0.3166  0.6635
  739TMC3    C310971   4.023   0.145  14.835 -0.1576 -0.5625  0.3666
  739TMC3    C410972   3.896   0.110  15.078 -0.0325 -0.6484  0.1007
  739TMC3    C510973   4.024   0.170  15.064  0.2625  0.2005  0.3644
  739TMC3    C610974   4.091   0.188  14.946  0.1759 -0.4391 -0.0987
  739TMC3     C10975   3.711   0.002  14.967 -0.0117 -0.1876 -0.6840
  739TMC3     O10976   3.638   0.030  14.873  0.3602 -0.0724 -0.0337
  739TMC3     H10977   3.840   0.085  14.746  0.2693  1.7797 -0.3458
  739TMC3    H110978   3.845   0.107  15.173 -0.6979  0.6091 -0.2270
  739TMC3    H210979   4.179   0.251  14.954 -0.9049  0.7845  1.9828
  739TMC3    C710980   4.073   0.260  15.172  0.3012  0.0875  0.2144
  739TMC3    C810981   4.094   0.164  14.710 -0.1907  0.5413 -0.1585
  739TMC3    O110982   4.193   0.270  15.181  0.1644 -0.0678  1.2612
  739TMC3    O210983   4.034   0.178  14.606 -0.4128  0.4379  0.3748
  740TMC3    C110984   4.030   1.491  14.351 -0.4701  0.4527  0.4109
  740TMC3    C210985   4.103   1.505  14.467  0.2835 -0.7155  0.3131
  740TMC3    C310986   4.239   1.483  14.471 -0.7211  1.0117 -0.7471
  740TMC3    C410987   4.090   1.461  14.233  0.4247 -0.7765  0.3347
  740TMC3    C510988   4.229   1.437  14.242 -1.1363  0.4835  0.4594
  740TMC3    C610989   4.304   1.445  14.355 -0.3887  0.0670 -0.4267
  740TMC3     C10990   3.886   1.514  14.354 -0.0266 -0.1788 -1.0232
  740TMC3     O10991   3.829   1.528  14.247  0.5024 -0.0747  0.5292
  740TMC3     H10992   4.058   1.534  14.561  0.2278 -1.4603  0.5220
  740TMC3    H110993   4.036   1.435  14.142 -0.3746  0.6741  0.3872
  740TMC3    H210994   4.411   1.429  14.349 -0.0724  1.5724  0.9424
  740TMC3    C710995   4.298   1.389  14.123 -0.8509  0.2774 -0.1598
  740TMC3    C810996   4.296   1.462  14.598 -0.8996 -0.3981  0.7681
  740TMC3    O110997   4.407   1.330  14.150  0.1867 -0.4600  0.6445
  740TMC3    O210998   4.229   1.491  14.691 -0.3503 -0.2243  0.8309
  741TMC3    C110999   3.697   0.777  13.519 -0.3766  0.2192 -0.5520
  741TMC3    C211000   3.616   0.801  13.620  0.2164  0.5981 -0.3007
  741TMC3    C311001   3.666   0.802  13.750 -0.8160 -0.1024 -0.0788
  741TMC3    C411002   3.832   0.756  13.524  0.9881  0.5077 -0.2373
  741TMC3    C511003   3.883   0.772  13.649 -0.4808 -0.1761  1.0968
  741TMC3    C611004   3.802   0.779  13.761  0.6618  1.0258 -0.0545
  741TMC3     C11005   3.658   0.827  13.387 -0.4690 -0.5340  0.2648
  741TMC3     O11006   3.688   0.757  13.296 -0.4809 -0.1411  0.3195
  741TMC3     H11007   3.509   0.806  13.598  0.0487  0.8576  0.5811
  741TMC3    H111008   3.903   0.768  13.443  0.2313  1.0762 -0.8109
  741TMC3    H211009   3.849   0.760  13.856 -0.0160  3.2360  0.7030
  741TMC3    C711010   4.018   0.734  13.680  0.1927  1.1335 -0.0256
  741TMC3    C811011   3.584   0.758  13.862 -0.2718  0.4108 -0.1772
  741TMC3    O111012   4.057   0.743  13.797 -0.1689  0.0595 -0.2904
  741TMC3    O211013   3.473   0.717  13.835  0.2741  0.2494  0.1386
  742TMC3    C111014   4.249   3.866  15.577  0.7350  0.3483 -0.3134
  742TMC3    C211015   4.186   3.898  15.455  0.8204 -0.6790 -0.5365
  742TMC3    C311016   4.192   3.806  15.353 -0.2921  0.0560  0.1610
  742TMC3    C411017   4.313   3.744  15.597 -0.5734  0.1818 -0.2112
  742TMC3    C511018   4.324   3.661  15.489 -0.2188 -0.1741 -0.1067
  742TMC3    C611019   4.265   3.689  15.370 -0.0947 -0.3996  0.2867
  742TMC3     C11020   4.211   3.936  15.699 -0.2407  0.1246  0.3787
  742TMC3     O11021   4.192   4.057  15.690 -0.4503  0.4990  0.4243
  742TMC3     H11022   4.101   3.964  15.462  1.0425 -0.3320 -1.1528
  742TMC3    H111023   4.381   3.726  15.680  0.1216  0.5136 -0.7079
  742TMC3    H211024   4.268   3.612  15.293  2.9858 -0.4843  0.4919
  742TMC3    C711025   4.406   3.536  15.507 -0.1306  0.0944  0.8051
  742TMC3    C811026   4.093   3.794  15.246 -0.0366 -0.5879  0.1533
  742TMC3    O111027   4.469   3.490  15.411 -0.1668 -0.6179 -0.1973
  742TMC3    O211028   4.077   3.682  15.200 -0.3200 -0.3565 -0.4710
  743MPD2     C11029   1.443   0.625   2.122  0.5037 -0.6875  0.1429
  743MPD2    C111030   1.466   0.615   1.990  1.1727 -0.1443  0.1871
  743MPD2    C211031   1.591   0.657   1.953 -0.6015 -0.2720  0.4415
  743MPD2    C311032   1.681   0.712   2.042  0.4872  0.2896  1.2979
  743MPD2    C411033   1.645   0.741   2.172  0.4841  0.3219 -0.2537
  743MPD2    C511034   1.525   0.686   2.214  0.0079 -0.1063 -0.2464
  743MPD2     H11035   1.620   0.651   1.849 -0.8362 -1.2015  0.4280
  743MPD2    H111036   1.712   0.785   2.245 -1.6072  1.2117  1.1418
  743MPD2    H211037   1.355   0.579   2.167 -0.7096 -0.6547 -2.2204
  743MPD2    H311038   1.501   0.701   2.319 -0.5479 -0.0810 -0.3773
  743MPD2     N11039   1.803   0.765   1.996 -0.5253 -0.3144 -0.1291
  743MPD2    H511040   1.817   0.751   1.897 -0.9592 -0.0875 -0.2208
  743MPD2    N111041   1.364   0.571   1.899  0.2170  0.0729  0.1623
  743MPD2    H711042   1.268   0.581   1.928  0.3043 -0.4912  0.6349
  744TMC3    C111043   1.285   0.572   1.672 -0.2982 -0.4631  0.2143
  744TMC3    C211044   1.182   0.657   1.709  0.0236  0.6079 -0.4112
  744TMC3    C311045   1.078   0.672   1.625 -0.3355 -0.6078 -0.3477
  744TMC3    C411046   1.303   0.539   1.542 -0.4184  0.1808 -0.1079
  744TMC3    C511047   1.203   0.575   1.452  0.6576 -0.9799 -0.9067
  744TMC3    C611048   1.091   0.648   1.489  0.3164  0.4877  0.3582
  744TMC3     C11049   1.391   0.540   1.767 -0.3873  0.6572  0.1479
  744TMC3     O11050   1.483   0.471   1.731  0.0487  0.0378  0.1404
  744TMC3     H11051   1.179   0.711   1.803  1.7652  0.7419 -0.4405
  744TMC3    H111052   1.385   0.473   1.514  0.1189 -0.2188  2.4216
  744TMC3    H211053   1.027   0.690   1.413 -1.0017  0.9092  1.7077
  744TMC3    C711054   1.249   0.564   1.315 -0.4891  0.3648  0.5572
  744TMC3    C811055   0.969   0.754   1.664 -0.2380 -0.3854 -0.0548
  744TMC3    O111056   1.369   0.578   1.292  0.0165 -0.1985  0.5869
  744TMC3    O211057   0.978   0.795   1.779 -0.2003 -0.1748 -0.2244
  745TMC3    C111058   4.404   3.691  13.606  1.0266  0.6960  0.1357
  745TMC3    C211059   4.335   3.731  13.714  0.0125 -0.0494  0.1832
  745TMC3    C311060   4.209   3.779  13.698  0.4236  0.4968 -0.7445
  745TMC3    C411061   4.350   3.668  13.488 -0.8938  0.1307 -0.7324
  745TMC3    C511062   4.221   3.710  13.471  0.5803 -0.5349 -0.0442
  745TMC3    C611063   4.149   3.766  13.572 -0.5154 -0.0270  0.1237
  745TMC3     C11064   4.548   3.708  13.611  0.4888 -0.3558  0.0220
  745TMC3     O11065   4.581   3.723  13.729 -0.0923 -0.2813  0.4226
  745TMC3     H11066   4.379   3.738  13.813  0.4498  1.6154 -0.1246
  745TMC3    H111067   4.403   3.636  13.400  0.4646 -0.6594  0.3728
  745TMC3    H211068   4.050   3.804  13.548  0.2538  1.5772 -0.4751
  745TMC3    C711069   4.145   3.665  13.357  0.2668 -0.1518  0.3374
  745TMC3    C811070   4.185   3.905  13.763  0.4146  0.2894  0.3262
  745TMC3    O111071   4.029   3.646  13.380  0.5085 -0.1136  0.2996
  745TMC3    O211072   4.091   3.969  13.722  0.0126 -0.2237  0.0924
  746TMC3    C111073   1.740   0.808  11.081  0.4016 -0.6687 -0.0225
  746TMC3    C211074   1.836   0.744  11.011 -0.6663  0.3296 -0.1365
  746TMC3    C311075   1.827   0.607  10.981 -0.0533  0.5396 -0.7673
  746TMC3    C411076   1.648   0.725  11.146 -0.2398 -0.0446  0.0685
  746TMC3    C511077   1.658   0.591  11.137  0.6016 -0.1506 -0.7378
  746TMC3    C611078   1.742   0.525  11.049 -0.1554 -0.2723  0.2758
  746TMC3     C11079   1.766   0.938  11.137  0.6036 -0.2099 -0.3818
  746TMC3     O11080   1.669   1.002  11.180 -0.1212  0.2475 -0.8282
  746TMC3     H11081   1.908   0.805  10.957 -2.1096  1.5437 -0.6907
  746TMC3    H111082   1.562   0.765  11.199 -1.2560 -0.9766 -0.8887
  746TMC3    H211083   1.752   0.417  11.046  0.0314 -0.2582  0.4059
  746TMC3    C711084   1.526   0.535  11.178 -0.7508 -0.4315  0.4096
  746TMC3    C811085   1.920   0.564  10.873 -0.7177  0.2528  0.0543
  746TMC3    O111086   1.479   0.573  11.284  0.0142  0.2473  0.0510
  746TMC3    O211087   1.966   0.451  10.880  0.1653  0.2505  0.0189
  747TMC3    C111088   4.105   0.875  10.972 -0.9648 -0.6812  0.0635
  747TMC3    C211089   4.032   0.777  11.041  0.1727 -0.3483 -0.0052
  747TMC3    C311090   4.060   0.769  11.174  0.5185 -0.2483  0.1050
  747TMC3    C411091   4.209   0.947  11.028 -0.7653 -0.1239 -0.0024
  747TMC3    C511092   4.232   0.935  11.161 -0.5233  0.7480  0.3436
  747TMC3    C611093   4.157   0.847  11.236  0.0700  0.4206 -0.0066
  747TMC3     C11094   4.095   0.885  10.834  0.3180 -0.3383 -0.2783
  747TMC3     O11095   4.136   0.985  10.775 -0.0148 -0.3923  0.1917
  747TMC3     H11096   3.950   0.724  10.995  0.1827  0.4050 -0.8870
  747TMC3    H111097   4.255   1.032  10.977 -0.3918  0.6114  1.5568
  747TMC3    H211098   4.170   0.840  11.343 -0.2124 -1.4916 -0.0897
  747TMC3    C711099   4.346   0.990  11.230 -0.1758 -0.3107  0.0878
  747TMC3    C811100   3.941   0.719  11.244  0.2258  0.1962 -0.4118
  747TMC3    O111101   4.328   1.025  11.348  0.1482 -0.0550  0.5664
  747TMC3    O211102   3.888   0.626  11.182 -0.0217  0.3123  0.2236
  748MPD2     C11103   0.805   2.476   1.348  0.2133  0.7977  0.0210
  748MPD2    C111104   0.808   2.360   1.418  0.0772 -0.4287 -0.2710
  748MPD2    C211105   0.883   2.255   1.363 -0.6372  0.9583  0.1093
  748MPD2    C311106   0.959   2.276   1.247  0.1414 -0.2615  0.0550
  748MPD2    C411107   0.949   2.394   1.183 -0.2972  0.2728  0.3840
  748MPD2    C511108   0.868   2.494   1.226 -0.0279 -0.4718  0.1173
  748MPD2     H11109   0.899   2.172   1.431  1.1288  0.8553 -0.4213
  748MPD2    H111110   1.020   2.419   1.105 -0.1081 -0.5366  0.2952
  748MPD2    H211111   0.754   2.565   1.384 -0.8002  0.9562 -1.7991
  748MPD2    H311112   0.877   2.585   1.167 -4.1639  0.7033  1.2773
  748MPD2     N11113   1.048   2.174   1.218  0.5235 -0.1651  0.1209
  748MPD2    H511114   1.057   2.105   1.292 -0.7542 -0.9395 -0.4403
  748MPD2    N111115   0.753   2.374   1.551 -0.0910  0.3582  0.3133
  748MPD2    H711116   0.699   2.457   1.572 -1.2979  0.1419 -1.8406
  749TMC3    C111117   1.191   2.025   1.112  0.5677  0.7532  0.5077
  749TMC3    C211118   1.206   1.958   1.233 -0.5321  0.2937 -0.2208
  749TMC3    C311119   1.300   1.853   1.225 -0.0684  0.4460 -0.4342
  749TMC3    C411120   1.249   1.992   0.991  0.2567 -0.3279 -0.8691
  749TMC3    C511121   1.333   1.878   0.996  0.5270 -0.0735 -0.0973
  749TMC3    C611122   1.356   1.810   1.109  0.2802  0.1654  0.3451
  749TMC3     C11123   1.123   2.152   1.108  0.1749 -0.0538  0.6593
  749TMC3     O11124   1.147   2.231   1.017 -0.4092 -0.3371 -0.3519
  749TMC3     H11125   1.176   2.011   1.323  1.3023 -1.3041  1.3507
  749TMC3    H111126   1.238   2.054   0.902 -0.8694 -1.5614 -1.6009
  749TMC3    H211127   1.431   1.733   1.114  0.7961  0.4916 -2.4155
  749TMC3    C711128   1.422   1.842   0.888 -0.1761  0.5004  0.3529
  749TMC3    C811129   1.371   1.829   1.357 -0.3855 -0.3655  0.1104
  749TMC3    O111130   1.536   1.797   0.912  0.0312  0.1970  0.3571
  749TMC3    O211131   1.343   1.900   1.452  0.1320 -0.7095 -0.0759
  750MPD2     C11132   1.814   2.692  11.057  0.1068 -0.3196 -0.1006
  750MPD2    C111133   1.717   2.622  11.121 -0.1088  0.0638 -0.1507
  750MPD2    C211134   1.658   2.509  11.059 -0.0601  0.6958  0.3643
  750MPD2    C311135   1.705   2.461  10.938 -0.5731 -0.1504 -0.0045
  750MPD2    C411136   1.799   2.537  10.869 -0.3900  0.3028 -0.2673
  750MPD2    C511137   1.847   2.653  10.928  0.1580 -0.0548 -0.2608
  750MPD2     H11138   1.570   2.474  11.111  0.5175  0.8385  1.4179
  750MPD2    H111139   1.840   2.514  10.772  0.3034  1.8834 -0.3630
  750MPD2    H211140   1.856   2.786  11.089  0.5247 -1.5603  3.0421
  750MPD2    H311141   1.930   2.710  10.888 -1.3798  0.7896 -2.2478
  750MPD2     N11142   1.655   2.341  10.880 -0.5255  0.4322 -0.3462
  750MPD2    H511143   1.679   2.322  10.783  0.1333 -1.2501  0.1537
  750MPD2    N111144   1.671   2.689  11.239  0.7569 -0.5120 -0.3394
  750MPD2    H711145   1.692   2.788  11.252 -2.2621  0.0725  0.2283
  751TMC3    C111146   1.552   2.126  10.868  0.0841 -0.3064 -0.3241
  751TMC3    C211147   1.475   2.028  10.927 -0.7579  0.7526  0.1054
  751TMC3    C311148   1.487   1.900  10.882  0.6427 -0.4315  1.2380
  751TMC3    C411149   1.620   2.097  10.755 -0.2845 -0.1844  0.7951
  751TMC3    C511150   1.624   1.968  10.714 -0.1867 -0.0211  0.3937
  751TMC3    C611151   1.567   1.866  10.781  0.4657 -0.0632  0.4420
  751TMC3     C11152   1.574   2.245  10.946  0.7906 -0.3799 -0.4324
  751TMC3     O11153   1.548   2.240  11.064  0.2717  0.0424  0.0927
  751TMC3     H11154   1.414   2.054  11.014 -0.8912 -0.9276  0.5139
  751TMC3    H111155   1.683   2.172  10.708  0.1897 -1.9093 -1.3501
  751TMC3    H211156   1.590   1.763  10.756  0.8210 -0.2038  1.3517
  751TMC3    C711157   1.703   1.941  10.594 -0.5636  0.1606 -0.0196
  751TMC3    C811158   1.418   1.796  10.943 -0.0752  0.4769  0.1493
  751TMC3    O111159   1.791   1.855  10.588  0.2667 -0.1788  0.3033
  751TMC3    O211160   1.445   1.682  10.896  0.4356 -0.3621  0.1498
  752TMC3    C111161   0.312   2.309  17.397 -0.1622  0.2983  0.9178
  752TMC3    C211162   0.331   2.209  17.490 -0.0980  0.1351 -0.2617
  752TMC3    C311163   0.287   2.240  17.617  0.1012  0.6628  0.6682
  752TMC3    C411164   0.263   2.436  17.427  0.5423  0.0472  0.5974
  752TMC3    C511165   0.234   2.465  17.559 -0.1227  0.5916  0.4955
  752TMC3    C611166   0.237   2.364  17.651  0.6549  0.1796  0.0573
  752TMC3     C11167   0.361   2.291  17.259 -0.1664  0.0876  0.7550
  752TMC3     O11168   0.475   2.242  17.249  0.3264  0.3207 -0.0613
  752TMC3     H11169   0.363   2.113  17.452 -0.5689 -0.8241  1.7492
  752TMC3    H111170   0.236   2.510  17.352 -0.0033  0.4546  1.1915
  752TMC3    H211171   0.207   2.392   0.012  1.3680 -1.8663  0.8211
  752TMC3    C711172   0.286   2.591  17.612  0.0939  0.2972  0.0858
  752TMC3    C811173   0.256   2.118  17.698 -0.2137 -0.4324 -0.1995
  752TMC3    O111174   0.317   2.587  17.732  0.1009 -0.2429 -0.5620
  752TMC3    O211175   0.270   2.007  17.652 -0.2601  0.0409 -0.0335
  753TMC3    C111176   2.345   3.764  13.501  0.8479  0.0991  0.2438
  753TMC3    C211177   2.377   3.745  13.638 -0.6954 -0.6291 -0.3219
  753TMC3    C311178   2.349   3.621  13.682  0.2660  0.4697  0.2710
  753TMC3    C411179   2.300   3.667  13.416 -0.3178  0.7298 -0.1242
  753TMC3    C511180   2.262   3.549  13.473  0.4897 -0.3427 -0.4085
  753TMC3    C611181   2.284   3.522  13.607 -0.1408 -0.2869 -0.3451
  753TMC3     C11182   2.389   3.880  13.433 -0.1804  0.7840 -0.0591
  753TMC3     O11183   2.347   3.907  13.322  0.1927 -0.0244 -0.1433
  753TMC3     H11184   2.397   3.822  13.712 -2.0147 -0.3490 -0.2549
  753TMC3    H111185   2.258   3.699  13.322  0.7832  3.3912  0.2685
  753TMC3    H211186   2.239   3.433  13.649  1.2024 -1.6294 -1.7212
  753TMC3    C711187   2.179   3.462  13.394  0.4663 -0.6174  0.6589
  753TMC3    C811188   2.389   3.585  13.820 -0.3324 -0.1993  0.2232
  753TMC3    O111189   2.125   3.523  13.302  0.4279  0.1851 -0.3949
  753TMC3    O211190   2.331   3.484  13.860 -0.5040 -0.0770 -0.4557
  754MPD2     C11191   1.666   2.414  13.563 -0.3102  0.6452  0.5437
  754MPD2    C111192   1.690   2.282  13.522 -0.6371 -0.1473  0.7328
  754MPD2    C211193   1.599   2.224  13.437  0.2611  0.1186 -0.6384
  754MPD2    C311194   1.486   2.292  13.394 -0.0295  0.3774 -0.2444
  754MPD2    C411195   1.466   2.422  13.439  0.7816 -0.1037 -0.0832
  754MPD2    C511196   1.558   2.483  13.522 -0.5254  0.0097  0.6398
  754MPD2     H11197   1.608   2.120  13.407 -0.8009 -0.7293  2.0053
  754MPD2    H111198   1.379   2.482  13.415  0.7255 -0.3940 -0.6055
  754MPD2    H211199   1.726   2.460  13.641 -0.4309  0.3950  0.7836
  754MPD2    H311200   1.527   2.583  13.550 -1.8250  0.0464 -0.9494
  754MPD2     N11201   1.379   2.231  13.328  0.2824  0.2700  0.2385
  754MPD2    H511202   1.306   2.296  13.299  0.7389  0.2390 -0.9909
  754MPD2    N111203   1.811   2.234  13.566 -0.1221  0.4521  0.4652
  754MPD2    H711204   1.871   2.309  13.599  0.5344 -0.1219  0.5790
  755MPD2     C11205   0.746   2.670  13.556  1.1727  0.1779  0.6320
  755MPD2    C111206   0.681   2.552  13.543  0.3802  0.0216 -0.2330
  755MPD2    C211207   0.738   2.442  13.483 -1.2134 -0.2896 -0.5460
  755MPD2    C311208   0.867   2.446  13.433 -0.7095  0.3843  0.1318
  755MPD2    C411209   0.936   2.556  13.444  0.3612  0.2983 -0.4352
  755MPD2    C511210   0.877   2.666  13.510  0.0035  0.2648  0.2983
  755MPD2     H11211   0.679   2.351  13.479 -0.4439 -0.8870  1.5087
  755MPD2    H111212   1.038   2.556  13.408  0.4669  1.4373 -0.1298
  755MPD2    H211213   0.716   2.754  13.617 -2.6273 -0.5767 -0.2068
  755MPD2    H311214   0.941   2.751  13.531  2.1303 -0.7850 -1.9122
  755MPD2     N11215   0.935   2.341  13.383  0.1396  0.2820  0.5480
  755MPD2    H511216   1.034   2.344  13.362 -0.3878 -2.2764 -2.3568
  755MPD2    N111217   0.549   2.532  13.590  0.9496 -0.5331 -0.1632
  755MPD2    H711218   0.510   2.440  13.577 -2.4478  0.8361  0.2157
  756MPD2     C11219   2.212   1.944   9.420 -0.0576  0.2167  0.1923
  756MPD2    C111220   2.125   1.946   9.522  0.3117 -0.3302  1.1845
  756MPD2    C211221   2.042   1.837   9.529  0.0590 -0.6649 -0.5668
  756MPD2    C311222   2.044   1.730   9.443 -0.1746  0.3383  0.2931
  756MPD2    C411223   2.147   1.726   9.355 -0.0111 -0.6841  0.6182
  756MPD2    C511224   2.224   1.839   9.335 -0.1050 -0.1567 -0.2425
  756MPD2     H11225   1.975   1.835   9.614  1.4984 -1.3654  0.5500
  756MPD2    H111226   2.166   1.641   9.289  3.1433  0.3908  0.1097
  756MPD2    H211227   2.274   2.028   9.388  0.5867 -0.4922 -0.4026
  756MPD2    H311228   2.298   1.836   9.256 -0.8597 -1.3694 -0.9081
  756MPD2     N11229   1.953   1.624   9.464  0.7570  0.2320 -0.3714
  756MPD2    H511230   1.885   1.636   9.539  1.6953  0.8168  0.3759
  756MPD2    N111231   2.109   2.050   9.616  0.1345  0.2132  0.1121
  756MPD2    H711232   2.033   2.048   9.683 -1.0098 -0.4009 -1.2096
  757MPD2     C11233   1.258   1.103   8.883 -0.0437 -0.1844 -0.0561
  757MPD2    C111234   1.241   1.237   8.926 -0.1001 -0.3340  0.0612
  757MPD2    C211235   1.311   1.273   9.039 -0.0222  0.4816  0.3740
  757MPD2    C311236   1.409   1.192   9.094  0.1073 -1.0796 -0.6955
  757MPD2    C411237   1.438   1.067   9.039  0.0207 -0.9248  0.4624
  757MPD2    C511238   1.363   1.027   8.934 -0.8848 -0.6733 -0.2287
  757MPD2     H11239   1.312   1.365   9.097 -2.4560  0.8926 -0.2499
  757MPD2    H111240   1.518   1.001   9.071  1.1796 -0.4032 -1.3922
  757MPD2    H211241   1.198   1.061   8.803 -0.9617  1.4054 -0.1935
  757MPD2    H311242   1.388   0.929   8.897 -0.6714 -0.2841 -1.1278
  757MPD2     N11243   1.485   1.249   9.195  0.4572  0.5294  0.4847
  757MPD2    H511244   1.455   1.344   9.215  0.8683  0.6851  0.3590
  757MPD2    N111245   1.128   1.302   8.877 -0.4019 -0.3176  0.0870
  757MPD2    H711246   1.093   1.255   8.794  2.4013 -0.6719 -0.8825
  758MPD2     C11247   1.425   1.808  15.939 -0.0849 -0.2099 -0.0991
  758MPD2    C111248   1.462   1.697  16.012  1.1746  0.0071  0.3199
  758MPD2    C211249   1.359   1.624  16.075  0.1184 -0.7913  0.5989
  758MPD2    C311250   1.223   1.672  16.076 -0.5098 -0.2369 -0.0490
  758MPD2    C411251   1.191   1.775  15.997  0.4002 -0.8488 -0.6087
  758MPD2    C511252   1.293   1.842  15.932 -0.1990 -0.4136 -0.8524
  758MPD2     H11253   1.387   1.553  16.151  1.7497 -0.1805  0.5737
  758MPD2    H111254   1.089   1.810  15.987 -0.5621 -2.7879  2.3526
  758MPD2    H211255   1.497   1.860  15.877  1.6141 -1.9126  0.4075
  758MPD2    H311256   1.265   1.919  15.860  0.1789  0.1859 -0.3555
  758MPD2     N11257   1.125   1.627  16.169 -0.2405  0.0289 -0.8829
  758MPD2    H511258   1.040   1.682  16.166 -1.0451 -1.2256 -1.0121
  758MPD2    N111259   1.601   1.672  16.023 -0.8213 -0.3634  0.6878
  758MPD2    H711260   1.663   1.744  15.989 -2.2919 -0.5394 -2.3612
  759MPD2     C11261   4.718   0.224   9.341 -0.0649  0.5539 -0.0847
  759MPD2    C111262   0.056   0.219   9.462  0.5146  0.8827  0.2644
  759MPD2    C211263   0.167   0.304   9.482  0.2667 -0.6505 -0.1035
  759MPD2    C311264   0.201   0.392   9.389 -0.6744 -0.2019 -0.4656
  759MPD2    C411265   0.130   0.401   9.277 -0.4307  0.4365  0.1963
  759MPD2    C511266   0.022   0.315   9.254  0.3373  0.7072 -0.0712
  759MPD2     H11267   0.214   0.302   9.580  0.7940 -1.5186 -0.3841
  759MPD2    H111268   0.136   0.475   9.198 -1.4459 -0.1230 -0.4073
  759MPD2    H211269   4.636   0.158   9.314 -2.7450  2.8797  2.4328
  759MPD2    H311270   4.701   0.330   9.162  1.3935  1.8711 -0.5241
  759MPD2     N11271   0.305   0.480   9.425  0.1128  0.0611 -0.0721
  759MPD2    H511272   0.352   0.445   9.508  0.3530 -0.0845 -0.2685
  759MPD2    N111273   0.032   0.120   9.555 -0.3446 -0.3650  0.1615
  759MPD2    H711274   0.085   0.127   9.642 -0.2794 -1.6534  0.2250
  760MPD2     C11275   4.565   2.516  11.369 -0.1813  0.7980  0.2578
  760MPD2    C111276   4.693   2.465  11.377 -0.4538 -0.0221  0.5768
  760MPD2    C211277   4.714   2.340  11.430  0.2191 -0.0360 -0.3335
  760MPD2    C311278   4.606   2.258  11.477  0.5397  0.8026  0.3664
  760MPD2    C411279   4.473   2.314  11.479 -0.1659  0.3394 -0.9719
  760MPD2    C511280   4.459   2.441  11.420 -0.6012  0.0327 -0.3923
  760MPD2     H11281   0.080   2.301  11.418 -0.0591 -1.1215  0.9306
  760MPD2    H111282   4.389   2.253  11.510  0.7334  0.1630  1.1003
  760MPD2    H211283   4.534   2.611  11.327 -0.5590 -0.0153 -1.3121
  760MPD2    H311284   4.361   2.487  11.415  0.4009  2.3737  1.5336
  760MPD2     N11285   4.629   2.124  11.519  0.8778  0.6941  0.2754
  760MPD2    H511286   4.550   2.073  11.559  0.5915  0.2337 -0.8460
  760MPD2    N111287   0.072   2.537  11.322 -0.1074  0.4228  0.8366
  760MPD2    H711288   0.162   2.510  11.360 -0.4532  1.7288  2.5554
  761MPD2     C11289   1.029   1.622  11.199  0.5624  0.1451 -0.0797
  761MPD2    C111290   1.065   1.593  11.072  0.2680 -0.6685  0.1312
  761MPD2    C211291   1.168   1.663  11.015  0.3338 -0.6536 -0.0918
  761MPD2    C311292   1.242   1.753  11.098  0.1645  0.1664  0.2826
  761MPD2    C411293   1.203   1.773  11.229 -0.0347 -0.0015  0.0232
  761MPD2    C511294   1.095   1.706  11.280  0.4513  0.0669  0.4933
  761MPD2     H11295   1.210   1.646  10.917  0.4993 -0.1348 -0.1123
  761MPD2    H111296   1.258   1.847  11.286 -0.1867 -1.0252  1.5051
  761MPD2    H211297   0.951   1.563  11.246 -1.2618  2.7189  0.0749
  761MPD2    H311298   1.058   1.718  11.381 -3.0420  0.6996 -0.8544
  761MPD2     N11299   1.339   1.838  11.050  0.2589  0.0494 -0.0796
  761MPD2    H511300   1.354   1.929  11.093  0.9003  0.0225 -0.2498
  761MPD2    N111301   0.980   1.508  10.989 -0.0602 -0.1939 -0.3940
  761MPD2    H711302   0.913   1.452  11.041  0.1947 -0.0366  0.1054
  762MPD2     C11303   1.376   1.557  10.584 -0.0382  0.4710  0.0742
  762MPD2    C111304   1.345   1.435  10.533 -0.0379 -0.3133 -0.5869
  762MPD2    C211305   1.439   1.368  10.449  0.0479  0.7140 -0.0078
  762MPD2    C311306   1.546   1.436  10.402 -0.3617  0.1226  0.1254
  762MPD2    C411307   1.573   1.562  10.442  0.2827  0.1158 -0.3325
  762MPD2    C511308   1.484   1.624  10.529 -0.7194  0.4480  0.6988
  762MPD2     H11309   1.419   1.266  10.420 -0.2217 -0.0563  2.8744
  762MPD2    H111310   1.662   1.621  10.422 -0.4515  0.9079 -1.2297
  762MPD2    H211311   1.314   1.607  10.657  0.0660 -0.7477  0.9945
  762MPD2    H311312   1.506   1.719  10.577 -2.2985 -0.2506  2.8235
  762MPD2     N11313   1.646   1.354  10.331 -0.5979 -0.6011 -0.4989
  762MPD2    H511314   1.627   1.255  10.317 -1.5742 -0.5553  0.5097
  762MPD2    N111315   1.227   1.383  10.575  0.5368  0.0964  0.2568
  762MPD2    H711316   1.188   1.444  10.646 -1.1011 -0.1661 -0.4104
  763MPD2     C11317   3.265   2.181  16.179  0.0686  0.0253  0.2759
  763MPD2    C111318   3.151   2.247  16.158 -0.4462  0.5486 -0.3524
  763MPD2    C211319   3.127   2.369  16.221  0.5253 -0.2928 -0.1399
  763MPD2    C311320   3.219   2.418  16.306 -0.1902 -0.0303 -0.2430
  763MPD2    C411321   3.332   2.345  16.333 -0.2086 -0.6100 -0.1367
  763MPD2    C511322   3.356   2.229  16.272 -0.2275 -0.0906 -0.1507
  763MPD2     H11323   3.035   2.423  16.207  0.7979  0.6471  1.7705
  763MPD2    H111324   3.410   2.382  16.398  0.7015 -2.1760 -0.3428
  763MPD2    H211325   3.291   2.090  16.126 -2.6426 -0.4925 -0.1267
  763MPD2    H311326   3.457   2.189  16.282 -1.1638 -2.1503  1.0356
  763MPD2     N11327   3.225   2.552  16.349 -0.8226 -0.4663  0.4893
  763MPD2    H511328   3.314   2.592  16.375 -0.1644 -0.4151 -1.8503
  763MPD2    N111329   3.047   2.192  16.078  0.0890 -0.5703 -0.5156
  763MPD2    H711330   2.966   2.245  16.049  0.6194  0.8042  0.5286
  764MPD2     C11331   0.938   2.821  17.119  0.2214  0.3228  0.1305
  764MPD2    C111332   0.894   2.950  17.134  0.2259 -0.2113  0.2291
  764MPD2    C211333   0.954   3.041  17.225 -0.3647 -0.2725 -0.3986
  764MPD2    C311334   1.051   3.002  17.315 -0.2486  0.6122 -1.0279
  764MPD2    C411335   1.091   2.870  17.298  0.2742 -0.0140 -0.4337
  764MPD2    C511336   1.031   2.782  17.200  0.4115 -0.6321  0.3588
  764MPD2     H11337   0.916   3.141  17.206  0.9757  0.4306  0.5879
  764MPD2    H111338   1.185   2.831  17.335 -0.0231  0.0330  0.3648
  764MPD2    H211339   0.899   2.743  17.055  0.6982 -0.2441  0.5288
  764MPD2    H311340   1.067   2.681  17.184  0.8008 -0.5361  0.6343
  764MPD2     N11341   1.106   3.092  17.409 -0.1477  0.0592 -0.4153
  764MPD2    H511342   1.069   3.187  17.403  0.2019  0.2393  0.3089
  764MPD2    N111343   0.800   3.013  17.042 -0.0555  0.5897 -0.2055
  764MPD2    H711344   0.789   3.114  17.049 -1.4346  0.4358 -0.1252
  765MPD2     C11345   1.258   1.200  15.492  0.0498  0.4905  0.2091
  765MPD2    C111346   1.250   1.239  15.620 -0.0172 -0.8126 -0.0041
  765MPD2    C211347   1.353   1.193  15.710 -0.0240 -1.2692  0.0272
  765MPD2    C311348   1.449   1.107  15.665 -0.1085 -0.1893  0.6290
  765MPD2    C411349   1.455   1.064  15.532  0.0390 -0.3282 -0.1530
  765MPD2    C511350   1.352   1.110  15.454  0.1074  0.7668  0.0261
  765MPD2     H11351   1.357   1.205  15.818  2.2357 -0.2682 -0.1627
  765MPD2    H111352   1.525   0.996  15.484 -0.3399 -0.5745 -0.3612
  765MPD2    H211353   1.188   1.236  15.417  0.2931  0.0625 -0.2289
  765MPD2    H311354   1.360   1.075  15.352 -1.9400 -1.2351  0.5591
  765MPD2     N11355   1.553   1.071  15.755 -0.1008 -0.1141  0.9370
  765MPD2    H511356   1.553   1.130  15.838 -1.7211 -1.8728  2.1765
  765MPD2    N111357   1.138   1.321  15.646 -0.2753 -0.1913 -0.2432
  765MPD2    H711358   1.078   1.343  15.568 -0.4980 -1.1000 -0.3267
  766MPD2     C11359   0.717   1.030  15.386 -0.3473  0.2840 -0.0155
  766MPD2    C111360   0.774   1.156  15.372 -0.7074  0.9016 -0.4595
  766MPD2    C211361   0.822   1.194  15.241 -0.5932  0.2348  0.3573
  766MPD2    C311362   0.815   1.104  15.133 -0.6660  0.4187  0.0907
  766MPD2    C411363   0.763   0.981  15.156 -0.4664  0.6307 -0.6045
  766MPD2    C511364   0.705   0.945  15.274 -0.8997 -0.5081 -0.1115
  766MPD2     H11365   0.860   1.294  15.220 -1.7185  0.8280  1.2080
  766MPD2    H111366   0.767   0.913  15.071  0.1215 -0.8120  0.5787
  766MPD2    H211367   0.678   1.002  15.483  1.6488 -0.8410  0.4715
  766MPD2    H311368   0.662   0.846  15.288  0.3971 -1.2456 -1.2577
  766MPD2     N11369   0.857   1.136  14.997  0.8791 -0.1166  0.5876
  766MPD2    H511370   0.821   1.077  14.922 -0.7427  0.2597  1.0508
  766MPD2    N111371   0.762   1.238  15.485  0.3958  0.0349 -0.0407
  766MPD2    H711372   0.757   1.209  15.582 -1.1326 -0.5259 -0.2762
  767MPD2     C11373   0.531   1.342  15.162 -0.4908  0.6785 -0.2606
  767MPD2    C111374   0.607   1.408  15.067 -0.5837 -1.0250  0.5138
  767MPD2    C211375   0.570   1.398  14.938 -0.3812  0.4300 -0.0175
  767MPD2    C311376   0.472   1.305  14.893  0.1853 -0.0537 -0.1676
  767MPD2    C411377   0.403   1.233  14.986 -0.2670 -0.3497  0.1059
  767MPD2    C511378   0.439   1.249  15.116 -0.9787  0.4684  0.9180
  767MPD2     H11379   0.614   1.462  14.862 -0.7030  2.1777  1.2658
  767MPD2    H111380   0.324   1.165  14.958  1.1773 -1.7678 -0.5418
  767MPD2    H211381   0.547   1.353  15.269  2.6282 -1.6238 -0.4947
  767MPD2    H311382   0.383   1.186  15.183 -3.3189  2.2059  0.5851
  767MPD2     N11383   0.458   1.281  14.751 -0.1063 -0.5677 -0.0948
  767MPD2    H511384   0.515   1.338  14.690  0.3469 -0.9440 -0.0288
  767MPD2    N111385   0.706   1.493  15.115 -0.3199 -0.9522 -0.2486
  767MPD2    H711386   0.730   1.477  15.212 -1.9849  0.7929  0.4401
  768MPD2     C11387   1.582   4.513  10.527 -0.0470  0.2577  0.2782
  768MPD2    C111388   1.563   4.645  10.579  0.4034 -0.5241  0.2109
  768MPD2    C211389   1.643   4.688  10.680 -0.7598 -0.3507 -0.3090
  768MPD2    C311390   1.751   4.607  10.726  0.3054 -0.0270  0.2601
  768MPD2    C411391   1.779   4.488  10.664  0.0748 -0.5106 -0.0725
  768MPD2    C511392   1.693   4.439  10.563  0.2700  0.8359  0.2814
  768MPD2     H11393   1.618   0.042  10.737  1.3191  0.0872 -0.0605
  768MPD2    H111394   1.857   4.417  10.689  0.7176  0.3472  0.3452
  768MPD2    H211395   1.518   4.462  10.455  1.0815  0.4885 -0.8932
  768MPD2    H311396   1.712   4.340  10.522  1.3319  1.5803 -1.0545
  768MPD2     N11397   1.822   4.627  10.841 -0.1475  0.1206 -0.0308
  768MPD2    H511398   1.893   4.559  10.868  1.0388  1.3700  0.0162
  768MPD2    N111399   1.442   4.715  10.550 -0.7875 -0.2277  0.3191
  768MPD2    H711400   1.436   0.070  10.597 -0.7929  0.2008 -0.5060
  769MPD2     C11401   2.411   2.865  15.039  0.3675 -0.5117 -0.2442
  769MPD2    C111402   2.297   2.857  15.117  0.2678 -0.6467  0.3582
  769MPD2    C211403   2.306   2.880  15.249 -0.7295  0.0623  0.6476
  769MPD2    C311404   2.432   2.917  15.309 -0.1053 -0.2753 -0.0815
  769MPD2    C411405   2.543   2.931  15.232  0.2921 -0.5870  0.3153
  769MPD2    C511406   2.531   2.903  15.098 -0.2271  0.1900 -0.5632
  769MPD2     H11407   2.221   2.862  15.314 -0.5042  0.5676  1.0845
  769MPD2    H111408   2.644   2.942  15.270  0.0887  1.7281  0.1552
  769MPD2    H211409   2.414   2.858  14.931  0.6660  3.8473 -0.5129
  769MPD2    H311410   2.622   2.916  15.040 -0.1312 -0.1098 -0.4829
  769MPD2     N11411   2.433   2.960  15.442  0.3623 -0.2819 -0.1124
  769MPD2    H511412   2.348   2.946  15.496  0.2065 -1.4194 -0.6424
  769MPD2    N111413   2.180   2.844  15.047  0.7344 -0.5387  0.2285
  769MPD2    H711414   2.179   2.839  14.946  1.1765 -0.7744  0.2342
  770MPD2     C11415   1.613   2.210  15.251 -0.4629  0.6985  0.1439
  770MPD2    C111416   1.701   2.208  15.144  0.3105  0.1388 -0.0016
  770MPD2    C211417   1.721   2.322  15.068 -0.4981 -0.1726  0.6924
  770MPD2    C311418   1.654   2.441  15.103  0.0401 -0.0959 -0.3092
  770MPD2    C411419   1.564   2.436  15.208 -0.5398 -0.6369  0.5999
  770MPD2    C511420   1.552   2.325  15.285  0.2970  0.4973  0.4218
  770MPD2     H11421   1.787   2.326  14.982  0.7882  1.4968  1.7648
  770MPD2    H111422   1.516   2.523  15.251 -0.0785 -1.7267  3.3483
  770MPD2    H211423   1.595   2.128  15.320 -0.1073 -0.4473 -1.1078
  770MPD2    H311424   1.489   2.339  15.373 -1.0213  0.1881 -0.4756
  770MPD2     N11425   1.681   2.561  15.032  0.7933 -0.2605 -0.3314
  770MPD2    H511426   1.747   2.551  14.955  0.4250 -0.4984 -0.6148
  770MPD2    N111427   1.779   2.091  15.128 -0.4429 -0.5483 -0.0876
  770MPD2    H711428   1.756   2.007  15.179 -1.4169 -2.2145 -3.2302
  771MPD2     C11429   3.253   0.766  13.387  0.2370  0.6972 -0.3423
  771MPD2    C111430   3.184   0.789  13.505  0.3202 -0.3274 -0.7418
  771MPD2    C211431   3.170   0.682  13.593 -0.3123  0.4637  0.5270
  771MPD2    C311432   3.207   0.553  13.550 -0.5832 -0.7116 -0.0679
  771MPD2    C411433   3.269   0.536  13.430 -0.7135 -0.4949 -0.2603
  771MPD2    C511434   3.296   0.643  13.347 -0.1146 -0.2991 -0.9253
  771MPD2     H11435   3.128   0.698  13.692 -2.2957 -1.7707  0.0416
  771MPD2    H111436   3.299   0.435  13.402 -0.4130 -0.7256  0.9164
  771MPD2    H211437   3.279   0.843  13.315  0.4902  0.3656 -0.6066
  771MPD2    H311438   3.352   0.625  13.256  1.3819  0.0993 -0.0921
  771MPD2     N11439   3.169   0.452  13.635  0.1605  0.5000 -0.5059
  771MPD2    H511440   3.139   0.482  13.727  0.0730 -0.9730 -0.0505
  771MPD2    N111441   3.134   0.920  13.529  0.0241  0.4845  0.1912
  771MPD2    H711442   3.183   1.002  13.495  2.4677 -1.5153 -1.1716
  772MPD2     C11443   2.391   1.294  13.661  0.2009 -0.0385 -0.2662
  772MPD2    C111444   2.476   1.212  13.737 -0.0786  0.1014  0.0101
  772MPD2    C211445   2.425   1.127  13.835  1.1381 -0.1576  0.8191
  772MPD2    C311446   2.283   1.110  13.862 -0.0602  0.5958 -0.1580
  772MPD2    C411447   2.203   1.195  13.782 -0.4028  0.2384  0.0403
  772MPD2    C511448   2.253   1.282  13.683 -0.0011  0.1459 -0.2189
  772MPD2     H11449   2.493   1.075  13.902  0.9384  1.1894  2.0679
  772MPD2    H111450   2.097   1.195  13.805 -0.5025  0.0571 -0.4059
  772MPD2    H211451   2.425   1.364  13.585  0.0252 -1.2787 -1.4770
  772MPD2    H311452   2.185   1.346  13.628  0.5793  1.9318  1.1393
  772MPD2     N11453   2.230   1.015  13.954 -0.0748 -0.2757  0.2749
  772MPD2    H511454   2.128   1.015  13.958 -0.1203 -2.3216 -0.5062
  772MPD2    N111455   2.614   1.208  13.718 -0.5489 -0.8190 -0.3121
  772MPD2    H711456   2.663   1.137  13.771 -0.5080  1.4059  2.5578
  773MPD2     C11457   1.411   2.695  17.119  0.4819 -0.2423  0.2820
  773MPD2    C111458   1.379   2.621  17.235 -0.0054 -0.8154 -0.1617
  773MPD2    C211459   1.436   2.664  17.356  0.0492  0.1546  0.6647
  773MPD2    C311460   1.522   2.776  17.360 -0.5221 -0.1693  0.7006
  773MPD2    C411461   1.558   2.834  17.242 -0.0655 -0.1976  0.1422
  773MPD2    C511462   1.505   2.790  17.125  0.8399  0.2242  0.7926
  773MPD2     H11463   1.416   2.601  17.442 -0.2587 -2.3850 -1.2583
  773MPD2    H111464   1.640   2.904  17.230  0.8255 -1.6973 -2.2788
  773MPD2    H211465   1.356   2.681  17.027 -0.2043  1.2529  0.4724
  773MPD2    H311466   1.513   2.855  17.039  3.2057 -2.6777 -1.1924
  773MPD2     N11467   1.576   2.816  17.485  0.2368  0.0448  0.0286
  773MPD2    H511468   1.552   2.760  17.565  2.2854 -3.0342 -1.4990
  773MPD2    N111469   1.301   2.503  17.230 -0.1601 -0.3654  0.1121
  773MPD2    H711470   1.280   2.450  17.314  1.4822 -2.6424 -0.9063
  774MPD2     C11471   1.477   1.291  13.129  0.3692 -0.1167 -0.3641
  774MPD2    C111472   1.485   1.274  13.263 -0.1902 -0.4404  0.1001
  774MPD2    C211473   1.533   1.377  13.344  0.2735  0.3406  0.1535
  774MPD2    C311474   1.578   1.496  13.289  0.0476 -1.5408  0.6137
  774MPD2    C411475   1.564   1.520  13.160  0.4495 -0.3950 -0.1492
  774MPD2    C511476   1.522   1.413  13.076 -0.6833 -0.2460 -0.0545
  774MPD2     H11477   1.529   1.375  13.452  1.4342 -0.3910  0.1731
  774MPD2    H111478   1.572   1.619  13.117  1.9377 -0.0610  0.8749
  774MPD2    H211479   1.446   1.209  13.065  0.5207 -1.3539  1.1716
  774MPD2    H311480   1.517   1.438  12.970 -0.6390  0.8318  0.2030
  774MPD2     N11481   1.612   1.604  13.374 -0.2633  0.1875  0.0120
  774MPD2    H511482   1.597   1.603  13.474  0.8388  0.4851  0.1798
  774MPD2    N111483   1.454   1.151  13.329  0.0671 -0.0715 -0.4105
  774MPD2    H711484   1.471   1.141  13.429 -0.0690  0.5566 -0.3252
  775MPD2     C11485   2.447   2.572  15.954 -0.9644 -0.7554  0.4791
  775MPD2    C111486   2.431   2.681  16.036  0.6951  0.4195 -0.1358
  775MPD2    C211487   2.510   2.797  16.017  0.2463 -0.2182  0.8007
  775MPD2    C311488   2.609   2.785  15.922 -0.2839  0.9509  0.1503
  775MPD2    C411489   2.626   2.678  15.836 -0.2656  0.6044 -0.2399
  775MPD2    C511490   2.533   2.573  15.846 -0.2643  0.1559 -0.5754
  775MPD2     H11491   2.495   2.891  16.068  0.1252  0.5566 -0.6614
  775MPD2    H111492   2.711   2.664  15.770 -0.7878  0.0244 -0.7890
  775MPD2    H211493   2.387   2.482  15.958  1.8371 -2.5280  2.4086
  775MPD2    H311494   2.552   2.483  15.788  1.2617 -0.1424  0.3910
  775MPD2     N11495   2.699   2.884  15.890  0.3090  0.4027  0.0204
  775MPD2    H511496   2.759   2.872  15.808  2.0188  0.3561  1.2861
  775MPD2    N111497   2.322   2.676  16.121  0.4267 -0.6513  0.1722
  775MPD2    H711498   2.257   2.599  16.111  0.9579 -1.1731  0.7397
  776MPD2     C11499   1.236   3.160  11.200  0.2360  0.0915 -1.2146
  776MPD2    C111500   1.339   3.184  11.299  0.4459 -0.2285  0.1774
  776MPD2    C211501   1.386   3.312  11.318  0.1969  0.0937  0.7444
  776MPD2    C311502   1.322   3.420  11.257 -0.6801 -0.2325 -0.2042
  776MPD2    C411503   1.220   3.392  11.168  0.6646 -0.1484  0.3774
  776MPD2    C511504   1.182   3.271  11.138 -0.0180  0.3016  0.4510
  776MPD2     H11505   1.461   3.336  11.393 -0.4230  1.4007  0.9407
  776MPD2    H111506   1.179   3.466  11.100 -0.7312 -0.4777  0.8526
  776MPD2    H211507   1.206   3.058  11.179 -0.7136 -0.4122  2.5406
  776MPD2    H311508   1.114   3.249  11.057  1.5469  0.2966 -0.8688
  776MPD2     N11509   1.365   3.559  11.264  0.3876  0.0954 -0.3450
  776MPD2    H511510   1.319   3.628  11.205 -0.9156  0.3174  0.9520
  776MPD2    N111511   1.390   3.073  11.363 -0.4573  0.1304  0.5906
  776MPD2    H711512   1.361   2.985  11.321 -0.2070  1.3497 -2.1043
  777MPD2     C11513   2.260   0.938   0.840  0.2528  0.1494  0.3065
  777MPD2    C111514   2.143   0.945   0.905 -0.0842  0.8927 -0.7434
  777MPD2    C211515   2.048   0.847   0.880 -0.1019 -0.1179 -0.5830
  777MPD2    C311516   2.060   0.751   0.788  0.1172 -0.1680  0.0247
  777MPD2    C411517   2.176   0.751   0.715 -0.2876 -0.1708  0.2369
  777MPD2    C511518   2.282   0.837   0.744  0.3770  0.4985 -0.0264
  777MPD2     H11519   1.958   0.843   0.941  1.2240 -3.0302  1.2152
  777MPD2    H111520   2.201   0.673   0.644  1.2940  0.7668 -0.2481
  777MPD2    H211521   2.342   1.007   0.861  1.8654 -2.1875  1.6747
  777MPD2    H311522   2.377   0.808   0.702  1.1216  1.4224  1.0431
  777MPD2     N11523   1.954   0.656   0.777 -0.2429 -0.4705 -0.1558
  777MPD2    H511524   1.877   0.674   0.840  1.5390  1.5017  1.4479
  777MPD2    N111525   2.131   1.033   1.015 -0.3541  0.1825 -0.1533
  777MPD2    H711526   2.212   1.088   1.043 -0.9201  1.3230 -0.7354
  778MPD2     C11527   3.037   1.059  15.087 -0.5180 -0.1438  0.4066
  778MPD2    C111528   3.131   0.963  15.041  0.0514 -0.8903 -0.0868
  778MPD2    C211529   3.190   0.975  14.915 -0.4548 -0.0023 -0.2851
  778MPD2    C311530   3.159   1.081  14.837  0.2529  0.7035  0.2558
  778MPD2    C411531   3.051   1.161  14.870  0.6692  0.1966  0.0475
  778MPD2    C511532   2.994   1.154  14.997  0.4359 -0.3592 -0.5896
  778MPD2     H11533   3.270   0.907  14.885  1.5716  1.6377  1.3425
  778MPD2    H111534   3.003   1.224  14.796 -1.2674 -1.4398 -0.0937
  778MPD2    H211535   2.996   1.071  15.186  1.9338  0.8399  1.2971
  778MPD2    H311536   2.914   1.223  15.021  0.6369  0.5194 -2.4981
  778MPD2     N11537   3.229   1.094  14.709  0.4111 -0.2747  0.3866
  778MPD2    H511538   3.297   1.023  14.685  0.5766 -0.8782  2.5807
  778MPD2    N111539   3.160   0.853  15.125  0.0836  0.1234 -0.3465
  778MPD2    H711540   3.216   0.782  15.079  2.1780  2.4872 -1.3821
  779MPD2     C11541   3.359   4.339  14.679 -0.1550  0.2230  0.5144
  779MPD2    C111542   3.252   4.334  14.587 -0.9798  0.1936  0.4805
  779MPD2    C211543   3.215   4.454  14.522  0.3751 -0.0365 -0.1080
  779MPD2    C311544   3.275   4.577  14.559  0.3253  0.0346 -0.2960
  779MPD2    C411545   3.369   4.577  14.655  0.0673  0.1897  0.2152
  779MPD2    C511546   3.413   4.457  14.715  0.1202 -0.4194 -0.0831
  779MPD2     H11547   3.142   4.456  14.442  1.4245 -3.1268 -1.1570
  779MPD2    H111548   3.417   4.669  14.687  0.9465 -0.4189  0.6594
  779MPD2    H211549   3.385   4.246  14.729  0.0590 -0.5193 -0.9747
  779MPD2    H311550   3.486   4.469  14.794  0.4547  3.2760 -0.9831
  779MPD2     N11551   3.231   4.694  14.495 -0.7043  0.4451 -0.1836
  779MPD2    H511552   3.151   4.688  14.434 -1.3231 -0.1335  0.6896
  779MPD2    N111553   3.200   4.207  14.552 -0.3720 -0.5453 -0.0268
  779MPD2    H711554   3.245   4.132  14.603 -0.7449  0.3326  1.5822
  780MPD2     C11555   1.927   4.442   1.115 -0.2511 -0.4801 -0.1111
  780MPD2    C111556   1.885   4.437   0.982  0.3623 -0.5736 -0.1823
  780MPD2    C211557   1.982   4.460   0.884 -0.1101  0.1268 -0.1236
  780MPD2    C311558   2.107   4.503   0.908  0.5511  0.3780  0.1630
  780MPD2    C411559   2.148   4.503   1.036  0.0304 -0.1677  0.3751
  780MPD2    C511560   2.063   4.475   1.136  0.0879  0.3415 -0.2312
  780MPD2     H11561   1.964   4.461   0.777 -0.2793 -0.6129 -0.1043
  780MPD2    H111562   2.248   4.537   1.057  0.6297 -0.3716 -2.1896
  780MPD2    H211563   1.863   4.413   1.197  0.6447 -2.3491 -0.0703
  780MPD2    H311564   2.084   4.486   1.242  1.2677 -1.8945 -0.2490
  780MPD2     N11565   2.182   4.539   0.795  0.2928 -0.2008  0.7707
  780MPD2    H511566   2.134   4.556   0.707  2.4815 -0.2903 -0.4444
  780MPD2    N111567   1.746   4.404   0.966 -0.4016  0.6387  0.1129
  780MPD2    H711568   1.679   4.406   1.042 -1.9936  1.7807 -1.3217
  781MPD2     C11569   4.213   1.661  11.904  0.2822 -0.2064 -0.0676
  781MPD2    C111570   4.280   1.579  11.996  0.4299  0.6304 -0.0241
  781MPD2    C211571   4.411   1.542  11.967  0.2870 -0.2180 -0.0043
  781MPD2    C311572   4.471   1.575  11.844  1.0041  0.1324  0.1794
  781MPD2    C411573   4.404   1.650  11.748 -0.5297  0.5462  0.5953
  781MPD2    C511574   4.274   1.701  11.782 -0.1336 -0.1663 -0.2592
  781MPD2     H11575   4.462   1.479  12.039  1.6836  0.5895 -0.2789
  781MPD2    H111576   4.450   1.681  11.655  0.3320 -3.1696 -0.2128
  781MPD2    H211577   4.111   1.691  11.921 -0.2519 -0.4505 -2.8771
  781MPD2    H311578   4.218   1.762  11.712 -0.1194 -0.0410 -0.1604
  781MPD2     N11579   4.596   1.517  11.809  0.1784  0.1770  0.3217
  781MPD2    H511580   4.624   1.522  11.712  2.2327 -0.9978  0.8625
  781MPD2    N111581   4.225   1.537  12.126  0.1675  0.2687  0.4630
  781MPD2    H711582   4.285   1.480  12.184  0.8328 -1.9399 -2.3973
  782MPD2     C11583   2.608   2.220   9.784  0.0690  0.0049  0.0208
  782MPD2    C111584   2.574   2.158   9.905  0.5441 -0.3386 -0.0341
  782MPD2    C211585   2.617   2.220  10.027 -0.9206 -0.1714  0.0857
  782MPD2    C311586   2.687   2.344  10.019 -0.3681  0.2238  0.6103
  782MPD2    C411587   2.730   2.389   9.898  0.6418  0.2893 -0.6161
  782MPD2    C511588   2.687   2.333   9.783 -0.4035 -0.1178  0.4978
  782MPD2     H11589   2.586   2.177  10.121  1.0889 -0.0407  0.8035
  782MPD2    H111590   2.800   2.470   9.882 -0.9498  1.5921 -1.0308
  782MPD2    H211591   2.562   2.184   9.693 -0.8681 -0.8694  0.8309
  782MPD2    H311592   2.719   2.369   9.686  1.9024 -0.7510  1.0150
  782MPD2     N11593   2.698   2.419  10.141 -0.9807 -0.4322 -0.8396
  782MPD2    H511594   2.661   2.376  10.226  0.9642 -1.0160 -0.2661
  782MPD2    N111595   2.498   2.037   9.904  0.4478  0.7871 -0.1377
  782MPD2    H711596   2.463   2.003   9.815  0.9055 -2.3224  0.8583
  783MPD2     C11597   1.645   2.125  10.282 -0.0429  0.2671  0.6044
  783MPD2    C111598   1.718   2.045  10.368  0.4478 -0.0081 -0.7481
  783MPD2    C211599   1.828   1.970  10.329 -0.5512 -0.8561  0.3463
  783MPD2    C311600   1.863   1.983  10.201 -0.7459  0.1291  0.3004
  783MPD2    C411601   1.790   2.060  10.111 -0.5467  0.4855 -0.4056
  783MPD2    C511602   1.681   2.130  10.151 -0.5135  0.0601  0.0861
  783MPD2     H11603   1.894   1.917  10.395  1.3076  0.4082 -0.5075
  783MPD2    H111604   1.823   2.082  10.010  2.3035  1.8952  0.8238
  783MPD2    H211605   1.564   2.191  10.309 -1.1164 -0.2272 -1.3539
  783MPD2    H311606   1.634   2.195  10.078 -0.9218 -0.3977 -0.0581
  783MPD2     N11607   1.979   1.914  10.159 -0.1175  0.7265  0.3247
  783MPD2    H511608   1.999   1.856  10.240 -0.2928  0.5891  0.2704
  783MPD2    N111609   1.663   2.031  10.498  0.2507  0.2011 -0.3922
  783MPD2    H711610   1.577   2.080  10.517  0.6339  0.6437  0.2269
  784MPD2     C11611   3.807   2.416   1.302 -0.0499  0.0935  0.0763
  784MPD2    C111612   3.825   2.547   1.321  0.0046 -0.4479 -0.2073
  784MPD2    C211613   3.720   2.634   1.292  0.0285  0.5312  0.1416
  784MPD2    C311614   3.608   2.587   1.230 -0.1773  0.6690 -0.0588
  784MPD2    C411615   3.594   2.449   1.201 -0.0068 -0.0418 -0.6965
  784MPD2    C511616   3.695   2.365   1.236  0.0326  0.4276 -0.0384
  784MPD2     H11617   3.734   2.738   1.319  1.3894  0.8819 -1.9028
  784MPD2    H111618   3.504   2.409   1.157 -3.3903  3.5276  3.0723
  784MPD2    H211619   3.881   2.345   1.338  0.6622  0.6456 -0.2920
  784MPD2    H311620   3.685   2.259   1.218 -1.6625  0.6080 -0.1026
  784MPD2     N11621   3.503   2.680   1.209  0.0533  0.2534 -0.0387
  784MPD2    H511622   3.517   2.773   1.246 -2.3962  1.5291 -2.2521
  784MPD2    N111623   3.942   2.614   1.369  0.2527  0.0058 -0.1930
  784MPD2    H711624   3.947   2.715   1.362  0.5580  0.1384  2.1416
  785MPD2     C11625   4.205   0.665   9.150  0.1664  0.1718 -0.5461
  785MPD2    C111626   4.226   0.646   9.286 -0.0493  0.4844 -0.6500
  785MPD2    C211627   4.129   0.688   9.378 -0.4129  0.3035  0.0305
  785MPD2    C311628   4.011   0.741   9.341 -0.5455  0.5875 -0.4472
  785MPD2    C411629   3.981   0.757   9.204  0.9207 -0.4005  0.3325
  785MPD2    C511630   4.080   0.721   9.119 -0.0533 -0.1662  0.7467
  785MPD2     H11631   4.139   0.675   9.486 -0.6124 -3.3815 -0.3978
  785MPD2    H111632   3.893   0.801   9.159 -0.4279 -1.6746  1.7013
  785MPD2    H211633   4.282   0.654   9.075  0.1901 -2.7156 -0.0844
  785MPD2    H311634   4.058   0.753   9.017  1.9747  0.6934  0.5633
  785MPD2     N11635   3.923   0.772   9.447 -0.5542 -0.0008 -0.1717
  785MPD2    H511636   3.956   0.745   9.539  1.1011  0.4033 -0.6569
  785MPD2    N111637   4.355   0.597   9.318  0.1133 -0.1017  0.0224
  785MPD2    H711638   4.425   0.606   9.245  1.7855 -0.9160  1.5386
  786MPD2     C11639   3.737   3.988  14.937 -0.5546 -0.3177  0.0832
  786MPD2    C111640   3.786   3.858  14.957 -0.5406  0.3314  0.4056
  786MPD2    C211641   3.883   3.837  15.044 -0.1989  0.2077 -0.3788
  786MPD2    C311642   3.939   3.945  15.113  0.1528 -0.4607  0.4267
  786MPD2    C411643   3.895   4.077  15.096  0.5503 -0.1808  0.4265
  786MPD2    C511644   3.784   4.095  15.008 -0.7117  0.5131  0.2242
  786MPD2     H11645   3.932   3.740  15.048  0.0147  0.3664  0.8630
  786MPD2    H111646   3.924   4.157  15.162 -0.2112 -0.6231  1.3027
  786MPD2    H211647   3.669   4.008  14.856 -1.5627 -0.1944  0.9606
  786MPD2    H311648   3.731   4.189  14.999 -1.9305 -0.1378  0.5128
  786MPD2     N11649   4.043   3.918  15.210  0.1240 -0.2877 -0.3018
  786MPD2    H511650   4.097   3.995  15.248 -1.2516  1.1179 -1.1938
  786MPD2    N111651   3.729   3.750  14.889 -0.3826 -0.4986 -0.3544
  786MPD2    H711652   3.765   3.655  14.902  1.6254  0.3754  0.5336
  787MPD2     C11653   3.769   3.184  15.186  0.5274  0.2277 -0.6514
  787MPD2    C111654   3.736   3.153  15.056  0.7193  0.4431 -0.6830
  787MPD2    C211655   3.747   3.023  15.002 -0.1684 -0.1659 -0.3827
  787MPD2    C311656   3.789   2.919  15.086 -0.0268  0.5535  0.2387
  787MPD2    C411657   3.817   2.953  15.218  0.1145  0.4548 -0.1586
  787MPD2    C511658   3.799   3.081  15.265 -0.3834 -0.3491  0.2132
  787MPD2     H11659   3.723   3.004  14.898  0.1148 -2.4423 -0.0143
  787MPD2    H111660   3.871   2.881  15.278 -0.0588  0.9732  0.6176
  787MPD2    H211661   3.772   3.283  15.231 -1.5301  1.0789 -2.3821
  787MPD2    H311662   3.827   3.106  15.367  1.9277  1.0523 -0.7779
  787MPD2     N11663   3.820   2.793  15.030 -0.5858  0.1567 -0.0759
  787MPD2    H511664   3.818   2.788  14.929 -1.0542 -0.2359 -0.0467
  787MPD2    N111665   3.681   3.262  14.981  0.1649  0.4298 -0.0234
  787MPD2    H711666   3.702   3.354  15.018 -0.9978  0.5480  0.3474
  788MPD2     C11667   0.307   2.319   1.050 -0.1170  0.3607 -0.1804
  788MPD2    C111668   0.327   2.258   0.930 -0.2397  0.4154 -0.7043
  788MPD2    C211669   0.319   2.341   0.819 -0.3743 -0.8553 -0.5964
  788MPD2    C311670   0.292   2.474   0.833 -0.7807 -0.0251 -0.2394
  788MPD2    C411671   0.260   2.533   0.952  0.1356 -0.4700  0.5120
  788MPD2    C511672   0.272   2.451   1.066  0.6306  0.6945  0.4536
  788MPD2     H11673   0.348   2.302   0.722 -0.4032 -1.1948 -0.4676
  788MPD2    H111674   0.213   2.630   0.955  1.9608  0.4644 -1.4459
  788MPD2    H211675   0.301   2.275   1.149  0.6765  0.5221 -0.0641
  788MPD2    H311676   0.242   2.481   1.166  2.1993 -2.6836  1.9434
  788MPD2     N11677   0.271   2.557   0.724 -0.2636 -0.0295 -0.4856
  788MPD2    H511678   0.256   2.657   0.735  0.6302  0.0871 -0.3800
  788MPD2    N111679   0.363   2.126   0.918 -0.0607 -0.1674 -0.1594
  788MPD2    H711680   0.372   2.090   0.823  1.8810  1.7180 -0.6856
  789MPD2     C11681   0.821   1.387  16.568  0.8136 -0.4376  0.0927
  789MPD2    C111682   0.769   1.437  16.451  0.0714  0.2771 -0.0397
  789MPD2    C211683   0.685   1.553  16.464  0.1226 -0.3499 -0.3955
  789MPD2    C311684   0.661   1.603  16.591 -0.2258 -0.4270  0.3244
  789MPD2    C411685   0.717   1.549  16.704 -0.4756  0.2539  0.2893
  789MPD2    C511686   0.792   1.436  16.692  0.4011 -0.5604 -0.3321
  789MPD2     H11687   0.653   1.597  16.370  2.1478  2.3006  0.1660
  789MPD2    H111688   0.694   1.591  16.802  0.5995 -0.4262  0.8348
  789MPD2    H211689   0.889   1.303  16.572 -0.1112 -1.2793 -2.1131
  789MPD2    H311690   0.837   1.388  16.778  0.4263 -0.2154 -0.1516
  789MPD2     N11691   0.583   1.708  16.621  0.1603 -0.2080 -0.4635
  789MPD2    H511692   0.582   1.748  16.714  1.6393 -0.7806 -0.2088
  789MPD2    N111693   0.810   1.393  16.321 -0.5626  0.2669  0.0366
  789MPD2    H711694   0.781   1.439  16.235 -0.0640 -1.4526 -1.0503
  790MPD2     C11695   1.951   3.471  14.080  0.0057  0.2776  0.7179
  790MPD2    C111696   1.821   3.430  14.047 -0.5186  0.2455  0.8687
  790MPD2    C211697   1.782   3.417  13.922  0.3808  0.3222 -0.1865
  790MPD2    C311698   1.861   3.455  13.818  0.3164 -0.7278  0.6276
  790MPD2    C411699   1.976   3.518  13.852 -0.8944 -0.4500  0.1092
  790MPD2    C511700   2.023   3.519  13.980  0.1236 -0.1407  0.2964
  790MPD2     H11701   1.686   3.381  13.886  0.7796 -0.5103 -0.4186
  790MPD2    H111702   2.045   3.547  13.772 -0.0996  0.1726  1.0157
  790MPD2    H211703   1.985   3.490  14.181 -0.0081 -0.3677  0.8470
  790MPD2    H311704   2.126   3.552  13.987  0.6922 -1.6876 -0.5587
  790MPD2     N11705   1.812   3.435  13.687  0.7976 -0.5699  0.4236
  790MPD2    H511706   1.740   3.367  13.665  0.1808  0.0357  0.5824
  790MPD2    N111707   1.749   3.375  14.157  0.4689 -0.9555 -0.2074
  790MPD2    H711708   1.790   3.374  14.249 -0.5063 -0.6328  0.2266
  791MPD2     C11709   1.258   3.305  13.302  0.1908 -0.0270  0.4268
  791MPD2    C111710   1.338   3.220  13.227 -0.7346 -0.3652  0.7780
  791MPD2    C211711   1.278   3.156  13.117  0.3254  0.5735  0.0099
  791MPD2    C311712   1.142   3.171  13.090 -0.4673 -0.5683 -0.0758
  791MPD2    C411713   1.066   3.258  13.166 -0.5673 -0.6212 -0.2890
  791MPD2    C511714   1.124   3.323  13.276 -0.2787 -0.3198 -0.2187
  791MPD2     H11715   1.344   3.082  13.074  0.7323  1.2586 -0.5483
  791MPD2    H111716   0.958   3.257  13.170 -0.5831  1.9341 -0.4750
  791MPD2    H211717   1.296   3.354  13.390  0.6496 -1.3064  0.9407
  791MPD2    H311718   1.068   3.372  13.355  1.5642  0.6324  0.4979
  791MPD2     N11719   1.081   3.081  13.001  0.2368 -0.6505  0.7014
  791MPD2    H511720   1.144   3.013  12.960  1.0916  0.3907  0.2760
  791MPD2    N111721   1.475   3.197  13.252 -0.6756  0.0892  0.0350
  791MPD2    H711722   1.530   3.148  13.181 -1.7680  0.4745 -1.0844
  792MPD2     C11723   1.933   3.305  11.205 -0.3451 -0.2409  0.2674
  792MPD2    C111724   1.997   3.247  11.095  0.1576  0.6217 -0.0801
  792MPD2    C211725   1.923   3.157  11.021  0.4145 -0.1414  0.2303
  792MPD2    C311726   1.792   3.130  11.033  0.3405 -0.6734 -0.2337
  792MPD2    C411727   1.732   3.196  11.135  0.0191 -0.2084  0.1980
  792MPD2    C511728   1.804   3.274  11.217  0.5498  0.4593 -0.3892
  792MPD2     H11729   1.968   3.102  10.939  0.9535  0.0219  0.4210
  792MPD2    H111730   1.628   3.191  11.163 -0.2540  0.4723 -0.7055
  792MPD2    H211731   1.980   3.373  11.276  0.8226 -1.9469  1.1137
  792MPD2    H311732   1.762   3.319  11.306 -0.8913 -2.5290  0.4465
  792MPD2     N11733   1.714   3.038  10.951 -0.6157  0.4970 -0.1124
  792MPD2    H511734   1.617   3.021  10.978 -0.5910  1.7881  0.7381
  792MPD2    N111735   2.136   3.278  11.068 -0.0803 -0.1730 -0.1189
  792MPD2    H711736   2.181   3.347  11.128 -1.0577  0.7312 -0.4306
  793MPD2     C11737   1.574   2.453  10.008  0.0446 -0.0569  0.2301
  793MPD2    C111738   1.700   2.489  10.062  0.5732  0.1022 -0.5371
  793MPD2    C211739   1.702   2.575  10.175 -0.2352 -0.4077  0.7044
  793MPD2    C311740   1.586   2.631  10.226  0.3474 -0.2934 -0.3377
  793MPD2    C411741   1.461   2.602  10.166 -0.0574 -0.3383  0.2229
  793MPD2    C511742   1.460   2.513  10.060 -0.1713  0.6677  0.5844
  793MPD2     H11743   1.795   2.605  10.222  0.0417  0.2675 -0.2729
  793MPD2    H111744   1.371   2.651  10.200 -1.2673 -2.2904 -0.1214
  793MPD2    H211745   1.566   2.379   9.929  0.9173 -1.0302  1.0492
  793MPD2    H311746   1.373   2.491  10.001  2.3841 -1.2938 -2.4472
  793MPD2     N11747   1.582   2.698  10.349  0.2818  0.1116 -0.4352
  793MPD2    H511748   1.489   2.727  10.380  0.5439 -0.9522  1.3476
  793MPD2    N111749   1.824   2.441  10.013  0.2934 -0.7902 -0.2219
  793MPD2    H711750   1.906   2.470  10.064  1.6560 -0.7357 -2.4318
  794MPD2     C11751   1.220   2.031  16.574  0.3219 -0.1967  0.1233
  794MPD2    C111752   1.124   2.117  16.620 -0.0146  0.1050 -0.4706
  794MPD2    C211753   1.059   2.202  16.526 -0.8166 -0.5781  0.1409
  794MPD2    C311754   1.077   2.186  16.384  0.8984 -0.2463  0.5647
  794MPD2    C411755   1.155   2.087  16.347  0.4777 -0.1372  0.8682
  794MPD2    C511756   1.235   2.017  16.436 -0.1719  0.1065  0.6592
  794MPD2     H11757   0.993   2.280  16.563  0.9193  0.6451  0.6397
  794MPD2    H111758   1.159   2.078  16.239 -0.4430  0.7724  0.7528
  794MPD2    H211759   1.276   1.966  16.640  1.5254 -0.0162 -0.7194
  794MPD2    H311760   1.314   1.952  16.398 -0.0098  0.0185  1.1420
  794MPD2     N11761   1.003   2.253  16.284  0.3241  0.5860 -0.2302
  794MPD2    H511762   1.016   2.226  16.187 -0.5765 -0.4829 -0.0568
  794MPD2    N111763   1.108   2.151  16.754  0.3341 -0.2673  0.3730
  794MPD2    H711764   1.052   2.235  16.766 -0.5555 -1.0039  1.4268
  795MPD2     C11765   4.606   4.315  12.491 -0.4802 -0.9355  0.7649
  795MPD2    C111766   4.585   4.276  12.618  0.0507  0.4178  0.2825
  795MPD2    C211767   4.678   4.202  12.690 -0.1520  0.1728  0.5960
  795MPD2    C311768   0.066   4.191  12.639 -0.3425  0.2804 -0.0573
  795MPD2    C411769   0.093   4.234  12.515 -0.2476  0.1800 -0.1167
  795MPD2    C511770   4.732   4.297  12.443  0.4758  0.4275  0.4621
  795MPD2     H11771   4.663   4.162  12.790  2.5727  2.3916  1.8792
  795MPD2    H111772   0.191   4.224  12.469 -0.3254 -2.9367  0.3979
  795MPD2    H211773   4.537   4.379  12.437  1.3078  0.0521 -0.3684
  795MPD2    H311774   0.014   4.341  12.345 -0.7294 -0.4221 -0.1226
  795MPD2     N11775   0.159   4.124  12.721 -0.3128 -0.1524  0.4709
  795MPD2    H511776   0.129   4.104  12.816 -3.4054 -1.4195 -0.7845
  795MPD2    N111777   4.470   4.310  12.698 -0.2049  0.1240  0.0124
  795MPD2    H711778   4.462   4.271  12.791  0.1234  1.9142  0.7744
  796MPD2     C11779   3.409   1.535  16.131  0.5226  0.1581  0.6813
  796MPD2    C111780   3.535   1.552  16.075  0.2126 -0.1426  1.1695
  796MPD2    C211781   3.551   1.653  15.982 -0.1266 -0.2755 -0.1639
  796MPD2    C311782   3.444   1.737  15.944 -1.2774  0.5689 -0.0552
  796MPD2    C411783   3.321   1.716  16.006 -0.0729  0.2537  0.1991
  796MPD2    C511784   3.304   1.615  16.092  0.4221  0.9287 -0.3321
  796MPD2     H11785   3.648   1.680  15.944 -0.7340  1.1300 -0.6935
  796MPD2    H111786   3.232   1.775  15.993 -0.3036 -0.5191 -1.7500
  796MPD2    H211787   3.382   1.465  16.209 -0.1157 -0.1589  0.1745
  796MPD2    H311788   3.207   1.597  16.136  0.4397  0.9817 -0.2727
  796MPD2     N11789   3.475   1.849  15.871  0.7518  0.3003  0.0015
  796MPD2    H511790   3.569   1.878  15.845  0.8390  1.3764  1.5049
  796MPD2    N111791   3.633   1.461  16.115 -0.0650 -0.5642 -0.2291
  796MPD2    H711792   3.602   1.381  16.170 -0.2028 -1.7208 -1.9598
  797MPD2     C11793   0.379   1.051  17.129 -0.3761 -0.3210  0.2892
  797MPD2    C111794   0.360   1.190  17.133  0.6139 -0.6656 -0.6760
  797MPD2    C211795   0.364   1.265  17.019  0.2943 -0.4308  0.4638
  797MPD2    C311796   0.376   1.201  16.900 -0.1130 -0.4527  0.1710
  797MPD2    C411797   0.394   1.062  16.896  0.5236 -0.1274 -0.0879
  797MPD2    C511798   0.405   0.988  17.014 -0.6403 -0.0636  0.2421
  797MPD2     H11799   0.347   1.372  17.024  0.3440 -0.3811 -0.3239
  797MPD2    H111800   0.402   1.010  16.801  0.8641 -1.4503  0.6579
  797MPD2    H211801   0.385   0.998  17.224 -2.4552 -0.0502  0.5735
  797MPD2    H311802   0.433   0.884  17.001  1.3737  0.4200  0.8293
  797MPD2     N11803   0.376   1.284  16.780 -0.4713 -0.1954  0.4928
  797MPD2    H511804   0.362   1.381  16.806 -1.6098  0.1716 -1.4999
  797MPD2    N111805   0.341   1.258  17.255  0.3543  0.0020  0.2074
  797MPD2    H711806   0.369   1.355  17.256 -0.3123  0.2096 -1.6393
  798MPD2     C11807   4.599   1.652  16.870  0.7701 -0.1631 -0.3477
  798MPD2    C111808   4.730   1.614  16.869  0.4264  0.7302  0.4220
  798MPD2    C211809   0.062   1.602  16.995  0.6063 -0.3987 -0.4499
  798MPD2    C311810   4.726   1.614  17.116  0.1297 -1.0564  0.7930
  798MPD2    C411811   4.596   1.652  17.111  0.9601 -0.5429 -0.1233
  798MPD2    C511812   4.534   1.668  16.991  0.0948 -0.4473 -0.8729
  798MPD2     H11813   0.158   1.555  17.009  0.9302  0.4560  0.1583
  798MPD2    H111814   4.539   1.653  17.203 -0.3807  0.8652 -0.9807
  798MPD2    H211815   4.549   1.682  16.779  1.3622  2.9895  0.3565
  798MPD2    H311816   4.430   1.695  16.984  0.2726 -0.2802 -3.0029
  798MPD2     N11817   0.070   1.606  17.238  0.3671 -0.4195 -0.7927
  798MPD2    H511818   0.170   1.595  17.223  0.2507  1.8235 -3.2451
  798MPD2    N111819   0.056   1.606  16.743  0.2667 -0.2254  0.2407
  798MPD2    H711820   4.731   1.628  16.665  1.3690  0.6798 -0.3459
  799MPD2     C11821   3.497   2.805  14.590  0.5906  0.6593  0.1690
  799MPD2    C111822   3.458   2.708  14.499  0.2158  0.8144 -0.3399
  799MPD2    C211823   3.414   2.745  14.375  0.2469  0.0351  0.2480
  799MPD2    C311824   3.408   2.879  14.335  0.1384  0.5341 -0.1858
  799MPD2    C411825   3.423   2.976  14.431 -0.4744  0.8631  0.2562
  799MPD2    C511826   3.462   2.933  14.562  0.6684  0.5121 -0.1271
  799MPD2     H11827   3.397   2.660  14.309 -1.2045 -0.4138  1.1965
  799MPD2    H111828   3.422   3.083  14.414 -0.4182  0.6715 -0.9320
  799MPD2    H211829   3.551   2.788  14.683  1.8900 -3.0880 -1.2515
  799MPD2    H311830   3.475   3.014  14.633  1.2722  1.2894 -1.1262
  799MPD2     N11831   3.373   2.920  14.206  0.1807  0.0432 -0.2947
  799MPD2    H511832   3.382   3.019  14.184 -2.6592  0.2372 -0.5528
  799MPD2    N111833   3.461   2.569  14.533  0.3580 -0.0710  0.3970
  799MPD2    H711834   3.425   2.502  14.466 -1.3877  0.5072  0.7511
  800MPD2     C11835   4.302   4.306  14.043 -0.2246  0.6308  0.0481
  800MPD2    C111836   4.413   4.226  14.041 -0.3448  0.5818  0.2976
  800MPD2    C211837   4.406   4.109  13.971 -0.3852 -0.1476  0.0121
  800MPD2    C311838   4.289   4.082  13.904 -1.0013 -0.6512  0.3826
  800MPD2    C411839   4.192   4.169  13.897 -0.0997 -0.5087  0.5671
  800MPD2    C511840   4.199   4.289  13.959  0.8356  0.7774  0.1696
  800MPD2     H11841   4.489   4.039  13.970 -0.3706 -0.1215 -0.5195
  800MPD2    H111842   4.101   4.144  13.844  1.1367  0.7796 -2.2106
  800MPD2    H211843   4.312   4.400  14.095  0.2253  1.1071 -0.9135
  800MPD2    H311844   4.112   4.353  13.964  1.0589  1.1209 -0.4296
  800MPD2     N11845   4.289   3.953  13.840 -0.2885  0.9032 -0.5774
  800MPD2    H511846   4.369   3.890  13.846 -0.0120  1.5036  2.3740
  800MPD2    N111847   4.524   4.256  14.124  0.7292  0.0228 -0.3166
  800MPD2    H711848   4.534   4.350  14.161  0.8591  0.5646 -1.7499
  801MPD2     C11849   4.459   4.460  14.671 -0.1958  0.2218  0.1080
  801MPD2    C111850   4.501   4.510  14.551  0.1176 -0.4359  0.1192
  801MPD2    C211851   4.405   4.565  14.465 -1.2513 -0.1581 -0.4212
  801MPD2    C311852   4.263   4.569  14.503 -0.1089 -0.2355  0.7026
  801MPD2    C411853   4.229   4.529  14.633 -0.0060  0.6319  0.7609
  801MPD2    C511854   4.329   4.474  14.711 -0.1152 -0.4293 -0.2621
  801MPD2     H11855   4.438   4.613  14.374 -3.1809  0.1739 -0.9293
  801MPD2    H111856   4.128   4.515  14.669  0.4534 -1.3751  1.2607
  801MPD2    H211857   4.525   4.410  14.740  0.1717  0.1446 -0.2991
  801MPD2    H311858   4.303   4.430  14.806 -1.1734  0.7037 -0.0314
  801MPD2     N11859   4.161   4.615  14.412 -0.3667  0.0206 -0.1625
  801MPD2    H511860   4.067   4.622  14.449 -1.1147 -2.7037 -1.4967
  801MPD2    N111861   4.634   4.503  14.511  0.9204  0.1169  0.4680
  801MPD2    H711862   4.656   4.543  14.420 -0.9595  0.7918  0.2954
  802MPD2     C11863   2.908   4.685  17.445 -0.7374  0.1862 -0.1328
  802MPD2    C111864   3.037   4.695  17.474  0.7226  0.3208 -0.2839
  802MPD2    C211865   3.122   4.590  17.447 -0.1366  0.3400  0.2771
  802MPD2    C311866   3.077   4.480  17.376  0.2222 -0.1049  0.3391
  802MPD2    C411867   2.950   4.480  17.327  0.3999  0.0803  0.2546
  802MPD2    C511868   2.866   4.580  17.368 -0.4415  0.1386 -0.5331
  802MPD2     H11869   3.225   4.590  17.480 -0.2579  0.2835  0.6577
  802MPD2    H111870   2.916   4.409  17.252  0.2306  0.7033 -0.2677
  802MPD2    H211871   2.835   0.029  17.463 -1.2484 -0.6380  1.3920
  802MPD2    H311872   2.765   4.572  17.329 -0.8772  1.6441  0.2999
  802MPD2     N11873   3.168   4.375  17.351  0.2295  0.4266 -0.1474
  802MPD2    H511874   3.258   4.390  17.397 -0.9636  1.3473  1.8904
  802MPD2    N111875   3.096   0.066  17.541 -0.9080 -0.1785 -0.5459
  802MPD2    H711876   3.195   0.058  17.561 -1.4513  2.4724  3.3072
  803MPD2     C11877   4.219   2.106  12.331 -0.3744 -0.0499  0.0466
  803MPD2    C111878   4.240   2.213  12.250  0.5791 -0.2817  0.1481
  803MPD2    C211879   4.285   2.330  12.305 -0.0097  1.3006 -0.5038
  803MPD2    C311880   4.341   2.332  12.433 -0.2491 -0.2975 -0.2761
  803MPD2    C411881   4.329   2.217  12.509  0.2260  1.2385 -0.5819
  803MPD2    C511882   4.258   2.112  12.461  0.2428  0.8751 -0.4270
  803MPD2     H11883   4.295   2.413  12.236  1.1096  0.0075 -1.9012
  803MPD2    H111884   4.372   2.217  12.608  2.3792  1.2533 -1.5163
  803MPD2    H211885   4.176   2.016  12.288  0.7146  0.6392 -2.4474
  803MPD2    H311886   4.265   2.017  12.513  2.0924  1.2693  0.0687
  803MPD2     N11887   4.414   2.440  12.487  0.3152 -0.3529 -0.0491
  803MPD2    H511888   4.450   2.433  12.582 -0.1825  0.0615  0.1738
  803MPD2    N111889   4.197   2.214  12.116 -0.2177 -0.2754  0.0752
  803MPD2    H711890   4.199   2.300  12.061 -0.3152 -2.0100 -2.6480
  804MPD2     C11891   4.061   4.438  16.981  0.1135  0.1434 -0.7190
  804MPD2    C111892   4.073   4.412  17.114  0.7150  0.3731  0.1125
  804MPD2    C211893   4.162   4.494  17.188  0.5505 -0.7394 -0.0744
  804MPD2    C311894   4.239   4.593  17.138  0.5469  0.2980 -0.2161
  804MPD2    C411895   4.221   4.620  17.004  0.2612  0.1538  1.2292
  804MPD2    C511896   4.135   4.543  16.924 -0.3908 -0.8249 -0.0857
  804MPD2     H11897   4.172   4.468  17.293 -0.8570 -1.9201 -0.2312
  804MPD2    H111898   4.270   4.700  16.949 -0.7608  1.0724  1.6600
  804MPD2    H211899   3.975   4.408  16.923  1.8892 -1.0023 -2.7391
  804MPD2    H311900   4.113   4.569  16.822 -0.1145 -1.7269 -0.3723
  804MPD2     N11901   4.335   4.660  17.219 -0.8909  0.1873  0.1954
  804MPD2    H511902   4.356   4.622  17.311 -0.9143 -1.2614 -0.3998
  804MPD2    N111903   3.999   4.310  17.185  0.1938  0.7466  0.4997
  804MPD2    H711904   4.016   4.306  17.285 -2.8522 -1.2490  0.9398
  805MPD2     C11905   3.039   2.569  15.227  0.0954 -0.7099  1.2463
  805MPD2    C111906   3.075   2.704  15.208  0.3632  1.0365  0.2139
  805MPD2    C211907   3.186   2.756  15.270  0.5969  0.0147 -0.3344
  805MPD2    C311908   3.250   2.684  15.366  0.1786 -0.2932  0.6953
  805MPD2    C411909   3.203   2.553  15.398  0.2988 -0.1918 -0.0761
  805MPD2    C511910   3.099   2.503  15.329  0.2543 -0.4571 -1.2640
  805MPD2     H11911   3.220   2.856  15.245  1.8282 -0.0139  1.2389
  805MPD2    H111912   3.250   2.495  15.476 -2.5919 -2.7302 -0.2046
  805MPD2    H211913   2.954   2.529  15.173 -1.1755  0.1922  2.5817
  805MPD2    H311914   3.073   2.401  15.352  3.1203 -0.6385  1.1812
  805MPD2     N11915   3.361   2.746  15.428  0.7201 -0.3066  0.2371
  805MPD2    H511916   3.394   2.833  15.386 -2.9471  1.1157  0.3340
  805MPD2    N111917   3.016   2.790  15.114  0.3401  0.0349  0.5946
  805MPD2    H711918   3.051   2.884  15.104  1.5839 -0.0905  3.4697
  806MPD2     C11919   3.648   2.292   0.278  1.3388 -0.0166  0.4247
  806MPD2    C111920   3.736   2.392   0.322  0.4376 -0.5552 -0.4992
  806MPD2    C211921   3.866   2.399   0.282 -0.8646  0.5239  0.1143
  806MPD2    C311922   3.915   2.291   0.208  0.9758 -0.1817  0.0659
  806MPD2    C411923   3.828   2.198   0.159  0.4982 -0.8584 -0.1992
  806MPD2    C511924   3.698   2.201   0.190 -0.2299  0.0792  0.1299
  806MPD2     H11925   3.943   2.473   0.301 -2.5577  1.9030  1.5285
  806MPD2    H111926   3.861   2.107   0.110  0.4634 -0.3657 -1.1293
  806MPD2    H211927   3.546   2.271   0.309  0.8862  0.8125 -0.4844
  806MPD2    H311928   3.630   2.124   0.156  1.5468 -1.2166 -0.4637
  806MPD2     N11929   4.055   2.287   0.186 -0.1300  0.8082  0.4973
  806MPD2    H511930   4.106   2.371   0.211  2.9894 -1.1271  0.6611
  806MPD2    N111931   3.672   2.488   0.411 -0.6199  0.5649  0.1562
  806MPD2    H711932   3.582   2.459   0.448  0.2442  0.8381  2.4498
  807MPD2     C11933   3.163   2.252   0.708 -0.2196  0.3739 -0.8967
  807MPD2    C111934   3.218   2.313   0.814  0.3105 -0.4494  1.4798
  807MPD2    C211935   3.171   2.298   0.943  0.6103  0.4263  0.0927
  807MPD2    C311936   3.062   2.212   0.954  0.7258 -0.1129 -0.1340
  807MPD2    C411937   2.994   2.155   0.844  0.0136  0.5232  0.3731
  807MPD2    C511938   3.055   2.172   0.724 -0.0477  0.4603  0.1273
  807MPD2     H11939   3.217   2.356   1.022 -0.2969  0.3782  0.6468
  807MPD2    H111940   2.913   2.085   0.861  0.0360  0.5692  0.6810
  807MPD2    H211941   3.195   2.256   0.604 -1.6196 -1.7464 -1.4139
  807MPD2    H311942   3.015   2.114   0.641 -0.5562 -0.7917  1.2442
  807MPD2     N11943   3.010   2.194   1.083 -0.7814 -0.0859  0.0336
  807MPD2    H511944   3.065   2.228   1.162 -0.3315 -2.3752  0.7056
  807MPD2    N111945   3.320   2.406   0.796 -0.2451  0.4110 -0.0542
  807MPD2    H711946   3.343   2.469   0.873  1.4123  0.3910 -0.5279
  808MPD2     C11947   3.845   3.178  10.235 -0.1602  0.2075 -0.5353
  808MPD2    C111948   3.806   3.194  10.108  0.2104 -0.8968  0.1395
  808MPD2    C211949   3.895   3.260  10.021  0.8134 -0.5312  0.5165
  808MPD2    C311950   4.010   3.310  10.070  0.1659  0.5004 -0.3335
  808MPD2    C411951   4.042   3.297  10.204 -0.6946  0.6354  0.1598
  808MPD2    C511952   3.962   3.226  10.282  0.0393 -0.6059 -0.0556
  808MPD2     H11953   3.878   3.266   9.915  0.7956  0.1177  0.5539
  808MPD2    H111954   4.139   3.328  10.242 -0.9713  2.8137 -0.9195
  808MPD2    H211955   3.783   3.126  10.307  0.8798 -0.0247  0.1870
  808MPD2    H311956   3.986   3.205  10.385 -0.9614  1.6002  0.6403
  808MPD2     N11957   4.105   3.372   9.989 -0.1205 -0.2197  0.3588
  808MPD2    H511958   4.200   3.376  10.024 -0.5696 -0.7552  1.6260
  808MPD2    N111959   3.689   3.125  10.055  0.3803 -0.3338  0.1008
  808MPD2    H711960   3.622   3.083  10.119 -0.8391  0.1348 -0.8687
  809MPD2     C11961   0.123   3.007   9.838 -0.2604 -0.4929  0.1145
  809MPD2    C111962   0.149   3.137   9.865  0.2795 -0.0146  0.3090
  809MPD2    C211963   0.041   3.230   9.845  0.1949 -0.0628 -0.1215
  809MPD2    C311964   4.651   3.180   9.817 -0.6239 -0.4705 -0.2530
  809MPD2    C411965   4.626   3.045   9.806 -0.5676 -0.5176 -0.1773
  809MPD2    C511966   4.731   2.953   9.820  0.2965 -0.0038  0.1688
  809MPD2     H11967   0.064   3.334   9.863 -0.7148  0.0606  0.3143
  809MPD2    H111968   4.525   3.005   9.802 -1.2563  1.3606 -1.8109
  809MPD2    H211969   0.203   2.933   9.834  0.5922  0.5121 -1.3703
  809MPD2    H311970   4.711   2.847   9.818  0.5244 -0.0261 -1.3148
  809MPD2     N11971   4.543   3.261   9.799 -0.1286  0.3679  0.7191
  809MPD2    H511972   4.451   3.216   9.792 -0.1235  0.6221 -0.9864
  809MPD2    N111973   0.277   3.189   9.901 -0.4272  0.3695  0.2442
  809MPD2    H711974   0.295   3.289   9.911  2.7966 -0.2198  0.2482
  810MPD2     C11975   4.055   2.800  10.896  0.0240 -0.1557  0.5920
  810MPD2    C111976   4.025   2.848  10.773 -0.1202  0.4495  0.2345
  810MPD2    C211977   4.104   2.946  10.715 -0.4429 -0.0899  0.1283
  810MPD2    C311978   4.208   3.002  10.779 -0.5337 -0.4645  0.1053
  810MPD2    C411979   4.239   2.945  10.902  0.9428  0.2183  0.3730
  810MPD2    C511980   4.163   2.852  10.960 -0.9417  0.3080  0.2646
  810MPD2     H11981   4.088   2.971  10.611 -2.1202 -1.5172  0.0313
  810MPD2    H111982   4.318   2.980  10.968 -0.2510  0.3468  1.7469
  810MPD2    H211983   3.981   2.733  10.939  0.1893  0.3631  1.6595
  810MPD2    H311984   4.192   2.818  11.059 -0.1795  1.1124  0.3214
  810MPD2     N11985   4.291   3.103  10.723 -0.0597  0.1554  0.1192
  810MPD2    H511986   4.371   3.113  10.786 -0.1073 -0.5935  0.2970
  810MPD2    N111987   3.912   2.805  10.704 -0.0814  0.1925 -0.8840
  810MPD2    H711988   3.872   2.716  10.733  1.4187 -1.1589 -2.9592
  811MPD2     C11989   3.127   2.943  10.174 -0.2662 -0.0953  0.4829
  811MPD2    C111990   3.241   2.997  10.232 -0.4583 -0.1111 -0.5447
  811MPD2    C211991   3.254   3.136  10.239 -0.4858 -0.5659  0.6152
  811MPD2    C311992   3.171   3.226  10.178  0.1952  1.0357  0.3155
  811MPD2    C411993   3.060   3.168  10.109  0.5943  0.0782 -0.0332
  811MPD2    C511994   3.060   3.034  10.100  0.4959 -0.7448 -0.3555
  811MPD2     H11995   3.335   3.188  10.288 -0.4362  1.1848 -1.3464
  811MPD2    H111996   2.983   3.224  10.058  1.0065 -1.6259 -2.5053
  811MPD2    H211997   3.106   2.837  10.176 -0.5763 -0.0132  1.6745
  811MPD2    H311998   2.973   2.989  10.054  0.3556 -0.6616 -0.1733
  811MPD2     N11999   3.196   3.369  10.197 -0.0851  0.2174 -0.4685
  811MPD2    H512000   3.286   3.393  10.238  0.0116  0.5607 -0.8851
  811MPD2    N112001   3.334   2.915  10.297 -0.3549 -0.1022  0.0914
  811MPD2    H712002   3.302   2.820  10.315  1.0548 -0.7399 -0.8371
  812MPD2     C12003   1.789   3.464  12.518  0.3603  1.2225  0.4058
  812MPD2    C112004   1.906   3.532  12.498 -0.2767 -0.3472 -0.0395
  812MPD2    C212005   2.018   3.501  12.583  0.1249  0.3947 -0.5321
  812MPD2    C312006   2.004   3.397  12.675  0.7186 -0.0281  0.1219
  812MPD2    C412007   1.886   3.330  12.696 -0.8082 -0.5312 -0.1767
  812MPD2    C512008   1.783   3.367  12.617  0.0355 -0.3475  0.1082
  812MPD2     H12009   2.116   3.548  12.583  0.4694 -0.2777 -3.8769
  812MPD2    H112010   1.869   3.265  12.781  1.2692 -0.9648 -0.1025
  812MPD2    H212011   1.700   3.489  12.461  0.6115 -2.0189 -1.4054
  812MPD2    H312012   1.693   3.307  12.629 -1.1687  1.4450 -0.0112
  812MPD2     N12013   2.118   3.361  12.745  0.1893 -0.2410  0.5776
  812MPD2    H512014   2.201   3.420  12.742  0.0208 -0.0546 -0.4736
  812MPD2    N112015   1.909   3.640  12.408 -0.6321 -0.4653  0.0519
  812MPD2    H712016   1.827   3.648  12.349 -0.9654  2.0410  0.8507
  813MPD2     C12017   1.719   0.069  12.863 -0.1681 -0.3235 -0.2469
  813MPD2    C112018   1.705   0.198  12.901 -0.4844 -0.2634  0.1550
  813MPD2    C212019   1.586   0.236  12.965 -0.5419  0.3901  0.2733
  813MPD2    C312020   1.515   0.142  13.030  0.8812  0.0702  0.5153
  813MPD2    C412021   1.536   0.009  13.003 -0.2209 -0.7954  0.5242
  813MPD2    C512022   1.634   4.709  12.911  0.3168 -0.3404  0.0658
  813MPD2     H12023   1.564   0.342  12.978  2.4144  1.1341 -0.6775
  813MPD2    H112024   1.488   4.665  13.061 -1.2453 -0.7432 -0.2427
  813MPD2    H212025   1.805   0.033  12.808  0.4367  1.6486 -0.5853
  813MPD2    H312026   1.643   4.604  12.886 -0.1441  0.0448 -1.7054
  813MPD2     N12027   1.426   0.195  13.129  0.1800 -0.2847  0.1722
  813MPD2    H512028   1.417   0.296  13.139  1.3758  0.1649 -3.3028
  813MPD2    N112029   1.793   0.297  12.864  0.3906 -0.6078 -0.4627
  813MPD2    H712030   1.774   0.391  12.897 -0.9284 -2.3332  3.7145
  814MPD2     C12031   2.125   1.424  12.688 -0.2978 -0.0448 -0.3359
  814MPD2    C112032   2.084   1.458  12.554 -0.4966  0.3482  0.2417
  814MPD2    C212033   2.086   1.592  12.518 -0.1182  0.3981 -0.4735
  814MPD2    C312034   2.131   1.693  12.607 -0.1725 -0.6443  0.2528
  814MPD2    C412035   2.175   1.653  12.733  0.2994 -0.6421 -0.4823
  814MPD2    C512036   2.171   1.525  12.771  0.1138 -0.2759  0.7868
  814MPD2     H12037   2.045   1.614  12.419 -1.8022 -1.1693 -0.1210
  814MPD2    H112038   2.236   1.715  12.799  1.8235 -2.2522 -0.3833
  814MPD2    H212039   2.132   1.329  12.739  4.3332  0.7116  0.4670
  814MPD2    H312040   2.201   1.501  12.873  2.0526  1.2242  0.5876
  814MPD2     N12041   2.147   1.826  12.565  0.6745  0.0939 -0.1600
  814MPD2    H512042   2.189   1.884  12.636 -0.2280 -0.9817  1.2659
  814MPD2    N112043   2.028   1.380  12.454  0.1202  0.0951  0.4964
  814MPD2    H712044   2.010   1.423  12.364  1.1245  0.6608  0.5614
  815MPD2     C12045   3.006   0.195  11.937  0.7153 -0.8134 -0.3962
  815MPD2    C112046   3.023   0.067  11.897 -0.1973  0.0409  0.0169
  815MPD2    C212047   2.941   4.699  11.939 -0.2435  1.1404 -0.2026
  815MPD2    C312048   2.837   4.724  12.024 -0.3161  0.2835 -0.5335
  815MPD2    C412049   2.819   0.114  12.072 -0.4667 -0.6643  0.7175
  815MPD2    C512050   2.897   0.218  12.023  0.6023 -0.0094  0.2777
  815MPD2     H12051   2.955   4.596  11.910  2.8512  1.6482 -0.4761
  815MPD2    H112052   2.747   0.133  12.151  0.3359  1.7907  0.8456
  815MPD2    H212053   3.070   0.272  11.895  0.7685 -0.1150  0.9611
  815MPD2    H312054   2.902   0.317  12.065  2.1347 -0.3702  0.9703
  815MPD2     N12055   2.740   4.619  12.037  0.2146  0.1187 -0.9573
  815MPD2    H512056   2.746   4.540  11.974  0.7396 -1.5799  1.2298
  815MPD2    N112057   3.135   0.049  11.813 -0.1488  0.8156  0.2814
  815MPD2    H712058   3.173   0.128  11.762  3.2817 -0.2240  1.2093
  816MPD2     C12059   2.352   3.788  17.427 -0.3231  0.2522  0.5155
  816MPD2    C112060   2.425   3.905  17.455  0.6064 -0.9182 -0.0099
  816MPD2    C212061   2.556   3.909  17.417 -0.3374  0.1767 -0.0236
  816MPD2    C312062   2.616   3.801  17.363 -0.1003  0.2334 -0.1915
  816MPD2    C412063   2.555   3.679  17.355  0.4605  0.6464 -0.1931
  816MPD2    C512064   2.417   3.674  17.380 -0.0906 -0.9143 -0.1538
  816MPD2     H12065   2.614   4.000  17.413  0.4079 -0.3319 -0.7717
  816MPD2    H112066   2.601   3.592  17.312  0.7273  1.8311 -2.3364
  816MPD2    H212067   2.244   3.787  17.439 -0.2426  0.4384  1.2346
  816MPD2    H312068   2.369   3.578  17.366  0.7575 -1.4357  0.5794
  816MPD2     N12069   2.746   3.825  17.320  0.2382  0.9032  0.3707
  816MPD2    H512070   2.791   3.916  17.319  1.2442  0.4399  2.7468
  816MPD2    N112071   2.356   4.018  17.495  0.8957 -0.5604 -0.4087
  816MPD2    H712072   2.255   4.009  17.491  0.7048  0.3928  1.9667
  817MPD2     C12073   1.818   0.902   9.895  0.1090 -0.2186  0.3346
  817MPD2    C112074   1.847   0.821   9.786 -0.0798  0.1578 -0.4680
  817MPD2    C212075   1.766   0.826   9.675  0.3411 -0.0402  0.4901
  817MPD2    C312076   1.665   0.917   9.665 -0.0519 -0.9314  0.0075
  817MPD2    C412077   1.648   1.015   9.766 -0.0560 -0.4220  0.3523
  817MPD2    C512078   1.712   0.991   9.887 -0.0184  0.0842 -0.0376
  817MPD2     H12079   1.782   0.754   9.595  0.6344 -0.6281  1.0753
  817MPD2    H112080   1.557   1.073   9.767  1.0809  1.3316  1.9104
  817MPD2    H212081   1.868   0.898   9.991  0.7242  4.3286  0.1773
  817MPD2    H312082   1.694   1.049   9.976  0.9514  1.5338 -0.7898
  817MPD2     N12083   1.587   0.909   9.552  0.0427  0.2860  0.0276
  817MPD2    H512084   1.611   0.825   9.503 -0.4342 -0.0815  0.4196
  817MPD2    N112085   1.952   0.736   9.781 -0.3434  0.2503 -0.0524
  817MPD2    H712086   1.952   0.676   9.699 -1.4145 -1.6052  1.3043
  818MPD2     C12087   1.609   0.715  10.188 -0.1995  0.0736  0.4350
  818MPD2    C112088   1.511   0.623  10.211  0.5890 -0.5722  0.3792
  818MPD2    C212089   1.543   0.495  10.242  0.7450 -0.3838  0.4418
  818MPD2    C312090   1.674   0.455  10.243  0.9433  0.1478  0.0948
  818MPD2    C412091   1.778   0.552  10.235 -0.4779  0.2543  0.4079
  818MPD2    C512092   1.736   0.677  10.204  0.1161 -0.2975 -0.9924
  818MPD2     H12093   1.467   0.424  10.271  0.2383  1.1126  2.7617
  818MPD2    H112094   1.885   0.534  10.236 -0.5259 -0.0782 -0.5383
  818MPD2    H212095   1.590   0.815  10.150  0.6435 -0.1099 -0.4901
  818MPD2    H312096   1.809   0.757  10.200  0.7440 -0.8081  0.5849
  818MPD2     N12097   1.721   0.321  10.263 -0.5368 -0.0170 -0.3913
  818MPD2    H512098   1.822   0.311  10.266 -0.4633  0.2976 -1.8435
  818MPD2    N112099   1.374   0.668  10.218 -0.3601  0.2820  0.4173
  818MPD2    H712100   1.307   0.597  10.245  0.3988 -0.3160  0.7224
  819MPD2     C12101   4.008   2.662  15.471  0.6730  0.1377 -0.6649
  819MPD2    C112102   3.943   2.543  15.515  0.3770 -0.1546 -0.4014
  819MPD2    C212103   4.008   2.477  15.624 -0.0239 -0.2612 -0.1526
  819MPD2    C312104   4.137   2.505  15.667 -0.4751 -0.1489 -0.0379
  819MPD2    C412105   4.202   2.616  15.604  0.3169 -0.4419 -0.5751
  819MPD2    C512106   4.134   2.690  15.512 -0.6837 -0.2509  0.5659
  819MPD2     H12107   3.960   2.392  15.672 -0.5612 -0.4932 -1.0976
  819MPD2    H112108   4.297   2.655  15.638 -0.9576  2.7828 -0.7064
  819MPD2    H212109   3.968   2.721  15.390  0.0597  2.0072  0.9923
  819MPD2    H312110   4.181   2.782  15.479  0.5600 -2.5446 -4.0460
  819MPD2     N12111   4.193   2.426  15.764  0.4782 -0.0826 -0.0317
  819MPD2    H512112   4.141   2.350  15.807 -1.0457 -0.2409 -2.1544
  819MPD2    N112113   3.821   2.498  15.457  0.7498  0.0309  0.3831
  819MPD2    H712114   3.790   2.538  15.369  3.0556  0.4297 -0.2578
  820MPD2     C12115   3.136   2.478  14.747  0.1594 -0.1049  0.0417
  820MPD2    C112116   3.187   2.577  14.825 -0.3486 -0.6687 -0.1274
  820MPD2    C212117   3.244   2.548  14.944 -0.4393  0.2836 -0.1183
  820MPD2    C312118   3.246   2.422  14.992 -0.2032  0.0698  0.1768
  820MPD2    C412119   3.179   2.320  14.926  0.4085 -0.4964  0.0113
  820MPD2    C512120   3.119   2.354  14.803  0.4661  0.1720  0.4403
  820MPD2     H12121   3.284   2.635  14.995 -0.3214 -0.1485  0.5304
  820MPD2    H112122   3.169   2.219  14.963 -1.3431 -0.5298 -0.5283
  820MPD2    H212123   3.093   2.492  14.648  1.6701  2.9938 -0.1738
  820MPD2    H312124   3.083   2.281  14.732  0.2941  1.2959 -0.6303
  820MPD2     N12125   3.309   2.391  15.115 -0.1892 -0.0974  0.0730
  820MPD2    H512126   3.301   2.293  15.139 -1.3675 -0.0770 -0.2140
  820MPD2    N112127   3.187   2.719  14.794  0.4694  0.0770  0.3673
  820MPD2    H712128   3.204   2.782  14.872 -0.1114  0.0560  0.5130
  821MPD2     C12129   4.056   3.543  13.108  0.1949  0.3634 -0.1009
  821MPD2    C112130   4.188   3.577  13.129  0.2856  0.1212 -0.7727
  821MPD2    C212131   4.287   3.545  13.040  0.3136 -0.7366  0.2327
  821MPD2    C312132   4.250   3.468  12.929  0.2462  0.3915 -0.3548
  821MPD2    C412133   4.117   3.445  12.907  0.1205 -1.0006  0.3491
  821MPD2    C512134   4.021   3.474  12.993  0.8033 -0.5350  0.1736
  821MPD2     H12135   4.386   3.586  13.059  1.1993 -2.4037 -0.7846
  821MPD2    H112136   4.098   3.396  12.812 -0.5538  0.5457 -0.3276
  821MPD2    H212137   3.976   3.570  13.176 -0.0054 -1.7530  0.5017
  821MPD2    H312138   3.916   3.448  12.986  0.5949  0.0517  1.0593
  821MPD2     N12139   4.336   3.415  12.826  0.0627 -0.3686  0.5002
  821MPD2    H512140   4.296   3.354  12.755  0.0159  1.2039 -0.8243
  821MPD2    N112141   4.227   3.639  13.249  0.5730 -0.0758 -0.3301
  821MPD2    H712142   4.324   3.659  13.269  1.0892 -0.8920 -1.9941
  822MPD2     C12143   4.720   3.700  15.742 -0.0878 -0.2028 -0.3737
  822MPD2    C112144   4.673   3.649  15.862  0.3021  0.5926  0.1199
  822MPD2    C212145   4.592   3.734  15.935  0.4462  0.5380 -0.4429
  822MPD2    C312146   4.569   3.860  15.894  0.2635 -0.5088  0.2374
  822MPD2    C412147   4.601   3.898  15.767 -0.0751  0.1179  0.6677
  822MPD2    C512148   4.681   3.817  15.688  0.2173  0.2572 -0.2667
  822MPD2     H12149   4.544   3.706  16.028  1.2151  0.4229 -0.0784
  822MPD2    H112150   4.574   3.998  15.737  2.6909  0.3444 -1.1869
  822MPD2    H212151   0.067   3.648  15.695  0.3686 -0.4944  0.7509
  822MPD2    H312152   4.719   3.848  15.591  1.2610 -2.6935 -0.7877
  822MPD2     N12153   4.511   3.948  15.986  0.1384  0.1173  0.2386
  822MPD2    H512154   4.490   3.902  16.073 -0.8328  1.0611  0.5082
  822MPD2    N112155   4.718   3.527  15.919  0.3606  0.4830 -0.1633
  822MPD2    H712156   4.679   3.509  16.011 -0.6406 -0.1013 -0.6932
  823MPD2     C12157   4.200   4.126  16.751  0.2466  0.1952  0.1425
  823MPD2    C112158   4.256   4.054  16.656  0.1106 -0.3581  0.8009
  823MPD2    C212159   4.315   3.935  16.693 -0.3171 -0.4817  0.1187
  823MPD2    C312160   4.301   3.882  16.822 -0.1061 -0.0796 -0.4532
  823MPD2    C412161   4.236   3.960  16.918 -0.5209  0.1251  0.0889
  823MPD2    C512162   4.183   4.076  16.874  1.2064  0.4533 -0.1405
  823MPD2     H12163   4.368   3.880  16.616 -1.2755 -1.4550  0.1624
  823MPD2    H112164   4.223   3.929  17.021  2.7665  2.0321  1.0701
  823MPD2    H212165   4.143   4.215  16.729  2.9971  2.4524  2.0602
  823MPD2    H312166   4.139   4.147  16.944  2.3498  0.4827  0.5425
  823MPD2     N12167   4.371   3.763  16.869  0.4101 -0.2135 -0.1443
  823MPD2    H512168   4.353   3.739  16.965 -2.1289  0.3841 -0.4572
  823MPD2    N112169   4.262   4.102  16.526 -0.0716 -0.3218 -0.1572
  823MPD2    H712170   4.253   4.201  16.504 -1.2698  0.1140  2.3019
  824MPD2     C12171   0.342   2.702  15.869  0.1951  0.6724  0.4386
  824MPD2    C112172   0.378   2.826  15.807  0.1858  0.7876 -0.5020
  824MPD2    C212173   0.482   2.816  15.711  0.3845  0.2042  0.2877
  824MPD2    C312174   0.548   2.697  15.681  0.1175 -0.4760  0.0944
  824MPD2    C412175   0.496   2.575  15.734  0.2098 -0.1654  0.1814
  824MPD2    C512176   0.401   2.583  15.827 -0.1044 -0.0118  0.3656
  824MPD2     H12177   0.523   2.908  15.670 -1.6755  0.7965 -0.4289
  824MPD2    H112178   0.543   2.478  15.720  0.7070  0.1601 -0.4307
  824MPD2    H212179   0.262   2.711  15.942 -2.8151 -0.8675 -2.6967
  824MPD2    H312180   0.371   2.491  15.876 -2.5529  1.4053  1.4968
  824MPD2     N12181   0.662   2.690  15.601  0.3767  0.3125  0.1655
  824MPD2    H512182   0.692   2.780  15.564  1.3418 -0.0236  0.1357
  824MPD2    N112183   0.356   2.958  15.856  0.3056 -0.4851  0.2554
  824MPD2    H712184   0.401   3.039  15.814  0.3726 -1.0440 -0.7707
  825MPD2     C12185   1.329   2.890  15.060 -0.3900  0.4859 -0.9345
  825MPD2    C112186   1.254   2.926  15.174 -0.1530 -0.5680  0.3102
  825MPD2    C212187   1.263   3.060  15.213  0.2222  0.1261  0.5200
  825MPD2    C312188   1.331   3.155  15.141  0.3811  0.2600 -0.6357
  825MPD2    C412189   1.393   3.117  15.028 -0.3859  0.3144  0.2491
  825MPD2    C512190   1.397   2.986  14.993 -0.5360 -0.1652  0.4255
  825MPD2     H12191   1.223   3.091  15.309  1.1574 -2.4924  1.7599
  825MPD2    H112192   1.445   3.187  14.964 -0.6976 -1.4997 -2.0008
  825MPD2    H212193   1.322   2.791  15.019 -1.4523 -0.1663  0.8265
  825MPD2    H312194   1.446   2.950  14.903  1.0799  0.7025  0.9585
  825MPD2     N12195   1.332   3.296  15.171  0.2370  0.1784  0.1600
  825MPD2    H512196   1.367   3.363  15.104 -0.2407  1.1509  0.8897
  825MPD2    N112197   1.183   2.827  15.243 -0.2894 -0.0094 -0.1365
  825MPD2    H712198   1.193   2.734  15.203 -0.1162  0.2628 -0.7221
  826MPD2     C12199   0.659   2.750  14.007 -0.1003  0.6863 -0.6016
  826MPD2    C112200   0.698   2.840  13.913  0.1358 -0.6478  0.1616
  826MPD2    C212201   0.611   2.934  13.867  0.2069 -0.3658  0.3453
  826MPD2    C312202   0.476   2.939  13.914  0.1455  0.5017  0.2841
  826MPD2    C412203   0.443   2.852  14.014 -0.6703 -0.8222 -0.6520
  826MPD2    C512204   0.531   2.754  14.056 -0.5129  0.0267  0.2336
  826MPD2     H12205   0.635   3.009  13.792 -1.0898 -1.2034 -0.9230
  826MPD2    H112206   0.347   2.848  14.064 -1.0415 -1.0480 -1.3968
  826MPD2    H212207   0.723   2.667  14.036  0.8670  1.6229 -0.0690
  826MPD2    H312208   0.503   2.683  14.133 -1.7340  2.5110  2.0689
  826MPD2     N12209   0.377   3.030  13.855 -0.2709 -0.0940  1.0458
  826MPD2    H512210   0.283   3.008  13.884  0.2192 -2.1827  1.0837
  826MPD2    N112211   0.832   2.838  13.865  0.4248  0.3096 -0.2380
  826MPD2    H712212   0.886   2.755  13.889 -0.9380 -0.3605  0.4939
  827MPD2     C12213   1.876   4.031  10.166  0.4514  0.0908  0.1429
  827MPD2    C112214   1.850   3.952  10.273  0.4338  0.6791 -0.1248
  827MPD2    C212215   1.734   3.882  10.284  0.5343 -0.0142  0.2980
  827MPD2    C312216   1.636   3.901  10.189  0.0329 -0.4361 -0.0755
  827MPD2    C412217   1.663   3.971  10.075  0.2492 -0.2621  0.3005
  827MPD2    C512218   1.781   4.042  10.071 -0.3067  0.2342  0.4577
  827MPD2     H12219   1.715   3.816  10.368  1.9863  0.7620  1.2545
  827MPD2    H112220   1.592   3.980   9.994  0.2627  0.7180  0.4048
  827MPD2    H212221   1.968   4.090  10.161  0.6687 -0.4103 -1.6857
  827MPD2    H312222   1.795   4.106   9.985 -0.4698 -1.4895 -0.8332
  827MPD2     N12223   1.508   3.832  10.209 -0.9385  0.2620  0.3012
  827MPD2    H512224   1.493   3.785  10.298  1.9296  3.3599  2.3958
  827MPD2    N112225   1.956   3.945  10.377  0.6035  0.0491  0.3836
  827MPD2    H712226   2.042   3.996  10.360  0.3690 -0.6124 -2.7096
  828MPD2     C12227   4.147   3.135  12.534  0.8182  0.1037 -0.5427
  828MPD2    C112228   4.093   3.213  12.430 -0.7626 -0.1345  0.0492
  828MPD2    C212229   4.134   3.192  12.298 -0.4345 -0.0098  0.9269
  828MPD2    C312230   4.207   3.079  12.269 -0.4442 -0.1344  0.4342
  828MPD2    C412231   4.251   2.996  12.368 -0.3942 -0.1143  0.2173
  828MPD2    C512232   4.233   3.032  12.503  0.6784  0.0871 -0.0023
  828MPD2     H12233   4.105   3.265  12.223  0.6542 -0.3001  0.2151
  828MPD2    H112234   4.319   2.915  12.346 -1.2250 -0.6992 -0.1769
  828MPD2    H212235   4.124   3.165  12.635 -0.9728 -1.0588 -0.6054
  828MPD2    H312236   4.278   2.992  12.593 -0.2507  1.7477  1.1990
  828MPD2     N12237   4.257   3.052  12.141  0.3582 -0.2831  0.2526
  828MPD2    H512238   4.334   2.986  12.145 -1.8349 -2.8002  1.0959
  828MPD2    N112239   4.015   3.330  12.455  0.8458 -0.2805  0.4245
  828MPD2    H712240   3.999   3.390  12.374  1.5704  0.9402  1.1792
  829MPD2     C12241   4.079   4.097  12.083  0.2116  0.0625 -0.1133
  829MPD2    C112242   3.986   4.121  12.179 -0.1610  0.3288 -0.0898
  829MPD2    C212243   3.939   4.022  12.262 -0.0022  0.2381 -0.5869
  829MPD2    C312244   3.992   3.895  12.257  1.1420  0.1082  0.5222
  829MPD2    C412245   4.094   3.871  12.165  0.8075 -0.3760 -0.3637
  829MPD2    C512246   4.135   3.972  12.088  0.3289 -0.3657  0.4093
  829MPD2     H12247   3.857   4.041  12.331  0.0675 -0.2344 -0.3700
  829MPD2    H112248   4.136   3.774  12.142  1.5366 -1.4578  5.4084
  829MPD2    H212249   4.124   4.183  12.036 -1.0834  1.0998  0.5416
  829MPD2    H312250   4.222   3.957  12.024  0.1187  2.2894 -0.5153
  829MPD2     N12251   3.946   3.784  12.329  0.6866 -0.7107  0.2381
  829MPD2    H512252   3.982   3.690  12.322 -0.8115 -1.2781  0.1537
  829MPD2    N112253   3.937   4.255  12.177 -0.2335  0.5727 -0.0687
  829MPD2    H712254   3.975   4.323  12.112  0.2435  0.2394 -0.1396
  830MPD2     C12255   4.666   1.728  15.767 -0.6870  0.5068  0.5127
  830MPD2    C112256   4.585   1.818  15.706  0.4122  0.3720  0.0459
  830MPD2    C212257   4.586   1.835  15.568 -0.0398  0.7170  0.1417
  830MPD2    C312258   4.670   1.758  15.489 -0.2493  0.2497  0.2673
  830MPD2    C412259   0.022   1.672  15.556 -0.0312 -0.1743 -0.2170
  830MPD2    C512260   0.015   1.649  15.693 -0.4266 -0.5013  0.8481
  830MPD2     H12261   4.525   1.909  15.520 -0.0136  0.7242  0.1197
  830MPD2    H112262   0.086   1.614  15.490 -0.0544 -0.3283 -0.1044
  830MPD2    H212263   4.649   1.703  15.871 -0.9278 -0.1866  0.3003
  830MPD2    H312264   0.075   1.572  15.740 -0.9475 -1.2855  0.2373
  830MPD2     N12265   4.676   1.765  15.345  0.0692  0.0595 -0.2868
  830MPD2    H512266   0.017   1.706  15.311  1.6533  1.0616  1.5213
  830MPD2    N112267   4.515   1.902  15.796 -0.0787  0.6291  0.5906
  830MPD2    H712268   4.527   1.877  15.894 -1.8384 -1.2440  0.3402
  831MPD2     C12269   0.123   3.995  16.285 -0.4691 -0.4740  0.2303
  831MPD2    C112270   0.112   3.872  16.219  0.7010 -0.4640 -0.4888
  831MPD2    C212271   0.009   3.786  16.237  0.0793  0.1163 -0.1734
  831MPD2    C312272   4.640   3.821  16.325 -0.0312 -0.0320  0.7671
  831MPD2    C412273   4.649   3.943  16.390  0.1225 -0.4059 -0.0736
  831MPD2    C512274   0.017   4.026  16.368  0.1294  0.0350 -0.4270
  831MPD2     H12275   0.001   3.699  16.173  1.3186  0.7353 -1.1676
  831MPD2    H112276   4.572   3.977  16.459 -1.5297  0.5017 -2.3657
  831MPD2    H212277   0.209   4.060  16.277 -0.8592 -0.0692 -0.7108
  831MPD2    H312278   0.020   4.115  16.430  2.6953  0.3230 -0.9655
  831MPD2     N12279   4.521   3.741  16.339 -0.1661 -0.3139 -0.2113
  831MPD2    H512280   4.432   3.777  16.371 -1.1711 -1.5609 -1.5665
  831MPD2    N112281   0.217   3.850  16.137  0.3429 -0.3952  0.2044
  831MPD2    H712282   0.272   3.930  16.105  0.3253 -0.9749 -1.2677
  832MPD2     C12283   3.398   4.655  17.201  0.0957  0.5078 -0.1298
  832MPD2    C112284   3.364   0.048  17.250 -0.0063  0.3483  0.9515
  832MPD2    C212285   3.248   0.104  17.200  0.2354  0.5098  0.3815
  832MPD2    C312286   3.157   0.020  17.124 -0.2577  0.1892  0.2878
  832MPD2    C412287   3.205   4.637  17.073 -0.5487 -0.3456  0.3852
  832MPD2    C512288   3.322   4.592  17.112  0.9169 -0.4193 -0.0143
  832MPD2     H12289   3.214   0.195  17.248 -0.9815  0.3960 -0.2544
  832MPD2    H112290   3.141   4.573  17.013  0.0168 -0.5582  0.0015
  832MPD2    H212291   3.485   4.600  17.233 -1.6642 -1.9670  0.3953
  832MPD2    H312292   3.360   4.501  17.068 -1.5771 -0.4961 -1.9949
  832MPD2     N12293   3.027   0.062  17.089 -0.0066  0.0230 -0.0134
  832MPD2    H512294   2.973   4.733  17.032 -2.2434  0.0371  2.0927
  832MPD2    N112295   3.445   0.108  17.356 -0.5264  0.0706  0.1926
  832MPD2    H712296   3.526   0.056  17.388 -1.5138 -0.3536  2.0328
  833MPD2     C12297   0.689   1.915  12.556 -0.0044  0.2043 -0.0141
  833MPD2    C112298   0.597   1.949  12.465 -0.1210 -0.4933 -0.4660
  833MPD2    C212299   0.612   1.926  12.330 -0.3372  0.0466 -0.7822
  833MPD2    C312300   0.740   1.894  12.285  0.3378  0.5219  0.0758
  833MPD2    C412301   0.835   1.861  12.377  0.6635  0.2158 -0.1797
  833MPD2    C512302   0.815   1.880  12.515 -0.6787  0.0416 -0.3194
  833MPD2     H12303   0.551   1.959  12.246 -0.6701 -1.0446 -0.9721
  833MPD2    H112304   0.925   1.809  12.345 -1.2703 -3.3048  0.1222
  833MPD2    H212305   0.672   1.923  12.663  1.9902 -2.4000  0.4756
  833MPD2    H312306   0.892   1.860  12.589 -0.4262  2.4127  0.0625
  833MPD2     N12307   0.756   1.894  12.146  0.1489  0.5481  0.3506
  833MPD2    H512308   0.671   1.924  12.099 -1.1712 -1.0276  1.7446
  833MPD2    N112309   0.472   2.006  12.520 -0.0711 -0.1456  0.2434
  833MPD2    H712310   0.445   2.020  12.617  0.7645  1.5241  0.2295
  834MPD2     C12311   0.707   1.103  11.505  0.4393  0.2716 -0.3330
  834MPD2    C112312   0.631   1.199  11.449 -0.8012  0.4877 -0.1042
  834MPD2    C212313   0.631   1.334  11.491 -0.0500  0.1327 -0.0681
  834MPD2    C312314   0.719   1.374  11.589 -0.3961 -0.2817  0.2756
  834MPD2    C412315   0.787   1.277  11.647  0.1027  0.6601 -0.1719
  834MPD2    C512316   0.779   1.143  11.616 -1.0245  0.5371 -0.3491
  834MPD2     H12317   0.553   1.395  11.446 -0.0612 -0.7225 -1.2112
  834MPD2    H112318   0.846   1.289  11.738  0.5872 -1.1150 -0.2548
  834MPD2    H212319   0.723   0.998  11.480  2.3974  0.3726  0.4711
  834MPD2    H312320   0.839   1.075  11.676 -3.4692 -3.7811 -2.7840
  834MPD2     N12321   0.719   1.505  11.628  0.0936  0.2525  0.3707
  834MPD2    H512322   0.643   1.567  11.602  0.1318 -1.3621 -3.5193
  834MPD2    N112323   0.544   1.159  11.340 -0.4517  0.0667  0.8673
  834MPD2    H712324   0.508   1.064  11.338 -0.9326  0.3268 -2.3815
  835MPD2     C12325   0.798   4.550  10.775  0.0819 -0.0129  0.0758
  835MPD2    C112326   0.675   4.522  10.832  0.3369  0.2991  0.4203
  835MPD2    C212327   0.675   4.477  10.960 -0.4916  0.2216 -0.0544
  835MPD2    C312328   0.788   4.456  11.041 -0.5032 -0.4703  0.0610
  835MPD2    C412329   0.910   4.469  10.976  0.4267 -0.2366  0.1650
  835MPD2    C512330   0.909   4.510  10.847  0.4590  0.0735  0.5753
  835MPD2     H12331   0.582   4.475  11.016 -0.0038 -2.6740  0.6855
  835MPD2    H112332   1.002   4.460  11.032  1.7019  1.1391 -1.6866
  835MPD2    H212333   0.798   4.597  10.678 -2.5777  0.5152  0.3432
  835MPD2    H312334   1.002   4.541  10.801 -0.5278 -1.1382 -2.2324
  835MPD2     N12335   0.787   4.384  11.164 -0.1365  0.4342 -0.2428
  835MPD2    H512336   0.872   4.348  11.207  1.3346  2.6984 -1.3053
  835MPD2    N112337   0.557   4.532  10.760 -0.4489  0.1497  0.0130
  835MPD2    H712338   0.477   4.489  10.805  0.9749 -0.3700  2.0686
  836MPD2     C12339   0.477   3.645  11.478 -0.9350  0.8586  0.3749
  836MPD2    C112340   0.436   3.770  11.509 -0.3394 -0.0508  0.8773
  836MPD2    C212341   0.303   3.798  11.523  0.2041  0.0307 -0.4658
  836MPD2    C312342   0.207   3.697  11.522 -0.3850 -0.5200 -0.1022
  836MPD2    C412343   0.258   3.570  11.492  0.1571  0.1975 -0.3166
  836MPD2    C512344   0.390   3.541  11.459  0.3957 -0.3674  0.5550
  836MPD2     H12345   0.278   3.898  11.557  2.1629  0.4069 -0.1427
  836MPD2    H112346   0.187   3.489  11.481  0.9521 -0.1729 -2.8056
  836MPD2    H212347   0.583   3.621  11.474 -0.5846  2.2541  1.0664
  836MPD2    H312348   0.423   3.441  11.436 -1.2488 -0.2816 -2.1402
  836MPD2     N12349   0.071   3.708  11.556 -0.0537  0.0160 -0.0984
  836MPD2    H512350   0.019   3.621  11.552 -3.6669  2.1562  0.5443
  836MPD2    N112351   0.531   3.880  11.503 -0.1597  0.6016  0.1186
  836MPD2    H712352   0.627   3.851  11.495 -0.8954 -1.8513  0.1566
  837MPD2     C12353   3.683   3.936  10.460 -0.0596 -0.7002 -0.0119
  837MPD2    C112354   3.554   3.976  10.450  0.4333  0.1668  0.4823
  837MPD2    C212355   3.520   4.110  10.479  0.7021 -0.9921 -0.5039
  837MPD2    C312356   3.612   4.203  10.519  0.2663 -0.1254  0.2807
  837MPD2    C412357   3.737   4.160  10.547 -0.2521 -0.5847  0.1798
  837MPD2    C512358   3.773   4.027  10.512  0.0240  0.4237 -0.1293
  837MPD2     H12359   3.421   4.145  10.453 -0.2282 -2.0319  1.5901
  837MPD2    H112360   3.819   4.224  10.575 -1.6402  1.3458 -0.1145
  837MPD2    H212361   3.724   3.836  10.451  0.5164 -0.4227 -0.4616
  837MPD2    H312362   3.880   4.007  10.518 -0.1543  0.1928  2.4213
  837MPD2     N12363   3.580   4.341  10.526 -0.0686  0.6938  0.0361
  837MPD2    H512364   3.482   4.361  10.513  0.0396  0.4648 -1.1334
  837MPD2    N112365   3.449   3.905  10.391 -0.2732  0.1623  0.6168
  837MPD2    H712366   3.371   3.962  10.361  0.1358  0.6550  0.4947
  838MPD2     C12367   1.661   1.773  11.149  0.3848  0.4347  0.3204
  838MPD2    C112368   1.652   1.890  11.220  1.7128 -0.2836 -0.6600
  838MPD2    C212369   1.573   1.895  11.328 -0.2617  0.3555 -0.6430
  838MPD2    C312370   1.501   1.784  11.369  1.0728  0.0441 -0.4571
  838MPD2    C412371   1.508   1.666  11.298 -0.5783 -0.5616  0.7278
  838MPD2    C512372   1.587   1.668  11.186 -0.0531 -0.3029 -0.3608
  838MPD2     H12373   1.581   1.984  11.391 -2.0665  0.3877 -0.4636
  838MPD2    H112374   1.452   1.577  11.323  1.6420 -2.1476  0.1118
  838MPD2    H212375   1.734   1.755  11.071  0.4117  1.5817  0.0759
  838MPD2    H312376   1.579   1.588  11.113  0.5146 -1.5352  0.9240
  838MPD2     N12377   1.420   1.801  11.485 -0.3477 -0.3545 -0.2293
  838MPD2    H512378   1.400   1.898  11.508 -0.0869 -0.5759  0.9308
  838MPD2    N112379   1.731   2.006  11.184 -0.2852 -0.0205 -0.3164
  838MPD2    H712380   1.724   2.085  11.248  0.9393  0.9289 -1.3603
  839MPD2     C12381   1.711   2.182  11.678 -0.0624  0.0064 -0.5239
  839MPD2    C112382   1.782   2.118  11.577  0.3140 -1.0466  0.0114
  839MPD2    C212383   1.862   2.190  11.493  0.1458  0.6414 -0.6109
  839MPD2    C312384   1.833   2.324  11.489  0.3130  0.1245 -0.3981
  839MPD2    C412385   1.764   2.386  11.589 -0.4826  0.6951  0.0654
  839MPD2    C512386   1.694   2.316  11.681  0.4316 -0.1147 -0.3978
  839MPD2     H12387   1.936   2.144  11.429 -0.4788 -1.5308  0.2457
  839MPD2    H112388   1.750   2.494  11.587  0.8201  0.8251 -1.3742
  839MPD2    H212389   1.657   2.130  11.756 -0.1979  0.8145 -0.0788
  839MPD2    H312390   1.638   2.379  11.749  0.5508  0.6574 -1.0157
  839MPD2     N12391   1.888   2.417  11.400 -0.0191  0.4329  0.2867
  839MPD2    H512392   1.862   2.512  11.425  0.6651  0.5256  0.6556
  839MPD2    N112393   1.797   1.981  11.585 -0.5068 -0.1688 -0.1687
  839MPD2    H712394   1.866   1.950  11.517 -0.3014  2.1127 -0.9766
  840MPD2     C12395   2.340   4.339  10.393  0.0382 -0.8834 -0.2050
  840MPD2    C112396   2.369   4.302  10.524 -0.2678 -0.0158  0.2307
  840MPD2    C212397   2.444   4.384  10.607  0.6869 -0.4500 -0.1463
  840MPD2    C312398   2.478   4.509  10.559 -0.6204  0.6675  0.0056
  840MPD2    C412399   2.437   4.549  10.436 -0.6509 -0.5828  0.2515
  840MPD2    C512400   2.363   4.466  10.355  0.1342  0.0917 -0.3978
  840MPD2     H12401   2.468   4.352  10.708  0.8328 -0.0811 -0.0642
  840MPD2    H112402   2.439   4.655  10.411 -0.6838 -0.5270  0.4937
  840MPD2    H212403   2.286   4.273  10.326 -0.1740 -1.7353  0.8010
  840MPD2    H312404   2.307   4.494  10.267  0.0502  0.9252 -0.0775
  840MPD2     N12405   2.536   4.610  10.635 -0.2766 -0.7093 -0.3356
  840MPD2    H512406   2.551   4.698  10.585  3.8188 -0.2726  1.6284
  840MPD2    N112407   2.320   4.169  10.552 -0.4786  0.4148  0.0872
  840MPD2    H712408   2.270   4.125  10.475 -0.4550  0.7817 -0.1358
  841MPD2     C12409   2.235   4.297  14.189  0.3499  0.2168 -0.3191
  841MPD2    C112410   2.204   4.186  14.262  0.2693 -0.3099  0.1767
  841MPD2    C212411   2.268   4.187  14.386 -0.3214  0.1382  0.3181
  841MPD2    C312412   2.345   4.295  14.429 -0.1350  0.2545 -0.6184
  841MPD2    C412413   2.380   4.398  14.348  0.6985 -0.4290  0.4123
  841MPD2    C512414   2.323   4.394  14.226  0.5560  0.3063  0.4176
  841MPD2     H12415   2.256   4.099  14.448 -0.2148  0.7559  1.2085
  841MPD2    H112416   2.439   4.484  14.378  0.3138 -0.4920  1.3428
  841MPD2    H212417   2.188   4.313  14.093 -0.3412  0.0381 -0.0171
  841MPD2    H312418   2.329   4.463  14.143 -4.0278  0.8016  0.5087
  841MPD2     N12419   2.384   4.297  14.560  0.5921 -0.4658 -0.0452
  841MPD2    H512420   2.351   4.231  14.630  0.5243  1.6909  1.9551
  841MPD2    N112421   2.106   4.089  14.216 -0.0458 -0.5242 -0.3315
  841MPD2    H712422   2.113   3.999  14.263  3.3247 -0.7239 -1.1452
  842MPD2     C12423   2.646   0.570  17.158  0.3839  0.5180 -0.4152
  842MPD2    C112424   2.528   0.494  17.161  0.8663 -0.5763 -0.3343
  842MPD2    C212425   2.525   0.387  17.249  0.5674 -0.0299  0.4956
  842MPD2    C312426   2.644   0.350  17.325  0.0117  0.3041  0.3937
  842MPD2    C412427   2.759   0.422  17.304  0.2974 -1.4946  0.7397
  842MPD2    C512428   2.750   0.540  17.238  0.0068 -0.3344  0.4421
  842MPD2     H12429   2.437   0.324  17.247  1.1202 -0.8894  3.1617
  842MPD2    H112430   2.855   0.405  17.352  0.5311 -4.0793 -0.6315
  842MPD2    H212431   2.653   0.658  17.095  1.7172  0.5990 -0.1479
  842MPD2    H312432   2.828   0.615  17.234 -0.2899 -0.1088 -1.3271
  842MPD2     N12433   2.637   0.243  17.411 -0.2900  0.3753  0.9882
  842MPD2    H512434   2.723   0.218  17.458  1.5110  1.6653 -1.6233
  842MPD2    N112435   2.421   0.537  17.077 -0.3292  0.2721 -0.1466
  842MPD2    H712436   2.431   0.626  17.029 -1.0252  0.6222  0.3572
  843MPD2     C12437   4.561   1.119  17.340  0.3534  0.1444 -0.5771
  843MPD2    C112438   4.522   1.103  17.464 -0.3726 -0.3987  0.0482
  843MPD2    C212439   4.480   1.217  17.539  1.0469 -0.1720 -0.1903
  843MPD2    C312440   4.479   1.341  17.480  1.1528  0.5266  0.2108
  843MPD2    C412441   4.520   1.357  17.351 -0.4585  0.2255  0.4142
  843MPD2    C512442   4.552   1.246  17.280 -0.1535  0.0648 -0.1337
  843MPD2     H12443   4.446   1.204  17.641 -1.0075  0.4356 -0.8030
  843MPD2    H112444   4.526   1.455  17.305  4.2676  1.0534  2.7003
  843MPD2    H212445   4.594   1.038  17.277 -1.2266 -0.2390 -0.9145
  843MPD2    H312446   4.570   1.262  17.174 -1.5266  0.5226 -0.3007
  843MPD2     N12447   4.453   1.458  17.557 -0.1145 -0.1033  0.0798
  843MPD2    H512448   4.505   1.540  17.527  1.4765 -1.9538 -2.3046
  843MPD2    N112449   4.507   0.970  17.511 -0.2481 -0.0778  0.2179
  843MPD2    H712450   4.548   0.897  17.453  0.3766  0.5490 -0.1248
  844MPD2     C12451   2.943   0.234  16.656  1.1082 -0.2892  0.1216
  844MPD2    C112452   3.014   0.118  16.695  0.7686  0.3112 -0.6919
  844MPD2    C212453   3.129   0.137  16.776 -0.4692  0.2909 -0.4509
  844MPD2    C312454   3.180   0.263  16.799  0.1989  0.2540 -0.2167
  844MPD2    C412455   3.121   0.380  16.747  0.8564  0.1511 -0.2170
  844MPD2    C512456   2.997   0.361  16.683  0.7618 -0.3579  0.3652
  844MPD2     H12457   3.193   0.056  16.811 -1.9748 -0.5834  0.2586
  844MPD2    H112458   3.151   0.482  16.765  1.4866  0.2762 -1.9789
  844MPD2    H212459   2.862   0.234  16.584  0.8543 -0.9896  0.4037
  844MPD2    H312460   2.957   0.453  16.643 -1.4924 -2.0045 -1.1092
  844MPD2     N12461   3.305   0.253  16.868  0.2440  0.3713  0.8143
  844MPD2    H512462   3.335   0.158  16.887 -0.7192 -0.9903 -4.5202
  844MPD2    N112463   2.984   4.719  16.651  0.2988  0.8213 -0.5200
  844MPD2    H712464   3.046   4.644  16.678  1.0174  1.8974  0.8662
  845MPD2     C12465   3.760   1.024  17.242  0.3132  0.2688 -0.1188
  845MPD2    C112466   3.673   0.942  17.310 -0.4296  0.2061  0.3148
  845MPD2    C212467   3.667   0.802  17.283  0.3789 -0.0645  0.1690
  845MPD2    C312468   3.746   0.750  17.176  0.8299  0.1249  0.1216
  845MPD2    C412469   3.840   0.834  17.118 -0.0717 -1.1663  0.6309
  845MPD2    C512470   3.853   0.963  17.162  0.7314  0.5576 -0.0483
  845MPD2     H12471   3.602   0.735  17.337 -0.9432 -1.6350 -3.3819
  845MPD2    H112472   3.917   0.787  17.058  3.1249 -0.2200  3.9978
  845MPD2    H212473   3.769   1.130  17.264 -0.0220  0.0326  1.1573
  845MPD2    H312474   3.923   1.033  17.119  2.3855 -1.7123 -1.0711
  845MPD2     N12475   3.722   0.618  17.137  0.3916 -0.4543  0.2201
  845MPD2    H512476   3.637   0.579  17.176  0.4113  2.1028  2.8367
  845MPD2    N112477   3.583   1.009  17.387 -0.3728  0.4936  0.5892
  845MPD2    H712478   3.576   1.110  17.388 -0.5012  0.4802  1.0864
  846MPD2     C12479   4.414   1.370  13.629 -0.5216 -0.5565 -0.3124
  846MPD2    C112480   4.350   1.485  13.654 -0.6840  0.4879  0.5952
  846MPD2    C212481   4.301   1.505  13.780 -0.4216 -0.5054  0.5698
  846MPD2    C312482   4.306   1.411  13.883  0.0399  0.0553  0.1304
  846MPD2    C412483   4.387   1.296  13.862  0.5883  0.0835  0.3232
  846MPD2    C512484   4.434   1.278  13.736 -0.0658 -0.1374  1.0327
  846MPD2     H12485   4.243   1.594  13.803  1.2922  1.1083 -1.4555
  846MPD2    H112486   4.414   1.219  13.934 -0.4517 -1.3415 -0.8114
  846MPD2    H212487   4.470   1.340  13.541  1.6024  0.3754  0.7134
  846MPD2    H312488   4.498   1.192  13.720 -0.9285 -0.7400  0.7973
  846MPD2     N12489   4.252   1.443  14.004 -0.1520  0.0616  0.1266
  846MPD2    H512490   4.186   1.520  14.009 -1.6179 -0.9067 -5.1758
  846MPD2    N112491   4.327   1.590  13.554  0.5254 -0.6031  0.1873
  846MPD2    H712492   4.255   1.656  13.583  1.3820 -0.2695  1.5123
  847MPD2     C12493   4.525   1.943  14.648 -0.4865  0.1842  0.1414
  847MPD2    C112494   4.650   1.920  14.586 -0.8254  0.1302 -0.2182
  847MPD2    C212495   4.719   1.807  14.621  0.1970  0.4147 -0.0507
  847MPD2    C312496   4.678   1.731  14.724  0.9090  0.4472  0.3381
  847MPD2    C412497   4.557   1.754  14.794  0.5887  0.1143 -0.4578
  847MPD2    C512498   4.478   1.853  14.743 -0.6313 -0.0547 -0.2681
  847MPD2     H12499   0.077   1.796  14.565 -0.6793  1.7923 -1.7865
  847MPD2    H112500   4.526   1.691  14.877 -2.7208  1.3683 -0.7521
  847MPD2    H212501   4.451   2.018  14.622 -1.4687  0.4573  3.7674
  847MPD2    H312502   4.377   1.863  14.781 -0.8408 -0.5584 -0.6774
  847MPD2     N12503   0.011   1.614  14.765 -0.4901 -0.2810  0.4094
  847MPD2    H512504   4.724   1.566  14.851 -0.3997 -1.0723 -0.0032
  847MPD2    N112505   4.712   2.007  14.495 -0.2385 -0.1158 -0.6443
  847MPD2    H712506   0.078   2.005  14.486 -0.4381  0.2051 -3.1663
  848MPD2     C12507   2.590   0.595  16.600 -1.3676  0.3763 -0.0381
  848MPD2    C112508   2.699   0.615  16.690  0.4173  0.2481 -0.1833
  848MPD2    C212509   2.780   0.727  16.671 -0.3551  0.0278  0.2466
  848MPD2    C312510   2.761   0.812  16.565 -0.1220  0.0732 -0.0450
  848MPD2    C412511   2.654   0.795  16.479  0.3494 -0.0423 -0.1012
  848MPD2    C512512   2.571   0.685  16.502 -0.2081  0.3203  0.1585
  848MPD2     H12513   2.853   0.755  16.747  0.5352  0.3885 -0.7321
  848MPD2    H112514   2.633   0.869  16.403  1.0208 -0.5458 -0.7857
  848MPD2    H212515   2.512   0.520  16.613 -0.7365 -0.2570  0.1368
  848MPD2    H312516   2.489   0.672  16.432 -2.8554  3.0625  2.7475
  848MPD2     N12517   2.821   0.930  16.542 -0.1987  0.5997  0.0106
  848MPD2    H512518   2.778   0.979  16.464 -1.6624  1.9947  1.6960
  848MPD2    N112519   2.730   0.529  16.799  0.2413  0.3682 -0.3614
  848MPD2    H712520   2.821   0.538  16.844  0.3669  0.5787 -0.6533
  849MPD2     C12521   1.809   0.073  14.561  0.1436 -0.3386 -0.3501
  849MPD2    C112522   1.922   0.114  14.491 -0.2192  0.4084  0.2507
  849MPD2    C212523   2.039   0.133  14.559  0.0311  0.2662 -0.3350
  849MPD2    C312524   2.061   0.082  14.692 -0.2294  0.0270  0.2673
  849MPD2    C412525   1.957   0.018  14.757  0.2306 -0.5229 -0.8226
  849MPD2    C512526   1.832   0.021  14.688  0.1383 -0.3633 -0.7502
  849MPD2     H12527   2.120   0.186  14.511  0.4649 -0.5018 -0.4487
  849MPD2    H112528   1.965   4.718  14.860  1.1636  1.8937 -0.0642
  849MPD2    H212529   1.711   0.061  14.517  0.2775  1.7985 -1.2073
  849MPD2    H312530   1.744   4.708  14.729 -0.1406  0.7597 -0.0172
  849MPD2     N12531   2.193   0.105  14.735 -0.2835  0.1850 -0.1759
  849MPD2    H512532   2.254   0.137  14.661 -0.0835  0.7545  0.2382
  849MPD2    N112533   1.922   0.155  14.358 -0.0551  0.2935  0.1148
  849MPD2    H712534   2.013   0.147  14.313 -0.2184 -0.0846 -0.1510
  850MPD2     C12535   0.326   3.079  14.938 -0.0791 -0.0733  0.2911
  850MPD2    C112536   0.397   3.004  15.026 -0.3802  0.2966 -0.2636
  850MPD2    C212537   0.532   2.986  14.999  0.0399 -0.4445 -0.2523
  850MPD2    C312538   0.601   3.050  14.893  0.4592 -0.2073 -0.7599
  850MPD2    C412539   0.518   3.122  14.809 -0.3721  0.6692 -0.1976
  850MPD2    C512540   0.382   3.134  14.831 -0.0602 -0.2951  0.1780
  850MPD2     H12541   0.597   2.944  15.076 -0.5153  0.0968  0.5206
  850MPD2    H112542   0.551   3.174  14.720  0.5914  2.8160  1.3850
  850MPD2    H212543   0.218   3.088  14.946  0.2338  1.8761  2.1381
  850MPD2    H312544   0.328   3.187  14.754 -1.3756 -0.5830  0.8946
  850MPD2     N12545   0.739   3.057  14.880 -0.4503 -0.0470  0.0404
  850MPD2    H512546   0.766   3.136  14.821  1.6656 -1.8627 -1.4275
  850MPD2    N112547   0.346   2.971  15.152 -0.0212 -0.1296  0.7442
  850MPD2    H712548   0.399   2.902  15.205  0.1862 -0.8589 -0.3979
  851MPD2     C12549   0.515   2.432  15.324 -0.6699 -0.4435 -0.0283
  851MPD2    C112550   0.384   2.454  15.349  0.4558 -0.1616 -0.4606
  851MPD2    C212551   0.289   2.372  15.298  0.3348 -0.4073  0.4101
  851MPD2    C312552   0.322   2.243  15.246 -0.4724  0.3839 -0.5853
  851MPD2    C412553   0.454   2.212  15.235  0.1976 -0.4355  0.3487
  851MPD2    C512554   0.545   2.310  15.268 -0.1842 -0.1057 -0.4361
  851MPD2     H12555   0.185   2.403  15.306  0.1310 -0.6909 -1.1133
  851MPD2    H112556   0.492   2.123  15.186  1.1043 -0.7229  1.5720
  851MPD2    H212557   0.590   2.495  15.371 -0.3817 -0.3771 -0.5638
  851MPD2    H312558   0.651   2.287  15.261 -0.0139  0.0553  1.6742
  851MPD2     N12559   0.224   2.164  15.190 -0.3257  0.0258  0.2393
  851MPD2    H512560   0.136   2.215  15.186 -0.3307 -0.1090 -1.3499
  851MPD2    N112561   0.354   2.577  15.411 -0.2147 -0.4151  0.8249
  851MPD2    H712562   0.428   2.647  15.413 -1.4460  0.8879  1.2696
  852MPD2     C12563   3.946   1.480   9.607  0.4501  0.3054 -0.2162
  852MPD2    C112564   4.033   1.371   9.628  0.9116 -0.1605 -0.3746
  852MPD2    C212565   4.169   1.392   9.618  0.1358 -0.6622 -0.3502
  852MPD2    C312566   4.224   1.514   9.586 -0.2967 -0.4602  0.2132
  852MPD2    C412567   4.138   1.617   9.550 -0.1515  0.0401 -0.4777
  852MPD2    C512568   4.000   1.597   9.560  0.3573 -0.2124 -0.5576
  852MPD2     H12569   4.231   1.305   9.639 -1.3631 -1.5718  0.3610
  852MPD2    H112570   4.179   1.713   9.518 -0.4208  0.8423  1.6228
  852MPD2    H212571   3.842   1.482   9.638  0.8856 -1.3560  1.3569
  852MPD2    H312572   3.934   1.677   9.527 -0.1314 -0.0959  0.7117
  852MPD2     N12573   4.361   1.526   9.574  0.1626 -0.3956  0.8420
  852MPD2    H512574   4.408   1.444   9.610 -1.3636 -1.4702  0.3748
  852MPD2    N112575   3.980   1.235   9.657 -0.0292  0.1549 -0.2513
  852MPD2    H712576   4.057   1.169   9.659  0.3321  0.6168  1.8461
  853MPD2     C12577   1.482   0.437  12.281  0.1817 -0.2928  0.2507
  853MPD2    C112578   1.434   0.558  12.256 -0.2126  0.1818  0.0356
  853MPD2    C212579   1.406   0.585  12.126 -0.1284  0.4223  0.1947
  853MPD2    C312580   1.419   0.487  12.030  0.4196 -0.5629  0.4125
  853MPD2    C412581   1.467   0.357  12.065 -0.0618 -0.1439  0.3011
  853MPD2    C512582   1.495   0.333  12.196 -0.6823 -0.2615  0.3424
  853MPD2     H12583   1.379   0.687  12.100  2.4381  1.0604 -0.0009
  853MPD2    H112584   1.479   0.279  11.991  0.2018 -0.1101  0.3058
  853MPD2    H212585   1.507   0.415  12.384  1.3458 -4.9396 -1.0274
  853MPD2    H312586   1.542   0.246  12.241  1.2949 -0.1700 -1.5575
  853MPD2     N12587   1.385   0.505  11.895 -0.5236  0.1736 -0.5279
  853MPD2    H512588   1.419   0.434  11.831  0.6745  0.2057  0.0703
  853MPD2    N112589   1.426   0.646  12.365 -0.4221 -0.1323 -0.1246
  853MPD2    H712590   1.457   0.611  12.456  0.8270  1.3029 -0.0032
  854MPD2     C12591   3.056   0.697  12.954  0.8522  0.0676 -0.2399
  854MPD2    C112592   3.158   0.749  12.876  0.0798 -0.3814 -0.4666
  854MPD2    C212593   3.286   0.687  12.874  1.0579  0.5211 -0.3777
  854MPD2    C312594   3.308   0.584  12.962  0.6225 -0.0985 -0.1028
  854MPD2    C412595   3.209   0.524  13.036 -0.0084  0.4414 -0.5899
  854MPD2    C512596   3.088   0.594  13.034 -0.4566 -0.2803 -0.6929
  854MPD2     H12597   3.371   0.716  12.813  1.1439 -2.1112 -1.5109
  854MPD2    H112598   3.241   0.454  13.112 -1.4219  0.8210  0.3534
  854MPD2    H212599   2.961   0.747  12.964 -0.3309 -1.7055 -2.5669
  854MPD2    H312600   3.025   0.561  13.117  0.5986 -1.0491 -0.1924
  854MPD2     N12601   3.436   0.531  12.979 -0.0463  0.1290 -0.9612
  854MPD2    H512602   3.438   0.463  13.054 -1.7840  1.5661  0.3949
  854MPD2    N112603   3.123   0.866  12.803 -0.0522  0.1797  1.3125
  854MPD2    H712604   3.030   0.905  12.811 -0.6523 -0.8140 -0.9545
  855MPD2     C12605   3.732   0.396  13.781 -0.1697  0.3214 -0.0710
  855MPD2    C112606   3.846   0.386  13.709 -0.1559  0.4887 -0.6565
  855MPD2    C212607   3.837   0.383  13.569  0.1833 -0.6318 -0.3915
  855MPD2    C312608   3.717   0.411  13.503 -0.6846  0.7624 -0.2032
  855MPD2    C412609   3.604   0.426  13.576 -0.1992  0.1134  0.0169
  855MPD2    C512610   3.612   0.417  13.718  0.1377  0.1502 -0.4397
  855MPD2     H12611   3.919   0.349  13.507 -0.0583 -1.1332 -0.4354
  855MPD2    H112612   3.507   0.447  13.533 -0.0397  0.8750  0.0347
  855MPD2    H212613   3.722   0.403  13.889 -0.5762  2.0422 -0.2098
  855MPD2    H312614   3.526   0.443  13.779 -0.5222  1.0198 -1.7449
  855MPD2     N12615   3.712   0.406  13.362  0.0243  0.1490  0.2714
  855MPD2    H512616   3.627   0.387  13.312 -1.2222 -1.3467  2.9599
  855MPD2    N112617   3.963   0.343  13.770 -0.2406 -1.1185 -0.7115
  855MPD2    H712618   4.036   0.307  13.709  1.1593  0.3714  0.0949
  856MPD2     C12619   1.337   1.205  14.163 -0.0358 -0.5165 -0.3237
  856MPD2    C112620   1.300   1.327  14.117 -0.0643  0.6026 -0.5978
  856MPD2    C212621   1.174   1.363  14.142  0.1727  0.6517  0.5051
  856MPD2    C312622   1.083   1.283  14.210 -0.0023  0.4036  0.2458
  856MPD2    C412623   1.127   1.167  14.262 -0.0552 -0.4784  0.7070
  856MPD2    C512624   1.253   1.123  14.230 -0.7253 -0.9222  0.1172
  856MPD2     H12625   1.146   1.463  14.110  1.2607  1.0404  0.7733
  856MPD2    H112626   1.071   1.102  14.330  0.5485 -1.6802  0.0579
  856MPD2    H212627   1.439   1.173  14.148  0.2764  0.0710  0.5179
  856MPD2    H312628   1.289   1.027  14.265  0.7867 -0.8588 -1.2923
  856MPD2     N12629   0.949   1.302  14.222  0.3326  0.2779  0.1259
  856MPD2    H512630   0.891   1.220  14.241  1.3106 -0.4239  0.1012
  856MPD2    N112631   1.384   1.428  14.060  0.3973  0.3288 -0.1577
  856MPD2    H712632   1.332   1.506  14.019 -2.2822 -1.3229  0.0792
  857MPD2     C12633   2.885   3.361  13.247 -0.3040 -0.8205 -0.1480
  857MPD2    C112634   2.897   3.476  13.177 -0.3037  0.3464  0.1916
  857MPD2    C212635   2.983   3.571  13.227 -0.4729 -0.0430 -0.2675
  857MPD2    C312636   3.045   3.556  13.352  0.3600  0.5104  0.0052
  857MPD2    C412637   3.021   3.437  13.424  0.5649  0.6483  0.1741
  857MPD2    C512638   2.961   3.337  13.363  0.0108 -0.9873 -0.3482
  857MPD2     H12639   3.002   3.666  13.178 -0.0377  0.2696  0.5163
  857MPD2    H112640   3.057   3.417  13.524  1.2660 -0.7666 -0.3470
  857MPD2    H212641   2.821   3.280  13.217 -2.1308  0.4588  0.2720
  857MPD2    H312642   2.946   3.247  13.422 -0.1972 -1.9278 -1.8436
  857MPD2     N12643   3.119   3.662  13.404  0.5240  0.3930  0.4710
  857MPD2    H512644   3.117   3.748  13.349 -1.9674  0.8307  1.2625
  857MPD2    N112645   2.822   3.499  13.063 -0.2811  0.5761 -0.0642
  857MPD2    H712646   2.756   3.429  13.030  2.1691 -1.7666  0.0284
  858MPD2     C12647   2.943   3.207  16.746 -0.4287 -0.1763  0.2336
  858MPD2    C112648   3.055   3.130  16.780 -0.5555  0.2556  0.1945
  858MPD2    C212649   3.098   3.128  16.910 -1.4461 -0.1846  0.0291
  858MPD2    C312650   3.040   3.209  17.005 -0.2316  0.3257  0.3573
  858MPD2    C412651   2.930   3.282  16.971 -0.5075 -0.5302  0.2105
  858MPD2    C512652   2.882   3.276  16.845 -0.0848  0.4044 -0.6444
  858MPD2     H12653   3.177   3.056  16.931  0.9668  1.8191 -2.3006
  858MPD2    H112654   2.888   3.350  17.044 -0.9622 -0.8602  0.2507
  858MPD2    H212655   2.898   3.217  16.647  0.4768 -0.3839 -0.2015
  858MPD2    H312656   2.801   3.346  16.828 -0.7359 -0.6422 -1.8205
  858MPD2     N12657   3.077   3.195  17.144 -0.1370 -0.3545  0.0353
  858MPD2    H512658   3.021   3.234  17.219  3.1434  0.2318  2.1459
  858MPD2    N112659   3.103   3.044  16.676  0.2239  0.2255 -0.2213
  858MPD2    H712660   3.053   3.042  16.587  0.9154 -1.0559 -0.5829
  859MPD2     C12661   2.138   0.204  15.929  0.9580  0.1202 -0.1325
  859MPD2    C112662   2.088   0.209  15.799  0.3030 -0.6066 -0.3710
  859MPD2    C212663   2.016   0.111  15.743 -0.4364 -0.0776  1.3833
  859MPD2    C312664   1.979   4.731  15.818 -0.0848  0.5258 -0.2737
  859MPD2    C412665   2.024   4.721  15.951 -0.3870  0.6629  0.3743
  859MPD2    C512666   2.099   0.090  16.003  0.6988 -0.7239  0.2897
  859MPD2     H12667   1.989   0.112  15.638  1.2223  0.0355  0.9519
  859MPD2    H112668   2.017   4.632  16.013  0.8612 -0.1085 -0.5937
  859MPD2    H212669   2.197   0.290  15.960  1.8496  0.1105 -1.7822
  859MPD2    H312670   2.142   0.091  16.103  3.5035  1.9448 -0.9166
  859MPD2     N12671   1.900   4.628  15.765 -0.4448 -0.1843 -0.3128
  859MPD2    H512672   1.863   4.560  15.831  1.3859  0.8447  1.7554
  859MPD2    N112673   2.127   0.320  15.724  0.4217  0.3259  0.1761
  859MPD2    H712674   2.179   0.389  15.777  2.2863 -1.0235  0.0811
  860MPD2     C12675   4.584   0.969  11.699  0.5745 -0.4468 -0.0471
  860MPD2    C112676   4.567   0.927  11.830 -0.8444  0.2931 -0.0776
  860MPD2    C212677   4.460   0.851  11.862 -0.8273 -0.1155  0.0189
  860MPD2    C312678   4.370   0.819  11.765  0.5402  0.6087 -0.5794
  860MPD2    C412679   4.381   0.863  11.632  0.1344 -0.5030 -0.4275
  860MPD2    C512680   4.492   0.928  11.605 -0.4959  0.8338 -0.2954
  860MPD2     H12681   4.449   0.816  11.964 -1.0053 -0.1115  0.0008
  860MPD2    H112682   4.311   0.832  11.555  0.4387 -1.2798 -0.3901
  860MPD2    H212683   4.666   1.029  11.662 -0.1436  2.2508  2.6885
  860MPD2    H312684   4.524   0.954  11.505 -0.4903  0.3549 -0.4161
  860MPD2     N12685   4.250   0.747  11.810  0.2366 -0.4217  0.8425
  860MPD2    H512686   4.246   0.729  11.910  2.0405 -0.2656  0.9370
  860MPD2    N112687   4.669   0.933  11.924 -0.6147 -0.6061  0.4540
  860MPD2    H712688   4.637   0.905  12.016 -2.8128 -0.1320 -0.1612
  861MPD2     C12689   3.042   3.445  10.997  0.2838  0.2897 -0.2998
  861MPD2    C112690   3.114   3.559  11.038 -0.2497  0.2378  0.1266
  861MPD2    C212691   3.067   3.678  10.986  0.3151  0.0777 -0.2245
  861MPD2    C312692   2.961   3.682  10.892 -0.5024  0.0906  0.0742
  861MPD2    C412693   2.897   3.564  10.857  0.3494  0.9237  0.2099
  861MPD2    C512694   2.940   3.448  10.910  0.1368  0.5414 -0.7989
  861MPD2     H12695   3.113   3.773  11.014  0.4059 -0.5595  1.8033
  861MPD2    H112696   2.821   3.563  10.779  0.3047  3.5190  0.2170
  861MPD2    H212697   3.079   3.347  11.025  1.1043  1.3892  2.4709
  861MPD2    H312698   2.901   3.353  10.875  0.1229  0.7531 -1.3518
  861MPD2     N12699   2.911   3.800  10.835  0.0039  0.1881  0.1909
  861MPD2    H512700   2.846   3.779  10.760  1.6393  2.7486 -1.9291
  861MPD2    N112701   3.224   3.546  11.126  0.2254  0.1062  0.3455
  861MPD2    H712702   3.246   3.449  11.146 -0.5811 -0.1657 -0.0714
  862MPD2     C12703   2.595   3.977  10.239  0.3620 -0.3098 -0.3916
  862MPD2    C112704   2.638   3.911  10.346 -0.0341  0.1321  0.6948
  862MPD2    C212705   2.640   3.772  10.341 -0.5103 -0.1235 -0.1934
  862MPD2    C312706   2.609   3.702  10.230  0.2559  0.0838  0.0507
  862MPD2    C412707   2.579   3.768  10.114  0.2023  0.2758  0.3742
  862MPD2    C512708   2.570   3.907  10.122  0.2293  0.1839 -0.8996
  862MPD2     H12709   2.663   3.726  10.436 -0.5935 -0.1882 -0.2050
  862MPD2    H112710   2.544   3.717  10.025 -0.0289  0.9625  0.0746
  862MPD2    H212711   2.592   4.086  10.235 -0.3653 -0.3934 -2.2255
  862MPD2    H312712   2.540   3.955  10.030 -1.6577  1.9250  0.6188
  862MPD2     N12713   2.607   3.556  10.232  0.2247 -0.3220 -0.0440
  862MPD2    H512714   2.572   3.508  10.149  0.1227 -1.2139  0.5134
  862MPD2    N112715   2.683   3.973  10.467 -0.0750  0.2075  0.0848
  862MPD2    H712716   2.687   3.916  10.550 -1.7357  0.3765  0.2795
  863MPD2     C12717   1.577   1.630  16.442  0.5579 -0.2751 -0.0196
  863MPD2    C112718   1.523   1.607  16.566 -0.6472  0.0772  1.1083
  863MPD2    C212719   1.596   1.631  16.686  0.0420  0.6009 -0.0692
  863MPD2    C312720   1.731   1.672  16.673  0.9613 -0.3718 -0.6146
  863MPD2    C412721   1.777   1.711  16.547 -0.2010  0.0647  0.0187
  863MPD2    C512722   1.706   1.688  16.431  0.6517 -0.3506  0.0110
  863MPD2     H12723   1.553   1.597  16.779  0.6201  1.8226  0.6493
  863MPD2    H112724   1.879   1.747  16.537 -1.3169  3.2317 -0.0432
  863MPD2    H212725   1.520   1.616  16.351  0.0999  2.4392 -0.1421
  863MPD2    H312726   1.756   1.715  16.338  0.1264  0.5970  0.0039
  863MPD2     N12727   1.827   1.669  16.786  0.1859 -0.1286  0.1727
  863MPD2    H512728   1.925   1.692  16.776  0.1970 -0.2946 -0.1247
  863MPD2    N112729   1.388   1.571  16.566  0.1284 -0.5416  0.3168
  863MPD2    H712730   1.345   1.539  16.480 -2.0667  0.4901  1.0260
  864MPD2     C12731   1.699   2.309  17.395  0.2820  0.0549  0.1393
  864MPD2    C112732   1.725   2.285  17.261 -0.0606  0.0623 -0.0467
  864MPD2    C212733   1.779   2.396  17.188  0.6649 -0.5095 -0.2453
  864MPD2    C312734   1.801   2.524  17.240  0.4393  0.1461 -0.0633
  864MPD2    C412735   1.754   2.535  17.371 -0.2690 -0.1043  0.7700
  864MPD2    C512736   1.709   2.434  17.448  0.2572 -0.0980  0.7859
  864MPD2     H12737   1.821   2.370  17.091  3.1369 -0.6511  0.8465
  864MPD2    H112738   1.765   2.629  17.424  0.2050  1.0930 -1.4496
  864MPD2    H212739   1.666   2.238  17.469  0.9925 -0.2950  0.1197
  864MPD2    H312740   1.678   2.449  17.550 -0.7173  2.0515  0.1543
  864MPD2     N12741   1.862   2.636  17.174  0.3299  0.4079  0.1743
  864MPD2    H512742   1.878   2.720  17.229  0.1134 -0.4006  1.4738
  864MPD2    N112743   1.721   2.149  17.215  0.5822 -0.0382  0.2854
  864MPD2    H712744   1.692   2.079  17.282 -0.4433  1.1346  1.0657
  865MPD2     C12745   2.010   3.247  16.557 -0.2790 -0.5191 -0.7515
  865MPD2    C112746   1.981   3.119  16.607 -0.5519  0.6629 -0.2035
  865MPD2    C212747   1.947   3.111  16.741  0.3502 -0.2840 -0.0839
  865MPD2    C312748   1.937   3.229  16.821  0.6102  0.6065 -0.5187
  865MPD2    C412749   1.971   3.353  16.769 -0.0734 -0.6526 -0.1929
  865MPD2    C512750   2.009   3.357  16.642 -0.5697  0.4234 -0.4811
  865MPD2     H12751   1.918   3.019  16.791 -0.1672 -1.5765 -2.7804
  865MPD2    H112752   1.966   3.447  16.824 -3.9123 -0.9165 -0.0463
  865MPD2    H212753   2.053   3.257  16.458  1.7908  1.3461  0.3318
  865MPD2    H312754   2.048   3.450  16.601  0.1133  1.5056  2.5993
  865MPD2     N12755   1.895   3.232  16.953  0.4059  0.5556  0.3854
  865MPD2    H512756   1.867   3.324  16.983 -1.1599  0.0728  0.4453
  865MPD2    N112757   2.010   3.007  16.527  0.0480  0.1871 -0.1602
  865MPD2    H712758   2.070   3.021  16.447  0.3297  0.6583  0.1412
  866MPD2     C12759   4.055   3.994  11.105 -0.2686  0.1998 -0.7276
  866MPD2    C112760   3.967   3.904  11.155  0.5617  0.5181  0.2354
  866MPD2    C212761   3.854   3.946  11.218 -0.3106 -0.1691 -0.1641
  866MPD2    C312762   3.811   4.071  11.198 -0.4873  0.5542  0.1368
  866MPD2    C412763   3.896   4.167  11.149  0.2126 -0.0309  0.7873
  866MPD2    C512764   4.023   4.129  11.105 -0.8125 -0.2066 -0.1846
  866MPD2     H12765   3.791   3.872  11.265 -1.2188  0.8396  0.1926
  866MPD2    H112766   3.878   4.273  11.155  1.2982  0.1606  0.6644
  866MPD2    H212767   4.143   3.957  11.052 -0.3205 -0.3077 -0.4558
  866MPD2    H312768   4.095   4.200  11.066 -0.2187 -0.3676  0.6064
  866MPD2     N12769   3.683   4.113  11.233 -0.1062  0.2112  0.5875
  866MPD2    H512770   3.651   4.201  11.196  1.7120 -0.7466 -3.1781
  866MPD2    N112771   4.000   3.766  11.125 -0.1607 -0.2366 -0.2393
  866MPD2    H712772   4.091   3.756  11.079  0.7882  0.4274  1.4967
  867MPD2     C12773   0.636   3.002  16.008 -0.3956 -0.2410 -0.5275
  867MPD2    C112774   0.603   2.904  16.093 -0.3698 -0.4338  0.2780
  867MPD2    C212775   0.566   2.935  16.225 -0.4537  0.3948 -0.8220
  867MPD2    C312776   0.562   3.063  16.266 -0.4422  0.0090 -0.8316
  867MPD2    C412777   0.590   3.161  16.177 -0.1365  0.6840 -0.3382
  867MPD2    C512778   0.631   3.130  16.052  0.0142 -0.1210  0.3603
  867MPD2     H12779   0.542   2.852  16.291  4.4088 -0.0063  0.4146
  867MPD2    H112780   0.575   3.267  16.195 -0.7190  0.5431  0.0164
  867MPD2    H212781   0.662   2.983  15.904  2.7701  1.4047 -0.0461
  867MPD2    H312782   0.651   3.212  15.984 -1.5575  0.7104  0.9197
  867MPD2     N12783   0.548   3.107  16.401  0.8023  0.2827  0.2303
  867MPD2    H512784   0.563   3.205  16.421  0.5647  0.6132 -1.2185
  867MPD2    N112785   0.635   2.774  16.056  0.0397  0.2574 -0.1656
  867MPD2    H712786   0.695   2.752  15.977 -0.5857  0.1856 -0.6283
  868MPD2     C12787   2.736   2.831  13.425 -0.6615 -0.0613  0.3991
  868MPD2    C112788   2.727   2.715  13.500 -0.3337  0.7792  0.4871
  868MPD2    C212789   2.655   2.705  13.613  0.4502 -0.1861 -0.4782
  868MPD2    C312790   2.604   2.822  13.667 -0.9558 -0.5933 -0.4044
  868MPD2    C412791   2.616   2.944  13.595  0.4079  0.0278 -0.5331
  868MPD2    C512792   2.679   2.942  13.478  0.0324  0.2615  1.0269
  868MPD2     H12793   2.639   2.618  13.675 -1.1614 -0.3207 -1.0913
  868MPD2    H112794   2.582   3.040  13.632 -0.1404 -0.6419  0.6890
  868MPD2    H212795   2.783   2.832  13.328  0.5934  1.5584  1.0410
  868MPD2    H312796   2.707   3.031  13.422  1.5387 -0.5197  0.5274
  868MPD2     N12797   2.536   2.814  13.793 -0.0166 -0.1712  0.6015
  868MPD2    H512798   2.512   2.721  13.824  0.4095 -0.7192 -0.7125
  868MPD2    N112799   2.788   2.605  13.442 -0.4890  0.0945  0.0456
  868MPD2    H712800   2.832   2.631  13.355  0.3920 -1.1611  0.1156
  869MPD2     C12801   4.055   4.402   1.017  0.3826  0.0829  0.3189
  869MPD2    C112802   3.962   4.469   1.083  0.1786  0.2790 -0.5458
  869MPD2    C212803   3.948   4.607   1.054 -0.0217  0.5872  0.0988
  869MPD2    C312804   4.035   4.675   0.967  0.0670 -0.1520  0.0138
  869MPD2    C412805   4.137   4.600   0.914 -0.1826 -0.6316  0.6410
  869MPD2    C512806   4.139   4.470   0.928  0.1062 -0.5613 -0.9946
  869MPD2     H12807   3.869   4.664   1.103  0.4886  1.7707 -0.4642
  869MPD2    H112808   4.212   4.638   0.846 -0.7517  0.4621  0.6064
  869MPD2    H212809   4.064   4.294   1.031 -1.8515  0.1517  2.3302
  869MPD2    H312810   4.217   4.418   0.874  0.8660 -0.1829 -0.2545
  869MPD2     N12811   4.048   0.076   0.943 -0.3141 -0.3440  0.2789
  869MPD2    H512812   4.130   0.104   0.891  0.1563  1.4432  2.0032
  869MPD2    N112813   3.881   4.400   1.179 -0.1329 -0.5969  0.4647
  869MPD2    H712814   3.910   4.310   1.215  0.0677 -1.0241 -0.7849
  870MPD2     C12815   3.077   3.928   1.823  0.3116 -0.4794 -0.1768
  870MPD2    C112816   3.175   3.955   1.730 -0.1789 -0.4146 -0.5399
  870MPD2    C212817   3.154   4.058   1.642  0.9033 -0.2914  0.1583
  870MPD2    C312818   3.025   4.113   1.633 -0.0617 -0.1150  0.3584
  870MPD2    C412819   2.926   4.087   1.725  0.4979 -0.7220 -0.4008
  870MPD2    C512820   2.957   3.996   1.817 -0.7426  0.5147 -0.6211
  870MPD2     H12821   3.227   4.077   1.564 -0.5975 -0.6101 -1.3313
  870MPD2    H112822   2.822   4.117   1.713  0.5302  0.0210  1.1813
  870MPD2    H212823   3.088   3.851   1.899  2.2215 -1.7483 -1.7416
  870MPD2    H312824   2.882   3.961   1.887  0.6871  0.3529  0.8227
  870MPD2     N12825   2.987   4.188   1.522 -0.3744 -0.5100  0.1167
  870MPD2    H512826   3.066   4.213   1.464 -0.5511  0.9642  0.5132
  870MPD2    N112827   3.298   3.886   1.748  0.3476 -0.3696 -0.2731
  870MPD2    H712828   3.307   3.805   1.808 -0.6988  0.0016  0.3761
  871MPD2     C12829   4.574   3.263  16.355  0.1230  0.1136 -0.9768
  871MPD2    C112830   4.585   3.196  16.480 -0.3713  0.1514 -0.2410
  871MPD2    C212831   4.605   3.061  16.494  0.5423  0.2807 -0.0604
  871MPD2    C312832   4.623   2.989  16.378  0.4634  0.8826 -0.0984
  871MPD2    C412833   4.595   3.047  16.254 -0.0272  0.1296 -0.3325
  871MPD2    C512834   4.568   3.183  16.244 -0.4912 -0.3698  0.2506
  871MPD2     H12835   4.632   3.018  16.590  0.6242 -0.3505 -0.3690
  871MPD2    H112836   4.585   2.985  16.166 -0.7403 -2.7728  1.7810
  871MPD2    H212837   4.566   3.368  16.332 -1.9313 -0.0825 -1.1355
  871MPD2    H312838   4.553   3.226  16.145  2.4459  4.0906  1.7315
  871MPD2     N12839   4.656   2.853  16.387 -0.0866 -0.6103  1.0744
  871MPD2    H512840   4.655   2.808  16.478 -1.8425 -0.6319  1.0544
  871MPD2    N112841   4.576   3.279  16.597 -1.3135  0.8543 -0.3760
  871MPD2    H712842   4.576   3.380  16.585 -3.0191  1.0168  0.9163
  872MPD2     C12843   0.774   0.765  13.550 -0.5494 -0.3503 -0.4088
  872MPD2    C112844   0.881   0.764  13.644  0.8111  0.0678 -0.0305
  872MPD2    C212845   0.849   0.756  13.776 -0.0332 -0.3926 -0.4088
  872MPD2    C312846   0.722   0.720  13.816  0.0525  0.6159  0.2573
  872MPD2    C412847   0.621   0.697  13.720  0.8507 -1.2182  0.7016
  872MPD2    C512848   0.651   0.723  13.586 -0.9209  0.5027  0.1720
  872MPD2     H12849   0.925   0.767  13.853 -1.3715 -1.3073  1.0330
  872MPD2    H112850   0.519   0.668  13.746  0.1896 -0.1787 -0.7486
  872MPD2    H212851   0.808   0.798  13.452 -2.3070 -3.5697 -2.1059
  872MPD2    H312852   0.580   0.706  13.506  1.4961 -0.6719 -1.7438
  872MPD2     N12853   0.686   0.693  13.947 -0.2766  0.0507 -0.1760
  872MPD2    H512854   0.589   0.666  13.958 -0.6977  1.2333 -1.0023
  872MPD2    N112855   1.017   0.795  13.619 -0.1441  0.8708  0.2270
  872MPD2    H712856   1.067   0.831  13.700  0.0725  0.6642  0.1829
  873MPD2     C12857   2.744   1.044   0.879 -0.1693  0.5397 -0.1656
  873MPD2    C112858   2.645   1.049   0.968  0.2293 -0.5601 -0.7601
  873MPD2    C212859   2.571   0.939   0.994  0.7117 -0.2614  0.1674
  873MPD2    C312860   2.602   0.812   0.940 -0.2340 -0.5614  0.7554
  873MPD2    C412861   2.700   0.810   0.851 -0.6577  0.1378  0.1339
  873MPD2    C512862   2.764   0.922   0.811 -1.0438 -0.2723 -0.0754
  873MPD2     H12863   2.487   0.949   1.062 -0.9496 -0.0403 -1.9250
  873MPD2    H112864   2.713   0.721   0.791  0.0471 -1.3846  2.5431
  873MPD2    H212865   2.781   1.139   0.842 -3.0655  1.0384 -1.7123
  873MPD2    H312866   2.840   0.921   0.734 -0.4389 -0.4773  0.5263
  873MPD2     N12867   2.527   0.701   0.976 -0.0158  0.5254 -0.3438
  873MPD2    H512868   2.460   0.710   1.051  0.0566  0.9805 -0.3356
  873MPD2    N112869   2.617   1.182   1.018  0.5582  0.6898 -0.3610
  873MPD2    H712870   2.684   1.253   0.991  1.6070  0.0655  0.6032
  874MPD2     C12871   2.202   0.998  16.392 -0.3076  0.3626  0.3119
  874MPD2    C112872   2.279   0.978  16.508  0.1911  0.1301  0.1366
  874MPD2    C212873   2.387   1.052  16.535 -0.5033 -0.3730 -0.5624
  874MPD2    C312874   2.439   1.144  16.444  0.0697  0.2286 -0.3972
  874MPD2    C412875   2.376   1.152  16.317  0.1137 -0.7240  0.6509
  874MPD2    C512876   2.250   1.092  16.302  0.3534  0.7820  0.0066
  874MPD2     H12877   2.436   1.038  16.631  2.6342 -0.7832 -2.2101
  874MPD2    H112878   2.427   1.211  16.242 -0.2171 -0.7058  0.4446
  874MPD2    H212879   2.107   0.947  16.380 -0.0307 -0.1850  0.4463
  874MPD2    H312880   2.205   1.094  16.204  1.8446  2.9517 -0.6204
  874MPD2     N12881   2.559   1.192  16.484  0.3378  0.1852  0.2151
  874MPD2    H512882   2.577   1.193  16.583  2.7981 -0.5924 -0.2344
  874MPD2    N112883   2.241   0.874  16.593 -0.0922 -0.3000  0.0311
  874MPD2    H712884   2.159   0.820  16.568  0.6522 -2.7027  2.7776
  875MPD2     C12885   3.137   3.547  14.869 -0.1037  0.2190  0.3464
  875MPD2    C112886   3.178   3.676  14.854  0.3559 -0.0103 -0.1760
  875MPD2    C212887   3.253   3.738  14.954  0.2009  0.3772  0.5405
  875MPD2    C312888   3.292   3.662  15.061  1.3613  0.2257  0.4346
  875MPD2    C412889   3.245   3.535  15.073 -0.5146  0.1469 -0.1237
  875MPD2    C512890   3.165   3.480  14.979 -0.3025 -0.4009 -0.6035
  875MPD2     H12891   3.281   3.843  14.954  1.0849  0.1346 -3.7220
  875MPD2    H112892   3.276   3.474  15.157  2.1186  0.0952 -1.1509
  875MPD2    H212893   3.094   3.493  14.785 -1.5440  0.7526  0.7480
  875MPD2    H312894   3.137   3.376  14.986 -1.9667  0.0845  0.0459
  875MPD2     N12895   3.369   3.720  15.171 -0.4589  0.2461  0.3738
  875MPD2    H512896   3.390   3.656  15.246  1.2702  0.7015  0.2739
  875MPD2    N112897   3.145   3.750  14.737 -0.1411  0.2626 -0.0559
  875MPD2    H712898   3.197   3.838  14.736 -1.3199  0.9294 -1.6582
  876MPD2     C12899   2.078   0.584  16.420  0.1063 -0.9905 -0.1191
  876MPD2    C112900   2.200   0.541  16.367 -0.1358 -0.0780 -0.0057
  876MPD2    C212901   2.260   0.426  16.414 -1.0588  0.0734 -0.0178
  876MPD2    C312902   2.206   0.348  16.509  0.2839 -1.0359 -0.0911
  876MPD2    C412903   2.083   0.389  16.567 -0.2885  0.3026  0.5565
  876MPD2    C512904   2.024   0.507  16.517  0.9454 -0.4280 -0.0007
  876MPD2     H12905   2.345   0.390  16.358 -1.1224  1.3913 -0.9558
  876MPD2    H112906   2.036   0.329  16.644  0.3670 -0.1588  0.5957
  876MPD2    H212907   2.026   0.677  16.399 -0.3298 -0.5770  2.7307
  876MPD2    H312908   1.934   0.533  16.573  0.6773 -2.8909  0.7426
  876MPD2     N12909   2.269   0.223  16.538  0.8161 -0.4095  0.0690
  876MPD2    H512910   2.357   0.206  16.492 -0.2518 -0.3374 -2.0219
  876MPD2    N112911   2.248   0.629  16.269 -0.1236  0.3594  0.2514
  876MPD2    H712912   2.184   0.704  16.242  0.2730  0.7020  0.2581
  877MPD2     C12913   2.121   0.985  15.636 -0.1374 -0.2275 -0.5245
  877MPD2    C112914   2.253   1.001  15.658 -0.3370 -0.0929 -0.1693
  877MPD2    C212915   2.340   1.027  15.557  0.4755  0.0474  0.2110
  877MPD2    C312916   2.291   1.038  15.430 -0.4538 -0.5536  0.2060
  877MPD2    C412917   2.158   1.010  15.405 -0.2205  0.0959  0.7774
  877MPD2    C512918   2.078   0.979  15.508 -0.9367 -0.0872  0.0678
  877MPD2     H12919   2.448   1.023  15.572  0.3557  1.9487  1.5873
  877MPD2    H112920   2.109   1.012  15.309 -0.0014  0.4498  0.6716
  877MPD2    H212921   2.050   0.972  15.717  0.4032  2.2896  0.3645
  877MPD2    H312922   1.971   0.967  15.489 -0.3221 -0.7636 -3.0123
  877MPD2     N12923   2.375   1.046  15.321 -0.6554 -0.5528  0.2436
  877MPD2    H512924   2.332   1.000  15.241 -0.3951  1.2623 -0.9566
  877MPD2    N112925   2.309   0.982  15.787 -0.2890  0.9632  0.3068
  877MPD2    H712926   2.408   1.005  15.787  0.6145 -2.8969 -0.3703
  878MPD2     C12927   1.750   0.067  13.283  0.6743 -0.4465 -0.4846
  878MPD2    C112928   1.839   0.174  13.309 -0.1101 -0.1778 -0.1916
  878MPD2    C212929   1.852   0.222  13.437  0.3683 -0.1969 -0.0253
  878MPD2    C312930   1.803   0.154  13.544 -1.0447  0.0058 -0.4263
  878MPD2    C412931   1.729   0.041  13.521  0.0285 -0.3655 -0.5248
  878MPD2    C512932   1.700   0.004  13.394  0.6697 -0.4784 -0.0778
  878MPD2     H12933   1.920   0.304  13.454  0.0744  0.0914 -0.2311
  878MPD2    H112934   1.675   0.007  13.609  0.9675 -0.8860 -0.1570
  878MPD2    H212935   1.712   0.047  13.184 -0.4564 -2.7267  0.4180
  878MPD2    H312936   1.624   4.665  13.372  1.4980 -0.6514 -2.3680
  878MPD2     N12937   1.831   0.200  13.676 -0.6342  0.3179  0.5026
  878MPD2    H512938   1.882   0.288  13.681 -2.9181  1.6478  0.2912
  878MPD2    N112939   1.898   0.238  13.199  0.1683 -0.1312  0.1119
  878MPD2    H712940   1.885   0.195  13.108  0.4220 -0.7403  0.3587
  879MPD2     C12941   2.318   1.615  17.629 -0.4994  0.4197 -0.5443
  879MPD2    C112942   2.326   1.675  17.509 -0.2626 -0.3414  0.1748
  879MPD2    C212943   2.326   1.600  17.394  0.9133  0.4766 -0.8389
  879MPD2    C312944   2.320   1.459  17.410 -0.1502 -0.0878  0.1812
  879MPD2    C412945   2.312   1.409  17.537  0.1011  0.0825 -0.3419
  879MPD2    C512946   2.325   1.480  17.645  0.6061  0.3148  0.2627
  879MPD2     H12947   2.337   1.649  17.297  0.4550 -0.4999 -1.3886
  879MPD2    H112948   2.301   1.301  17.539 -2.6996  0.3944  0.5204
  879MPD2    H212949   2.311   1.672  17.721 -0.0080 -1.8111  0.8853
  879MPD2    H312950   2.330   1.427   0.001  1.9755 -0.8334 -0.4304
  879MPD2     N12951   2.311   1.368  17.305 -0.4082 -0.2521 -0.0599
  879MPD2    H512952   2.288   1.272  17.331  0.5643 -0.9684 -1.7687
  879MPD2    N112953   2.338   1.814  17.497 -0.3257  0.2890  0.3962
  879MPD2    H712954   2.350   1.850  17.403  0.7123  2.2039  1.2632
  880MPD2     C12955   3.669   3.355   0.532 -0.1122  0.6138  0.3588
  880MPD2    C112956   3.568   3.416   0.601 -0.6444  0.0475  0.8075
  880MPD2    C212957   3.497   3.340   0.693 -0.6483  0.3326 -0.2823
  880MPD2    C312958   3.518   3.205   0.713 -0.1345  1.4092 -0.5846
  880MPD2    C412959   3.617   3.142   0.643  0.6021  0.3780 -0.0411
  880MPD2    C512960   3.696   3.220   0.553 -0.4717  0.5110  0.2261
  880MPD2     H12961   3.431   3.399   0.756 -0.1397 -0.1777  0.7229
  880MPD2    H112962   3.653   3.044   0.669  0.6207  0.8223  1.6558
  880MPD2    H212963   3.738   3.403   0.463  1.4066 -1.4366  0.4347
  880MPD2    H312964   3.783   3.175   0.506 -0.2556 -0.3462  1.4712
  880MPD2     N12965   3.447   3.145   0.821  0.1160 -0.0988 -0.6214
  880MPD2    H512966   3.391   3.212   0.875  0.3168 -1.3737  1.1642
  880MPD2    N112967   3.538   3.553   0.571 -0.8408  0.4618 -0.2064
  880MPD2    H712968   3.589   3.591   0.492 -0.0483  0.0378  0.1013
  881MPD2     C12969   3.880   4.313   0.015  0.6784 -0.0271 -0.7336
  881MPD2    C112970   3.862   4.172  17.738  0.7293  0.0202 -0.7414
  881MPD2    C212971   3.797   4.104   0.103 -0.0593 -0.4267  0.5447
  881MPD2    C312972   3.771   4.168   0.221 -0.0028 -0.3639  0.1868
  881MPD2    C412973   3.786   4.304   0.230  0.3216  0.7771 -0.0937
  881MPD2    C512974   3.842   4.376   0.125 -0.1721 -0.0180  0.2791
  881MPD2     H12975   3.797   3.996   0.099 -0.6505 -0.3362 -1.4686
  881MPD2    H112976   3.746   4.351   0.319 -0.4052 -2.5045  1.3370
  881MPD2    H212977   3.907   4.372  17.667  1.5042 -1.3887 -1.4071
  881MPD2    H312978   3.848   4.482   0.145 -0.2101  0.4117 -1.9282
  881MPD2     N12979   3.709   4.106   0.328  0.0732 -0.5893  0.7580
  881MPD2    H512980   3.675   4.165   0.404  2.3318  1.0521  0.5007
  881MPD2    N112981   3.881   4.121  17.603 -0.0961  0.3187  0.1526
  881MPD2    H712982   3.916   4.189  17.536  0.2051 -1.8276 -1.8747
  882MPD2     C12983   2.413   0.536  15.054 -0.4017 -0.0884 -0.1023
  882MPD2    C112984   2.368   0.647  14.982  0.0935  0.4783  0.5280
  882MPD2    C212985   2.273   0.615  14.887  0.9520 -0.6323 -0.4695
  882MPD2    C312986   2.202   0.494  14.891 -0.5381  0.3226 -0.0781
  882MPD2    C412987   2.222   0.402  14.983 -0.0673 -0.1027 -0.6564
  882MPD2    C512988   2.330   0.424  15.069 -0.7982 -0.1100  0.1496
  882MPD2     H12989   2.249   0.702  14.827 -2.3807  0.5820  2.6717
  882MPD2    H112990   2.172   0.306  14.978  1.1606 -0.8604  1.1454
  882MPD2    H212991   2.500   0.539  15.118 -3.9801  1.4522  4.6529
  882MPD2    H312992   2.360   0.347  15.139 -2.3512  0.4833  1.4598
  882MPD2     N12993   2.081   0.476  14.820 -0.2460 -0.2486 -1.0838
  882MPD2    H512994   2.019   0.401  14.848  0.1167 -0.3008 -0.4267
  882MPD2    N112995   2.445   0.759  14.967 -0.1259  0.7955 -0.2222
  882MPD2    H712996   2.533   0.759  15.018 -0.8018  0.4321  0.9552
  883MPD2     C12997   3.886   1.028  15.651 -0.0607 -0.2218  0.1250
  883MPD2    C112998   4.014   1.060  15.595 -0.1165  0.2752  0.3452
  883MPD2    C212999   4.122   1.075  15.684  0.2630  0.5601 -0.3351
  883MPD2    C313000   4.105   1.051  15.818  0.5689  0.3582 -0.7905
  883MPD2    C413001   3.982   1.014  15.869 -0.0266  0.1200 -0.2854
  883MPD2    C513002   3.869   1.014  15.785  0.0964 -0.7632  0.6409
  883MPD2     H13003   4.226   1.087  15.657  1.3563  0.4872  3.7074
  883MPD2    H113004   3.963   0.989  15.973 -0.2625 -2.5070 -0.9555
  883MPD2    H213005   3.806   1.001  15.584 -0.3317  2.2480 -0.5645
  883MPD2    H313006   3.773   0.982  15.823 -0.4329 -0.7769 -0.6918
  883MPD2     N13007   4.226   1.044  15.896 -0.3269  0.9904 -0.4555
  883MPD2    H513008   4.305   1.094  15.858  0.4991 -0.3006 -0.4115
  883MPD2    N113009   4.043   1.061  15.457  0.6222 -0.8242  0.2816
  883MPD2    H713010   4.141   1.069  15.435  0.2843  0.8874 -0.6652
  884MPD2     C13011   1.626   1.480  15.365  0.2567  0.0195  0.0556
  884MPD2    C113012   1.609   1.581  15.273 -0.0275  0.1613 -0.2377
  884MPD2    C213013   1.481   1.632  15.251  0.0863 -0.1554 -0.1821
  884MPD2    C313014   1.369   1.587  15.322 -0.2141  0.5936  0.4024
  884MPD2    C413015   1.384   1.489  15.412  0.0492 -0.1151 -0.0584
  884MPD2    C513016   1.510   1.438  15.435  0.7436  0.1370 -0.8640
  884MPD2     H13017   1.467   1.713  15.180 -0.0286  2.8466  3.2615
  884MPD2    H113018   1.302   1.438  15.463 -1.1963  1.7574 -0.2064
  884MPD2    H213019   1.720   1.426  15.375  1.8402  2.9615  0.8688
  884MPD2    H313020   1.519   1.354  15.504 -1.1047  0.0159 -0.7812
  884MPD2     N13021   1.241   1.642  15.299 -0.1127  0.2929  0.1058
  884MPD2    H513022   1.244   1.729  15.247 -1.2101 -0.6446 -1.5225
  884MPD2    N113023   1.705   1.638  15.200 -0.1425  0.1255 -0.5852
  884MPD2    H713024   1.679   1.718  15.144 -0.5737  1.7105  1.9413
  885MPD2     C13025   4.081   1.539   0.220 -0.1680  0.0710  0.4788
  885MPD2    C113026   4.120   1.662   0.257 -0.2502 -0.2922  0.0266
  885MPD2    C213027   4.132   1.758   0.158 -0.1051  0.3909 -0.0513
  885MPD2    C313028   4.121   1.727   0.026  0.5631  0.5005  0.4714
  885MPD2    C413029   4.100   1.598  17.731  0.0839  0.4984 -0.0005
  885MPD2    C513030   4.070   1.511   0.090  0.2816  0.5025  0.1419
  885MPD2     H13031   4.146   1.863   0.178  1.4942 -0.1858  1.8168
  885MPD2    H113032   4.088   1.564  17.629  1.8688 -2.2502  0.7133
  885MPD2    H213033   4.064   1.468   0.300 -0.6210 -0.3175  0.0374
  885MPD2    H313034   4.026   1.415   0.069 -0.0709  0.6043  0.4185
  885MPD2     N13035   4.136   1.825  17.667 -0.1942  0.5086 -0.1960
  885MPD2    H513036   4.139   1.922  17.697 -1.6220  0.2217  0.8467
  885MPD2    N113037   4.129   1.686   0.396  0.2253 -0.7063 -0.0190
  885MPD2    H713038   4.108   1.600   0.447 -1.7570 -0.0214  0.2783
  886MPD2     C13039   1.076   0.280  15.693  0.0252  0.2762 -0.3171
  886MPD2    C113040   1.202   0.245  15.644  0.1684  0.0302 -0.1385
  886MPD2    C213041   1.238   0.322  15.539 -0.2027 -0.6454 -0.2625
  886MPD2    C313042   1.170   0.427  15.482  0.5043 -0.2381 -0.5379
  886MPD2    C413043   1.051   0.467  15.542 -0.0631 -0.4864 -0.4257
  886MPD2    C513044   1.000   0.388  15.646  0.6585 -0.2475 -0.1900
  886MPD2     H13045   1.327   0.285  15.488  0.9786  0.7066  0.8145
  886MPD2    H113046   0.989   0.547  15.503 -0.7857 -1.6289 -1.6405
  886MPD2    H213047   1.042   0.238  15.787  2.0005  1.1347  0.7734
  886MPD2    H313048   0.906   0.410  15.694  1.9054  2.3529  1.0314
  886MPD2     N13049   1.221   0.491  15.367  0.0865 -0.0047 -0.1327
  886MPD2    H513050   1.315   0.462  15.342 -1.3832 -2.3793 -2.8555
  886MPD2    N113051   1.277   0.132  15.682 -0.0263  0.0830  0.4101
  886MPD2    H713052   1.362   0.111  15.631 -0.1696 -2.3913  1.1970
  887MPD2     C13053   1.820   0.204  16.165  0.0001  0.3100 -0.1125
  887MPD2    C113054   1.728   0.245  16.076  0.5595  0.5266 -0.3435
  887MPD2    C213055   1.727   0.379  16.037 -0.2451 -0.0809 -0.5806
  887MPD2    C313056   1.817   0.471  16.083  0.1896  0.9943  0.3962
  887MPD2    C413057   1.921   0.432  16.159 -0.2973 -0.1972 -0.0528
  887MPD2    C513058   1.915   0.302  16.204  0.3254 -0.2173  0.1565
  887MPD2     H13059   1.662   0.412  15.957  1.5958 -0.2792 -2.1760
  887MPD2    H113060   1.995   0.499  16.202  0.3645 -1.4336  0.7282
  887MPD2    H213061   1.837   0.103  16.199 -1.3085  0.7141  1.7216
  887MPD2    H313062   2.000   0.275  16.265  0.4318 -2.2171 -0.8767
  887MPD2     N13063   1.804   0.608  16.037  0.1876  0.1107 -0.9183
  887MPD2    H513064   1.727   0.628  15.974 -0.2675  0.2156 -0.3289
  887MPD2    N113065   1.626   0.161  16.022  0.3322  0.5241 -0.3550
  887MPD2    H713066   1.557   0.197  15.958 -2.3054 -1.5497  1.3459
  888MPD2     C13067   3.578   0.797  15.615  0.1384  0.9539 -0.1711
  888MPD2    C113068   3.539   0.743  15.493  0.6250  0.4942 -0.1019
  888MPD2    C213069   3.499   0.829  15.389 -0.5056 -0.4953 -0.0578
  888MPD2    C313070   3.485   0.959  15.413 -0.1421 -0.1767  0.2113
  888MPD2    C413071   3.516   1.006  15.534 -0.2136  0.3248 -0.2053
  888MPD2    C513072   3.548   0.927  15.639 -0.2945  0.4405  0.0628
  888MPD2     H13073   3.476   0.789  15.291  1.5659  0.6407 -0.9959
  888MPD2    H113074   3.495   1.111  15.553 -1.3465 -0.0554  0.6617
  888MPD2    H213075   3.591   0.745  15.710 -1.1705 -1.9443 -1.5791
  888MPD2    H313076   3.572   0.977  15.732 -1.0202  0.3872  0.2813
  888MPD2     N13077   3.442   1.053  15.319 -0.4890  0.4687 -0.1956
  888MPD2    H513078   3.409   1.139  15.362 -0.3777  0.6932 -0.5654
  888MPD2    N113079   3.542   0.604  15.473  0.1531 -0.2716  0.0161
  888MPD2    H713080   3.581   0.551  15.551  0.6503 -0.1016 -0.1188
  889MPD2     C13081   3.500   4.258  13.909 -0.2116 -0.3680 -0.0085
  889MPD2    C113082   3.400   4.276  13.817  0.4897  0.3073 -0.2653
  889MPD2    C213083   3.353   4.405  13.794 -0.8764  0.5881  1.1938
  889MPD2    C313084   3.371   4.505  13.889  0.5213 -0.5439  0.2717
  889MPD2    C413085   3.472   4.482  13.986  0.4529 -0.5817 -0.2218
  889MPD2    C513086   3.531   4.359  13.997  0.3767 -0.1662  0.2467
  889MPD2     H13087   3.286   4.419  13.711  1.3946 -1.2970 -0.9480
  889MPD2    H113088   3.512   4.550  14.060 -0.0016 -0.1932 -0.3331
  889MPD2    H213089   3.538   4.159  13.926  0.2385 -0.0763  0.6794
  889MPD2    H313090   3.602   4.336  14.076  1.3058  4.0284  0.6422
  889MPD2     N13091   3.308   4.631  13.865 -0.7793  0.0202  0.2698
  889MPD2    H513092   3.247   4.630  13.783 -1.1212  1.7757  0.5041
  889MPD2    N113093   3.374   4.169  13.717  0.5330 -0.4105 -0.6200
  889MPD2    H713094   3.317   4.199  13.638 -3.1309 -0.1995  2.0931
  890MPD2     C13095   2.007   1.600  14.785 -0.1346  0.2277 -0.1155
  890MPD2    C113096   2.130   1.667  14.777 -0.1917 -0.7443  0.0046
  890MPD2    C213097   2.224   1.635  14.873 -0.4885  0.4104  0.0609
  890MPD2    C313098   2.212   1.526  14.956 -0.2677  0.3352  0.4534
  890MPD2    C413099   2.092   1.455  14.951 -0.6632 -0.5208  0.5405
  890MPD2    C513100   1.992   1.488  14.864  0.1718 -0.3215 -0.3197
  890MPD2     H13101   2.312   1.696  14.886 -0.3613  0.5576 -1.5598
  890MPD2    H113102   2.067   1.365  15.006 -0.0162 -1.2252 -0.3218
  890MPD2    H213103   1.917   1.621  14.729 -0.0124  0.2405 -0.3077
  890MPD2    H313104   1.897   1.436  14.855  1.1619 -2.1641 -0.1255
  890MPD2     N13105   2.319   1.500  15.043 -0.3781 -0.2075 -0.1072
  890MPD2    H513106   2.389   1.570  15.064 -1.2819  0.9402 -0.8946
  890MPD2    N113107   2.154   1.781  14.696 -0.2911 -0.5365 -0.2257
  890MPD2    H713108   2.240   1.833  14.704 -1.0113  0.4783  0.9722
  891MPD2     C13109   0.604   0.151  16.495 -0.1920  0.0424 -0.2339
  891MPD2    C113110   0.536   0.235  16.585 -0.1255  0.2645 -0.7604
  891MPD2    C213111   0.591   0.245  16.710  0.6640  1.1032 -0.2550
  891MPD2    C313112   0.705   0.180  16.751  0.6128 -0.1668  0.0714
  891MPD2    C413113   0.764   0.099  16.656 -0.0704  0.7167  0.4550
  891MPD2    C513114   0.721   0.096  16.529  0.1690 -0.7215  0.5523
  891MPD2     H13115   0.537   0.310  16.779 -0.5431  1.0539 -1.1577
  891MPD2    H113116   0.862   0.056  16.670 -0.4545 -0.0887  0.6557
  891MPD2    H213117   0.577   0.161  16.390  0.4348  1.6188 -0.2514
  891MPD2    H313118   0.775   0.042  16.452  0.7700  0.6821 -0.0074
  891MPD2     N13119   0.739   0.170  16.887  0.5950  0.0213  0.1776
  891MPD2    H513120   0.688   0.220  16.958  0.3577 -0.4376  0.3257
  891MPD2    N113121   0.423   0.303  16.540  0.2551  1.0082  0.5435
  891MPD2    H713122   0.401   0.287  16.442  2.0622 -0.1890  0.3299
  892MPD2     C13123   1.501   1.209  14.459 -1.0983 -0.0900 -0.4361
  892MPD2    C113124   1.438   1.143  14.563  0.2487  1.0749 -0.6282
  892MPD2    C213125   1.498   1.025  14.604 -0.4767 -0.2281 -0.1297
  892MPD2    C313126   1.613   0.976  14.537 -0.2459 -0.5568 -0.1294
  892MPD2    C413127   1.675   1.053  14.436  0.1511 -0.3044 -0.2462
  892MPD2    C513128   1.618   1.169  14.401  0.4764 -0.4114 -0.0675
  892MPD2     H13129   1.454   0.955  14.675 -0.6850 -1.3100 -1.3221
  892MPD2    H113130   1.760   1.020  14.378 -0.7822 -0.3706 -1.5796
  892MPD2    H213131   1.449   1.295  14.418 -1.6642 -0.9055 -1.4141
  892MPD2    H313132   1.666   1.231  14.326  0.9014 -1.2171 -0.4626
  892MPD2     N13133   1.674   0.853  14.568 -0.2033  0.0282  0.2447
  892MPD2    H513134   1.755   0.837  14.508  0.1141  4.0108 -0.4217
  892MPD2    N113135   1.308   1.175  14.622  0.5245  0.2852  0.0394
  892MPD2    H713136   1.266   1.102  14.678  0.0720  0.9877  0.6059
  893MPD2     C13137   2.469   0.147   1.129 -0.9679 -0.7820  0.2593
  893MPD2    C113138   2.494   0.257   1.209  0.1061 -0.2437 -0.7202
  893MPD2    C213139   2.386   0.306   1.278 -0.4785  0.2184  0.5403
  893MPD2    C313140   2.264   0.238   1.287  1.0255  0.7406  0.7861
  893MPD2    C413141   2.250   0.128   1.216 -0.5214 -0.0266 -0.3870
  893MPD2    C513142   2.353   0.080   1.142 -0.3279  0.0722  0.0630
  893MPD2     H13143   2.392   0.395   1.339 -0.2354 -0.2339  1.1882
  893MPD2    H113144   2.162   0.066   1.222  0.5808 -1.6688 -1.0786
  893MPD2    H213145   2.547   0.109   1.064  0.8297 -0.4199  2.2195
  893MPD2    H313146   2.345   4.728   1.078 -1.7353 -0.5111  1.0380
  893MPD2     N13147   2.148   0.280   1.358  0.1520 -0.4384  0.0157
  893MPD2    H513148   2.066   0.222   1.343  1.6367 -2.3632 -0.6762
  893MPD2    N113149   2.629   0.310   1.220  0.5862  0.5592  0.0674
  893MPD2    H713150   2.705   0.253   1.184 -0.0972 -0.8908  0.8868
  894MPD2     C13151   0.824   1.798   1.120  0.4380  0.5229 -0.4311
  894MPD2    C113152   0.754   1.922   1.118  0.3826  0.0819 -0.1096
  894MPD2    C213153   0.783   2.006   1.016  0.2027 -0.1126 -0.0045
  894MPD2    C313154   0.873   1.979   0.917  0.0532 -0.2318 -0.1240
  894MPD2    C413155   0.933   1.852   0.921  0.0842 -0.2520  0.2202
  894MPD2    C513156   0.904   1.759   1.014  0.2683  0.5072 -0.2156
  894MPD2     H13157   0.740   2.105   1.030  3.0314  0.9955  0.8272
  894MPD2    H113158   1.003   1.811   0.849 -1.0556  1.1947 -1.7269
  894MPD2    H213159   0.804   1.718   1.191  2.2691  0.2827 -0.1857
  894MPD2    H313160   0.940   1.657   1.005  2.3645  1.0912  1.4821
  894MPD2     N13161   0.915   2.080   0.824  0.3842 -0.3609 -0.2014
  894MPD2    H513162   0.860   2.165   0.822  0.8236 -0.1479 -2.3856
  894MPD2    N113163   0.659   1.953   1.215 -0.0096 -0.2461  0.5559
  894MPD2    H713164   0.627   2.050   1.219  1.6130  0.3780 -1.3356
  895MPD2     C13165   0.618   0.350  13.968 -0.3260 -0.0036 -0.5306
  895MPD2    C113166   0.560   0.349  13.844 -0.2755  0.2275  1.4637
  895MPD2    C213167   0.630   0.297  13.738  0.2051 -0.6021 -0.6262
  895MPD2    C313168   0.759   0.257  13.755 -0.2644 -0.0296 -0.2001
  895MPD2    C413169   0.824   0.264  13.883 -0.0495  0.1303  0.1695
  895MPD2    C513170   0.746   0.304  13.987  0.9527 -0.0426 -0.1888
  895MPD2     H13171   0.587   0.276  13.641 -0.9981  2.2207 -0.6866
  895MPD2    H113172   0.921   0.224  13.910 -0.3282  0.2118  1.2901
  895MPD2    H213173   0.562   0.387  14.053 -0.6894 -0.9249 -0.3748
  895MPD2    H313174   0.784   0.317  14.088  0.5369 -0.3554  0.0079
  895MPD2     N13175   0.822   0.210  13.642  0.9777 -0.1059 -0.5852
  895MPD2    H513176   0.774   0.194  13.553  0.0142  2.5967 -0.5410
  895MPD2    N113177   0.430   0.389  13.831 -0.1222  0.2323  0.6859
  895MPD2    H713178   0.380   0.376  13.743  1.3250  3.0343 -0.5554
  896MPD2     C13179   2.591   2.907   1.502 -0.4209 -0.1645 -0.2086
  896MPD2    C113180   2.622   2.879   1.372 -0.1335 -0.0369 -0.3577
  896MPD2    C213181   2.531   2.793   1.307  0.2807  0.1574  0.1591
  896MPD2    C313182   2.411   2.748   1.353  0.4714  0.1977  0.7162
  896MPD2    C413183   2.375   2.794   1.478  0.0532  0.3222  0.1625
  896MPD2    C513184   2.467   2.873   1.551  0.0666  0.0339 -0.1049
  896MPD2     H13185   2.554   2.752   1.209 -2.0166 -0.2136 -0.2288
  896MPD2    H113186   2.282   2.772   1.530 -0.5033 -1.3729 -1.5552
  896MPD2    H213187   2.647   2.974   1.566 -0.8762 -1.8908  1.9858
  896MPD2    H313188   2.436   2.895   1.653 -0.0303 -0.2529 -0.0735
  896MPD2     N13189   2.328   2.668   1.268  0.2674  0.5634 -0.1734
  896MPD2    H513190   2.362   2.646   1.175 -1.5836 -1.3531 -0.3993
  896MPD2    N113191   2.747   2.924   1.329  0.5506 -0.3356  0.0022
  896MPD2    H713192   2.810   2.969   1.395 -1.7834  1.3961  1.0452
  897MPD2     C13193   3.987   4.478  10.781 -0.1884  0.5503  0.7964
  897MPD2    C113194   3.973   4.611  10.747  0.1614 -0.8228  0.7766
  897MPD2    C213195   3.898   4.695  10.826 -0.1584  0.2795 -0.1866
  897MPD2    C313196   3.832   4.644  10.937  0.1890 -0.0254  1.1004
  897MPD2    C413197   3.840   4.509  10.965 -0.9130  0.1665  0.1725
  897MPD2    C513198   3.924   4.427  10.889 -0.1952  0.5263 -0.3078
  897MPD2     H13199   3.886   0.062  10.790 -0.0149 -0.1943 -1.5938
  897MPD2    H113200   3.779   4.466  11.043 -2.3796  1.3503 -0.3053
  897MPD2    H213201   4.039   4.410  10.713 -0.7260  1.5469 -0.5891
  897MPD2    H313202   3.938   4.322  10.912 -1.4712  0.8013  1.7371
  897MPD2     N13203   3.739   4.735  10.998 -0.5426 -0.3698  0.1945
  897MPD2    H513204   3.762   0.094  10.968 -0.0425 -0.3361  0.6849
  897MPD2    N113205   4.029   4.650  10.621  0.2872  0.4122  0.7798
  897MPD2    H713206   4.094   4.595  10.566  0.9374 -1.1094  3.0622
  898MPD2     C13207   0.536   0.710   0.631 -0.3446  0.4199 -0.4709
  898MPD2    C113208   0.644   0.760   0.564  0.0830 -0.3710  0.1765
  898MPD2    C213209   0.625   0.800   0.435 -0.7337  0.2010  0.6874
  898MPD2    C313210   0.506   0.783   0.371 -0.3488 -0.0241 -0.3661
  898MPD2    C413211   0.401   0.725   0.430 -0.1466 -0.1837  0.3118
  898MPD2    C513212   0.412   0.690   0.561  0.4889 -0.3185  0.1131
  898MPD2     H13213   0.703   0.837   0.369 -0.9539 -0.5024  0.0281
  898MPD2    H113214   0.306   0.695   0.388  0.5152 -1.8612 -0.0085
  898MPD2    H213215   0.548   0.695   0.737 -1.9741  0.9604 -0.2026
  898MPD2    H313216   0.325   0.651   0.612  0.4006 -0.8382 -0.4196
  898MPD2     N13217   0.505   0.809   0.229 -0.1097  0.3334 -0.3121
  898MPD2    H513218   0.588   0.856   0.194 -0.0100  0.1191 -0.3606
  898MPD2    N113219   0.769   0.795   0.627 -0.4751 -0.3031 -0.3365
  898MPD2    H713220   0.829   0.861   0.579 -0.2508 -0.4145 -0.2045
  899MPD2     C13221   1.928   1.075  17.364  0.3895 -0.9176 -0.8482
  899MPD2    C113222   1.910   1.214  17.396  0.2904  0.0071 -0.3102
  899MPD2    C213223   1.838   1.254  17.511  0.4680  0.2577 -0.1498
  899MPD2    C313224   1.771   1.154  17.580  0.5531 -0.2204 -0.4038
  899MPD2    C413225   1.789   1.022  17.546 -0.3131  0.0954 -0.0689
  899MPD2    C513226   1.881   0.981  17.447  0.3635 -0.1576 -0.2399
  899MPD2     H13227   1.812   1.358  17.530 -1.3726 -0.4872  1.2935
  899MPD2    H113228   1.732   0.952  17.606 -0.0886 -0.4320 -0.4740
  899MPD2    H213229   1.988   1.048  17.279  2.3903 -1.1677  0.6387
  899MPD2    H313230   1.901   0.877  17.424 -0.6835 -0.5390  0.6198
  899MPD2     N13231   1.679   1.190  17.680 -0.7736 -0.1808  0.3862
  899MPD2    H513232   1.640   1.118   0.001 -0.5441  1.4723  2.5238
  899MPD2    N113233   1.948   1.309  17.292  0.4734  0.1320  0.3669
  899MPD2    H713234   1.967   1.279  17.197 -0.3415 -0.5179  0.4062
  900MPD2     C13235   1.272   3.023  12.753 -0.7238 -0.1240  0.4509
  900MPD2    C113236   1.255   2.894  12.700  0.2135 -0.9120 -0.3026
  900MPD2    C213237   1.171   2.876  12.590  0.0933 -0.1085 -0.2625
  900MPD2    C313238   1.103   2.974  12.532 -0.3199  0.4659 -0.0686
  900MPD2    C413239   1.113   3.104  12.592 -0.1464  0.4338 -0.8727
  900MPD2    C513240   1.196   3.121  12.695  0.5869  0.5155 -0.1744
  900MPD2     H13241   1.162   2.775  12.552 -1.2485  0.8513 -2.4882
  900MPD2    H113242   1.065   3.192  12.554 -0.9871  0.0736 -0.6389
  900MPD2    H213243   1.339   3.040  12.836 -1.1649 -1.4954  1.0812
  900MPD2    H313244   1.205   3.223  12.733  0.6989  0.6325 -0.5173
  900MPD2     N13245   1.017   2.935  12.428 -0.1926  0.0476 -0.2894
  900MPD2    H513246   1.027   2.841  12.390 -2.9413  0.3686 -1.8478
  900MPD2    N113247   1.312   2.776  12.758 -0.4650  0.5788 -0.7209
  900MPD2    H713248   1.282   2.684  12.730 -1.0512  0.8528 -0.9877
  901MPD2     C13249   1.247   1.837  12.862 -0.1860  0.3562  0.8230
  901MPD2    C113250   1.383   1.857  12.851  0.3058 -0.5611 -0.4399
  901MPD2    C213251   1.427   1.985  12.870  0.2304  0.1091  0.7329
  901MPD2    C313252   1.338   2.087  12.900  0.1672 -0.2174 -0.0083
  901MPD2    C413253   1.207   2.068  12.906  0.4407  0.4236 -0.2206
  901MPD2    C513254   1.164   1.941  12.889 -1.0532 -0.0720  0.5909
  901MPD2     H13255   1.534   2.002  12.858 -0.0393  0.6030 -1.0699
  901MPD2    H113256   1.127   2.137  12.930  0.5345  0.5753 -0.3463
  901MPD2    H213257   1.216   1.734  12.866  0.8685  0.0009 -0.0172
  901MPD2    H313258   1.059   1.915  12.890 -1.1400  0.2416 -0.8907
  901MPD2     N13259   1.396   2.212  12.923  0.6477  0.2472 -0.3504
  901MPD2    H513260   1.496   2.213  12.901  0.5198  1.8441 -0.8723
  901MPD2    N113261   1.464   1.741  12.843  0.1576 -0.0623 -0.4806
  901MPD2    H713262   1.425   1.651  12.814 -3.5323  1.4173 -0.1026
  902MPD2     C13263   0.556   0.867  12.472 -0.2242 -0.1621 -0.1959
  902MPD2    C113264   0.669   0.936  12.449 -0.6827 -0.4515 -0.3364
  902MPD2    C213265   0.786   0.864  12.424  0.1535 -0.5684  0.5548
  902MPD2    C313266   0.783   0.725  12.426  0.0051  0.5922  0.0528
  902MPD2    C413267   0.676   0.659  12.469 -0.0205  0.0676  0.0848
  902MPD2    C513268   0.564   0.735  12.480 -0.2979 -0.1204 -0.2756
  902MPD2     H13269   0.876   0.915  12.391  0.7588 -1.3290  1.0050
  902MPD2    H113270   0.675   0.553  12.491 -0.8522  0.0299 -0.1339
  902MPD2    H213271   0.463   0.919  12.491  1.0506  1.3225  1.9375
  902MPD2    H313272   0.471   0.684  12.501  0.3364  0.6361  4.3688
  902MPD2     N13273   0.891   0.641  12.399  0.0722  0.4581 -0.0245
  902MPD2    H513274   0.878   0.541  12.390 -0.4937  0.6300 -1.0849
  902MPD2    N113275   0.672   1.079  12.455  0.2213 -0.2307  0.0146
  902MPD2    H713276   0.764   1.118  12.439 -1.1194  2.2463 -1.5948
  903MPD2     C13277   0.918   1.036  12.001  0.3683  0.1290 -0.2533
  903MPD2    C113278   0.858   0.912  12.019  0.1241  0.2954 -0.3841
  903MPD2    C213279   0.721   0.910  12.060 -0.2096  0.1641 -0.1994
  903MPD2    C313280   0.652   1.026  12.066 -0.6213 -0.0330  0.0798
  903MPD2    C413281   0.711   1.149  12.034  0.0915  0.5439  0.4740
  903MPD2    C513282   0.845   1.151  11.998 -0.7783  0.3120 -0.2920
  903MPD2     H13283   0.673   0.818  12.090  0.1400 -0.0641 -0.3510
  903MPD2    H113284   0.661   1.243  12.055 -0.1912  0.4831  0.0638
  903MPD2    H213285   1.024   1.043  11.980  0.7585 -0.6236  1.4334
  903MPD2    H313286   0.890   1.250  11.991  0.1205 -0.0628  0.3429
  903MPD2     N13287   0.517   1.011  12.104 -0.5184 -0.6228 -0.4643
  903MPD2    H513288   0.493   0.912  12.109 -0.1882 -0.6858 -0.1541
  903MPD2    N113289   0.932   0.791  12.015 -0.3839  0.2865 -0.3183
  903MPD2    H713290   1.031   0.813  12.020 -0.9031  2.2674  1.3515
  904MPD2     C13291   0.652   4.192  13.988  0.5439 -0.1969  0.6357
  904MPD2    C113292   0.676   4.328  14.011 -0.0658  0.4309 -0.5330
  904MPD2    C213293   0.797   4.365  14.071  0.2810 -0.6616  0.5724
  904MPD2    C313294   0.889   4.266  14.109  0.1811  0.3458  0.1495
  904MPD2    C413295   0.865   4.130  14.069  0.3233  0.4033  0.6753
  904MPD2    C513296   0.751   4.095  14.011  0.4969  0.3442 -0.5019
  904MPD2     H13297   0.826   4.468  14.089  1.2920 -0.3106 -3.2807
  904MPD2    H113298   0.941   4.054  14.086 -0.0990 -0.4620 -1.3889
  904MPD2    H213299   0.564   4.153  13.937  0.8712  0.2411 -0.2766
  904MPD2    H313300   0.727   3.990  13.999  0.6394  0.3669 -1.0029
  904MPD2     N13301   1.009   4.305  14.173 -0.1036  0.6167  0.2751
  904MPD2    H513302   1.012   4.402  14.201  0.8474  0.1665  1.7355
  904MPD2    N113303   0.592   4.436  13.974  0.4639  0.7170  0.1189
  904MPD2    H713304   0.627   4.529  13.990  0.2306  1.0577 -1.3828
  905MPD2     C13305   0.362   4.555  13.261  0.2905  0.2394  0.1175
  905MPD2    C113306   0.409   4.637  13.354  0.5870  0.3280  0.2745
  905MPD2    C213307   0.512   4.727  13.331 -0.4795 -0.7671 -0.4754
  905MPD2    C313308   0.582   4.716  13.214  0.0272 -0.7664  0.1688
  905MPD2    C413309   0.539   4.623  13.117  0.1088 -0.2852 -0.1305
  905MPD2    C513310   0.422   4.548  13.139  0.1495 -0.0765  0.5656
  905MPD2     H13311   0.528   0.064  13.410  0.0951 -1.0601 -0.3251
  905MPD2    H113312   0.590   4.615  13.022  0.2345  0.1858 -0.1018
  905MPD2    H213313   0.278   4.489  13.281  1.1143 -0.4360  1.3333
  905MPD2    H313314   0.381   4.479  13.066  1.3689 -0.1295 -0.0733
  905MPD2     N13315   0.715   0.042  13.192  0.3129  0.1287 -0.8744
  905MPD2    H513316   0.784   0.006  13.127  0.0904 -1.2060 -0.3675
  905MPD2    N113317   0.344   4.630  13.480 -0.5105 -0.3338 -0.6606
  905MPD2    H713318   0.266   4.566  13.491  0.6386 -1.7487 -0.6496
  906MPD2     C13319   2.850   0.044  11.389  0.1397  0.2838 -0.6611
  906MPD2    C113320   2.826   4.702  11.277  0.5246 -0.3480  0.2195
  906MPD2    C213321   2.854   4.569  11.279  0.0333 -0.2101  0.6561
  906MPD2    C313322   2.923   4.515  11.389 -1.1955  0.0298 -0.3694
  906MPD2    C413323   2.932   4.594  11.501 -0.3891  0.1989  0.3899
  906MPD2    C513324   2.903   4.728  11.501 -0.0336 -0.2520  0.0297
  906MPD2     H13325   2.831   4.502  11.196  1.4906 -0.7582  0.6959
  906MPD2    H113326   2.977   4.558  11.593  0.2992  2.3086  0.8795
  906MPD2    H213327   2.823   0.149  11.386 -2.9017 -0.5012 -0.7270
  906MPD2    H313328   2.920   0.057  11.586  2.0759 -2.1300  1.0333
  906MPD2     N13329   2.942   4.379  11.409 -0.0465  0.1864 -0.1177
  906MPD2    H513330   2.970   4.355  11.503  1.0337 -0.4111 -0.5866
  906MPD2    N113331   2.765   0.017  11.152 -0.2670  0.1215 -0.4596
  906MPD2    H713332   2.744   4.687  11.077 -0.9144 -1.4039  1.0566
  907MPD2     C13333   1.467   3.821  15.820 -0.2006  0.2116 -0.6030
  907MPD2    C113334   1.415   3.699  15.783  0.2510  0.0677 -0.0567
  907MPD2    C213335   1.361   3.617  15.878  0.5049  0.5827  0.6076
  907MPD2    C313336   1.372   3.650  16.008 -0.4218  0.7099 -0.8203
  907MPD2    C413337   1.417   3.768  16.043 -0.3608 -0.0785 -0.3342
  907MPD2    C513338   1.464   3.858  15.948 -0.3505  0.2897  0.1675
  907MPD2     H13339   1.323   3.517  15.862  0.5030  0.8092 -0.8003
  907MPD2    H113340   1.432   3.806  16.144 -0.7563 -1.3299  0.1988
  907MPD2    H213341   1.518   3.895  15.758  0.4700 -0.1153 -0.4398
  907MPD2    H313342   1.513   3.945  15.991 -0.3091  0.4756 -0.2543
  907MPD2     N13343   1.333   3.549  16.106 -0.6059 -0.1481 -0.0286
  907MPD2    H513344   1.304   3.461  16.065 -1.4526 -0.8225  2.0031
  907MPD2    N113345   1.434   3.640  15.657 -0.7152  0.1586 -0.0079
  907MPD2    H713346   1.410   3.542  15.651  0.3789  0.0154 -1.9703
  908MPD2     C13347   3.681   4.248   9.953  0.1061 -0.4585  0.0549
  908MPD2    C113348   3.766   4.219  10.053  0.3986 -0.7495 -0.1160
  908MPD2    C213349   3.820   4.325  10.121  0.0426 -0.1909  0.1672
  908MPD2    C313350   3.793   4.453  10.095  0.8029  0.2977  0.0805
  908MPD2    C413351   3.697   4.474   9.994  0.0109  0.0913  0.3913
  908MPD2    C513352   3.638   4.374   9.927 -0.1441  0.8221 -0.3950
  908MPD2     H13353   3.872   4.314  10.215  0.0539  0.2338  0.2085
  908MPD2    H113354   3.681   4.575   9.958  1.4088  0.5782  1.1576
  908MPD2    H213355   3.642   4.173   9.885 -0.3504 -0.2926  0.1363
  908MPD2    H313356   3.575   4.399   9.842 -0.2619  0.6780 -0.3509
  908MPD2     N13357   3.858   4.560  10.171  0.1760  0.6943  0.0063
  908MPD2    H513358   3.928   4.528  10.237 -2.5744 -3.4022  0.9691
  908MPD2    N113359   3.798   4.083  10.075 -0.7981  0.5138  0.8038
  908MPD2    H713360   3.776   4.016  10.002 -0.6911  0.7419  0.5601
  909MPD2     C13361   4.559   2.092  11.047 -0.3900  0.1410 -0.8322
  909MPD2    C113362   4.562   2.230  11.020 -0.0283  0.4601  0.4465
  909MPD2    C213363   4.468   2.310  11.079 -0.0274  0.2689 -1.1884
  909MPD2    C313364   4.363   2.256  11.146 -0.0055  0.5109 -0.4709
  909MPD2    C413365   4.361   2.122  11.178  0.2081  0.1711 -0.9114
  909MPD2    C513366   4.464   2.045  11.142  0.0422  0.7020  0.1787
  909MPD2     H13367   4.467   2.415  11.054 -1.3391  1.0626  2.2515
  909MPD2    H113368   4.281   2.072  11.232  2.9511 -3.0678  0.1331
  909MPD2    H213369   4.640   2.028  11.014  0.4676  1.1235 -0.6222
  909MPD2    H313370   4.464   1.940  11.165 -1.2814  1.4067  3.4699
  909MPD2     N13371   4.262   2.344  11.177  0.1471 -0.1522 -0.1318
  909MPD2    H513372   4.271   2.439  11.141 -0.8605  0.5489  1.4759
  909MPD2    N113373   4.666   2.293  10.940  0.6489  0.3434 -0.4189
  909MPD2    H713374   4.671   2.394  10.943 -0.7876  0.4154 -0.3619
  910MPD2     C13375   0.723   4.410  16.339  0.4081  0.0439  0.0050
  910MPD2    C113376   0.746   4.308  16.248  0.7947  0.4462  0.1440
  910MPD2    C213377   0.676   4.306  16.131  0.2296  0.2959 -0.2150
  910MPD2    C313378   0.577   4.394  16.102 -0.2811  0.3459  0.6481
  910MPD2    C413379   0.545   4.492  16.197 -0.0861  0.1491  0.0691
  910MPD2    C513380   0.624   4.496  16.314  0.2001 -0.6046 -0.2367
  910MPD2     H13381   0.686   4.213  16.075 -2.4732 -1.2092  1.7843
  910MPD2    H113382   0.469   4.569  16.184  0.4455  0.4586 -1.1869
  910MPD2    H213383   0.759   4.410  16.441  1.9745 -0.9634 -0.5409
  910MPD2    H313384   0.598   4.573  16.386 -2.3229 -1.1873 -0.5511
  910MPD2     N13385   0.498   4.383  15.984 -1.2054  0.3042  0.6924
  910MPD2    H513386   0.437   4.463  15.976  0.1553  1.2858  0.2245
  910MPD2    N113387   0.828   4.188  16.279  0.7685  0.1647  0.2856
  910MPD2    H713388   0.827   4.114  16.210  1.4425 -1.1815  1.7355
  911MPD2     C13389   3.348   0.206  16.509  0.0113 -0.9497 -0.0426
  911MPD2    C113390   3.444   0.299  16.527  0.3117  0.2263 -0.0708
  911MPD2    C213391   3.421   0.428  16.488  0.4477  0.4994 -0.2278
  911MPD2    C313392   3.296   0.462  16.433 -0.6365  1.1787  0.0447
  911MPD2    C413393   3.202   0.363  16.410  0.4090  0.3730 -0.1738
  911MPD2    C513394   3.234   0.233  16.439  0.8690  0.3448  0.4443
  911MPD2     H13395   3.491   0.508  16.510  0.8698 -0.2403  1.0817
  911MPD2    H113396   3.111   0.389  16.357 -0.1934 -2.2893 -0.3985
  911MPD2    H213397   3.359   0.112  16.561  2.7196 -1.0666 -0.8090
  911MPD2    H313398   3.155   0.161  16.424 -0.3492  2.1039 -1.5827
  911MPD2     N13399   3.251   0.594  16.412  0.1493  0.2971  0.4282
  911MPD2    H513400   3.152   0.605  16.393  0.5324  2.1009 -0.5228
  911MPD2    N113401   3.558   0.254  16.587  0.1915 -0.2027 -0.2850
  911MPD2    H713402   3.571   0.154  16.599 -1.7606 -0.5542 -1.1537
  912MPD2     C13403   2.956   0.447  15.915 -0.2375 -0.3318 -0.2984
  912MPD2    C113404   2.940   0.476  16.050  0.0517 -0.3244  0.2431
  912MPD2    C213405   2.939   0.361  16.130 -0.4779 -0.5596 -0.0745
  912MPD2    C313406   2.959   0.229  16.079 -0.1874 -0.5780  0.4119
  912MPD2    C413407   2.985   0.215  15.943  0.2089  0.0274 -0.9205
  912MPD2    C513408   2.977   0.323  15.861 -0.2029 -1.0670 -0.7493
  912MPD2     H13409   2.916   0.370  16.235 -1.3956 -1.6568 -0.1756
  912MPD2    H113410   3.017   0.118  15.906  0.9208  0.2494 -0.8923
  912MPD2    H213411   2.961   0.527  15.842 -0.0950 -0.4189 -0.3814
  912MPD2    H313412   2.990   0.312  15.754 -1.0036  0.7479 -1.0448
  912MPD2     N13413   2.953   0.119  16.174  0.0431 -0.1017 -0.5831
  912MPD2    H513414   2.914   0.134  16.267  0.3061  0.2207 -0.5242
  912MPD2    N113415   2.946   0.608  16.097  0.4212  0.3344  0.3262
  912MPD2    H713416   2.973   0.666  16.019  0.0576  1.3319  0.9375
  913MPD2     C13417   3.837   1.084  11.207 -0.1877 -0.2354 -0.9261
  913MPD2    C113418   3.932   1.166  11.147 -0.2796  0.0008 -0.2649
  913MPD2    C213419   3.938   1.188  11.010  0.1746  0.4187 -0.3314
  913MPD2    C313420   3.836   1.132  10.932  0.4490  0.4316  0.7903
  913MPD2    C413421   3.747   1.041  10.986  0.5056  0.2954 -0.2921
  913MPD2    C513422   3.750   1.019  11.125 -0.1071  0.1917 -0.5402
  913MPD2     H13423   4.023   1.238  10.966  0.4417 -0.3255 -0.6407
  913MPD2    H113424   3.682   0.984  10.921 -0.5082  0.8451  0.2448
  913MPD2    H213425   3.821   1.071  11.313 -2.6811  0.9874 -1.1501
  913MPD2    H313426   3.676   0.949  11.161 -0.0488  1.3978  1.9917
  913MPD2     N13427   3.820   1.163  10.800 -0.0953  0.2290 -0.2386
  913MPD2    H513428   3.750   1.119  10.741  0.6171  1.0362 -1.7168
  913MPD2    N113429   4.018   1.221  11.242 -0.2992 -0.5345  0.0163
  913MPD2    H713430   4.004   1.193  11.339 -1.1396 -1.5329 -0.3992
  914MPD2     C13431   1.427   1.321  12.104  0.9578 -0.4183  0.1350
  914MPD2    C113432   1.425   1.458  12.129  0.0761 -0.0530  0.1419
  914MPD2    C213433   1.496   1.494  12.246  0.5122 -0.4638 -0.3446
  914MPD2    C313434   1.552   1.405  12.336  0.3685 -0.6631  0.9020
  914MPD2    C413435   1.539   1.271  12.307 -0.3575  0.0710 -0.1392
  914MPD2    C513436   1.467   1.232  12.194 -0.8672 -0.0241  0.0537
  914MPD2     H13437   1.502   1.597  12.278 -0.5663 -0.5506  0.1282
  914MPD2    H113438   1.575   1.194  12.373 -1.8146  0.2277  0.8175
  914MPD2    H213439   1.380   1.274  12.017 -0.3622 -1.2018  1.2644
  914MPD2    H313440   1.450   1.127  12.173 -1.6912 -0.0972  1.1224
  914MPD2     N13441   1.612   1.450  12.458  0.2423 -0.8240  0.0132
  914MPD2    H513442   1.599   1.550  12.471  0.5792 -1.1065  2.4660
  914MPD2    N113443   1.369   1.542  12.039 -0.0590 -0.4698  0.1863
  914MPD2    H713444   1.327   1.499  11.958  2.0221 -0.3581 -0.9240
  915MPD2     C13445   4.324   1.482  15.546  0.3717  0.1027 -0.0339
  915MPD2    C113446   4.198   1.532  15.526  0.7487 -0.1681 -0.1988
  915MPD2    C213447   4.155   1.644  15.601  0.1311 -0.2164  0.2665
  915MPD2    C313448   4.218   1.677  15.715 -0.1392  0.3475  0.0869
  915MPD2    C413449   4.336   1.616  15.738  0.8012 -1.5248  0.2560
  915MPD2    C513450   4.389   1.513  15.662  0.2325 -1.2116  0.7216
  915MPD2     H13451   4.052   1.674  15.587  0.0445 -0.9633 -0.7718
  915MPD2    H113452   4.387   1.640  15.831 -0.6034 -1.6986  1.0716
  915MPD2    H213453   4.365   1.403  15.484  0.8987 -1.1915  1.9537
  915MPD2    H313454   4.478   1.460  15.693  0.9402 -0.1770  0.4632
  915MPD2     N13455   4.154   1.763  15.807  0.0742 -0.0696 -0.3532
  915MPD2    H513456   4.081   1.824  15.772  0.1526  0.7866  0.9995
  915MPD2    N113457   4.124   1.459  15.430 -0.1147 -0.5175 -0.8557
  915MPD2    H713458   4.171   1.383  15.383  0.6856  0.0467 -0.9577
  916MPD2     C13459   2.643   0.039  16.089  0.1883  0.8871 -0.2977
  916MPD2    C113460   2.628   4.662  16.168  0.3042  0.1769 -0.1975
  916MPD2    C213461   2.683   4.539  16.131  0.2400 -0.6481  0.0586
  916MPD2    C313462   2.748   4.527  16.006  0.0575  0.1698 -0.5530
  916MPD2    C413463   2.746   4.642  15.920 -0.2313  0.2718  0.2602
  916MPD2    C513464   2.705   0.029  15.973 -0.3413  0.7303 -0.2729
  916MPD2     H13465   2.683   4.450  16.194  1.5184 -1.9435 -1.7580
  916MPD2    H113466   2.781   4.634  15.817 -2.0013  0.0118 -0.3187
  916MPD2    H213467   2.610   0.136  16.125 -0.2889  0.7922 -0.4769
  916MPD2    H313468   2.712   0.112  15.904  0.4755  0.6506 -0.2856
  916MPD2     N13469   2.814   4.408  15.973 -0.4705 -0.1850 -0.3327
  916MPD2    H513470   2.817   4.334  16.042  0.8331 -0.0701 -0.2720
  916MPD2    N113471   2.562   4.675  16.290 -0.2585  0.0884  0.4465
  916MPD2    H713472   2.532   0.035  16.311 -0.6182  0.5554 -2.2580
  917MPD2     C13473   2.251   2.611  11.788 -0.0607 -0.4014  0.5652
  917MPD2    C113474   2.212   2.502  11.719  0.0258  0.2546 -0.8209
  917MPD2    C213475   2.267   2.475  11.596  0.5666 -0.4439  0.0431
  917MPD2    C313476   2.374   2.557  11.547 -0.0691  0.0289  0.3492
  917MPD2    C413477   2.403   2.673  11.617 -0.1377 -0.2706  0.1854
  917MPD2    C513478   2.335   2.704  11.731  0.2394 -0.1680  0.9315
  917MPD2     H13479   2.230   2.390  11.539  2.1769 -0.4494 -0.9909
  917MPD2    H113480   2.473   2.747  11.580 -0.6991 -1.1800 -2.7129
  917MPD2    H213481   2.207   2.641  11.883  0.5521 -0.5130  0.8830
  917MPD2    H313482   2.356   2.796  11.784 -0.9887  1.0588 -0.7265
  917MPD2     N13483   2.441   2.531  11.425 -0.4777 -0.4267 -0.4615
  917MPD2    H513484   2.508   2.602  11.397  0.3567 -1.0525 -0.0806
  917MPD2    N113485   2.119   2.420  11.786 -0.3758 -0.0367  0.4707
  917MPD2    H713486   2.073   2.465  11.865  3.0445  2.7086  0.8893
  918MPD2     C13487   2.067   2.608  12.489 -0.0541 -0.1847 -0.4117
  918MPD2    C113488   2.147   2.593  12.381 -0.6431 -0.3808  0.5535
  918MPD2    C213489   2.108   2.509  12.282 -0.4254 -0.1456  0.8461
  918MPD2    C313490   1.994   2.441  12.293 -0.9022  0.5199 -0.2627
  918MPD2    C413491   1.914   2.453  12.403 -0.2177  0.3680 -0.2942
  918MPD2    C513492   1.952   2.537  12.498  0.4502 -0.6847  0.0297
  918MPD2     H13493   2.168   2.493  12.193 -0.4889  2.8193  0.2579
  918MPD2    H113494   1.815   2.409  12.410 -1.2251  2.9335  1.5503
  918MPD2    H213495   2.088   2.686  12.561  2.7034 -0.6190 -0.7604
  918MPD2    H313496   1.893   2.542  12.589  0.8215 -2.5248  0.3778
  918MPD2     N13497   1.973   2.359  12.188  0.4174 -0.7047 -0.0519
  918MPD2    H513498   2.021   2.378  12.100  0.1394  0.2788  0.0169
  918MPD2    N113499   2.269   2.675  12.361  0.0294 -0.3479  0.3472
  918MPD2    H713500   2.317   2.666  12.272 -0.2928 -1.5357  0.2922
  919MPD2     C13501   3.577   1.628  11.674  0.4562  0.6450  0.4228
  919MPD2    C113502   3.548   1.502  11.631  0.4920 -0.4773 -0.3632
  919MPD2    C213503   3.537   1.479  11.492 -0.0812  0.0184 -0.5508
  919MPD2    C313504   3.561   1.581  11.402  0.4032  0.3257  0.0112
  919MPD2    C413505   3.584   1.707  11.452 -0.2489  0.1720  1.0958
  919MPD2    C513506   3.595   1.725  11.587  0.3187  0.2860  0.1868
  919MPD2     H13507   3.501   1.381  11.463 -0.1593 -0.0619 -0.1860
  919MPD2    H113508   3.594   1.801  11.399 -0.0661 -1.1921 -1.2557
  919MPD2    H213509   3.603   1.653  11.776  3.0473  0.7720 -0.2682
  919MPD2    H313510   3.605   1.827  11.623  0.5842  1.0906 -2.1998
  919MPD2     N13511   3.547   1.558  11.268  0.0773 -0.1260 -0.0968
  919MPD2    H513512   3.552   1.630  11.197  0.1070  0.0989  0.1348
  919MPD2    N113513   3.525   1.387  11.721  0.2389  0.0653 -0.5443
  919MPD2    H713514   3.514   1.297  11.676 -1.3507  0.6419 -1.2863
  920MPD2     C13515   3.147   1.830  10.419  0.4442 -0.7116 -0.1688
  920MPD2    C113516   3.139   1.693  10.400  0.7371  0.0528  0.3956
  920MPD2    C213517   3.159   1.613  10.509  0.4618 -0.4199  0.3220
  920MPD2    C313518   3.195   1.665  10.631  0.4476  0.2992  0.3940
  920MPD2    C413519   3.186   1.800  10.646 -0.2898 -0.4194 -0.1091
  920MPD2    C513520   3.164   1.882  10.538  0.0342  0.3648  0.4651
  920MPD2     H13521   3.173   1.509  10.481 -0.0906 -0.3490 -0.2255
  920MPD2    H113522   3.201   1.855  10.738  2.2885 -2.0842  0.4641
  920MPD2    H213523   3.115   1.903  10.346 -0.9499  0.0077  1.1629
  920MPD2    H313524   3.175   1.989  10.547 -2.0401  0.6889 -0.9065
  920MPD2     N13525   3.224   1.570  10.728  0.3427  0.4058  0.4735
  920MPD2    H513526   3.225   1.473  10.697  3.0102  0.9007 -1.0193
  920MPD2    N113527   3.115   1.645  10.270 -0.3919  0.4076 -0.0198
  920MPD2    H713528   3.117   1.721  10.203  2.3012  1.4991  1.2889
  921MPD2     C13529   4.433   0.721  16.810  0.1988 -0.3502  1.1848
  921MPD2    C113530   4.446   0.599  16.757  0.0933 -0.7568 -0.6257
  921MPD2    C213531   4.344   0.507  16.770 -0.1909  0.1093  0.3311
  921MPD2    C313532   4.221   0.538  16.827 -0.1906  0.6253  0.5681
  921MPD2    C413533   4.210   0.666  16.888  0.5044 -0.6136 -0.3544
  921MPD2    C513534   4.317   0.758  16.877  0.5280 -0.3516  0.3667
  921MPD2     H13535   4.363   0.415  16.716 -2.4165 -1.3396  2.0221
  921MPD2    H113536   4.120   0.691  16.943  1.8780  1.0453  1.1308
  921MPD2    H213537   4.513   0.794  16.801 -0.2727 -0.0397 -0.3908
  921MPD2    H313538   4.308   0.859  16.917  0.2640 -0.1749 -0.1259
  921MPD2     N13539   4.117   0.443  16.842  0.1249 -0.1601  0.4276
  921MPD2    H513540   4.029   0.461  16.889  0.5351 -1.0909  1.5271
  921MPD2    N113541   4.558   0.558  16.683 -0.4332 -0.4251 -0.0099
  921MPD2    H713542   4.552   0.463  16.648 -3.3154 -0.1406 -0.2888
  922MPD2     C13543   0.044   2.803  17.324 -0.4998  0.3510 -0.5800
  922MPD2    C113544   4.688   2.844  17.420 -0.5735 -0.6716  0.4099
  922MPD2    C213545   4.573   2.774  17.434  0.2402  0.3120 -0.5369
  922MPD2    C313546   4.540   2.661  17.362 -0.9046  0.2529  0.3218
  922MPD2    C413547   4.628   2.611  17.271 -0.0552 -0.0006  0.2241
  922MPD2    C513548   0.007   2.692  17.243 -0.5152  0.5057 -0.3605
  922MPD2     H13549   4.504   2.816  17.506  1.2742  0.8538  0.1415
  922MPD2    H113550   4.611   2.517  17.219 -0.7008 -0.0049  0.4494
  922MPD2    H213551   0.144   2.841  17.303  0.0120  0.5679  2.2083
  922MPD2    H313552   0.076   2.653  17.169  1.2602 -0.6531  1.9296
  922MPD2     N13553   4.411   2.605  17.379  0.1411  0.0651  0.4355
  922MPD2    H513554   4.359   2.658  17.450 -0.9209 -0.2818 -0.0831
  922MPD2    N113555   4.702   2.955  17.504  0.1331  0.8073 -0.2956
  922MPD2    H713556   4.634   2.960  17.580 -2.6677 -1.9042 -2.6319
  923MPD2     C13557   0.992   3.817   9.351 -0.0752  0.4934  0.0237
  923MPD2    C113558   1.025   3.950   9.357 -0.5479 -0.0772  0.2161
  923MPD2    C213559   1.152   3.994   9.315 -0.1311  0.1601  0.2788
  923MPD2    C313560   1.248   3.905   9.281 -0.0474  0.3822 -0.4304
  923MPD2    C413561   1.219   3.770   9.274  0.3981 -0.1832 -0.3897
  923MPD2    C513562   1.091   3.730   9.308  0.6643  0.0925 -0.2849
  923MPD2     H13563   1.175   4.099   9.318  0.0637  0.1378 -0.4698
  923MPD2    H113564   1.285   3.693   9.237 -0.5473 -2.0744  1.8881
  923MPD2    H213565   0.898   3.779   9.391  0.2487  0.2078  0.5117
  923MPD2    H313566   1.057   3.628   9.303  2.3224 -0.4209 -1.2200
  923MPD2     N13567   1.378   3.950   9.253  0.3274  0.1800  0.4382
  923MPD2    H513568   1.446   3.879   9.228  1.4258  1.3909 -0.0505
  923MPD2    N113569   0.925   4.038   9.406 -0.0642  0.3747 -0.0832
  923MPD2    H713570   0.835   4.003   9.437  0.4064 -0.6398  0.1461
  924MPD2     C13571   1.375   2.695  16.038  0.8648 -0.4740  1.0453
  924MPD2    C113572   1.301   2.717  16.155  0.4513  0.2906  0.5792
  924MPD2    C213573   1.308   2.840  16.220 -0.2649 -0.3975  0.0104
  924MPD2    C313574   1.373   2.945  16.158 -0.4659  0.0211  0.1133
  924MPD2    C413575   1.451   2.925  16.042  0.3708 -0.2194 -0.6043
  924MPD2    C513576   1.454   2.797  15.991  0.1218  0.1226  0.0136
  924MPD2     H13577   1.247   2.858  16.307 -2.6041 -0.7802 -1.5345
  924MPD2    H113578   1.504   3.004  15.990 -0.0800 -0.5420 -1.5509
  924MPD2    H213579   1.387   2.598  15.992 -0.9485  1.3375 -3.2323
  924MPD2    H313580   1.518   2.786  15.904  1.2355  3.3934  0.4099
  924MPD2     N13581   1.378   3.073  16.216  0.3726  0.0253 -0.1162
  924MPD2    H513582   1.433   3.146  16.173 -1.3760 -0.0142 -2.4105
  924MPD2    N113583   1.218   2.613  16.212  0.0379  0.2729 -0.2510
  924MPD2    H713584   1.219   2.519  16.173 -0.0680  0.3091 -0.3410
  925MPD2     C13585   0.936   0.514  14.780 -0.2807  0.0294  0.4341
  925MPD2    C113586   0.823   0.579  14.745 -0.5957  0.0565 -0.1204
  925MPD2    C213587   0.729   0.620  14.840  0.1090 -0.3677  0.2341
  925MPD2    C313588   0.757   0.606  14.973 -0.8565 -0.1995 -0.3808
  925MPD2    C413589   0.877   0.547  15.008 -0.6530  0.3944  0.5278
  925MPD2    C513590   0.957   0.496  14.911 -0.0261  0.5554 -0.8465
  925MPD2     H13591   0.637   0.654  14.793 -0.8387 -1.5691  1.2037
  925MPD2    H113592   0.907   0.521  15.109  0.2441  0.6767  0.3272
  925MPD2    H213593   1.010   0.479  14.709 -0.1750 -0.1876  0.6514
  925MPD2    H313594   1.049   0.446  14.938 -0.9695  0.4998  2.2883
  925MPD2     N13595   0.677   0.640  15.077 -0.2333  0.4863 -0.2002
  925MPD2    H513596   0.699   0.592  15.164  0.2884  0.9655 -0.0696
  925MPD2    N113597   0.788   0.608  14.615  0.2034  0.0739  0.1851
  925MPD2    H713598   0.701   0.661  14.611 -1.2978 -2.3674  0.2861
  926MPD2     C13599   4.550   3.830  12.985 -0.0243  0.6591  0.0041
  926MPD2    C113600   4.444   3.920  12.985 -0.9630 -0.2289 -0.0974
  926MPD2    C213601   4.395   3.966  12.862  0.0334  0.0551 -0.4177
  926MPD2    C313602   4.452   3.916  12.744 -0.3214 -0.6504  0.2870
  926MPD2    C413603   4.562   3.831  12.755  0.4899 -0.6935 -0.1672
  926MPD2    C513604   4.610   3.790  12.869 -0.0752 -0.5073 -0.0755
  926MPD2     H13605   4.303   4.023  12.866 -1.1556 -1.9870  1.3131
  926MPD2    H113606   4.612   3.793  12.666  0.4144 -0.5389 -0.2748
  926MPD2    H213607   4.598   3.797  13.076  0.8190  2.1497  0.1115
  926MPD2    H313608   4.698   3.727  12.877 -0.2189 -0.7958 -0.7344
  926MPD2     N13609   4.407   3.948  12.615  0.4288 -0.3151  0.2970
  926MPD2    H513610   4.467   3.906  12.545 -1.0548 -0.0587 -1.1155
  926MPD2    N113611   4.388   3.961  13.112 -0.0823 -0.4043 -0.2998
  926MPD2    H713612   4.324   4.040  13.109 -1.8804 -1.8195  0.9498
  927MPD2     C13613   3.581   1.065   0.148  0.7394 -0.0492 -0.2925
  927MPD2    C113614   3.561   1.191   0.082 -0.0887 -0.3276 -0.5096
  927MPD2    C213615   3.657   1.249   0.003  0.5774 -0.0889  0.2887
  927MPD2    C313616   3.773   1.176  17.723  0.0562 -0.1900 -0.7649
  927MPD2    C413617   3.794   1.052   0.047  0.1758  0.8404 -0.2213
  927MPD2    C513618   3.697   1.000   0.123 -0.1147  0.5003  0.2563
  927MPD2     H13619   3.642   1.345  17.693 -1.1866 -0.7891 -0.5197
  927MPD2    H113620   3.883   0.991   0.040 -0.2733  0.0375  1.1258
  927MPD2    H213621   3.508   1.005   0.200  1.8380 -1.1718 -0.0331
  927MPD2    H313622   3.718   0.907   0.175 -0.4487  0.5786  0.5280
  927MPD2     N13623   3.875   1.241  17.650  0.4197 -0.8673  0.4984
  927MPD2    H513624   3.861   1.334  17.610  0.3349 -0.7759  0.7391
  927MPD2    N113625   3.439   1.264   0.121  0.4698 -0.2070 -0.2286
  927MPD2    H713626   3.391   1.238   0.206  2.0563  4.1381  2.0220
  928MPD2     C13627   1.039   0.433   1.042  0.4764  0.2965  0.3943
  928MPD2    C113628   1.157   0.481   1.097  0.3435 -0.2052  0.0401
  928MPD2    C213629   1.274   0.459   1.029  0.4561 -0.5532 -0.0005
  928MPD2    C313630   1.270   0.416   0.899  0.0653 -0.7060 -0.1080
  928MPD2    C413631   1.153   0.377   0.838 -0.0129  0.1386  0.6685
  928MPD2    C513632   1.037   0.384   0.912  0.3848 -0.1091 -0.2225
  928MPD2     H13633   1.367   0.477   1.081 -0.9616  2.0815  1.5968
  928MPD2    H113634   1.144   0.351   0.733  0.0074 -0.1532  0.7395
  928MPD2    H213635   0.942   0.451   1.087 -0.7049  0.2474 -2.1269
  928MPD2    H313636   0.949   0.359   0.855  0.7105 -1.6081 -0.0719
  928MPD2     N13637   1.388   0.415   0.822  0.3381 -0.1277 -0.3158
  928MPD2    H513638   1.377   0.381   0.727 -1.5321  0.9905 -0.5091
  928MPD2    N113639   1.147   0.525   1.232  0.5719  0.1223  0.5115
  928MPD2    H713640   1.054   0.533   1.272  0.0046  0.1326 -0.8073
  929MPD2     C13641   2.260   0.029  10.881  0.1716 -0.2777 -0.2446
  929MPD2    C113642   2.202   4.652  10.841  0.3087  0.2142 -0.3378
  929MPD2    C213643   2.126   4.639  10.721  0.5662  0.2841  0.1574
  929MPD2    C313644   2.118   0.016  10.643  0.0360 -0.2048  0.3612
  929MPD2    C413645   2.165   0.137  10.691 -0.1495  0.2255  0.1986
  929MPD2    C513646   2.238   0.143  10.808 -0.1937  0.1882  0.1338
  929MPD2     H13647   2.094   4.543  10.683 -0.7234 -0.4133  2.9801
  929MPD2    H113648   2.151   0.231  10.638  0.6405  0.0760 -0.2816
  929MPD2    H213649   2.313   0.033  10.976 -1.4086  1.1619  0.5735
  929MPD2    H313650   2.271   0.243  10.831 -2.0955  0.6041  1.0831
  929MPD2     N13651   2.039   0.020  10.521 -0.0289  0.6582  0.2077
  929MPD2    H513652   2.014   0.113  10.489 -0.0520 -0.1616 -2.1912
  929MPD2    N113653   2.218   4.541  10.931  0.2459 -0.3485 -0.0424
  929MPD2    H713654   2.296   4.545  10.995 -0.4539 -1.8443  0.9088
  930MPD2     C13655   3.597   1.664  13.758  0.5179 -0.0035  0.0395
  930MPD2    C113656   3.616   1.798  13.766  0.2038  0.2763 -0.3260
  930MPD2    C213657   3.671   1.864  13.654 -1.4961  0.2367 -0.7835
  930MPD2    C313658   3.701   1.800  13.533 -0.2826  0.4372 -1.1770
  930MPD2    C413659   3.686   1.667  13.525 -0.1280 -0.0749  0.2671
  930MPD2    C513660   3.642   1.607  13.643 -0.8001 -0.6368 -0.2831
  930MPD2     H13661   3.690   1.971  13.659  0.6409 -0.2188  0.8488
  930MPD2    H113662   3.702   1.610  13.434 -0.5774 -0.2789  0.3128
  930MPD2    H213663   3.548   1.607  13.835 -1.6708  1.2652 -0.4105
  930MPD2    H313664   3.626   1.500  13.630  1.3262 -1.1106  1.0373
  930MPD2     N13665   3.743   1.874  13.423  0.7149  0.1094 -1.0256
  930MPD2    H513666   3.780   1.830  13.340 -1.3057 -0.4744 -1.6281
  930MPD2    N113667   3.597   1.858  13.892 -0.2038  0.3139 -0.7763
  930MPD2    H713668   3.605   1.795  13.971 -0.0656  0.6255 -0.5422
  931MPD2     C13669   3.227   1.846   0.721 -0.1699 -0.1788  0.2732
  931MPD2    C113670   3.279   1.722   0.676  0.4842 -0.4300  0.2732
  931MPD2    C213671   3.353   1.646   0.770  0.2752 -0.2137  0.1540
  931MPD2    C313672   3.388   1.693   0.897 -0.3288  0.1521 -0.2031
  931MPD2    C413673   3.341   1.817   0.936  0.0985 -0.5390 -0.0580
  931MPD2    C513674   3.260   1.889   0.853 -0.6165 -0.1273 -0.9821
  931MPD2     H13675   3.402   1.556   0.736  3.5817  1.9473 -0.8328
  931MPD2    H113676   3.371   1.851   1.034 -3.0117 -0.1423  0.7245
  931MPD2    H213677   3.175   1.915   0.656 -0.1231 -1.7045 -1.3790
  931MPD2    H313678   3.241   1.989   0.889 -2.1063 -0.5200 -0.6607
  931MPD2     N13679   3.473   1.629   0.987 -0.2646 -0.6077  0.2679
  931MPD2    H513680   3.504   1.678   1.071  0.1064 -0.1800 -0.1128
  931MPD2    N113681   3.243   1.678   0.545  0.3230 -0.3180  0.5376
  931MPD2    H713682   3.190   1.739   0.484  0.7195  1.7554  2.2840
  932MPD2     C13683   4.686   0.770  11.198  0.5683  0.0157 -0.1514
  932MPD2    C113684   0.066   0.800  11.274  0.2795 -0.3303  0.1215
  932MPD2    C213685   0.062   0.758  11.401  0.3648  0.3361 -0.6425
  932MPD2    C313686   4.691   0.683  11.457  0.7755 -0.2472  0.4786
  932MPD2    C413687   4.586   0.644  11.370 -0.2737  0.4147  0.5766
  932MPD2    C513688   4.584   0.698  11.246 -0.6647  0.0548  0.2300
  932MPD2     H13689   0.137   0.783  11.475  0.6443 -3.2046  0.2411
  932MPD2    H113690   4.515   0.571  11.406  0.2268  0.7869  2.3444
  932MPD2    H213691   4.670   0.816  11.101 -1.2937 -0.5348 -0.0952
  932MPD2    H313692   4.499   0.681  11.181  0.1921 -2.1833 -0.3129
  932MPD2     N13693   4.692   0.627  11.592  0.6732  0.4540 -0.2481
  932MPD2    H513694   4.615   0.566  11.616  0.0154  2.0028  1.5406
  932MPD2    N113695   0.179   0.871  11.228 -0.2935  0.5761  0.2916
  932MPD2    H713696   0.260   0.878  11.288 -0.0041 -1.4892  0.1444
  933MPD2     C13697   0.633   0.795   1.544  0.1733  0.2596 -0.4996
  933MPD2    C113698   0.742   0.824   1.615 -0.4892 -0.0143 -0.1564
  933MPD2    C213699   0.736   0.933   1.698 -0.0107 -0.4476 -0.0958
  933MPD2    C313700   0.617   1.001   1.718 -0.1995 -0.3805  0.2310
  933MPD2    C413701   0.504   0.957   1.662  0.0994  0.4507 -0.0182
  933MPD2    C513702   0.514   0.858   1.568  0.3595  0.1746 -0.7141
  933MPD2     H13703   0.821   0.958   1.760 -0.6935 -0.3363  0.8073
  933MPD2    H113704   0.405   1.000   1.669 -0.7663 -1.6724  0.8566
  933MPD2    H213705   0.639   0.720   1.466 -0.7350 -1.1751  0.7990
  933MPD2    H313706   0.423   0.835   1.513  0.0944  0.9298 -0.5960
  933MPD2     N13707   0.623   1.111   1.802 -0.1043 -0.1487  0.0074
  933MPD2    H513708   0.716   1.139   1.831  0.3931 -1.9758  0.1739
  933MPD2    N113709   0.856   0.751   1.585  0.1362  0.5114  0.1946
  933MPD2    H713710   0.854   0.672   1.522 -0.2827  0.9589 -0.3556
  934MPD2     C13711   2.055   2.445   1.617  0.7381 -0.5936 -0.2860
  934MPD2    C113712   2.171   2.393   1.569 -0.1645 -0.5847  0.3487
  934MPD2    C213713   2.164   2.314   1.458 -0.7066  0.1326  0.6317
  934MPD2    C313714   2.041   2.273   1.404 -0.0675 -0.6078  0.0696
  934MPD2    C413715   1.927   2.314   1.471  0.0242 -1.0470 -0.2027
  934MPD2    C513716   1.934   2.408   1.570  0.5505  0.2022  0.0054
  934MPD2     H13717   2.259   2.278   1.419 -0.8389  0.8856 -0.3781
  934MPD2    H113718   1.829   2.286   1.435 -0.7230  3.0717 -1.4599
  934MPD2    H213719   2.041   2.522   1.692 -0.4631  0.9810 -2.1333
  934MPD2    H313720   1.844   2.440   1.620  0.0130 -2.2096  0.6056
  934MPD2     N13721   2.030   2.190   1.289 -0.3087 -0.9454 -0.8615
  934MPD2    H513722   1.938   2.155   1.268 -1.0566 -0.2688  1.3045
  934MPD2    N113723   2.296   2.434   1.618  0.2131  0.6331  0.0562
  934MPD2    H713724   2.377   2.386   1.582 -0.0906  0.4698 -0.4109
  935MPD2     C13725   2.622   1.476   0.840 -0.3836 -0.4785  0.2918
  935MPD2    C113726   2.491   1.464   0.792 -0.7949  0.2556 -0.5044
  935MPD2    C213727   2.397   1.550   0.841  0.7398  0.6640 -0.0751
  935MPD2    C313728   2.425   1.653   0.923  0.5802  0.3011 -0.2040
  935MPD2    C413729   2.555   1.677   0.955  0.7533  0.0787 -0.0247
  935MPD2    C513730   2.651   1.581   0.916  0.0745 -0.0933 -0.1829
  935MPD2     H13731   2.300   1.532   0.796  0.3795 -2.0646  1.8189
  935MPD2    H113732   2.582   1.762   1.017 -0.2190  1.1025 -1.0027
  935MPD2    H213733   2.702   1.408   0.812  0.3586 -0.6951  2.9858
  935MPD2    H313734   2.755   1.590   0.945 -0.0370  0.5787  0.0185
  935MPD2     N13735   2.327   1.747   0.971 -0.4601 -0.0542  0.1561
  935MPD2    H513736   2.364   1.821   1.030 -0.0865 -1.2673  1.4372
  935MPD2    N113737   2.450   1.360   0.706 -0.0302  0.0656 -0.1169
  935MPD2    H713738   2.352   1.355   0.680  0.3072 -0.5953 -1.2391
  936MPD2     C13739   1.092   3.722  12.125 -1.0118 -0.0178 -0.0248
  936MPD2    C113740   1.065   3.770  12.251  0.1034 -0.1216  0.8071
  936MPD2    C213741   1.104   3.896  12.285 -0.4682  0.1637 -0.5266
  936MPD2    C313742   1.170   3.980  12.191  0.2786  0.2611  0.2963
  936MPD2    C413743   1.204   3.925  12.067 -0.3798 -0.4932 -0.7593
  936MPD2    C513744   1.164   3.799  12.034 -0.2309  0.1767 -0.3473
  936MPD2     H13745   1.086   3.937  12.384 -0.7115  0.0001 -0.5030
  936MPD2    H113746   1.256   3.982  11.991 -1.8516  1.8218 -0.0536
  936MPD2    H213747   1.080   3.619  12.094  1.0351 -0.1898 -0.2414
  936MPD2    H313748   1.186   3.762  11.935  0.3377  1.4713 -0.7110
  936MPD2     N13749   1.197   4.112  12.230 -0.1788  0.1357 -0.6378
  936MPD2    H513750   1.166   4.132  12.324 -0.3303 -3.1497 -0.0131
  936MPD2    N113751   1.029   3.682  12.360  0.4861 -0.3795  0.3235
  936MPD2    H713752   1.013   3.726  12.450  1.6018 -0.7101  0.6838
  937MPD2     C13753   3.579   0.710  11.604 -0.6317 -0.6615 -0.1529
  937MPD2    C113754   3.671   0.802  11.640  0.3093  0.0268 -0.4046
  937MPD2    C213755   3.776   0.830  11.561  0.5976  0.2064 -0.5426
  937MPD2    C313756   3.790   0.768  11.442  0.0640 -0.0919  0.2238
  937MPD2    C413757   3.702   0.674  11.400  0.2975  0.2030 -0.6254
  937MPD2    C513758   3.596   0.645  11.482  0.3866 -0.0563 -0.0823
  937MPD2     H13759   3.846   0.909  11.588  1.3886 -1.6839  2.9018
  937MPD2    H113760   3.701   0.629  11.301 -0.1277 -1.7050  0.2538
  937MPD2    H213761   3.498   0.680  11.669 -0.2809 -0.7906  0.2263
  937MPD2    H313762   3.528   0.568  11.446 -1.3708  0.6065  1.8235
  937MPD2     N13763   3.906   0.791  11.361 -0.5707 -0.0068 -0.0634
  937MPD2    H513764   3.962   0.872  11.386  1.4770 -1.8586  1.2718
  937MPD2    N113765   3.632   0.901  11.736  0.5109 -0.1139 -0.1665
  937MPD2    H713766   3.677   0.991  11.737 -0.6681  0.5072 -2.1387
  938MPD2     C13767   1.494   1.737   0.396 -0.1662  0.0795 -0.7415
  938MPD2    C113768   1.578   1.719   0.505 -0.5226 -0.1747 -0.2036
  938MPD2    C213769   1.534   1.766   0.621 -0.2789  0.1872 -0.9402
  938MPD2    C313770   1.414   1.823   0.641  0.1522 -0.5477 -0.3325
  938MPD2    C413771   1.332   1.830   0.530  0.0977  0.8043  0.7673
  938MPD2    C513772   1.370   1.793   0.403  0.1379 -0.3422 -0.1825
  938MPD2     H13773   1.604   1.760   0.703 -0.9850  1.0137 -0.2746
  938MPD2    H113774   1.231   1.866   0.542 -0.4643 -0.3359 -0.5344
  938MPD2    H213775   1.526   1.710   0.296  1.0436 -0.9277 -0.0921
  938MPD2    H313776   1.306   1.800   0.317 -1.5171  3.2529  1.3328
  938MPD2     N13777   1.364   1.856   0.764 -0.4941  0.0955 -0.0768
  938MPD2    H513778   1.268   1.889   0.773  0.0306  1.6532 -0.0656
  938MPD2    N113779   1.708   1.655   0.497  0.5186  0.2217 -0.4911
  938MPD2    H713780   1.764   1.658   0.582  1.2403 -0.8313 -0.9306
  939MPD2     C13781   2.094   2.920   0.817  0.5518 -0.6442 -0.6242
  939MPD2    C113782   2.101   3.057   0.835 -0.8672  0.3342 -0.0293
  939MPD2    C213783   2.210   3.118   0.775  0.0408 -0.4753 -0.2741
  939MPD2    C313784   2.302   3.046   0.705  0.1496 -0.5288  0.3514
  939MPD2    C413785   2.296   2.910   0.693 -0.0978  0.9181 -0.4668
  939MPD2    C513786   2.181   2.851   0.743 -0.4546  0.3650  0.1967
  939MPD2     H13787   2.213   3.227   0.776 -1.3250 -0.4403 -0.3256
  939MPD2    H113788   2.367   2.849   0.638  0.1237  2.5268 -1.9426
  939MPD2    H213789   2.013   2.862   0.860  0.5382 -0.2270 -0.0832
  939MPD2    H313790   2.163   2.745   0.733  1.7838 -0.0375  0.3399
  939MPD2     N13791   2.403   3.108   0.634 -0.1603  0.0982 -0.0347
  939MPD2    H513792   2.454   3.046   0.572  0.0660  2.1652 -1.8922
  939MPD2    N113793   2.013   3.120   0.926 -0.3605  0.3730  0.3961
  939MPD2    H713794   1.960   3.062   0.991  0.4044 -1.7565 -0.8827
  940MPD2     C13795   1.503   3.908  12.445  0.0671  0.0787 -0.2778
  940MPD2    C113796   1.512   3.814  12.545  0.0436  0.4285 -0.3530
  940MPD2    C213797   1.459   3.692  12.516  0.2196 -0.1080 -0.2346
  940MPD2    C313798   1.410   3.659  12.393  0.1548 -0.0470 -0.1516
  940MPD2    C413799   1.411   3.756  12.288  0.1984  0.4814  0.2560
  940MPD2    C513800   1.445   3.883  12.318  0.8369 -0.3465  0.1633
  940MPD2     H13801   1.481   3.624  12.598  0.2837  0.4770  0.2345
  940MPD2    H113802   1.376   3.728  12.190  2.1430  1.0415 -0.6050
  940MPD2    H213803   1.525   4.012  12.466 -0.1866 -0.2311  1.5024
  940MPD2    H313804   1.461   3.961  12.244  0.5639 -0.3328  0.1208
  940MPD2     N13805   1.361   3.530  12.360 -0.3285 -0.5721  0.1290
  940MPD2    H513806   1.358   3.509  12.260  1.9032 -0.3345  0.0100
  940MPD2    N113807   1.562   3.838  12.671  0.3176 -0.5368  0.3180
  940MPD2    H713808   1.562   3.755  12.729  0.5129 -0.7571  0.0019
  941MPD2     C13809   1.174   2.760   9.944 -0.2165  0.6172  0.2573
  941MPD2    C113810   1.156   2.867  10.027 -0.9902  0.4775  0.7447
  941MPD2    C213811   1.024   2.907  10.056  0.2324 -0.1623  0.2819
  941MPD2    C313812   0.917   2.821  10.026 -0.7741 -0.0886  0.0301
  941MPD2    C413813   0.942   2.710   9.952 -0.0831  0.2648  0.0599
  941MPD2    C513814   1.067   2.682   9.907 -0.2234 -0.9086 -0.2121
  941MPD2     H13815   1.009   2.994  10.119 -0.7311 -1.0105  1.2157
  941MPD2    H113816   0.861   2.640   9.932 -0.2222 -0.0210  1.6632
  941MPD2    H213817   1.278   2.736   9.928 -0.8524  0.9485 -4.2967
  941MPD2    H313818   1.084   2.594   9.846  1.7309 -0.8035  0.1580
  941MPD2     N13819   0.791   2.830  10.086  0.1543  0.3070  0.2457
  941MPD2    H513820   0.721   2.759  10.068  0.0040 -0.0889  2.3768
  941MPD2    N113821   1.259   2.949  10.081  0.3431 -0.7338  0.5374
  941MPD2    H713822   1.228   3.020  10.147 -0.1602 -1.7338  1.3723
  942MPD2     C13823   0.817   4.357   9.893  0.4390 -0.2850  0.2553
  942MPD2    C113824   0.780   4.228   9.872 -0.4078  0.6874  0.5520
  942MPD2    C213825   0.866   4.132   9.818 -0.4707 -0.2298 -0.6915
  942MPD2    C313826   0.990   4.172   9.777  0.9684  0.6822  0.0783
  942MPD2    C413827   1.026   4.307   9.784 -0.5453 -0.1518 -0.2032
  942MPD2    C513828   0.941   4.399   9.851 -0.0575 -0.5794  0.3667
  942MPD2     H13829   0.831   4.030   9.812 -0.8104 -0.1617  0.1108
  942MPD2    H113830   1.126   4.341   9.759  0.1700 -0.6296  2.0564
  942MPD2    H213831   0.747   4.424   9.941 -1.5854 -0.9057 -1.8228
  942MPD2    H313832   0.981   4.498   9.871  2.1780 -0.7566 -3.2682
  942MPD2     N13833   1.092   4.093   9.725 -0.2623  0.3636  0.2447
  942MPD2    H513834   1.179   4.144   9.717 -0.3418  0.6561  1.3161
  942MPD2    N113835   0.644   4.199   9.905  0.2622  0.0471  0.0736
  942MPD2    H713836   0.589   4.271   9.950 -1.2283 -0.2477 -1.2969
  943MPD2     C13837   3.701   2.782   9.705 -0.0758  0.3798  0.9918
  943MPD2    C113838   3.727   2.706   9.817 -0.5550 -0.0233 -0.3229
  943MPD2    C213839   3.810   2.749   9.913  0.5754 -0.1094  0.6713
  943MPD2    C313840   3.888   2.855   9.899  0.1412  0.1822  0.5090
  943MPD2    C413841   3.877   2.929   9.787 -0.1430  0.3142  0.7727
  943MPD2    C513842   3.785   2.888   9.694 -0.3680 -0.3572  0.1121
  943MPD2     H13843   3.806   2.697  10.008 -1.4977 -2.1807 -0.5619
  943MPD2    H113844   3.934   3.019   9.770 -0.2647  0.5017  1.3636
  943MPD2    H213845   3.633   2.758   9.624  0.4133 -0.6397  0.8768
  943MPD2    H313846   3.783   2.951   9.605 -1.1996  0.0737  0.4382
  943MPD2     N13847   3.980   2.889  10.004 -0.1599 -0.1592 -0.3860
  943MPD2    H513848   4.039   2.967   9.976 -0.8163  0.8476  1.0193
  943MPD2    N113849   3.667   2.579   9.824  0.2561 -0.8590  0.0380
  943MPD2    H713850   3.598   2.557   9.752 -1.3913 -0.5634  1.5077
  944MPD2     C13851   3.816   2.004  11.625 -0.6897  0.0820 -0.0035
  944MPD2    C113852   3.776   2.026  11.495 -0.6738 -0.4465  0.2349
  944MPD2    C213853   3.654   2.095  11.482  0.1086 -0.1806  0.3373
  944MPD2    C313854   3.568   2.127  11.592  0.3146 -0.1107  0.0598
  944MPD2    C413855   3.617   2.105  11.719 -0.6021  0.3451 -0.4613
  944MPD2    C513856   3.738   2.041  11.726  0.7946  0.6504  0.0683
  944MPD2     H13857   3.616   2.113  11.383 -2.0873 -2.4858  0.7449
  944MPD2    H113858   3.554   2.126  11.804  1.5682  1.3899  0.9013
  944MPD2    H213859   3.901   1.945  11.656  0.4227  0.9146 -1.4556
  944MPD2    H313860   3.779   2.028  11.826 -3.0219 -2.8832  1.1449
  944MPD2     N13861   3.437   2.186  11.562  0.0152 -0.1308 -0.5159
  944MPD2    H513862   3.410   2.220  11.471 -4.2310 -4.2257 -0.7494
  944MPD2    N113863   3.859   1.974  11.391  0.0781  0.0365 -0.8383
  944MPD2    H713864   3.947   1.934  11.423 -0.1517 -0.5359 -0.9185
    1TMC1    C113865   2.966   3.762  15.148  0.1990 -0.0501 -0.4576
    1TMC1    C213866   3.033   3.719  15.259 -0.6335  0.0766 -0.0774
    1TMC1    C313867   2.988   3.601  15.321 -0.1128  0.8888 -0.4716
    1TMC1    C413868   2.857   3.702  15.091 -0.8157  0.2518  0.4901
    1TMC1    C513869   2.832   3.581  15.152 -0.4530 -0.6209  0.0350
    1TMC1    C613870   2.892   3.529  15.259  0.4750 -0.3849  0.2608
    1TMC1     C13871   3.005   3.893  15.104  0.0335  0.0425  0.0813
    1TMC1     O13872   3.075   3.955  15.180  0.0310 -0.6523  0.7534
    1TMC1     H13873   3.115   3.770  15.306  1.3328 -1.5030 -1.7816
    1TMC1    H113874   2.779   3.751  15.034  0.1331 -2.2211 -2.8924
    1TMC1    H213875   2.864   3.430  15.292  0.2620  0.2584  2.0478
    1TMC1    C713876   2.731   3.503  15.089 -0.1034 -0.2476 -0.0348
    1TMC1    C813877   3.078   3.547  15.422  0.4410  0.2350 -0.4337
    1TMC1    O113878   2.670   3.409  15.136  0.4660 -0.7527  0.2164
    1TMC1    O213879   3.198   3.557  15.432  1.1539 -0.1366 -0.0766
    1TMC1    O313880   2.754   3.523  14.957  0.3387 -0.4592 -0.0551
    1TMC1    H313881   2.818   3.595  14.941  2.7446 -2.1125  2.1262
    1TMC1    O513882   3.007   3.456  15.490  0.0018 -0.2694  0.7882
    1TMC1    H513883   2.912   3.476  15.499 -0.5487 -2.5890  0.0554
    2MPD2     C13884   2.971   4.293  14.792  0.1527  0.5798  0.1451
    2MPD2    C113885   2.873   4.199  14.753  0.3920 -0.4706 -0.7830
    2MPD2    C213886   2.884   4.078  14.812  0.2228  0.0974  0.4717
    2MPD2    C313887   2.969   4.056  14.918 -0.1482  0.5321  0.0866
    2MPD2    C413888   3.050   4.159  14.968 -0.5884  0.4118  0.4608
    2MPD2    C513889   3.056   4.274  14.894  0.2243 -0.1686 -0.4453
    2MPD2     H13890   2.828   3.990  14.782  2.4804 -0.4997 -1.9038
    2MPD2    H113891   3.115   4.146  15.054  0.4062 -0.9695 -0.4978
    2MPD2    H213892   2.984   4.384  14.733 -1.3845 -0.2383 -1.4560
    2MPD2    H313893   3.120   4.360  14.913  0.6530 -1.2467  2.9356
    2MPD2     N13894   2.957   3.929  14.979 -0.1143  0.1867 -0.2921
    2MPD2    H513895   2.892   3.862  14.938 -0.6759 -1.2511  3.0107
    2MPD2    N113896   2.793   4.226  14.632 -0.4827 -0.1471 -0.2946
    2MPD2    H713897   2.814   4.312  14.583  1.2683 -1.9094 -2.6740
    3TMC2    C113898   2.690   4.154  14.432  0.2698 -0.3593 -0.1632
    3TMC2    C213899   2.746   4.263  14.375  0.2981  0.2549  0.4056
    3TMC2    C313900   2.714   4.278  14.246 -0.2606 -0.3950  0.6852
    3TMC2    C413901   2.607   4.067  14.365  0.9037  0.3630 -0.0306
    3TMC2    C513902   2.571   4.092  14.238  1.0337  0.1162 -0.2283
    3TMC2    C613903   2.628   4.203  14.174 -0.8550  0.2598  0.4690
    3TMC2     C13904   2.715   4.126  14.574  0.1848 -0.8663  0.4714
    3TMC2     O13905   2.690   4.017  14.617 -0.2720  0.9413  0.0279
    3TMC2     H13906   2.784   4.355  14.418  1.8210 -0.3430  0.3428
    3TMC2    H113907   2.565   3.974  14.402 -0.4751  1.3605  0.9120
    3TMC2    H213908   2.616   4.230  14.069  1.6363 -1.4694 -0.2604
    3TMC2    C713909   2.496   3.991  14.162 -0.0450 -0.9964 -0.1132
    3TMC2    C813910   2.766   4.391  14.174  0.0260  0.3257 -0.4807
    3TMC2    O113911   2.442   3.907  14.231  0.7727  0.1284 -0.4935
    3TMC2    O213912   2.725   4.432  14.064  0.1328  0.0061  0.8836
    3TMC2    O513913   2.897   4.400  14.211 -0.0992  0.2916  0.3515
    3TMC2    H513914   2.925   4.339  14.283  0.7355 -0.2835 -0.4630
    4TMC2    C113915   1.895   4.269  13.387  0.1033  0.3516  0.7238
    4TMC2    C213916   1.903   4.403  13.371 -0.4614  0.1307  0.0651
    4TMC2    C313917   2.034   4.450  13.379  0.5322  0.0245 -0.2281
    4TMC2    C413918   1.997   4.198  13.457 -0.8035 -0.0610 -0.5013
    4TMC2    C513919   2.119   4.260  13.489 -0.1435  0.3120 -0.6775
    4TMC2    C613920   2.141   4.388  13.443 -0.1607  0.0290 -0.0900
    4TMC2     C13921   1.771   4.199  13.367 -1.1096 -0.4091  0.1008
    4TMC2     O13922   1.774   4.081  13.398  0.6341 -0.1782 -0.4009
    4TMC2     H13923   1.820   4.465  13.338  0.5243  2.2129  1.4796
    4TMC2    H113924   1.978   4.097  13.491  0.7831 -0.3622 -0.5355
    4TMC2    H213925   2.234   4.439  13.464 -1.6734  1.8777  2.0297
    4TMC2    C713926   2.213   4.202  13.590  0.1007 -0.5945  0.2184
    4TMC2    C813927   2.040   4.595  13.402 -0.0640  0.5348 -0.9983
    4TMC2    O113928   2.295   4.280  13.637 -0.0813  0.0676  0.4541
    4TMC2    O213929   2.135   4.655  13.352  0.4485  0.0800  0.0506
    4TMC2    O513930   1.993   4.606  13.531 -0.2726 -0.0063  0.2335
    4TMC2    H513931   1.923   4.540  13.549 -0.2979 -0.0323  0.0373
    5MPD2     C13932   1.269   4.153  13.257 -0.2242  0.6977 -0.7351
    5MPD2    C113933   1.321   4.247  13.172 -0.3336  0.5838  0.0797
    5MPD2    C213934   1.450   4.289  13.196 -0.1260 -0.1790 -0.0215
    5MPD2    C313935   1.534   4.228  13.288 -0.4194  0.3258  0.0455
    5MPD2    C413936   1.475   4.141  13.377 -0.2541 -0.2286 -0.7702
    5MPD2    C513937   1.348   4.096  13.359 -0.2681 -0.1349 -0.1560
    5MPD2     H13938   1.496   4.354  13.122 -3.1078  1.2203 -0.6366
    5MPD2    H113939   1.538   4.091  13.449 -0.3301  0.0231 -0.5332
    5MPD2    H213940   1.168   4.120  13.234  0.4627 -2.4381  0.6976
    5MPD2    H313941   1.306   4.006  13.404 -0.7393 -1.0942 -2.4914
    5MPD2     N13942   1.672   4.267  13.297 -0.4314  0.2808 -0.1813
    5MPD2    H513943   1.704   4.344  13.240 -0.0724 -0.1095 -0.5084
    5MPD2    N113944   1.237   4.306  13.070 -0.0740 -0.0097  0.0175
    5MPD2    H713945   1.148   4.262  13.050 -1.2831  2.0314  0.8681
    6MPD1     C13946   0.306   1.299  12.825 -0.7719 -0.1454  0.6635
    6MPD1    C113947   0.443   1.298  12.862 -0.0916  0.0394  0.1974
    6MPD1    C213948   0.513   1.182  12.853  0.2920  0.6046 -0.3326
    6MPD1    C313949   0.450   1.071  12.799 -0.0892 -0.1701 -0.7752
    6MPD1    C413950   0.320   1.078  12.751  0.0858  0.2662 -0.0905
    6MPD1    C513951   0.248   1.189  12.770  0.7663  0.4076  0.3552
    6MPD1     H13952   0.608   1.169  12.904 -0.8179  0.4566  1.6779
    6MPD1    H113953   0.264   0.996  12.708  1.3405  0.4765 -2.1203
    6MPD1    H213954   0.244   1.388  12.839  0.8327  1.4336 -2.1912
    6MPD1    H313955   0.144   1.182  12.741  0.6278 -1.5452  1.2951
    6MPD1     N13956   0.520   0.944  12.782 -0.1747  0.0446  0.6606
    6MPD1    H513957   0.460   0.868  12.753 -0.5076 -0.1772  1.9102
    6MPD1    N113958   0.482   1.409  12.938 -0.2531  1.0851 -0.7202
    6MPD1    H613959   0.441   1.497  12.907  1.7078  1.7590 -1.4013
    6MPD1    H713960   0.583   1.413  12.954  0.3281  0.2435 -4.0327
    7MPD2     C13961   0.513   0.212  12.758  0.4368  0.0352 -0.1118
    7MPD2    C113962   0.612   0.212  12.854 -0.3120  0.1126  0.6760
    7MPD2    C213963   0.699   0.105  12.860  0.1235  0.0757 -0.3222
    7MPD2    C313964   0.677   4.724  12.786 -0.0279 -0.2261 -0.4986
    7MPD2    C413965   0.573   4.727  12.693 -0.7690  0.1146 -0.2370
    7MPD2    C513966   0.487   0.103  12.677 -0.3142  0.4864  0.5706
    7MPD2     H13967   0.778   0.111  12.933 -0.6201 -3.3269  0.7326
    7MPD2    H113968   0.563   4.644  12.625  2.5079 -1.2876  0.9787
    7MPD2    H213969   0.441   0.290  12.737  1.1223  0.3218 -1.4217
    7MPD2    H313970   0.402   0.108  12.611  0.5460 -0.0356 -0.5704
    7MPD2     N13971   0.770   4.619  12.782 -0.2728  0.1075  0.0399
    7MPD2    H513972   0.777   4.552  12.707  0.3727  0.6000 -0.3454
    7MPD2    N113973   0.648   0.340  12.917 -0.2087 -0.2333  0.3934
    7MPD2    H713974   0.717   0.334  12.991  2.0316 -1.6953 -1.8274
    8TMC3    C113975   0.989   4.542  12.824  0.1443 -0.2299 -0.6409
    8TMC3    C213976   1.054   4.463  12.905  0.0511  0.0510  0.3476
    8TMC3    C313977   1.178   4.424  12.873 -0.5872 -0.2119  0.4484
    8TMC3    C413978   1.043   4.586  12.711  0.8528 -0.1203 -0.3955
    8TMC3    C513979   1.172   4.556  12.676 -0.0832  0.4067  0.1918
    8TMC3    C613980   1.240   4.469  12.761 -0.0686 -0.3730  0.2184
    8TMC3     C13981   0.871   4.607  12.876 -0.1699  0.1924 -0.0852
    8TMC3     O13982   0.868   4.628  12.997 -0.1974 -0.1456 -0.0043
    8TMC3     H13983   1.009   4.419  12.994 -0.3399 -1.8451 -0.7918
    8TMC3    H113984   0.980   4.646  12.646 -1.3631 -2.4169 -0.3882
    8TMC3    H213985   1.346   4.450  12.749  0.0894 -0.3560  1.6150
    8TMC3    C713986   1.248   4.670  12.644  0.1403 -0.4343 -0.3315
    8TMC3    C813987   1.276   4.398  12.977 -0.0411 -0.4689 -0.3156
    8TMC3    O113988   1.370   4.670  12.666 -0.2813 -0.5433 -0.3006
    8TMC3    O213989   1.384   4.458  12.972  0.3368 -0.4427  0.3612
    9TMC3    C113990   0.693   0.786  12.797  1.7213  0.3907  0.1124
    9TMC3    C213991   0.829   0.768  12.779 -0.5934 -0.2190  0.0212
    9TMC3    C313992   0.888   0.652  12.816 -0.8574  0.1822  0.1963
    9TMC3    C413993   0.615   0.698  12.861 -0.1053  0.2279  0.4149
    9TMC3    C513994   0.687   0.582  12.895  0.1089  0.3112 -0.3771
    9TMC3    C613995   0.816   0.553  12.868  0.0475 -0.6754 -0.3716
    9TMC3     C13996   0.652   0.928  12.799 -0.0186 -0.3440  0.2326
    9TMC3     O13997   0.748   1.004  12.817  0.5487  0.5568  0.4387
    9TMC3     H13998   0.886   0.849  12.736  0.0839  0.2127  1.7554
    9TMC3    H113999   0.507   0.697  12.863 -0.0989 -1.8375 -0.0047
    9TMC3    H214000   0.869   0.467  12.908  1.4054  0.0729 -0.5536
    9TMC3    C714001   0.599   0.467  12.883  0.0291 -0.2392  0.0117
    9TMC3    C814002   1.020   0.611  12.763  0.0715  0.8949 -0.0077
    9TMC3    O114003   0.493   0.486  12.826 -0.2386  0.1978  0.2678
    9TMC3    O214004   1.104   0.703  12.739  0.3683 -0.2046 -0.2984
   10MPD2     C14005   1.326   0.225  12.608 -0.2207  0.3608 -0.1643
   10MPD2    C114006   1.195   0.176  12.614  0.8685 -0.2929 -0.0883
   10MPD2    C214007   1.098   0.272  12.646  0.5949  0.2453 -0.2549
   10MPD2    C314008   1.127   0.404  12.674  0.9838 -0.3200 -0.3297
   10MPD2    C414009   1.258   0.446  12.659 -0.7682 -0.2630 -0.2118
   10MPD2    C514010   1.358   0.358  12.622 -0.0748  0.4894 -0.8182
   10MPD2     H14011   0.994   0.244  12.663  1.2201 -0.6563  2.0171
   10MPD2    H114012   1.283   0.545  12.697  0.0153 -0.3277 -0.5518
   10MPD2    H214013   1.405   0.151  12.600 -0.7106 -0.2521  0.8254
   10MPD2    H314014   1.457   0.400  12.634 -0.4327  0.9146  0.6906
   10MPD2     N14015   1.018   0.480  12.725 -0.0584 -0.3506  0.0040
   10MPD2    H514016   0.928   0.433  12.731 -1.2365  2.0988  1.2578
   10MPD2    N114017   1.164   0.037  12.609 -0.5304  0.7208  0.5614
   10MPD2    H714018   1.064   0.019  12.614 -0.8471  2.2003 -0.4743
   11MPD2     C14019   2.273   3.895  13.995 -0.0555 -0.7528  0.0366
   11MPD2    C114020   2.348   4.008  13.961 -0.1948 -0.8996  0.3031
   11MPD2    C214021   2.317   4.072  13.839 -0.6393 -0.4041  0.0516
   11MPD2    C314022   2.209   4.027  13.761  0.8399 -0.2277  0.3047
   11MPD2    C414023   2.148   3.912  13.790 -0.2681 -0.2535  0.3290
   11MPD2    C514024   2.180   3.849  13.905  0.3383 -0.1686 -0.7014
   11MPD2     H14025   2.377   4.152  13.798 -0.0031 -1.3565 -0.8919
   11MPD2    H114026   2.063   3.869  13.737  0.3348 -1.9943  0.7498
   11MPD2    H214027   2.296   3.823  14.073  1.4404  0.4681  0.7077
   11MPD2    H314028   2.119   3.761  13.919 -1.6489  1.7964  2.8697
   11MPD2     N14029   2.169   4.084  13.638  0.7547 -0.1062 -0.6204
   11MPD2    H514030   2.092   4.038  13.592 -0.6928  1.1376  0.5845
   11MPD2    N114031   2.456   4.051  14.044 -0.5086 -0.7478  0.2402
   11MPD2    H714032   2.515   4.125  14.008 -1.2011 -0.9130 -1.2424
    1MPD1     C14033   0.834   1.221  17.002 -0.0112  0.2810 -0.4145
    1MPD1    C114034   0.960   1.193  16.950 -0.1277 -0.2678 -0.0474
    1MPD1    C214035   0.973   1.126  16.834  0.2641 -0.2847  0.1929
    1MPD1    C314036   0.863   1.077  16.764  0.0399 -0.5313 -0.7900
    1MPD1    C414037   0.737   1.108  16.813 -0.6931  0.4289 -0.2158
    1MPD1    C514038   0.725   1.177  16.933 -0.0746  0.6840 -0.2645
    1MPD1     H14039   1.069   1.124  16.783  0.5675 -0.3169  0.7715
    1MPD1    H114040   0.642   1.080  16.768 -0.3167 -1.1217 -0.0636
    1MPD1    H214041   0.815   1.291  17.083 -0.4458 -0.7454  0.3689
    1MPD1    H314042   0.632   1.212  16.977 -0.2288 -0.6802  0.5149
    1MPD1     N14043   0.882   1.001  16.641  0.2870  0.6830  0.2125
    1MPD1    H514044   0.801   0.987  16.582 -0.3746 -0.0742  1.3080
    1MPD1    N114045   1.066   1.221  17.039  0.0198 -0.2598 -0.0411
    1MPD1    H614046   1.148   1.260  16.994 -0.5944  0.1793 -0.7679
    1MPD1    H714047   1.040   1.295  17.105  1.6304 -0.8357  1.2427
    2MPD1     C14048   1.530   0.282  16.348  0.2287 -0.3641 -0.8972
    2MPD1    C114049   1.585   0.399  16.387 -0.0217  0.3142  0.2199
    2MPD1    C214050   1.491   0.506  16.396 -0.6834  0.2491 -0.0266
    2MPD1    C314051   1.367   0.499  16.335 -0.0433 -0.8080 -0.2536
    2MPD1    C414052   1.321   0.376  16.302 -0.2968  0.0550  0.1898
    2MPD1    C514053   1.406   0.267  16.303  0.0682  0.5668 -0.2239
    2MPD1     H14054   1.526   0.600  16.437  1.6211  0.2303 -1.9317
    2MPD1    H114055   1.220   0.349  16.272 -0.0488 -2.4973  1.6116
    2MPD1    H214056   1.587   0.191  16.359 -2.0397 -1.9009 -1.8307
    2MPD1    H314057   1.367   0.167  16.291  2.7125 -0.5218  0.2243
    2MPD1     N14058   1.285   0.608  16.343  0.7303  0.6594  0.7901
    2MPD1    H514059   1.321   0.695  16.380  0.9106  0.0095  2.1256
    2MPD1    N114060   1.710   0.399  16.455  1.2635  0.0590  0.1386
    2MPD1    H614061   1.760   0.487  16.461  1.5207 -0.1265  0.7752
    2MPD1    H714062   1.776   0.342  16.402  0.9382  0.7694 -1.0070
    3TMC3    C114063   1.078   0.733  16.311 -0.0215 -0.1749 -0.4155
    3TMC3    C214064   0.967   0.747  16.229 -0.4004  0.1577 -0.5925
    3TMC3    C314065   0.876   0.842  16.266  0.2752 -0.1563  0.0352
    3TMC3    C414066   1.098   0.796  16.430 -0.1347 -0.2161 -0.6322
    3TMC3    C514067   1.003   0.895  16.462  0.0359 -0.3553  0.0338
    3TMC3    C614068   0.886   0.910  16.383  0.2116  0.1143  0.0560
    3TMC3     C14069   1.165   0.619  16.276  0.4153  0.9526  0.2380
    3TMC3     O14070   1.128   0.541  16.187  0.0350 -0.2431  0.4553
    3TMC3     H14071   0.966   0.683  16.141 -1.0326 -0.0861 -0.4061
    3TMC3    H114072   1.176   0.772  16.501 -0.6133 -0.3648 -0.1646
    3TMC3    H214073   0.814   0.990  16.398 -0.5574 -0.9008  1.8530
    3TMC3    C714074   1.005   0.967  16.587 -0.9862 -0.2613 -0.3321
    3TMC3    C814075   0.760   0.866  16.192  0.3750 -0.7723 -0.3648
    3TMC3    O114076   1.109   0.948  16.644 -0.0903  0.0405 -0.1477
    3TMC3    O214077   0.683   0.957  16.225 -0.1016  0.0340  0.0290
    4MPD1     C14078   0.391   0.794  15.860 -0.2756  0.3097  0.1178
    4MPD1    C114079   0.510   0.764  15.793  0.0192  0.3023 -0.7454
    4MPD1    C214080   0.618   0.748  15.872 -0.7201  0.1861  0.3935
    4MPD1    C314081   0.614   0.793  16.005  0.0970  0.2956  0.2635
    4MPD1    C414082   0.497   0.837  16.062 -0.4000  0.4565 -0.2971
    4MPD1    C514083   0.377   0.820  15.990 -0.3972  0.1247  0.6516
    4MPD1     H14084   0.713   0.711  15.836 -1.7335 -1.4262 -0.5782
    4MPD1    H114085   0.487   0.863  16.166 -1.4396 -2.6806  0.3992
    4MPD1    H214086   0.294   0.810  15.814 -1.1863  0.9687  2.2655
    4MPD1    H314087   0.282   0.838  16.040 -0.6821 -0.8335  0.4682
    4MPD1     N14088   0.734   0.787  16.081 -0.6077  0.0300 -0.0258
    4MPD1    H514089   0.805   0.729  16.037 -1.1936 -1.0571  0.4658
    4MPD1    N114090   0.508   0.720  15.657 -0.1244 -0.7620 -0.3902
    4MPD1    H614091   0.443   0.768  15.595 -2.2006  0.4157  2.6803
    4MPD1    H714092   0.600   0.712  15.614 -0.1513  0.5570 -0.6951
    1TCq1    O114093   4.271   4.292  10.741  0.6252  0.3397  0.1598
    1TCq1    C114094   4.323   4.402  10.802  0.1953  0.5582  0.1063
    1TCq1    O214095   4.341   4.511  10.750 -0.3481 -0.1414 -0.6707
    1TCq1    C214096   4.422   4.347  10.894  0.0693  0.0842  0.4861
    1TCq1    C314097   4.422   4.215  10.936 -0.4675  0.0561 -0.8367
    1TCq1    C414098   4.544   4.159  10.959 -0.2543  0.3138  0.3495
    1TCq1    C514099   4.653   4.235  10.970 -0.1701  0.0030  0.2372
    1TCq1    C614100   4.652   4.366  10.937  0.2902 -0.7898  0.2471
    1TCq1    C714101   4.538   4.422  10.893  0.1285  0.3071  0.7749
    1TCq1    C814102   0.042   4.439  10.952  0.1058  0.2532  0.3169
    1TCq1    O414103   0.118   4.380  11.026 -0.1208 -0.0376 -0.0747
    1TCq1    C914104   4.539   4.026  11.026  0.2777  0.2108  0.0833
    1TCq1    O514105   4.427   3.971  11.042 -0.2573 -0.0179  0.2300
    1TCq1    O614106   4.629   4.017  11.117 -0.8207  0.0992  0.1618
    1TCq1    H114107   4.309   4.212  10.783 -0.1623 -0.5419 -0.8105
    1TCq1    H214108   4.335   4.151  10.933 -0.1326 -0.2843 -3.0808
    1TCq1    H314109   0.003   4.185  11.016  0.4430  0.1973 -0.6893
    1TCq1    H414110   4.528   4.523  10.855 -1.6869  0.3867  1.4729
    2MPD1     C14111   0.388   0.079  10.871 -0.1865 -0.4391  0.1461
    2MPD1    C114112   0.283   0.096  10.782 -0.4552 -0.4490 -0.3169
    2MPD1    C214113   0.171   0.011  10.790  0.1127 -0.2550 -0.8673
    2MPD1    C314114   0.171   4.645  10.890 -0.3093  0.3319  0.2169
    2MPD1    C414115   0.277   4.631  10.978  0.0057 -0.2094 -0.2602
    2MPD1    C514116   0.380   4.724  10.969  0.4692 -0.5820 -0.4658
    2MPD1     H14117   0.086   0.020  10.724  1.8358  1.9511 -2.7594
    2MPD1    H114118   0.278   4.545  11.043  1.5914  2.0443  2.6885
    2MPD1    H214119   0.483   0.133  10.871  0.2270 -1.1553  2.6325
    2MPD1    H314120   0.463   4.719  11.038 -0.1503 -0.2137  0.3196
    2MPD1     N14121   0.053   4.570  10.897  0.0899 -0.1294 -0.2212
    2MPD1    H514122   4.714   4.600  10.835 -0.5075 -0.6998  0.2263
    2MPD1    N114123   0.298   0.185  10.674 -0.0304 -0.1879 -0.5847
    2MPD1    H614124   0.208   0.218  10.640 -1.2254 -2.2422  0.5975
    2MPD1    H714125   0.353   0.264  10.708  1.9992 -0.5785 -2.9716
    1TMC1    C114126   3.992   0.325   9.397 -0.4666  0.9398  0.0645
    1TMC1    C214127   4.052   0.319   9.278  0.7893  0.1882 -0.6060
    1TMC1    C314128   4.178   0.269   9.272  0.2135  0.0928 -0.2292
    1TMC1    C414129   4.054   0.288   9.511  0.1186  0.0386  0.0769
    1TMC1    C514130   4.187   0.251   9.504  0.7742 -0.3576 -0.4048
    1TMC1    C614131   4.246   0.229   9.384  0.0018 -0.3464  0.8210
    1TMC1     C14132   3.854   0.378   9.412 -0.0030  0.0334 -0.0455
    1TMC1     O14133   3.795   0.405   9.307  0.4599  0.1296  0.1435
    1TMC1     H14134   3.993   0.356   9.194 -0.5214 -0.4890  0.0130
    1TMC1    H114135   4.006   0.282   9.608  0.4826 -0.2155  0.2420
    1TMC1    H214136   4.344   0.183   9.385 -0.5970 -1.6145  1.0651
    1TMC1    C714137   4.255   0.177   9.617  0.0942 -0.1884 -0.1390
    1TMC1    C814138   4.261   0.262   9.144  0.7952 -0.4295  0.1454
    1TMC1    O114139   4.331   0.082   9.596  0.5066  0.1777 -0.1284
    1TMC1    O214140   4.380   0.273   9.165 -0.0110 -0.0417  0.7758
    1TMC1    O314141   4.245   0.253   9.731  0.0495  0.2296 -0.0682
    1TMC1    H314142   4.193   0.335   9.721 -0.5398  0.0577  1.5656
    1TMC1    O514143   4.188   0.234   9.038  0.7006  0.7234  0.4309
    1TMC1    H514144   4.092   0.228   9.056  0.4041 -2.2671 -2.1842
    2MPD1     C14145   3.430   0.477   9.671 -0.9246 -0.7516  0.8161
    2MPD1    C114146   3.516   0.423   9.761  0.6630 -0.3108  0.4389
    2MPD1    C214147   3.650   0.401   9.729 -0.2125  0.1454  0.0656
    2MPD1    C314148   3.681   0.415   9.594 -0.3267 -0.2423  0.5372
    2MPD1    C414149   3.585   0.460   9.505 -0.0844  0.0595  0.0627
    2MPD1    C514150   3.457   0.481   9.544  0.3997 -1.2012 -0.8871
    2MPD1     H14151   3.722   0.367   9.802 -1.0871 -2.8792 -0.4683
    2MPD1    H114152   3.615   0.471   9.402 -0.5294  0.0410 -0.0650
    2MPD1    H214153   3.333   0.519   9.695  0.5916  1.5812  2.8000
    2MPD1    H314154   3.372   0.511   9.483  1.4791  1.4737 -1.0484
    2MPD1     N14155   3.814   0.379   9.544 -0.2578 -0.1156  0.1764
    2MPD1    H514156   3.877   0.355   9.620  0.3402 -0.5781 -0.4731
    2MPD1    N114157   3.477   0.410   9.896 -0.3189 -0.8466 -0.1825
    2MPD1    H614158   3.376   0.397   9.903 -0.6978  0.9415 -2.2882
    2MPD1    H714159   3.521   0.333   9.945 -1.4106 -1.3770 -0.0316
    1MPD1     C14160   2.851   1.465  10.687 -0.4347  0.4069  0.0457
    1MPD1    C114161   2.871   1.348  10.756 -0.0206  0.1487  0.0864
    1MPD1    C214162   2.908   1.363  10.891 -0.3159 -0.3198  0.3015
    1MPD1    C314163   2.930   1.483  10.957 -0.3086  0.4954  0.7228
    1MPD1    C414164   2.903   1.590  10.879 -0.3600 -0.2302 -0.5086
    1MPD1    C514165   2.869   1.585  10.747  0.7773  0.3716  0.2497
    1MPD1     H14166   2.939   1.280  10.953 -1.4560 -1.1231 -0.2160
    1MPD1    H114167   2.925   1.685  10.925 -0.8781 -0.1690 -0.3825
    1MPD1    H214168   2.841   1.460  10.579 -1.0281 -0.8136  0.1447
    1MPD1    H314169   2.859   1.668  10.677 -1.8735 -1.5829 -1.6825
    1MPD1     N14170   2.976   1.483  11.095  0.3744 -0.7002  0.3315
    1MPD1    H514171   2.996   1.391  11.133 -1.1803 -1.2706 -0.2280
    1MPD1    N114172   2.870   1.232  10.681  0.5408 -0.5225  0.1328
    1MPD1    H614173   2.882   1.148  10.737 -0.5392 -1.8765 -1.6758
    1MPD1    H714174   2.952   1.230  10.621 -0.2298  1.7724 -1.0320
    2MPD1     C14175   1.787   4.627  11.964 -0.4107  0.6026 -0.4852
    2MPD1    C114176   1.881   4.559  11.895  1.1778 -0.2289 -0.1817
    2MPD1    C214177   1.968   4.627  11.807 -0.3111 -0.7975  0.4579
    2MPD1    C314178   1.955   0.029  11.794  0.4915  0.1795 -0.0115
    2MPD1    C414179   1.853   0.089  11.860  0.2291  0.0670 -0.3264
    2MPD1    C514180   1.768   0.025  11.946 -0.5026  0.4086 -0.5037
    2MPD1     H14181   2.049   4.571  11.763 -0.3437 -0.2503 -0.2937
    2MPD1    H114182   1.836   0.196  11.848  1.4372  0.0142 -2.6035
    2MPD1    H214183   1.724   4.570  12.032  1.7554  1.9818  2.7009
    2MPD1    H314184   1.698   0.082  12.005 -3.7036 -2.6730 -1.3356
    2MPD1     N14185   2.044   0.117  11.722  0.3808 -0.4857  0.3138
    2MPD1    H514186   2.042   0.213  11.754  0.3714 -0.0734 -0.9341
    2MPD1    N114187   1.905   4.425  11.932  0.0650  0.3841 -0.3153
    2MPD1    H614188   1.817   4.375  11.933 -0.7252  1.7806 -0.6001
    2MPD1    H714189   1.973   4.385  11.867 -0.3328 -0.8632  0.0393
    3MPD1     C14190   2.534   0.596  10.870  0.5929 -0.2182 -0.3577
    3MPD1    C114191   2.497   0.675  10.980 -0.0122  0.2347  0.0573
    3MPD1    C214192   2.464   0.618  11.099 -0.5394 -0.5561 -0.0998
    3MPD1    C314193   2.449   0.486  11.104  0.0240  0.1368 -0.6737
    3MPD1    C414194   2.465   0.404  10.995 -0.3030 -0.4170  0.1214
    3MPD1    C514195   2.506   0.460  10.875  1.2630 -0.8581  0.9404
    3MPD1     H14196   2.455   0.680  11.188 -0.7054 -0.3902 -0.2320
    3MPD1    H114197   2.441   0.299  11.008 -0.5449 -0.7604 -3.1583
    3MPD1    H214198   2.576   0.636  10.778 -0.6886 -0.2012 -0.9277
    3MPD1    H314199   2.526   0.399  10.787  1.7921  0.2973  0.2585
    3MPD1     N14200   2.419   0.437  11.231  0.2466 -0.0150 -0.2353
    3MPD1    H514201   2.420   0.509  11.303  0.6109 -1.9680  1.7237
    3MPD1    N114202   2.526   0.813  10.966  0.4759 -0.8218 -1.0668
    3MPD1    H614203   2.504   0.840  10.870 -1.2370  0.9088 -0.1943
    3MPD1    H714204   2.492   0.878  11.037  1.3098 -0.2026 -1.2453
    4MPD2     C14205   3.234   1.045  11.600  0.3725  0.4418  0.0371
    4MPD2    C114206   3.164   1.160  11.639 -0.4925  0.1119 -0.2823
    4MPD2    C214207   3.088   1.162  11.755  0.0637 -0.5643  0.2600
    4MPD2    C314208   3.088   1.057  11.841 -0.1266  0.0143  0.1713
    4MPD2    C414209   3.166   0.949  11.805 -0.1742  0.1118 -0.4326
    4MPD2    C514210   3.234   0.941  11.685  0.2706 -0.0684  0.0146
    4MPD2     H14211   3.025   1.248  11.777  0.0103  0.0723 -2.2761
    4MPD2    H114212   3.159   0.853  11.855 -0.6107  2.0096  3.1369
    4MPD2    H214213   3.293   1.036  11.509  0.2528 -0.0492  0.0126
    4MPD2    H314214   3.290   0.853  11.656  1.3966  0.9368 -0.8263
    4MPD2     N14215   3.009   1.051  11.961  0.2110  0.4618 -0.2034
    4MPD2    H514216   2.997   0.962  12.007  3.4814 -0.6438 -1.4176
    4MPD2    N114217   3.154   1.272  11.551 -0.3584 -0.3668 -0.9624
    4MPD2    H714218   3.088   1.345  11.577 -0.6295 -0.5774 -1.0611
    5TMC3    C114219   3.214   1.447  11.419 -0.2295  0.8986  0.3167
    5TMC3    C214220   3.154   1.473  11.299 -0.1711 -0.4936 -0.4047
    5TMC3    C314221   3.056   1.569  11.300  0.6418  0.4082 -0.0907
    5TMC3    C414222   3.186   1.524  11.530 -0.3430 -0.2791  0.0178
    5TMC3    C514223   3.082   1.612  11.525  0.0988 -0.4922  0.0023
    5TMC3    C614224   3.016   1.643  11.410  0.9360 -0.4988  0.5147
    5TMC3     C14225   3.235   1.308  11.446 -0.0174  0.5260 -0.5680
    5TMC3     O14226   3.292   1.234  11.364 -0.2410 -0.8043 -0.1484
    5TMC3     H14227   3.181   1.407  11.217  1.3770 -0.8415  0.3779
    5TMC3    H114228   3.227   1.487  11.623  1.4080 -2.1477 -1.5114
    5TMC3    H214229   2.936   1.713  11.387  1.4032  0.1266  0.8053
    5TMC3    C714230   3.000   1.617  11.642  0.0150  0.8888 -0.1389
    5TMC3    C814231   2.975   1.592  11.178 -0.4079  0.0434  0.4589
    5TMC3    O114232   3.050   1.578  11.745  0.0357  0.2437  0.3869
    5TMC3    O214233   2.924   1.698  11.153  0.3942  0.3311  0.0212
    6TMC3    C114234   2.215   0.196  11.580  0.9351  0.5012 -0.5427
    6TMC3    C214235   2.254   0.197  11.447 -0.4082 -0.1904 -0.4163
    6TMC3    C314236   2.293   0.319  11.389 -0.0604 -0.7487  0.5444
    6TMC3    C414237   2.216   0.311  11.651  0.5260 -0.2246  0.6291
    6TMC3    C514238   2.255   0.425  11.584 -1.0344  0.0219 -0.7887
    6TMC3    C614239   2.293   0.435  11.456  0.3906  0.2806  0.6703
    6TMC3     C14240   2.141   0.081  11.630  1.2551 -0.3261 -0.4623
    6TMC3     O14241   2.155   4.712  11.562 -0.1041  0.8268 -0.3060
    6TMC3     H14242   2.264   0.104  11.393  1.6404 -0.2431  0.0384
    6TMC3    H114243   2.203   0.306  11.759 -1.9497  0.3003  0.3520
    6TMC3    H214244   2.310   0.536  11.420 -2.1050  1.0221  1.5461
    6TMC3    C714245   2.271   0.548  11.668 -0.2768  0.0425 -0.2381
    6TMC3    C814246   2.364   0.312  11.261 -0.4025  0.0521  0.5846
    6TMC3    O114247   2.359   0.630  11.639 -0.3256  0.0081 -0.2087
    6TMC3    O214248   2.352   0.212  11.195 -0.4429 -0.1706 -0.6873
    7MPD2     C14249   2.531   1.522  11.819  0.2064  0.0256 -0.1273
    7MPD2    C114250   2.656   1.474  11.867 -0.0836  0.0276  0.7041
    7MPD2    C214251   2.769   1.512  11.791  0.0860 -0.1792  0.4775
    7MPD2    C314252   2.759   1.610  11.698 -0.1344 -0.8732 -0.0021
    7MPD2    C414253   2.644   1.676  11.671  0.1879 -0.2948  0.0881
    7MPD2    C514254   2.533   1.625  11.732 -0.0597  0.3073  0.1285
    7MPD2     H14255   2.865   1.462  11.800  0.2739  0.5959  2.8092
    7MPD2    H114256   2.643   1.749  11.591 -2.1328  0.5783  0.9127
    7MPD2    H214257   2.433   1.484  11.846 -0.5871  2.1602  0.0381
    7MPD2    H314258   2.435   1.658  11.697 -0.1879 -0.2360 -0.0185
    7MPD2     N14259   2.870   1.640  11.617  0.4346  0.2757 -0.7490
    7MPD2    H514260   2.848   1.683  11.528  0.1085  1.8626  0.0919
    7MPD2    N114261   2.672   1.383  11.975  0.0891  0.8590  0.2980
    7MPD2    H714262   2.767   1.358  11.999  1.5020  4.7560 -1.2150
    8TMC3    C114263   2.619   1.222  12.136  0.3053  0.4770 -0.9689
    8TMC3    C214264   2.553   1.107  12.118  0.1355  0.1566 -0.3523
    8TMC3    C314265   2.624   0.999  12.064 -0.1649 -0.0218  0.1419
    8TMC3    C414266   2.754   1.227  12.136  0.3236 -0.2312  0.2263
    8TMC3    C514267   2.818   1.116  12.089 -0.4032 -0.3090  0.2297
    8TMC3    C614268   2.752   1.001  12.052  0.3571 -0.0563 -0.3708
    8TMC3     C14269   2.572   1.315  12.038 -0.3681  1.0112  0.1491
    8TMC3     O14270   2.460   1.300  11.987 -0.2736  0.0238  0.9158
    8TMC3     H14271   2.446   1.105  12.128  0.3160  0.2233  1.5438
    8TMC3    H114272   2.811   1.312  12.170  1.8355 -1.3528  0.5287
    8TMC3    H214273   2.809   0.928  11.995 -0.7856  0.3021 -1.9733
    8TMC3    C714274   2.927   1.152  12.003  0.5463  0.2072  0.0915
    8TMC3    C814275   2.543   0.893  12.004 -0.0287  0.6715  0.0390
    8TMC3    O114276   2.912   1.266  11.965  0.5950 -0.7575  0.3995
    8TMC3    O214277   2.597   0.840  11.909  0.4748 -0.6110  0.0508
    9MPD2     C14278   2.219   0.772  12.116  0.4497 -0.1091  0.2207
    9MPD2    C114279   2.320   0.790  12.029 -0.0699 -0.5299 -0.9124
    9MPD2    C214280   2.310   0.722  11.909 -0.4554 -0.6509 -0.1079
    9MPD2    C314281   2.199   0.638  11.885  0.2342 -0.2059  0.4485
    9MPD2    C414282   2.103   0.621  11.985  0.0670 -0.9413 -0.7245
    9MPD2    C514283   2.111   0.699  12.091 -0.6660  0.1111  0.4505
    9MPD2     H14284   2.389   0.725  11.834 -0.8734  0.7397 -0.5022
    9MPD2    H114285   2.011   0.570  11.962 -0.6119  0.1921 -0.5254
    9MPD2    H214286   2.228   0.821  12.213 -0.0193 -0.9637  0.7021
    9MPD2    H314287   2.046   0.674  12.174 -0.5386 -0.9262  0.2429
    9MPD2     N14288   2.189   0.549  11.777 -0.1260  0.4579 -0.3211
    9MPD2    H514289   2.110   0.485  11.780 -0.2813  0.7523  1.8424
    9MPD2    N114290   2.426   0.873  12.068  0.2690  0.0479 -0.3101
    9MPD2    H714291   2.406   0.916  12.157 -2.3025 -0.9987 -0.4104
    1MPD1     C14292   3.366   4.508  16.244 -0.1346 -0.1490 -0.6349
    1MPD1    C114293   3.438   4.514  16.133 -0.2696  0.1137 -0.4056
    1MPD1    C214294   3.506   4.396  16.097 -0.5209 -0.8979  0.6136
    1MPD1    C314295   3.475   4.270  16.153  0.8641  0.4983 -0.0295
    1MPD1    C414296   3.384   4.270  16.255  1.4715  0.2162  0.0282
    1MPD1    C514297   3.336   4.389  16.302  0.0228 -0.0909 -0.1386
    1MPD1     H14298   3.579   4.401  16.017 -1.3279 -2.4347 -0.2166
    1MPD1    H114299   3.364   4.183  16.317  0.2175  0.7164  0.3425
    1MPD1    H214300   3.330   4.600  16.290  1.6372  0.4422 -0.4574
    1MPD1    H314301   3.273   4.390  16.390 -0.4815 -0.0915 -0.5013
    1MPD1     N14302   3.523   4.146  16.100  0.9767 -0.0382  0.3689
    1MPD1    H514303   3.481   4.062  16.138  2.6153 -0.5871  0.9275
    1MPD1    N114304   3.477   4.641  16.086  0.8641  0.4923 -0.0571
    1MPD1    H614305   3.497   4.636  15.986 -1.3925  1.7442 -0.5786
    1MPD1    H714306   3.402   4.710  16.087 -0.5370 -1.0598  0.6753
    2TMC2    C114307   3.745   3.800  16.062 -0.4874  0.0981 -0.5126
    2TMC2    C214308   3.808   3.777  15.945  0.4898  0.6770  0.2239
    2TMC2    C314309   3.797   3.869  15.843  0.0642  0.0293  0.2249
    2TMC2    C414310   3.663   3.905  16.076  0.2315 -0.1497  0.1007
    2TMC2    C514311   3.643   3.994  15.968  0.1635 -0.0735 -0.3916
    2TMC2    C614312   3.712   3.978  15.848  0.3133 -0.2912  0.3534
    2TMC2     C14313   3.773   3.721  16.185  0.1089  0.0682  0.1805
    2TMC2     O14314   3.776   3.781  16.288  0.2777 -0.6425  0.3593
    2TMC2     H14315   3.880   3.696  15.938  3.5188  3.3213  0.9683
    2TMC2    H114316   3.626   3.930  16.175  0.5026 -1.0236  0.4250
    2TMC2    H214317   3.693   4.044  15.764  1.7488 -0.6510 -0.2613
    2TMC2    C714318   3.611   4.133  15.992  1.2595  0.2430  0.5035
    2TMC2    C814319   3.862   3.833  15.724 -0.2994 -0.1202  0.2602
    2TMC2    O114320   3.636   4.211  15.900  0.3999  0.3438  0.1046
    2TMC2    O214321   3.895   3.719  15.708  0.4140 -0.1687 -0.4407
    2TMC2    O514322   3.895   3.934  15.647  0.2709  0.2386 -0.3602
    2TMC2    H514323   3.892   4.019  15.695  1.4663 -0.1531  0.4063
    3MPD1     C14324   3.886   3.288  16.433  0.4940  0.0175 -0.0692
    3MPD1    C114325   3.885   3.262  16.303 -0.3175 -0.3248  0.0216
    3MPD1    C214326   3.851   3.359  16.214  1.1042  0.2555  0.5352
    3MPD1    C314327   3.829   3.492  16.246  0.7213 -0.1715  0.0142
    3MPD1    C414328   3.871   3.523  16.377 -0.1675  0.3491 -0.2384
    3MPD1    C514329   3.892   3.420  16.466  0.1766 -0.3980  0.8393
    3MPD1     H14330   3.836   3.333  16.110 -1.3950  0.2328  0.8957
    3MPD1    H114331   3.872   3.618  16.430  0.1027  0.4770 -0.4703
    3MPD1    H214332   3.891   3.214  16.511 -2.9326 -1.6984 -1.4971
    3MPD1    H314333   3.888   3.458  16.567  0.5552  2.6842 -0.3178
    3MPD1     N14334   3.790   3.590  16.154 -0.0924  0.5222 -0.2042
    3MPD1    H514335   3.778   3.557  16.059  0.8473 -0.6895  0.0937
    3MPD1    N114336   3.890   3.128  16.249 -0.7046  0.7874  0.4947
    3MPD1    H614337   3.923   3.120  16.153  0.1221  3.9491  0.5127
    3MPD1    H714338   3.948   3.074  16.314 -0.4542 -0.9414 -1.1605
    1TMC1    C114339   0.669   2.581  13.126  0.2655  0.3832 -0.3239
    1TMC1    C214340   0.769   2.489  13.104  0.6044  0.3726  0.6171
    1TMC1    C314341   0.723   2.364  13.055  0.2497 -0.4229  0.2555
    1TMC1    C414342   0.534   2.568  13.095  1.4763 -0.2364 -0.4979
    1TMC1    C514343   0.496   2.445  13.054 -0.0603 -0.6879 -0.8235
    1TMC1    C614344   0.591   2.343  13.034  0.8865  0.1000  0.8459
    1TMC1     C14345   0.708   2.720  13.166 -0.1187 -0.3868 -0.1729
    1TMC1     O14346   0.616   2.794  13.198 -0.0741  0.3581 -0.7335
    1TMC1     H14347   0.867   2.502  13.148  0.8893  3.0256 -0.8176
    1TMC1    H114348   0.462   2.645  13.120  0.7016 -1.5769  1.4903
    1TMC1    H214349   0.556   2.245  13.004 -0.2264  0.0430  2.3467
    1TMC1    C714350   0.356   2.416  13.034 -0.2782  0.1105  0.8176
    1TMC1    C814351   0.812   2.252  13.035  0.6950  0.0429 -0.2728
    1TMC1    O114352   0.304   2.304  13.036  0.3978  0.3398  0.0651
    1TMC1    O214353   0.787   2.147  13.088 -0.1467 -0.1519 -0.1535
    1TMC1    O314354   0.313   2.533  12.981 -0.0104 -0.0532 -0.3171
    1TMC1    H314355   0.383   2.595  12.950 -0.7239 -0.2015 -2.2083
    1TMC1    O514356   0.936   2.304  13.054 -0.2313 -0.0183 -0.0254
    1TMC1    H514357   0.936   2.388  13.003 -1.4901 -1.4172 -2.3305
    2MPD2     C14358   0.840   2.947  13.297 -0.1141 -0.4153  0.1792
    2MPD2    C114359   0.908   2.842  13.239 -0.9748 -0.0500 -0.0726
    2MPD2    C214360   1.047   2.839  13.254  0.4210  0.0012 -0.4286
    2MPD2    C314361   1.107   2.921  13.347 -0.2906 -0.2815 -0.3242
    2MPD2    C414362   1.032   3.024  13.405  0.5054  0.2748  0.2076
    2MPD2    C514363   0.902   3.048  13.372  0.4064 -0.2808  0.0239
    2MPD2     H14364   1.095   2.762  13.194 -0.9537 -1.6608  0.5834
    2MPD2    H114365   1.072   3.098  13.473 -1.1026 -0.0160  1.4719
    2MPD2    H214366   0.737   2.960  13.266  0.2031  0.8113 -0.3352
    2MPD2    H314367   0.862   3.142  13.408  0.7277  1.6098 -4.5432
    2MPD2     N14368   1.243   2.915  13.374  0.1762  0.8900  0.0715
    2MPD2    H514369   1.288   2.983  13.434  0.1671 -0.3936  1.5425
    2MPD2    N114370   0.844   2.736  13.166 -0.2743  0.0861  0.0300
    2MPD2    H714371   0.895   2.656  13.131  0.2249  0.0386  0.8535
    3TCq1    O114372   1.894   2.725  13.344 -0.0554  0.4999 -0.0066
    3TCq1    C114373   1.789   2.762  13.271  0.2660  0.3907  0.1040
    3TCq1    O214374   1.779   2.739  13.150 -0.0746 -0.0350  0.6196
    3TCq1    C214375   1.679   2.781  13.364 -0.9897 -0.1535  1.0813
    3TCq1    C314376   1.701   2.856  13.476 -0.4003 -0.5124 -0.0370
    3TCq1    C414377   1.591   2.904  13.533 -0.0029  0.2344  0.2201
    3TCq1    C514378   1.462   2.882  13.497  0.6357  0.0083  0.0891
    3TCq1    C614379   1.445   2.812  13.385  0.6292  0.3250  0.2723
    3TCq1    C714380   1.552   2.765  13.318  0.1592  0.5372 -0.1883
    3TCq1    C814381   1.321   2.816  13.317  0.5476  0.2044  0.5904
    3TCq1    O414382   1.313   2.740  13.220  0.8867  0.1713 -0.6306
    3TCq1    C914383   1.615   2.994  13.647 -0.3474  0.1551 -0.6645
    3TCq1    O514384   1.734   3.027  13.668 -0.0015 -0.1526  0.4575
    3TCq1    O614385   1.511   3.034  13.707  0.1741  0.3790 -0.3019
    3TCq1    H114386   1.858   2.713  13.434 -0.7353  1.4508 -0.1477
    3TCq1    H214387   1.804   2.876  13.502  0.6329 -3.9643 -1.4399
    3TCq1    H314388   1.386   2.914  13.568 -0.5745  1.0680 -1.7067
    3TCq1    H414389   1.536   2.713  13.224 -1.1335 -0.1597  0.4223
    1MPD2     C14390   4.531   4.018  15.334  1.0984  0.4530  0.8090
    1MPD2    C114391   4.446   4.064  15.239  0.1293 -0.8503  0.8258
    1MPD2    C214392   4.414   3.981  15.133 -0.3757 -0.0213 -0.0703
    1MPD2    C314393   4.448   3.850  15.121  0.1325  1.0482 -1.1406
    1MPD2    C414394   4.536   3.806  15.212  0.6721  0.6851 -0.3464
    1MPD2    C514395   4.587   3.893  15.313 -0.3016 -0.2505  0.4194
    1MPD2     H14396   4.356   4.026  15.053 -0.0865  0.6577  0.1035
    1MPD2    H114397   4.572   3.703  15.207  0.4939  0.6739 -1.4224
    1MPD2    H214398   4.556   4.083  15.417 -2.2342  2.5369  0.1718
    1MPD2    H314399   4.656   3.848  15.383 -0.8090 -0.8377  0.5532
    1MPD2     N14400   4.389   3.760  15.024 -0.5879 -0.0298  0.7210
    1MPD2    H514401   4.407   3.661  15.017  0.4611  0.2842 -1.0120
    1MPD2    N114402   4.376   4.186  15.267 -0.2647  0.3192  0.4565
    1MPD2    H714403   4.405   4.248  15.342 -0.0868 -1.9807  2.2916
    2TMC3    C114404   4.250   4.378  15.205  0.3554 -0.0500  0.5895
    2TMC3    C214405   4.123   4.406  15.153 -0.4962  0.3844 -0.4266
    2TMC3    C314406   4.104   4.510  15.065  0.1177  0.1926 -0.2223
    2TMC3    C414407   4.349   4.465  15.176  0.4144  0.5901  0.6041
    2TMC3    C514408   4.325   4.577  15.087 -0.3721 -0.4633  0.0544
    2TMC3    C614409   4.200   4.597  15.036 -0.1945  0.1628 -0.2738
    2TMC3     C14410   4.279   4.236  15.183 -0.0325  0.4016 -0.1546
    2TMC3     O14411   4.205   4.182  15.105 -0.1058 -0.7020 -0.2704
    2TMC3     H14412   4.036   4.341  15.160 -0.0279 -0.0715  1.2153
    2TMC3    H114413   4.451   4.449  15.207  1.2796 -0.3024 -2.7592
    2TMC3    H214414   4.177   4.681  14.972  0.3717 -0.0965 -0.8213
    2TMC3    C714415   4.417   4.685  15.064 -0.4685 -0.8056  0.3613
    2TMC3    C814416   4.030   4.473  14.946 -0.5345 -0.4913 -0.4226
    2TMC3    O114417   4.367   0.056  15.020 -0.3891  0.2583  0.3786
    2TMC3    O214418   4.003   4.557  14.864  0.0618  0.0900  0.4353
    3TCq1    O114419   0.882   4.556  14.583 -0.1197 -0.0079  0.1854
    3TCq1    C114420   0.756   4.553  14.548  0.3720 -0.1721  0.2971
    3TCq1    O214421   0.705   4.576  14.439 -0.4082 -0.1339  0.5050
    3TCq1    C214422   0.675   4.550  14.672 -0.3771 -0.5130 -0.7424
    3TCq1    C314423   0.702   4.454  14.770  0.1205 -0.3001 -0.0379
    3TCq1    C414424   0.602   4.413  14.858  0.2456 -0.2861 -0.2467
    3TCq1    C514425   0.473   4.466  14.842  0.3033 -0.0778  0.0084
    3TCq1    C614426   0.448   4.562  14.745 -0.0237  0.4408  0.5166
    3TCq1    C714427   0.544   4.601  14.655 -0.4271  0.0178  0.0452
    3TCq1    C814428   0.332   4.657  14.745  0.6950  0.4810  0.8150
    3TCq1    O414429   0.351   0.026  14.683  0.1309  0.0642 -0.1529
    3TCq1    C914430   0.622   4.304  14.954 -0.6825  0.9900  0.3458
    3TCq1    O514431   0.732   4.251  14.965 -0.1252  0.1318 -0.2257
    3TCq1    O614432   0.518   4.244  14.991 -0.4304 -0.8365 -0.0706
    3TCq1    H114433   0.895   4.571  14.679 -1.6459 -0.7744  0.5199
    3TCq1    H214434   0.798   4.403  14.776  0.7293  0.5956 -2.0266
    3TCq1    H314435   0.400   4.439  14.917 -0.0634  1.5973  0.2323
    3TCq1    H414436   0.538   4.664  14.567 -0.3314 -0.4440 -0.2856
    4MPD2     C14437   0.114   0.105  14.835  0.1090 -0.2827  0.3947
    4MPD2    C114438   0.129   4.709  14.874  0.6038  0.3189 -0.1091
    4MPD2    C214439   0.036   4.647  14.953  0.5241  0.1435  0.1318
    4MPD2    C314440   4.655   4.715  14.985  0.4329 -0.5941  0.0800
    4MPD2    C414441   4.639   0.114  14.955  0.2858  0.6242 -0.4979
    4MPD2    C514442   4.733   0.175  14.876 -1.2043  0.1988 -0.1577
    4MPD2     H14443   0.062   4.547  14.984 -0.5047  0.0929  0.8151
    4MPD2    H114444   4.562   0.178  14.995  1.8594  1.7720  0.6729
    4MPD2    H214445   0.188   0.153  14.772  0.8347 -1.7715  0.1211
    4MPD2    H314446   4.723   0.281  14.855  0.4063  0.3766 -0.0212
    4MPD2     N14447   4.550   4.646  15.053 -0.5613  0.4339  0.0027
    4MPD2    H514448   4.565   4.546  15.068  0.9369  0.7287  0.4538
    4MPD2    N114449   0.234   4.621  14.828 -0.0304  0.0571  0.4601
    4MPD2    H714450   0.232   4.529  14.871 -1.7249 -1.3270 -2.5693
    5TMC2    C114451   4.118   3.703  14.655 -0.2294  0.8005  0.8000
    5TMC2    C214452   4.047   3.604  14.712 -0.3289 -0.5630  0.8755
    5TMC2    C314453   4.088   3.560  14.839  0.0467 -0.9278  0.0506
    5TMC2    C414454   4.229   3.752  14.711 -0.2294  0.6082 -0.1112
    5TMC2    C514455   4.271   3.703  14.831 -0.4284  0.4267  0.8670
    5TMC2    C614456   4.206   3.604  14.907 -0.0520 -0.9302 -0.1342
    5TMC2     C14457   4.035   3.813  14.619 -0.2905  0.2937 -0.3839
    5TMC2     O14458   3.953   3.797  14.532  0.4653 -0.2284 -0.4945
    5TMC2     H14459   3.949   3.575  14.674 -0.4390  0.5828  0.3057
    5TMC2    H114460   4.290   3.820  14.652 -0.4544  0.5814 -0.3734
    5TMC2    H214461   4.222   3.570  15.009  0.2237 -2.3354 -0.6372
    5TMC2    C714462   4.323   3.807  14.910 -0.8214  0.0015 -0.7440
    5TMC2    C814463   3.987   3.488  14.920  0.2628  0.3249 -0.1354
    5TMC2    O114464   4.290   3.916  14.874  0.7890  0.3074 -0.1957
    5TMC2    O214465   3.866   3.489  14.893  0.1222  0.2885 -0.0013
    5TMC2    O514466   4.056   3.380  14.963  0.3749 -0.0079 -0.4144
    5TMC2    H514467   4.152   3.396  14.974  0.8042 -1.3518 -2.2956
    6MPD2     C14468   3.907   4.304  14.721  0.4154  0.6167 -0.2055
    6MPD2    C114469   4.003   4.263  14.814 -0.3533 -0.6339  0.4055
    6MPD2    C214470   4.041   4.130  14.801 -0.0503 -0.3481  0.0189
    6MPD2    C314471   4.000   4.049  14.697 -0.1633  0.6987 -0.4299
    6MPD2    C414472   3.911   4.093  14.604 -0.0638 -0.0719 -0.7577
    6MPD2    C514473   3.858   4.215  14.626  0.1041  0.3243  1.3375
    6MPD2     H14474   4.106   4.079  14.871  0.1792  1.3892  1.0529
    6MPD2    H114475   3.892   4.024  14.523  0.1610 -0.3145 -0.6003
    6MPD2    H214476   3.860   4.402  14.724 -1.7259 -0.4181 -0.1465
    6MPD2    H314477   3.783   4.249  14.556 -0.9755  1.8515  3.2254
    6MPD2     N14478   4.056   3.919  14.704 -0.2001 -0.2737 -0.2530
    6MPD2    H514479   4.126   3.917  14.777  0.3627  0.5775 -0.7749
    6MPD2    N114480   4.057   4.339  14.920  0.3478 -0.6789 -0.8283
    6MPD2    H714481   4.121   4.298  14.988  0.9325  1.0528 -0.3555
  945NH3     N114482   4.512   2.555   8.927 -0.0625  0.1489 -0.9901
  945NH3     H214483   4.492   2.644   8.883 -2.6428 -1.1395 -2.4279
  945NH3     H314484   4.597   2.570   8.981 -0.6344  1.7302 -0.5285
  945NH3     H414485   4.541   2.504   8.844  0.7768 -0.6808 -0.1796
  946SOD     NA14486   1.773   2.872   9.699  0.4857 -0.1635 -0.0520
  947SOD     NA14487   4.479   3.655  14.192 -0.2596 -0.1673 -0.1681
  948SOD     NA14488   0.733   3.489   2.687  0.2556 -0.1070  0.3371
  949SOD     NA14489   2.393   2.204  13.675 -0.1606  0.4389 -0.3246
  950SOD     NA14490   1.955   1.713  10.619 -0.4996  0.7124  0.2646
  951SOD     NA14491   1.390   2.562  16.587  0.2060  0.3215  0.0145
  952SOD     NA14492   3.570   1.626  12.100  0.2972 -0.1290 -0.1188
  953SOD     NA14493   1.249   2.360   9.595  1.1263  0.1187  0.0957
  954SOL     OW14494   3.626   0.972   0.749  0.3520 -0.1794  0.7365
  954SOL    HW114495   3.687   0.899   0.736  0.1332 -0.2557  0.1202
  954SOL    HW214496   3.662   1.005   0.830  2.1528  1.6600 -0.8164
  955SOL     OW14497   3.092   0.282   1.891  0.9261 -0.5072 -0.2171
  955SOL    HW114498   3.044   0.365   1.888  0.8614 -0.4384  2.2168
  955SOL    HW214499   3.021   0.223   1.915  1.5069  0.1815  3.3056
  956SOL     OW14500   0.445   3.616  12.291  0.1312 -0.3181  0.4316
  956SOL    HW114501   0.401   3.699  12.270  0.9098  0.8426  3.4412
  956SOL    HW214502   0.400   3.596  12.373  2.9635  0.9359  2.3042
  957SOL     OW14503   0.123   3.397   4.706 -0.3803 -0.1159 -1.0873
  957SOL    HW114504   0.064   3.379   4.633 -1.1746  1.3197 -0.7934
  957SOL    HW214505   0.210   3.379   4.670  0.0427 -1.3994  0.5740
  958SOL     OW14506   2.313   4.236   2.078  0.2144 -0.4189 -0.2308
  958SOL    HW114507   2.229   4.278   2.061  0.8953  1.2556  0.5158
  958SOL    HW214508   2.362   4.277   2.007 -0.2609  3.1754  1.5415
  959SOL     OW14509   2.772   2.847   6.852  0.1172 -0.0883 -0.0176
  959SOL    HW114510   2.836   2.816   6.917  1.2726 -0.3097 -1.2494
  959SOL    HW214511   2.719   2.904   6.907  1.5479  1.9269 -0.7235
  960SOL     OW14512   0.181   1.715   3.415  0.0462  0.0078  0.1503
  960SOL    HW114513   0.097   1.737   3.375  0.6777  0.6283 -0.8236
  960SOL    HW214514   0.174   1.621   3.400 -0.2441  0.3914 -2.0656
  961SOL     OW14515   0.967   0.892   8.865  0.0831  0.2296 -0.2837
  961SOL    HW114516   1.036   0.827   8.851 -1.3407 -1.5223  0.9632
  961SOL    HW214517   0.979   0.941   8.784  1.4489  1.2495  0.5301
  962SOL     OW14518   2.263   1.066   9.200  0.7055 -0.5986 -0.2515
  962SOL    HW114519   2.321   1.080   9.125  2.5998  0.1648  1.3529
  962SOL    HW214520   2.320   1.008   9.250 -1.1129 -1.6033  0.6434
  963SOL     OW14521   4.528   0.048   5.531  0.2384 -0.1595 -0.2054
  963SOL    HW114522   4.505   4.692   5.511 -1.7187  0.5518 -1.1776
  963SOL    HW214523   4.601   0.043   5.593 -0.0639  2.4926  0.3484
  964SOL     OW14524   1.062   4.559   6.296  0.1921 -0.3059  0.4084
  964SOL    HW114525   1.132   4.519   6.245 -0.2855  0.7666 -1.0481
  964SOL    HW214526   1.114   4.613   6.356  1.1890 -2.0837  1.1537
  965SOL     OW14527   4.620   1.550   7.269  0.0948 -0.4588  0.0041
  965SOL    HW114528   4.616   1.555   7.364 -1.2017 -1.6864  0.0223
  965SOL    HW214529   4.675   1.472   7.260  0.1066 -0.3439 -0.9114
  966SOL     OW14530   4.034   0.943   8.361  0.4853 -0.2710  0.1613
  966SOL    HW114531   4.086   0.864   8.372 -1.1426 -1.1007  1.9207
  966SOL    HW214532   4.029   0.961   8.267 -0.0569  1.6261  0.5480
  967SOL     OW14533   3.493   2.917   9.053  0.0098  0.6603 -0.5603
  967SOL    HW114534   3.548   2.839   9.058 -0.0423  0.7463  1.3264
  967SOL    HW214535   3.511   2.951   9.141  1.4266  0.0347 -0.6075
  968SOL     OW14536   1.809   3.490  15.867 -0.5112 -0.2107  0.3795
  968SOL    HW114537   1.898   3.507  15.899 -0.1856 -0.0614 -0.6061
  968SOL    HW214538   1.783   3.573  15.828  1.8671  0.5236  0.3313
  969SOL     OW14539   3.885   1.922   4.138 -0.3232 -0.0137  0.1250
  969SOL    HW114540   3.874   1.845   4.193  1.2485 -0.3518 -0.0260
  969SOL    HW214541   3.981   1.920   4.131 -0.0534  0.8256  3.6077
  970SOL     OW14542   2.082   4.678  10.024 -1.1763 -0.0416 -0.0200
  970SOL    HW114543   2.067   0.017   9.966  0.3598 -0.9872 -1.6655
  970SOL    HW214544   2.011   4.617  10.004  0.8325 -1.3739 -3.2196
  971SOL     OW14545   1.878   0.621   4.914 -0.4980 -0.4789 -0.2406
  971SOL    HW114546   1.845   0.706   4.944  0.6784  0.1801 -0.7889
  971SOL    HW214547   1.799   0.579   4.880 -0.2690 -1.0829 -0.0310
  972SOL     OW14548   3.025   1.038   2.373 -0.1818  0.0456  0.1663
  972SOL    HW114549   3.029   0.953   2.418 -0.9669 -0.1721 -0.1637
  972SOL    HW214550   2.994   1.106   2.434 -0.8360 -1.1417  1.1602
  973SOL     OW14551   0.274   0.584   1.353  0.1552 -0.3405  0.3286
  973SOL    HW114552   0.258   0.674   1.326 -1.7646 -0.0086  2.5202
  973SOL    HW214553   0.184   0.559   1.375 -0.1195  2.2899  2.2825
  974SOL     OW14554   3.128   4.508   3.367 -0.4085 -0.1533  0.0073
  974SOL    HW114555   3.108   4.448   3.295 -2.2948  0.2278  0.1986
  974SOL    HW214556   3.039   4.505   3.402 -0.5733 -0.9839 -0.4933
  975SOL     OW14557   1.350   3.561   4.208 -0.1050  0.2597  0.2268
  975SOL    HW114558   1.348   3.584   4.301 -1.1969 -3.8381  1.2130
  975SOL    HW214559   1.261   3.583   4.183  0.1661  2.1366  0.9279
  976SOL     OW14560   2.757   3.542  15.536 -0.2484 -0.4547  0.1454
  976SOL    HW114561   2.708   3.523  15.616 -2.4517 -1.7601 -1.5216
  976SOL    HW214562   2.687   3.557  15.473 -1.4439 -2.7068  0.9124
  977SOL     OW14563   0.301   4.342   6.201  0.3666 -0.2726 -0.0122
  977SOL    HW114564   0.393   4.324   6.185  0.5178 -0.6443  1.3058
  977SOL    HW214565   0.258   4.256   6.202 -1.3833  0.6062  1.2265
  978SOL     OW14566   0.561   1.395  10.202  0.4033  0.3300  0.4121
  978SOL    HW114567   0.601   1.461  10.259 -3.3442  3.2338 -0.2628
  978SOL    HW214568   0.476   1.383  10.244 -0.5543  1.8740 -1.0618
  979SOL     OW14569   3.339   1.308   7.137 -0.2137 -0.1726  0.3250
  979SOL    HW114570   3.410   1.245   7.122 -0.3773 -0.0048 -1.1862
  979SOL    HW214571   3.265   1.247   7.137 -3.0904  3.2882 -1.6079
  980SOL     OW14572   0.808   3.723  15.764 -0.0350 -0.8025  0.1512
  980SOL    HW114573   0.732   3.730  15.706 -0.9592  0.4192  1.4985
  980SOL    HW214574   0.873   3.762  15.706 -1.3465  1.2695  0.0429
  981SOL     OW14575   0.296   3.516   9.557 -0.0788  0.0333 -0.1702
  981SOL    HW114576   0.214   3.470   9.540 -0.7638  1.3024 -0.3199
  981SOL    HW214577   0.262   3.602   9.533  0.3813  0.2368 -0.0809
  982SOL     OW14578   1.365   0.077   9.730  0.5343 -0.1102 -0.2520
  982SOL    HW114579   1.448   0.051   9.690 -0.4650 -2.2478 -0.9159
  982SOL    HW214580   1.340   4.726   9.764 -0.3710  0.9300  1.6777
  983SOL     OW14581   1.544   2.602  16.754 -0.0270  0.0642  0.0640
  983SOL    HW114582   1.619   2.554  16.789  0.0581 -0.7338 -1.2558
  983SOL    HW214583   1.574   2.693  16.760 -0.0798  0.0435  0.7280
  984SOL     OW14584   2.820   1.646   0.493  0.2231 -0.3870  0.5447
  984SOL    HW114585   2.730   1.679   0.488  1.1708  1.8642 -1.8270
  984SOL    HW214586   2.816   1.551   0.495  1.0247 -0.4505 -1.5732
  985SOL     OW14587   2.930   4.071  12.548  0.6958  0.0478  0.0147
  985SOL    HW114588   2.997   4.024  12.598 -1.8391 -0.6396  2.8044
  985SOL    HW214589   2.859   4.069  12.613  0.7695  0.9664  0.1153
  986SOL     OW14590   4.298   2.214  16.744  0.5959  0.1425  0.3205
  986SOL    HW114591   4.373   2.265  16.713  1.3974 -0.1025  1.8533
  986SOL    HW214592   4.269   2.264  16.820  1.0194  0.9526 -0.0518
  987SOL     OW14593   3.751   3.526  14.237  0.0901  0.1080  0.5271
  987SOL    HW114594   3.659   3.499  14.235 -0.0179  0.6241 -0.8412
  987SOL    HW214595   3.790   3.449  14.194 -2.5430 -0.6627 -0.4420
  988SOL     OW14596   4.156   3.600   8.439  0.4098 -0.1163  0.6875
  988SOL    HW114597   4.153   3.696   8.433 -1.1010 -0.2710 -1.2335
  988SOL    HW214598   4.219   3.586   8.509 -1.5078  0.0610  2.4412
  989SOL     OW14599   0.121   1.733   7.200  0.1435 -1.1423 -0.3298
  989SOL    HW114600   0.134   1.768   7.112 -1.3469  0.8817  0.2606
  989SOL    HW214601   0.071   1.653   7.183  0.7498 -1.4289 -0.8047
  990SOL     OW14602   0.106   1.799   9.054 -0.6929 -0.2231 -0.0541
  990SOL    HW114603   0.068   1.728   9.105  0.9591 -0.5696  0.6882
  990SOL    HW214604   0.186   1.824   9.099  0.6271 -3.5808 -0.5538
  991SOL     OW14605   2.865   3.210  12.688 -0.1308 -0.1835  0.1170
  991SOL    HW114606   2.887   3.121  12.661 -0.4689  0.3934 -2.0724
  991SOL    HW214607   2.894   3.252  12.607 -0.0971  0.6340  0.5429
  992SOL     OW14608   1.913   0.393   2.100 -0.1533  0.2974 -0.1392
  992SOL    HW114609   1.884   0.400   2.009  0.9826 -0.0967 -0.5339
  992SOL    HW214610   1.830   0.361   2.137 -0.6935  0.1135 -1.5014
  993SOL     OW14611   1.827   1.927   2.253 -0.1502 -1.0136  0.3133
  993SOL    HW114612   1.744   1.962   2.287 -0.5168 -1.3471 -0.2378
  993SOL    HW214613   1.882   1.972   2.317  1.6276 -3.3137  0.3726
  994SOL     OW14614   4.611   2.466   7.031  0.0232  0.1974  0.5711
  994SOL    HW114615   4.677   2.397   7.038  0.1306  0.3276  0.8660
  994SOL    HW214616   4.576   2.469   7.120 -0.7201  1.0233  0.2558
  995SOL     OW14617   1.175   3.140   6.005  0.2898 -0.3121  0.3116
  995SOL    HW114618   1.084   3.148   5.977  0.9135  4.1429 -0.4907
  995SOL    HW214619   1.163   3.185   6.088  1.5464  1.2760 -0.3619
  996SOL     OW14620   1.268   2.711   7.299 -0.0770  0.3418 -0.0687
  996SOL    HW114621   1.187   2.674   7.265 -0.0780  1.1853 -0.9925
  996SOL    HW214622   1.252   2.805   7.297 -0.0864  0.3380 -0.1860
  997SOL     OW14623   1.058   4.156  14.615 -0.3685 -0.1730 -0.7498
  997SOL    HW114624   0.980   4.116  14.576 -0.4342 -0.7179 -0.0600
  997SOL    HW214625   1.009   4.207  14.679  1.9240 -0.0560  0.9114
  998SOL     OW14626   3.406   0.677   2.472 -0.1726 -0.1041  0.4926
  998SOL    HW114627   3.420   0.751   2.413  3.4511 -1.7738 -0.7295
  998SOL    HW214628   3.493   0.639   2.489  1.0895  2.5359 -0.1202
  999SOL     OW14629   4.696   1.649   5.255 -0.4827 -0.2446 -0.0229
  999SOL    HW114630   0.006   1.664   5.338  2.6086 -3.5676 -1.1238
  999SOL    HW214631   0.037   1.657   5.197 -1.7044  0.3009 -1.5821
 1000SOL     OW14632   1.985   4.315   5.673  0.0349  0.1870  0.3169
 1000SOL    HW114633   2.068   4.267   5.673  0.0508  0.2136  0.6027
 1000SOL    HW214634   2.002   4.403   5.706 -3.0917  0.5588  0.9438
 1001SOL     OW14635   4.286   2.910   2.337 -0.1822  0.4093 -0.4773
 1001SOL    HW114636   4.350   2.965   2.381 -0.9253  1.4987 -0.7291
 1001SOL    HW214637   4.235   2.888   2.415 -1.0362  2.5029 -0.4322
 1002SOL     OW14638   1.543   4.586   6.482  0.4290  0.5003 -0.3646
 1002SOL    HW114639   1.588   4.525   6.540 -0.4755  1.9390  1.8537
 1002SOL    HW214640   1.604   4.658   6.500 -1.4683  1.9399  0.2762
 1003SOL     OW14641   3.391   4.573   5.659  0.6777 -0.4240  0.6172
 1003SOL    HW114642   3.326   4.595   5.593 -0.5613  0.5120  2.1374
 1003SOL    HW214643   3.397   4.662   5.695 -0.7130 -0.5035  1.0464
 1004SOL     OW14644   1.579   4.239   2.607 -0.0283 -0.1270 -0.1482
 1004SOL    HW114645   1.571   4.291   2.687 -0.7306  0.1404 -0.4032
 1004SOL    HW214646   1.560   4.309   2.545 -3.0237  0.7636  1.7869
 1005SOL     OW14647   2.726   0.871   7.213 -0.1531 -0.0429 -0.3831
 1005SOL    HW114648   2.668   0.797   7.231  0.0682 -0.0423  0.3325
 1005SOL    HW214649   2.681   0.947   7.249  1.4672  0.5445  0.3995
 1006SOL     OW14650   1.585   0.576  13.884  0.0676 -0.2786 -0.5605
 1006SOL    HW114651   1.616   0.549  13.971  3.7079  1.5447 -1.3193
 1006SOL    HW214652   1.669   0.602  13.846 -0.1205  2.1529  0.6873
 1007SOL     OW14653   3.345   4.410   5.865 -0.2559  0.4045  0.3163
 1007SOL    HW114654   3.335   4.481   5.928  2.3539 -0.4284  1.7115
 1007SOL    HW214655   3.372   4.465   5.792 -1.4912 -0.7964 -1.0344
 1008SOL     OW14656   1.987   1.251   6.500  0.3250  0.2238  0.1062
 1008SOL    HW114657   2.004   1.320   6.565 -0.6198  1.1148 -0.5925
 1008SOL    HW214658   1.937   1.300   6.435  0.9953  0.1442 -0.4657
 1009SOL     OW14659   3.902   1.026   6.302 -0.3669  0.3471  0.2418
 1009SOL    HW114660   3.881   1.103   6.248 -1.3610  1.1697  1.7950
 1009SOL    HW214661   3.849   0.953   6.271 -2.2266  1.0224  1.8171
 1010SOL     OW14662   0.532   4.439  12.847 -0.3300  0.1437 -0.7909
 1010SOL    HW114663   0.575   4.368  12.895 -1.0214 -0.0930 -0.5239
 1010SOL    HW214664   0.604   4.499  12.829  0.2512 -0.3638 -0.1623
 1011SOL     OW14665   0.783   2.459  17.075 -0.0657  0.2683 -0.1107
 1011SOL    HW114666   0.719   2.530  17.086  0.1064  0.5047 -0.6243
 1011SOL    HW214667   0.818   2.437  17.161  0.3629  1.1156 -0.0609
 1012SOL     OW14668   0.175   0.692  14.838  0.1219  0.4250  0.2800
 1012SOL    HW114669   0.134   0.658  14.759  0.3846 -0.2716  0.4441
 1012SOL    HW214670   0.138   0.780  14.840 -0.0113  0.3849 -0.3568
 1013SOL     OW14671   1.617   2.563   5.027 -0.1748  0.1622  0.6534
 1013SOL    HW114672   1.675   2.512   5.083  0.5513  2.0915  1.6871
 1013SOL    HW214673   1.671   2.603   4.959  0.5458  0.1077  1.1932
 1014SOL     OW14674   2.379   4.504  16.075  0.4695 -0.1120 -0.0714
 1014SOL    HW114675   2.337   4.484  16.159 -0.3735  0.0302 -0.4523
 1014SOL    HW214676   2.429   4.579  16.107  1.2006 -1.4246  1.8120
 1015SOL     OW14677   0.996   3.937   5.602 -0.3272  0.3417  0.7300
 1015SOL    HW114678   1.062   3.988   5.650  0.1757  1.5128 -1.2263
 1015SOL    HW214679   0.936   3.923   5.675 -1.1236  0.3058  0.0567
 1016SOL     OW14680   0.294   4.232   7.458 -0.2721 -0.1726  0.4698
 1016SOL    HW114681   0.242   4.192   7.389 -1.5118  0.5626  0.9790
 1016SOL    HW214682   0.342   4.151   7.478  0.4306 -0.0865 -0.8827
 1017SOL     OW14683   3.913   4.156   9.356  0.3134 -0.3502  0.7974
 1017SOL    HW114684   3.945   4.246   9.366  2.0719 -1.0725  1.5757
 1017SOL    HW214685   3.972   4.100   9.407  0.3717 -0.5761  0.4769
 1018SOL     OW14686   3.785   1.813   0.745  0.2054  0.3759  0.3262
 1018SOL    HW114687   3.781   1.740   0.684 -1.2364  2.3673 -1.9645
 1018SOL    HW214688   3.825   1.784   0.827  2.1228 -0.7549 -1.0153
 1019SOL     OW14689   1.503   4.227   4.649 -0.3764  0.2744 -0.2837
 1019SOL    HW114690   1.432   4.166   4.669  0.3634 -0.4572  0.1361
 1019SOL    HW214691   1.465   4.302   4.694 -0.6539 -0.3574  0.5333
 1020SOL     OW14692   0.698   3.420  14.844  0.1990 -0.3865  0.5801
 1020SOL    HW114693   0.680   3.514  14.837  0.1976 -0.4373 -0.0898
 1020SOL    HW214694   0.708   3.385  14.755 -0.6533  1.4906 -0.2643
 1021SOL     OW14695   3.523   3.020   7.851 -0.1013  0.3802  0.0354
 1021SOL    HW114696   3.508   3.094   7.792  2.7004  2.2761  1.6974
 1021SOL    HW214697   3.431   2.998   7.868 -0.5625  1.9799 -0.4221
 1022SOL     OW14698   1.344   4.534   8.337 -0.1085  0.2881  0.0157
 1022SOL    HW114699   1.387   4.601   8.284 -1.8712  1.9069  0.6416
 1022SOL    HW214700   1.281   4.496   8.276 -2.4474  1.2236  1.8532
 1023SOL     OW14701   3.214   2.234  12.015 -0.2536 -0.6236  0.1960
 1023SOL    HW114702   3.159   2.177  11.961 -1.5942  2.4668 -1.7020
 1023SOL    HW214703   3.288   2.240  11.955  0.2741 -1.1036  0.8063
 1024SOL     OW14704   2.205   4.577  16.292  0.0509  0.2676 -0.1631
 1024SOL    HW114705   2.165   4.578  16.378  1.0917 -0.1202  0.3250
 1024SOL    HW214706   2.137   4.517  16.262 -0.6266  0.0410  1.8758
 1025SOL     OW14707   4.378   4.373   4.572 -0.1744 -0.0181 -0.3843
 1025SOL    HW114708   4.305   4.425   4.537  1.5136 -0.0493 -3.9792
 1025SOL    HW214709   4.429   4.436   4.624 -1.7824 -0.7652  2.0950
 1026SOL     OW14710   1.708   0.035  14.998 -0.6296 -0.2085  0.3641
 1026SOL    HW114711   1.698   0.130  14.995  1.8564  0.0337  0.2653
 1026SOL    HW214712   1.802   0.029  15.014 -0.2266 -1.5635 -2.4980
 1027SOL     OW14713   2.475   2.598   6.821 -0.7483 -0.5371  0.5450
 1027SOL    HW114714   2.402   2.639   6.867 -0.4054  0.1609  0.4650
 1027SOL    HW214715   2.435   2.568   6.739  0.5653 -1.6611  0.3251
 1028SOL     OW14716   4.063   0.992   4.087  0.2976 -0.9429  0.5334
 1028SOL    HW114717   4.049   0.998   4.181 -0.9323  0.4606  0.2526
 1028SOL    HW214718   4.005   0.922   4.056 -1.1865  0.3668  0.3558
 1029SOL     OW14719   3.723   2.695   9.086  0.0997  0.5078  0.0967
 1029SOL    HW114720   3.649   2.651   9.043 -0.2294  0.3151  0.8490
 1029SOL    HW214721   3.791   2.638   9.049  0.1296  0.8722 -0.4116
 1030SOL     OW14722   1.486   2.772   0.476  0.1616 -1.0424  0.1645
 1030SOL    HW114723   1.447   2.859   0.479  0.5921 -0.8305 -0.5798
 1030SOL    HW214724   1.458   2.741   0.563 -0.8194  0.8213  0.5160
 1031SOL     OW14725   1.582   0.017  17.560 -0.1043  0.0796  0.0984
 1031SOL    HW114726   1.658   0.040  17.507  0.1702 -1.1895 -0.0499
 1031SOL    HW214727   1.509   0.054  17.510 -0.8291  1.6433  2.3042
 1032SOL     OW14728   1.605   2.472   0.479 -0.1848  0.4580 -0.4129
 1032SOL    HW114729   1.673   2.523   0.434  0.4658 -0.0450 -0.0034
 1032SOL    HW214730   1.601   2.387   0.435  1.2969  1.1665 -1.9218
 1033SOL     OW14731   0.173   3.955   0.552  0.1717  0.2442  0.0159
 1033SOL    HW114732   0.166   4.039   0.506 -2.6399 -0.3784 -0.6872
 1033SOL    HW214733   0.103   3.976   0.613 -1.0641  1.0051 -1.6507
 1034SOL     OW14734   4.466   3.083   2.449 -0.2177  0.1554  0.0904
 1034SOL    HW114735   4.464   3.176   2.426 -1.3386  0.1994  0.3489
 1034SOL    HW214736   4.541   3.047   2.401 -0.2154  1.7596 -1.1129
 1035SOL     OW14737   2.149   1.731   6.409  0.4355 -0.3101 -0.5245
 1035SOL    HW114738   2.103   1.758   6.489  0.4960 -1.4485 -0.1075
 1035SOL    HW214739   2.168   1.818   6.374  0.0922 -0.3161 -0.7319
 1036SOL     OW14740   2.523   0.659   6.117  0.1640 -0.0620 -0.0517
 1036SOL    HW114741   2.596   0.620   6.165 -0.1884 -0.6151  0.0448
 1036SOL    HW214742   2.452   0.600   6.145 -0.6748  0.5287 -0.9182
 1037SOL     OW14743   1.977   3.044   2.174  0.6322 -0.5641  0.3401
 1037SOL    HW114744   2.063   3.083   2.157  0.8461 -0.5628  1.4466
 1037SOL    HW214745   2.009   2.969   2.224  1.7277  0.2990  0.9129
 1038SOL     OW14746   2.055   4.149  15.856  0.2518  0.2250 -0.5134
 1038SOL    HW114747   2.054   4.191  15.770  2.1177 -1.4681 -1.3534
 1038SOL    HW214748   2.145   4.164  15.886  0.1189  1.0085 -0.5070
 1039SOL     OW14749   3.547   2.401   3.206  0.5063 -0.2328 -0.5408
 1039SOL    HW114750   3.569   2.400   3.113 -0.3505  3.3275 -0.7658
 1039SOL    HW214751   3.575   2.490   3.229 -1.0630  0.5710 -1.7960
 1040SOL     OW14752   1.191   2.801   4.945  0.6241  0.2337  0.1247
 1040SOL    HW114753   1.226   2.725   4.991 -2.0385 -0.2380  1.3120
 1040SOL    HW214754   1.203   2.758   4.861 -1.2116  3.4002 -1.7736
 1041SOL     OW14755   0.968   0.498  17.318  0.2315 -0.3660  0.6906
 1041SOL    HW114756   0.932   0.581  17.288  0.5772 -1.1991 -2.0452
 1041SOL    HW214757   1.020   0.536  17.388 -0.5530 -0.7340  1.4800
 1042SOL     OW14758   1.232   1.776   5.115  0.0804  0.6972  0.2621
 1042SOL    HW114759   1.253   1.684   5.130  2.4796  1.3477  0.7804
 1042SOL    HW214760   1.166   1.769   5.046 -1.7686  0.7342  2.0087
 1043SOL     OW14761   0.795   3.072   5.347 -0.3347  0.5738 -0.1528
 1043SOL    HW114762   0.840   2.996   5.384  0.9928  1.8038  0.7702
 1043SOL    HW214763   0.712   3.068   5.394  0.4477 -1.5996  1.0615
 1044SOL     OW14764   2.226   1.658   5.539  0.6956  0.1630 -0.1384
 1044SOL    HW114765   2.243   1.630   5.449  0.2247  0.2832 -0.2631
 1044SOL    HW214766   2.186   1.745   5.531  0.3318  0.2641  2.5395
 1045SOL     OW14767   4.241   0.278   2.720 -0.1599  0.4964 -0.4607
 1045SOL    HW114768   4.229   0.191   2.682  1.4313  1.2225 -2.6137
 1045SOL    HW214769   4.151   0.309   2.708 -0.8802 -1.6753 -0.6222
 1046SOL     OW14770   3.291   0.910   4.819 -0.1422  0.7123 -0.1617
 1046SOL    HW114771   3.236   0.902   4.897  1.4497  0.2215  0.9169
 1046SOL    HW214772   3.244   0.862   4.751 -2.4227  0.6717  1.4268
 1047SOL     OW14773   3.938   4.175  16.436 -0.5762 -0.2226 -0.2142
 1047SOL    HW114774   3.961   4.172  16.529 -1.6405 -2.3815 -0.0089
 1047SOL    HW214775   3.960   4.266  16.416  2.1452 -0.4559  1.6293
 1048SOL     OW14776   4.057   4.619  12.183  0.0904  0.0430 -0.1927
 1048SOL    HW114777   4.098   4.533  12.171  0.5125  0.2131  0.0328
 1048SOL    HW214778   4.044   4.621  12.278  0.0983  0.3179 -0.1962
 1049SOL     OW14779   4.534   1.442  12.275 -0.4191 -0.1352 -0.0863
 1049SOL    HW114780   4.503   1.531  12.292  0.1443 -0.1564  1.0730
 1049SOL    HW214781   4.608   1.468  12.220  1.2267 -2.4568  0.9872
 1050SOL     OW14782   1.226   1.642  13.903 -0.2895 -0.0852  0.3293
 1050SOL    HW114783   1.234   1.654  13.808 -0.9503  0.1097  0.3006
 1050SOL    HW214784   1.134   1.624  13.920 -0.1427  0.3732  1.5734
 1051SOL     OW14785   0.312   4.467  11.523 -0.5305 -0.2766  0.2330
 1051SOL    HW114786   0.356   4.511  11.450 -2.7220  0.8357 -0.4128
 1051SOL    HW214787   0.253   4.403  11.484 -0.8652  1.7018 -2.4763
 1052SOL     OW14788   2.262   4.452   9.927 -0.3402  0.5207 -0.0479
 1052SOL    HW114789   2.233   4.433   9.837 -0.8998  0.1712  0.2044
 1052SOL    HW214790   2.186   4.501   9.959  0.3305  0.8739  0.9781
 1053SOL     OW14791   2.238   2.965   8.493  0.2980  0.4138  0.3419
 1053SOL    HW114792   2.151   2.927   8.480  0.6354  0.1569 -1.1387
 1053SOL    HW214793   2.292   2.937   8.420  0.9058 -2.9611  2.1021
 1054SOL     OW14794   3.185   3.691  11.594  0.4044 -0.0261 -0.4061
 1054SOL    HW114795   3.159   3.744  11.670 -1.6156  0.7362 -1.6319
 1054SOL    HW214796   3.186   3.760  11.527 -0.3639  0.9963  0.6373
 1055SOL     OW14797   1.052   3.544   0.290  0.1214  0.3048 -0.2312
 1055SOL    HW114798   1.006   3.627   0.307  0.0084  0.5239 -1.5502
 1055SOL    HW214799   1.079   3.566   0.201  0.7355 -0.7024 -0.2790
 1056SOL     OW14800   0.426   3.973   4.329  0.0941  0.0274  0.1605
 1056SOL    HW114801   0.499   3.962   4.268 -0.2475 -2.4327  0.1852
 1056SOL    HW214802   0.482   3.994   4.404  0.6545 -0.6778 -0.0542
 1057SOL     OW14803   3.803   4.664   4.266  0.3779 -0.5277  0.3154
 1057SOL    HW114804   3.853   4.699   4.192  0.0140 -0.7258 -0.0287
 1057SOL    HW214805   3.822   4.719   4.341  2.1680 -0.5247 -0.1480
 1058SOL     OW14806   3.010   1.007   4.314  0.5474 -0.5543  0.1153
 1058SOL    HW114807   3.095   1.022   4.273  0.5061 -1.6957 -0.4023
 1058SOL    HW214808   3.008   0.915   4.340  1.0915 -1.1133 -1.8031
 1059SOL     OW14809   2.500   2.117   8.641  0.2338 -0.3876  0.1770
 1059SOL    HW114810   2.472   2.164   8.563 -0.6742  0.7616  1.1915
 1059SOL    HW214811   2.582   2.162   8.663  0.1939  0.2395 -0.9365
 1060SOL     OW14812   2.777   0.217   2.611 -0.1931  0.5204  0.1407
 1060SOL    HW114813   2.845   0.172   2.660 -1.6350  1.8533  3.3301
 1060SOL    HW214814   2.762   0.298   2.660  1.0783  1.0173 -0.2809
 1061SOL     OW14815   1.663   0.661   2.769 -0.3622  0.3099 -0.9887
 1061SOL    HW114816   1.663   0.680   2.675  2.3787  0.0429 -1.0200
 1061SOL    HW214817   1.675   0.566   2.772  1.1025  0.4917 -1.2055
 1062SOL     OW14818   1.360   1.150   4.302 -0.0544  0.2893 -0.0395
 1062SOL    HW114819   1.402   1.065   4.319 -0.2524 -0.3132 -2.5705
 1062SOL    HW214820   1.356   1.157   4.207  0.7340 -0.9529 -0.1634
 1063SOL     OW14821   2.240   0.937   8.327  0.7379  0.3187 -0.1351
 1063SOL    HW114822   2.312   0.999   8.315  1.0368  0.0750  0.4044
 1063SOL    HW214823   2.253   0.869   8.261  0.9569  1.0652 -0.8564
 1064SOL     OW14824   3.991   1.040   7.705  0.2417 -0.0774 -0.1519
 1064SOL    HW114825   3.933   1.030   7.781 -0.3334 -1.0681 -0.7135
 1064SOL    HW214826   4.077   1.003   7.724  0.6532 -0.1350 -2.0784
 1065SOL     OW14827   2.441   1.825   4.579 -0.7853  0.1103 -0.7023
 1065SOL    HW114828   2.476   1.777   4.655 -0.9243  1.5593  0.2680
 1065SOL    HW214829   2.346   1.822   4.583 -0.8623  0.5740 -2.4893
 1066SOL     OW14830   0.503   2.279   2.747 -0.3025  0.3327 -0.0487
 1066SOL    HW114831   0.574   2.214   2.745  1.8968  2.7458 -0.4518
 1066SOL    HW214832   0.538   2.350   2.800  0.0120 -0.5564  0.9318
 1067SOL     OW14833   3.144   1.265   2.222 -0.0872 -0.0167 -0.2316
 1067SOL    HW114834   3.097   1.319   2.286  0.0990  2.1577 -1.9082
 1067SOL    HW214835   3.124   1.178   2.257  1.7038 -1.1292 -1.9634
 1068SOL     OW14836   0.734   1.412   8.179  0.0249  0.0631 -0.7607
 1068SOL    HW114837   0.743   1.331   8.129  0.8019  0.3303 -1.0635
 1068SOL    HW214838   0.749   1.482   8.116 -0.5699  1.5443  0.7267
 1069SOL     OW14839   4.017   3.109   4.923 -0.8196 -0.2678  0.1535
 1069SOL    HW114840   4.108   3.109   4.950 -0.3543 -1.2363 -1.4018
 1069SOL    HW214841   3.984   3.199   4.923  0.9973  0.3811  0.1142
 1070SOL     OW14842   0.064   3.379   9.532 -0.2850  0.4991 -0.2121
 1070SOL    HW114843   0.018   3.296   9.518  0.6379 -0.2589  1.3088
 1070SOL    HW214844   0.016   3.407   9.611 -0.9086 -0.5966 -0.1970
 1071SOL     OW14845   1.151   2.289   8.904 -0.7739  0.0749  0.3509
 1071SOL    HW114846   1.232   2.241   8.884 -1.3131  0.0377 -1.6941
 1071SOL    HW214847   1.106   2.212   8.939 -1.4830  1.4357  2.4227
 1072SOL     OW14848   1.689   0.930   2.484  0.2121  0.0014  0.7437
 1072SOL    HW114849   1.680   0.959   2.393  0.8629  0.9880  0.9818
 1072SOL    HW214850   1.683   1.015   2.528 -1.3624 -0.4073  1.3134
 1073SOL     OW14851   2.958   3.406  11.323  0.0716  0.2042  0.2148
 1073SOL    HW114852   3.024   3.386  11.256 -1.1183 -0.1901 -0.8493
 1073SOL    HW214853   2.892   3.462  11.283 -0.9965 -0.4642  1.0422
 1074SOL     OW14854   2.941   0.181  12.857  0.7250  0.2363  0.0982
 1074SOL    HW114855   2.943   0.262  12.806 -0.0322  0.7628  0.9103
 1074SOL    HW214856   2.859   0.185  12.907  1.0477  0.4383  0.6146
 1075SOL     OW14857   2.906   0.177   5.254 -0.0767  0.4134  0.6562
 1075SOL    HW114858   2.896   0.119   5.329  1.5030  0.9667  1.2975
 1075SOL    HW214859   2.827   0.230   5.253  0.2304  0.8732  1.8028
 1076SOL     OW14860   1.799   0.515  17.690 -0.1535  0.4588  0.4674
 1076SOL    HW114861   1.771   0.439   0.003 -0.0041  0.6466  0.8263
 1076SOL    HW214862   1.769   0.475  17.609  0.8674  2.8198 -1.0522
 1077SOL     OW14863   1.709   2.383  16.856  0.5980  0.6592  0.4648
 1077SOL    HW114864   1.719   2.453  16.921 -1.1652  0.2576  1.1809
 1077SOL    HW214865   1.755   2.310  16.899 -0.9635  0.3451  1.6371
 1078SOL     OW14866   4.534   2.459  11.832 -0.1583  0.6316 -0.5179
 1078SOL    HW114867   4.475   2.532  11.812 -1.8047 -0.2691  1.1914
 1078SOL    HW214868   4.532   2.448  11.927  0.9167 -2.8878 -0.9029
 1079SOL     OW14869   1.342   2.759   5.852  0.3993  0.0615 -0.0296
 1079SOL    HW114870   1.385   2.685   5.810 -0.1325 -0.4887  0.3829
 1079SOL    HW214871   1.333   2.719   5.939  3.4421 -1.9367 -0.6709
 1080SOL     OW14872   4.528   2.967   1.755 -0.0552  0.0856 -0.1672
 1080SOL    HW114873   4.509   3.056   1.726  0.6127  1.0425  2.4222
 1080SOL    HW214874   4.513   2.980   1.848  1.3004  0.4059 -0.0008
 1081SOL     OW14875   3.454   4.062  12.241 -0.1136  0.0909  0.0921
 1081SOL    HW114876   3.478   4.023  12.325 -0.3343 -0.4864 -0.1181
 1081SOL    HW214877   3.511   4.018  12.178 -1.6788  0.7303 -1.7747
 1082SOL     OW14878   0.557   0.096  11.274 -0.0927  0.1027  0.7410
 1082SOL    HW114879   0.639   0.098  11.225  0.9860  1.2748  2.5914
 1082SOL    HW214880   0.594   0.102  11.362  0.7801  2.7052  0.2188
 1083SOL     OW14881   0.677   2.062   2.450 -0.9979 -0.0718 -0.1624
 1083SOL    HW114882   0.629   1.987   2.483 -0.6828 -1.4687 -2.8317
 1083SOL    HW214883   0.733   2.085   2.524 -2.4379  0.8715  0.6095
 1084SOL     OW14884   2.282   3.554  16.037 -0.6803  0.1988 -0.2460
 1084SOL    HW114885   2.308   3.619  16.102 -0.1095 -0.3509  0.0748
 1084SOL    HW214886   2.315   3.592  15.956  4.2978 -1.4477  0.9857
 1085SOL     OW14887   3.551   0.889   4.325 -0.5874 -0.5604  0.0461
 1085SOL    HW114888   3.498   0.934   4.258  0.5361  3.1221  1.5958
 1085SOL    HW214889   3.527   0.946   4.398 -0.7449 -1.1421  0.4426
 1086SOL     OW14890   0.660   3.535   6.680  0.5269 -0.0550  0.2786
 1086SOL    HW114891   0.624   3.518   6.593  1.8743 -0.2002 -0.2537
 1086SOL    HW214892   0.706   3.452   6.694  1.1928  0.0638 -1.2246
 1087SOL     OW14893   3.485   1.244   6.487 -0.2233  0.1379 -0.1814
 1087SOL    HW114894   3.507   1.154   6.463  1.4401  0.2623  0.8398
 1087SOL    HW214895   3.396   1.220   6.510 -0.6445 -0.5277 -2.5258
 1088SOL     OW14896   3.931   3.976   5.671  0.3575  0.3467 -0.6679
 1088SOL    HW114897   3.934   3.956   5.577  0.3353 -0.2353 -0.5451
 1088SOL    HW214898   3.836   3.973   5.687  0.5390 -1.9941 -0.0572
 1089SOL     OW14899   2.658   1.887   1.306 -0.3153  0.0564  0.1870
 1089SOL    HW114900   2.601   1.938   1.248  1.0233 -1.4704 -2.4574
 1089SOL    HW214901   2.730   1.871   1.245 -0.9186 -0.5365 -0.3644
 1090SOL     OW14902   3.359   0.174  12.363 -0.3522  0.0142  0.6957
 1090SOL    HW114903   3.296   0.135  12.302  0.8915 -0.1130 -0.5021
 1090SOL    HW214904   3.356   0.109  12.434  1.1443  1.4878  2.1099
 1091SOL     OW14905   1.094   2.415   4.594  0.2125  0.4583  0.4389
 1091SOL    HW114906   1.017   2.393   4.541  0.2587  1.0970  0.0988
 1091SOL    HW214907   1.057   2.395   4.680  1.6508 -0.8119  0.7620
 1092SOL     OW14908   2.327   2.087   7.804 -0.6697 -0.5611  0.6072
 1092SOL    HW114909   2.347   2.004   7.762 -0.6392 -0.5560  0.6113
 1092SOL    HW214910   2.312   2.155   7.738 -1.9675 -0.7807  0.6734
 1093SOL     OW14911   2.941   4.711   0.506 -0.5901 -0.2699 -0.1181
 1093SOL    HW114912   2.877   0.028   0.458  0.0406  1.5797  1.0317
 1093SOL    HW214913   2.898   4.626   0.511 -0.0252 -0.4441  1.8450
 1094SOL     OW14914   1.407   0.465  10.560 -0.2564 -0.5971 -0.0915
 1094SOL    HW114915   1.333   0.472  10.500  0.7358  0.2915 -1.2026
 1094SOL    HW214916   1.417   0.556  10.587  1.9208 -0.2698 -2.0072
 1095SOL     OW14917   1.420   0.883   5.045  0.3312 -0.9103  0.6723
 1095SOL    HW114918   1.392   0.841   5.126 -2.1180 -0.7812 -0.1259
 1095SOL    HW214919   1.414   0.816   4.977 -0.3810 -0.4116  0.2506
 1096SOL     OW14920   0.961   3.712   2.310 -0.7166  0.1466  0.2594
 1096SOL    HW114921   0.987   3.660   2.234 -0.7202 -0.8378  0.9252
 1096SOL    HW214922   1.043   3.749   2.343 -0.0199 -0.7029 -0.5380
 1097SOL     OW14923   1.571   2.506   6.104  0.3296  0.3802 -0.2129
 1097SOL    HW114924   1.568   2.457   6.022  2.2706 -1.0716  0.5791
 1097SOL    HW214925   1.543   2.594   6.079 -5.1349 -1.4864 -0.7336
 1098SOL     OW14926   2.380   3.925  12.429 -0.8890  0.3687  0.3812
 1098SOL    HW114927   2.330   3.877  12.495 -0.9524 -1.8267 -1.2322
 1098SOL    HW214928   2.435   3.983  12.482 -0.9380  0.5784  0.2032
 1099SOL     OW14929   4.386   2.230   1.300 -0.2344 -0.3149  0.2471
 1099SOL    HW114930   4.301   2.220   1.343 -1.3193  2.5200 -1.2881
 1099SOL    HW214931   4.428   2.303   1.346  0.1108 -0.4498  0.1481
 1100SOL     OW14932   0.378   1.377   2.402 -0.0813 -0.0747  0.3936
 1100SOL    HW114933   0.366   1.362   2.496 -1.8040  0.8342  0.3286
 1100SOL    HW214934   0.363   1.291   2.363 -0.3432  0.3898 -0.5248
 1101SOL     OW14935   3.405   1.601   3.477  0.4323 -0.2376 -0.0076
 1101SOL    HW114936   3.462   1.559   3.542  0.6806  0.7659  0.4262
 1101SOL    HW214937   3.434   1.691   3.495 -1.9124  1.2188 -3.5699
 1102SOL     OW14938   4.331   0.914  15.467 -0.4158 -0.0813 -0.7144
 1102SOL    HW114939   4.400   0.863  15.426 -0.2654 -2.1081  2.0456
 1102SOL    HW214940   4.371   0.942  15.550 -1.5465  0.1229 -0.2281
 1103SOL     OW14941   3.214   3.495   7.177  0.4585  0.0211 -0.5633
 1103SOL    HW114942   3.303   3.523   7.201  0.1602  0.1046  0.4540
 1103SOL    HW214943   3.187   3.572   7.128  3.4069  1.3136 -0.1583
 1104SOL     OW14944   1.042   1.344   4.921 -0.5636  0.2553  0.3266
 1104SOL    HW114945   0.953   1.310   4.908  0.7957 -2.1604 -2.6241
 1104SOL    HW214946   1.043   1.323   5.014  0.5684 -2.1473 -0.2202
 1105SOL     OW14947   0.335   3.550   9.239  0.8418  0.4310  0.0713
 1105SOL    HW114948   0.420   3.570   9.200 -0.6615  0.6951 -3.1260
 1105SOL    HW214949   0.353   3.553   9.333 -1.0958 -0.7566  0.4970
 1106SOL     OW14950   4.406   2.428  15.467  0.3968  0.1807 -0.3594
 1106SOL    HW114951   4.470   2.361  15.493 -1.5561 -0.2339  3.3440
 1106SOL    HW214952   4.328   2.374  15.454  2.4565 -2.8230 -0.4748
 1107SOL     OW14953   0.971   0.100   6.882 -0.2494  0.5424 -0.4725
 1107SOL    HW114954   1.019   0.105   6.800 -0.4137 -1.0185 -0.6572
 1107SOL    HW214955   0.986   0.183   6.927  0.1229  0.4546 -0.4361
 1108SOL     OW14956   3.599   3.388   2.589 -0.0995 -0.4940  0.4189
 1108SOL    HW114957   3.628   3.322   2.527 -2.5930 -0.3524 -0.8816
 1108SOL    HW214958   3.572   3.323   2.653 -1.2708 -0.5193 -0.1076
 1109SOL     OW14959   1.939   1.491   2.650 -0.3151 -0.3066  0.2987
 1109SOL    HW114960   1.996   1.507   2.575 -1.5084 -0.7827 -0.7059
 1109SOL    HW214961   1.995   1.429   2.697  0.6615 -0.1415 -0.6267
 1110SOL     OW14962   1.582   0.577  15.720  0.6730  0.0845 -0.4553
 1110SOL    HW114963   1.588   0.657  15.667  0.7437  0.0548 -0.4921
 1110SOL    HW214964   1.672   0.551  15.738  0.6414  1.7947  2.1323
 1111SOL     OW14965   4.229   1.566  17.214  0.0404 -0.5637  0.2025
 1111SOL    HW114966   4.218   1.588  17.306  0.6612  0.8524 -0.0684
 1111SOL    HW214967   4.211   1.645  17.163  2.6240 -2.0890 -3.1189
 1112SOL     OW14968   2.138   0.308   0.420  0.4276 -0.7826  0.2795
 1112SOL    HW114969   2.173   0.223   0.394  0.2363 -0.5040 -0.8687
 1112SOL    HW214970   2.162   0.303   0.513 -0.5841 -0.1808  0.5793
 1113SOL     OW14971   3.422   2.851  10.899  0.2094  0.1308 -0.1763
 1113SOL    HW114972   3.397   2.811  10.982 -1.3562  1.6598  0.0838
 1113SOL    HW214973   3.483   2.919  10.926 -1.1387  0.3349  2.3711
 1114SOL     OW14974   4.325   3.992  10.171 -0.0687 -0.5185 -0.5715
 1114SOL    HW114975   4.274   4.029  10.243  0.5277 -0.4865 -0.1645
 1114SOL    HW214976   4.285   4.029  10.093  1.5410 -0.2282 -1.2484
 1115SOL     OW14977   0.394   2.534   2.323  0.5331 -0.0210  0.5372
 1115SOL    HW114978   0.456   2.461   2.331 -1.1084 -1.2663  1.8627
 1115SOL    HW214979   0.329   2.510   2.389 -0.3132  2.2395  0.5238
 1116SOL     OW14980   2.982   2.522  17.711 -0.4511 -0.2232 -0.2401
 1116SOL    HW114981   2.971   2.447  17.654 -0.2334  0.5105 -1.2370
 1116SOL    HW214982   3.073   2.541  17.690 -0.1434 -1.7689 -0.3044
 1117SOL     OW14983   0.965   0.667   4.962 -0.2212  0.3244 -0.2716
 1117SOL    HW114984   0.880   0.689   4.924 -1.5679 -1.0596  1.9317
 1117SOL    HW214985   0.944   0.642   5.051 -2.2335  3.2002  0.0768
 1118SOL     OW14986   0.948   1.066   3.252 -0.5644 -0.0457  0.2903
 1118SOL    HW114987   0.909   0.984   3.281  0.3159 -0.8031 -0.6484
 1118SOL    HW214988   0.919   1.068   3.161  1.0219  2.4319 -0.1752
 1119SOL     OW14989   2.855   0.565   2.260  0.0270 -0.1597 -0.0147
 1119SOL    HW114990   2.803   0.627   2.210 -1.9956 -0.8462  1.2409
 1119SOL    HW214991   2.780   0.512   2.288  0.1337 -1.3409 -2.0339
 1120SOL     OW14992   2.876   1.320  11.477 -0.4370  0.1901  0.3734
 1120SOL    HW114993   2.792   1.333  11.522 -0.5138  0.1092  0.2543
 1120SOL    HW214994   2.879   1.229  11.448 -0.4212  0.5328 -0.6942
 1121SOL     OW14995   3.830   2.813   7.879  0.2091 -0.3151  0.1681
 1121SOL    HW114996   3.851   2.779   7.792 -0.0441  2.0325 -0.7991
 1121SOL    HW214997   3.916   2.846   7.907 -0.7339 -0.1140  2.8867
 1122SOL     OW14998   3.693   1.926   8.801  0.1196  0.2897 -0.3149
 1122SOL    HW114999   3.737   1.999   8.845 -1.0537  0.6582  0.2600
 1122SOL    HW215000   3.683   1.968   8.716  1.7723  0.8527 -0.2253
 1123SOL     OW15001   3.600   4.562   0.419 -0.4007 -0.4257  0.2507
 1123SOL    HW115002   3.542   4.635   0.439  0.5853  0.4752 -0.1525
 1123SOL    HW215003   3.625   4.594   0.333 -0.9941  2.1072  1.0022
 1124SOL     OW15004   2.119   0.255  12.007 -0.1143 -0.2175  0.0737
 1124SOL    HW115005   2.186   0.312  12.046  1.4053 -0.8470 -1.6088
 1124SOL    HW215006   2.138   0.176  12.057  1.2782  1.6129  2.4328
 1125SOL     OW15007   0.717   4.329  11.789 -0.4662 -0.1705  0.5915
 1125SOL    HW115008   0.676   4.243  11.796 -0.6648 -0.1339 -0.1263
 1125SOL    HW215009   0.808   4.300  11.776  0.7719  4.4234 -0.6787
 1126SOL     OW15010   0.604   1.794   2.524  0.1361  0.5870  0.2250
 1126SOL    HW115011   0.509   1.798   2.523 -0.0368 -3.4933  0.6255
 1126SOL    HW215012   0.615   1.724   2.459  1.2289 -0.3108  1.3687
 1127SOL     OW15013   1.162   1.582   0.887 -0.3487 -0.0715  0.3725
 1127SOL    HW115014   1.085   1.556   0.836 -0.9480 -0.2857  1.3945
 1127SOL    HW215015   1.231   1.536   0.839 -0.6862 -0.1373 -0.0450
 1128SOL     OW15016   4.324   0.034  11.279 -0.4980  0.6309 -0.1525
 1128SOL    HW115017   4.353   0.013  11.367  4.3345  2.5538 -1.2680
 1128SOL    HW215018   4.240   0.076  11.295 -0.1118  1.7944 -1.1426
 1129SOL     OW15019   4.361   2.611   2.287 -0.5345  0.2365 -0.1331
 1129SOL    HW115020   4.340   2.700   2.259 -0.3833  1.0541  2.3827
 1129SOL    HW215021   4.397   2.563   2.212  0.2848  3.7292 -1.9688
 1130SOL     OW15022   0.669   3.464   8.235 -0.2274  0.2305  0.3025
 1130SOL    HW115023   0.681   3.399   8.305  3.1472  0.8636  0.3241
 1130SOL    HW215024   0.579   3.492   8.251  0.1390  2.6583 -1.9566
 1131SOL     OW15025   3.405   1.033  10.483 -0.4597 -0.2320  0.1608
 1131SOL    HW115026   3.403   0.991  10.397  2.7147  0.4743 -0.2719
 1131SOL    HW215027   3.328   1.007  10.535 -0.4032  0.4354  0.5782
 1132SOL     OW15028   1.918   1.246   3.490  0.1876 -0.3174 -0.3482
 1132SOL    HW115029   1.829   1.224   3.465 -0.4066 -0.3519  1.8124
 1132SOL    HW215030   1.956   1.161   3.513 -0.2235 -0.2863  0.4168
 1133SOL     OW15031   3.384   1.562   6.838  0.1383 -0.4004  0.3728
 1133SOL    HW115032   3.373   1.653   6.865 -1.6952 -1.3521  2.8684
 1133SOL    HW215033   3.471   1.556   6.798 -0.0038  1.4706 -0.2044
 1134SOL     OW15034   4.645   0.914   5.195 -0.1869 -0.2967  0.6364
 1134SOL    HW115035   4.710   0.935   5.261 -0.0917  0.8431  0.1800
 1134SOL    HW215036   4.694   0.874   5.123 -0.5630 -1.1429  0.8498
 1135SOL     OW15037   3.049   2.383   3.904 -0.4252 -0.0266 -0.3674
 1135SOL    HW115038   2.999   2.322   3.958  1.1681 -0.8445  0.1917
 1135SOL    HW215039   3.000   2.390   3.822  0.2990  0.6277 -0.7458
 1136SOL     OW15040   3.696   3.845   7.010 -0.0063  0.7059 -0.2150
 1136SOL    HW115041   3.641   3.864   6.934 -0.1973 -2.7482 -0.9272
 1136SOL    HW215042   3.736   3.930   7.028  0.5565  0.4182 -0.1100
 1137SOL     OW15043   1.602   0.218   5.282 -0.4955  0.5865  0.5728
 1137SOL    HW115044   1.611   0.124   5.272 -1.5849  0.3399  1.9111
 1137SOL    HW215045   1.686   0.253   5.254 -0.5327  1.5918  1.6739
 1138SOL     OW15046   1.065   3.987   6.608  0.5256  0.1521  0.0249
 1138SOL    HW115047   1.160   3.992   6.618  0.6816  2.4497 -2.3168
 1138SOL    HW215048   1.045   4.039   6.529 -0.1545  0.3207  0.3097
 1139SOL     OW15049   0.197   4.099   6.146  0.0094 -0.2882 -0.1606
 1139SOL    HW115050   0.106   4.128   6.144  0.0578 -0.2005 -1.6918
 1139SOL    HW215051   0.211   4.096   6.051  1.6620  1.4116  0.0209
 1140SOL     OW15052   4.209   0.723   8.369 -0.0562 -0.2839 -0.4159
 1140SOL    HW115053   4.249   0.661   8.430  0.1982 -0.0208 -0.3144
 1140SOL    HW215054   4.235   0.689   8.283 -1.3852 -0.2149 -0.8430
 1141SOL     OW15055   0.568   0.433   3.392  0.0705 -0.1911  0.4518
 1141SOL    HW115056   0.520   0.424   3.310 -1.3531 -1.1254  1.3806
 1141SOL    HW215057   0.630   0.360   3.391  1.8056  1.2515  1.8028
 1142SOL     OW15058   4.213   3.161   4.523 -0.4126 -0.1313 -0.1984
 1142SOL    HW115059   4.134   3.136   4.571 -0.9385 -2.3453 -2.1834
 1142SOL    HW215060   4.184   3.238   4.474 -0.3164  0.1942  0.2511
 1143SOL     OW15061   3.365   1.042   8.361 -0.0160 -0.0501 -0.1586
 1143SOL    HW115062   3.332   1.132   8.366 -0.1073 -0.2227  2.1292
 1143SOL    HW215063   3.346   1.026   8.268 -1.7035  2.7176 -0.3007
 1144SOL     OW15064   2.145   0.758   9.453  0.3631 -0.0095 -0.2655
 1144SOL    HW115065   2.052   0.758   9.474  0.2818  0.6665 -0.6385
 1144SOL    HW215066   2.187   0.815   9.518  1.0677 -2.2557  1.2567
 1145SOL     OW15067   3.082   2.049   0.087  0.2969  0.4129  0.1850
 1145SOL    HW115068   3.066   2.120   0.150 -1.3952  0.7571 -0.6087
 1145SOL    HW215069   3.006   2.063   0.029 -1.0996  1.5946  2.3029
 1146SOL     OW15070   2.670   1.984  16.690 -0.3247 -0.4722 -0.3604
 1146SOL    HW115071   2.751   1.953  16.730  1.2976  1.6740 -1.9590
 1146SOL    HW215072   2.610   1.983  16.764  1.5724 -0.9173  1.1764
 1147SOL     OW15073   4.691   3.009   7.676 -0.7468  0.1093  0.3807
 1147SOL    HW115074   4.715   3.077   7.739 -1.0619  1.9540 -1.4921
 1147SOL    HW215075   4.704   2.927   7.725 -0.5881 -0.4573 -0.6185
 1148SOL     OW15076   0.991   3.885   3.264 -0.3216  0.4495 -0.6698
 1148SOL    HW115077   1.005   3.900   3.171 -0.1005  1.2980 -0.4976
 1148SOL    HW215078   0.928   3.953   3.286  1.9826  2.0257  1.0285
 1149SOL     OW15079   0.612   4.377   4.825 -0.4230 -0.4505 -0.2030
 1149SOL    HW115080   0.563   4.316   4.769  1.5019 -1.4026 -0.8646
 1149SOL    HW215081   0.563   4.455   4.801 -1.4989 -1.0103  0.1571
 1150SOL     OW15082   0.500   4.238  17.147  0.2170  0.2684  0.4346
 1150SOL    HW115083   0.475   4.207  17.060  0.6908  0.6277  0.1662
 1150SOL    HW215084   0.530   4.326  17.120 -0.2076 -0.2518 -1.7838
 1151SOL     OW15085   3.459   0.962   5.475  0.3742  0.2453 -0.3717
 1151SOL    HW115086   3.389   0.909   5.513  1.1099  0.0952  0.7663
 1151SOL    HW215087   3.466   1.040   5.530 -3.5532  0.1914  0.1768
 1152SOL     OW15088   1.736   0.803   5.054 -0.1561  0.1697 -0.0891
 1152SOL    HW115089   1.712   0.769   5.140  0.8620  2.4002  1.0762
 1152SOL    HW215090   1.765   0.893   5.068 -1.8832  0.2228  3.1094
 1153SOL     OW15091   4.216   1.209   0.669 -0.4878  0.5896  0.0043
 1153SOL    HW115092   4.255   1.286   0.711 -0.7579 -0.8494  2.8771
 1153SOL    HW215093   4.123   1.205   0.691 -0.2684 -1.8809  0.5587
 1154SOL     OW15094   2.597   1.141  10.181  0.0823  0.0845  0.1396
 1154SOL    HW115095   2.645   1.176  10.255  0.6749 -0.3179 -0.0554
 1154SOL    HW215096   2.579   1.218  10.126 -1.0721  0.0807  0.5139
 1155SOL     OW15097   2.590   2.090   6.496 -0.0276  0.3339 -0.0320
 1155SOL    HW115098   2.520   2.148   6.466 -0.3702 -2.5334 -4.7727
 1155SOL    HW215099   2.632   2.089   6.410  3.0895  0.3960  1.5055
 1156SOL     OW15100   1.025   3.367   4.100  0.0227 -0.4260  0.0498
 1156SOL    HW115101   0.982   3.411   4.026  0.8746  0.2881 -0.0186
 1156SOL    HW215102   0.983   3.284   4.080 -1.7497  0.7574 -1.1379
 1157SOL     OW15103   0.791   4.133  15.682 -0.2583 -0.3164 -0.4792
 1157SOL    HW115104   0.823   4.204  15.625 -0.8835  0.4426  0.1059
 1157SOL    HW215105   0.718   4.171  15.731 -0.6186 -0.3749 -0.9691
 1158SOL     OW15106   4.342   4.700   7.970 -0.1087  0.0284  0.6358
 1158SOL    HW115107   4.305   4.633   7.913 -0.5591  1.8141 -1.2055
 1158SOL    HW215108   4.268   4.717   8.028 -0.8793  3.4558 -1.3622
 1159SOL     OW15109   3.420   1.778   4.144  0.3472  0.0354  0.4681
 1159SOL    HW115110   3.462   1.850   4.191 -0.3700  0.4314  0.4970
 1159SOL    HW215111   3.332   1.810   4.122  0.5481 -0.5260 -1.1301
 1160SOL     OW15112   3.244   0.447   4.405 -0.5007  0.0135 -0.0820
 1160SOL    HW115113   3.319   0.480   4.355 -0.4064 -0.2610 -0.1245
 1160SOL    HW215114   3.165   0.489   4.371  1.0093  1.0661 -2.2576
 1161SOL     OW15115   1.999   0.712   2.816 -0.1414  0.2961  0.4791
 1161SOL    HW115116   1.964   0.751   2.896  1.8192 -0.5830  1.7595
 1161SOL    HW215117   2.090   0.741   2.823  0.0629 -0.6518  1.6666
 1162SOL     OW15118   2.423   0.817   6.465 -0.0185  0.4355 -0.2037
 1162SOL    HW115119   2.493   0.854   6.518  0.7669 -0.3142 -0.7210
 1162SOL    HW215120   2.401   0.886   6.403  0.2711  0.6724 -0.0434
 1163SOL     OW15121   3.468   4.110   4.973 -0.1131 -0.6891  0.1684
 1163SOL    HW115122   3.490   4.112   5.066  1.2170 -1.5321 -0.1302
 1163SOL    HW215123   3.551   4.110   4.925 -0.2132 -0.5709 -0.0060
 1164SOL     OW15124   0.894   1.655  13.532  0.2549 -0.0455 -0.8475
 1164SOL    HW115125   0.970   1.713  13.522 -1.0765  2.0779  1.4339
 1164SOL    HW215126   0.907   1.592  13.461  1.6906 -1.0561  0.3296
 1165SOL     OW15127   4.635   2.713   4.134  0.0971  0.1521  0.2132
 1165SOL    HW115128   4.720   2.722   4.177 -0.1828  0.7829  0.6290
 1165SOL    HW215129   4.621   2.623   4.162 -1.4150  0.8722  1.7575
 1166SOL     OW15130   3.877   2.902   1.446 -0.5345 -1.1214 -0.3949
 1166SOL    HW115131   3.912   2.875   1.531 -4.1722  0.8961  1.7391
 1166SOL    HW215132   3.855   2.994   1.465  0.2737 -0.9201 -0.4530
 1167SOL     OW15133   2.537   3.085   1.044 -0.2069 -0.0786  0.2780
 1167SOL    HW115134   2.467   3.020   1.045 -2.0027  1.8806  0.8077
 1167SOL    HW215135   2.600   3.034   1.096 -1.6923 -0.7347  1.4320
 1168SOL     OW15136   3.167   0.118   4.821  0.1306  0.3386  0.2771
 1168SOL    HW115137   3.075   0.113   4.845  0.4760  0.0472  1.5366
 1168SOL    HW215138   3.167   0.172   4.742  3.3507  2.2111  1.4978
 1169SOL     OW15139   2.515   1.522   3.502  0.0886 -0.3368  0.2380
 1169SOL    HW115140   2.585   1.489   3.558  0.3842  0.5876  0.4063
 1169SOL    HW215141   2.558   1.587   3.447 -1.5054 -1.0926 -1.9201
 1170SOL     OW15142   4.560   0.940   6.434  0.2736 -0.2464 -0.2070
 1170SOL    HW115143   4.546   0.848   6.411 -1.8350 -0.1007  0.4477
 1170SOL    HW215144   4.652   0.949   6.412  0.7902 -0.8495  1.6888
 1171SOL     OW15145   3.265   1.165   4.262 -0.2921  0.0489 -0.5840
 1171SOL    HW115146   3.290   1.210   4.342 -1.1673 -0.4515 -0.0409
 1171SOL    HW215147   3.353   1.158   4.225  0.6854  1.3255  1.5131
 1172SOL     OW15148   3.440   2.679  17.547  0.1724  0.7333 -0.4625
 1172SOL    HW115149   3.364   2.737  17.547  0.2627  0.8627  1.5212
 1172SOL    HW215150   3.488   2.713  17.623 -0.1121 -0.4092  0.2189
 1173SOL     OW15151   2.143   4.244  10.079  0.0004  0.4638 -0.3488
 1173SOL    HW115152   2.065   4.281  10.038 -0.9292 -0.8482  0.2502
 1173SOL    HW215153   2.203   4.298  10.028  0.8340 -1.3020 -1.2289
 1174SOL     OW15154   0.901   2.012   3.860  0.1329  0.7397 -0.6236
 1174SOL    HW115155   0.973   1.967   3.817 -1.0911 -0.5549 -1.3204
 1174SOL    HW215156   0.879   2.076   3.793 -0.2493  0.2436 -0.9664
 1175SOL     OW15157   3.447   0.404  12.541  0.2883  0.1363 -0.1328
 1175SOL    HW115158   3.440   0.338  12.472 -0.1199 -0.7798  0.7827
 1175SOL    HW215159   3.362   0.449  12.541 -0.4216 -1.2350 -1.1402
 1176SOL     OW15160   2.606   0.942  10.435 -0.0077 -0.0156 -0.1738
 1176SOL    HW115161   2.655   1.017  10.402 -0.2778  0.0577 -0.4109
 1176SOL    HW215162   2.678   0.897  10.479  0.1021 -0.2799 -0.6184
 1177SOL     OW15163   1.509   1.348   4.402 -0.1025  0.0645  0.2194
 1177SOL    HW115164   1.460   1.271   4.374  1.4307 -1.0323  0.5547
 1177SOL    HW215165   1.585   1.346   4.344  0.0297 -0.3437  0.4090
 1178SOL     OW15166   1.255   3.009   2.258  0.1959 -0.0361 -0.5814
 1178SOL    HW115167   1.270   3.102   2.244  3.5254 -0.9185 -2.7546
 1178SOL    HW215168   1.184   2.984   2.199 -0.2290 -0.5455  0.1436
 1179SOL     OW15169   2.404   4.146   9.296  0.1430  0.0900 -0.3532
 1179SOL    HW115170   2.415   4.157   9.201  1.2027  0.7860 -0.1485
 1179SOL    HW215171   2.484   4.192   9.321 -0.6362 -0.6122  3.4095
 1180SOL     OW15172   2.107   1.379   8.528 -0.3778  0.2285  0.4653
 1180SOL    HW115173   2.197   1.406   8.550  0.3675  1.3311 -4.0653
 1180SOL    HW215174   2.129   1.308   8.468 -1.8712 -0.9093  1.2555
 1181SOL     OW15175   0.527   0.170  11.761 -0.0621 -0.0761 -0.2935
 1181SOL    HW115176   0.441   0.146  11.727 -0.6515  0.3078  0.9056
 1181SOL    HW215177   0.508   0.264  11.770  0.9328 -0.0218  1.2793
 1182SOL     OW15178   0.056   4.409   8.073 -0.0671 -0.1907 -0.1413
 1182SOL    HW115179   0.018   4.350   8.007 -1.6194 -0.7328  1.2213
 1182SOL    HW215180   4.717   4.469   8.082 -2.2097 -2.6990 -0.7548
 1183SOL     OW15181   3.703   0.683   2.499 -0.1859  0.0122  0.1192
 1183SOL    HW115182   3.737   0.764   2.538 -0.9896  0.7001 -0.5932
 1183SOL    HW215183   3.739   0.700   2.412  0.8362 -0.3390  0.4867
 1184SOL     OW15184   4.653   0.980   0.780 -0.1047 -0.1419  0.3845
 1184SOL    HW115185   4.629   1.070   0.757  3.5338  0.5742 -0.7658
 1184SOL    HW215186   4.568   0.938   0.771 -0.0879  0.0304 -0.6587
 1185SOL     OW15187   3.640   1.794   5.866 -0.3217 -0.3028  0.0405
 1185SOL    HW115188   3.662   1.813   5.774  1.1915 -0.4942  0.3603
 1185SOL    HW215189   3.563   1.739   5.853  0.0251 -0.6550 -0.5550
 1186SOL     OW15190   2.019   2.221  10.276 -0.5517 -0.1745 -1.0849
 1186SOL    HW115191   2.111   2.217  10.249  0.3936  1.3801  1.8113
 1186SOL    HW215192   1.988   2.160  10.210  0.6310  1.6701 -3.3438
 1187SOL     OW15193   2.409   1.593   2.479  0.2315 -0.1288 -0.4496
 1187SOL    HW115194   2.373   1.541   2.551  0.0007 -2.4110 -2.2425
 1187SOL    HW215195   2.331   1.601   2.424  0.9460 -3.1113 -1.8801
 1188SOL     OW15196   4.180   1.438   1.961  0.0388 -0.4590  0.3516
 1188SOL    HW115197   4.127   1.438   2.042 -3.5104  0.5736 -1.9752
 1188SOL    HW215198   4.174   1.529   1.932  1.1100 -0.8922 -1.2094
 1189SOL     OW15199   0.669   1.878   3.875  0.6156 -0.6933  0.4449
 1189SOL    HW115200   0.748   1.931   3.889 -0.8628  1.1333  1.7034
 1189SOL    HW215201   0.604   1.947   3.883  1.4212  0.0183  0.8844
 1190SOL     OW15202   0.098   0.806  16.463 -0.5262 -0.2912 -0.2277
 1190SOL    HW115203   0.020   0.804  16.407  0.1550  0.4091 -1.2018
 1190SOL    HW215204   0.070   0.785  16.552  0.9209 -3.2934 -0.4654
 1191SOL     OW15205   1.961   3.687  15.400  0.7607  0.0980  0.0182
 1191SOL    HW115206   1.978   3.615  15.460  0.9488  0.1759  0.0589
 1191SOL    HW215207   2.044   3.735  15.401  0.7237  0.1682 -0.9371
 1192SOL     OW15208   2.797   2.442  14.884 -0.3391  0.4486 -0.6908
 1192SOL    HW115209   2.816   2.520  14.936  1.1540 -0.9577  0.8450
 1192SOL    HW215210   2.888   2.422  14.862 -0.4795 -0.7664 -0.1327
 1193SOL     OW15211   4.220   1.830   2.196 -0.5368 -0.4914  0.1223
 1193SOL    HW115212   4.183   1.758   2.145 -0.3149  0.2136 -1.0505
 1193SOL    HW215213   4.143   1.881   2.221 -1.2259 -1.5094  0.0531
 1194SOL     OW15214   0.734   1.234   3.368 -0.3007 -0.0152 -0.2358
 1194SOL    HW115215   0.777   1.284   3.299 -2.4747  1.4492 -0.5431
 1194SOL    HW215216   0.790   1.158   3.383 -2.7535 -1.6867  0.3925
 1195SOL     OW15217   3.260   0.215   8.207  0.8595 -0.0991  0.4596
 1195SOL    HW115218   3.178   0.237   8.250  0.6057 -0.1170 -0.0222
 1195SOL    HW215219   3.237   0.217   8.115  1.0200  1.1408  0.4544
 1196SOL     OW15220   4.006   1.256  12.903 -0.0274  0.3869 -0.0905
 1196SOL    HW115221   4.089   1.285  12.867  0.2944 -1.4290 -0.8195
 1196SOL    HW215222   4.012   1.162  12.883 -2.8993  0.0474  0.6605
 1197SOL     OW15223   3.950   4.635   3.846  0.5719 -0.3028  0.4412
 1197SOL    HW115224   3.864   4.593   3.839 -0.3857  1.4309  1.8224
 1197SOL    HW215225   3.978   4.620   3.756  1.8072  0.1223  0.7593
 1198SOL     OW15226   3.440   3.818  12.939  0.3841 -0.4610 -0.0744
 1198SOL    HW115227   3.482   3.898  12.906 -0.7183 -0.7542 -2.1549
 1198SOL    HW215228   3.466   3.753  12.875 -0.3189 -0.4509 -0.3676
 1199SOL     OW15229   4.368   1.350   6.145  0.0008  0.3847  0.6135
 1199SOL    HW115230   4.444   1.380   6.096 -0.3191 -1.2977 -0.9336
 1199SOL    HW215231   4.373   1.412   6.218  0.7344 -0.7502  1.5295
 1200SOL     OW15232   4.589   2.686  15.038 -0.1462  0.0369  0.1338
 1200SOL    HW115233   4.624   2.758  15.089  0.6385 -1.6853  2.0302
 1200SOL    HW215234   4.637   2.618  15.085  2.1633  1.1535 -0.6408
 1201SOL     OW15235   3.801   4.002   3.042  0.6334 -0.8264 -0.4677
 1201SOL    HW115236   3.827   4.082   3.087  0.6273 -0.0841 -1.7708
 1201SOL    HW215237   3.868   4.017   2.974  1.2632 -3.0290 -0.3556
 1202SOL     OW15238   1.236   0.586  15.768  0.1205 -0.7060  0.1225
 1202SOL    HW115239   1.233   0.508  15.714 -0.5841 -0.4305 -0.2461
 1202SOL    HW215240   1.252   0.542  15.852 -3.3615 -0.9954  0.6591
 1203SOL     OW15241   4.366   3.453   2.652  0.2640  0.4060  0.5194
 1203SOL    HW115242   4.381   3.510   2.576 -1.8230 -1.5370 -1.3766
 1203SOL    HW215243   4.284   3.475   2.695 -0.6662 -0.7464 -0.6612
 1204SOL     OW15244   3.503   4.193   3.992  0.4238 -0.0671 -0.3308
 1204SOL    HW115245   3.551   4.223   4.069 -0.1123  1.0275 -0.4183
 1204SOL    HW215246   3.444   4.123   4.018  1.3277 -0.5498  0.4192
 1205SOL     OW15247   3.469   3.944   2.600  0.4632 -0.7698  0.4506
 1205SOL    HW115248   3.442   4.011   2.663 -0.0108 -0.3055 -0.2325
 1205SOL    HW215249   3.557   3.922   2.630  0.8296  1.8287  1.3119
 1206SOL     OW15250   4.450   0.925   1.709  0.0394  0.0898 -0.1377
 1206SOL    HW115251   4.446   0.966   1.622  1.3905 -0.2557 -0.3548
 1206SOL    HW215252   4.496   0.997   1.753 -0.2568  1.2166 -1.6641
 1207SOL     OW15253   1.115   3.993   0.692  0.2891 -0.4075 -0.7250
 1207SOL    HW115254   1.026   4.005   0.657  0.0839  0.5196  0.1005
 1207SOL    HW215255   1.087   3.946   0.770 -1.2073  0.7620 -0.5343
 1208SOL     OW15256   4.155   3.962   0.632 -0.1300 -0.0991  0.0119
 1208SOL    HW115257   4.064   3.973   0.661 -0.3373 -1.4299 -0.0984
 1208SOL    HW215258   4.141   4.012   0.552 -0.4814 -3.4629 -2.0657
 1209SOL     OW15259   2.713   2.214  10.468  0.1711  0.3450  0.9622
 1209SOL    HW115260   2.748   2.134  10.507  0.4340  0.0828  0.1846
 1209SOL    HW215261   2.779   2.283  10.475  0.2966  0.5790 -2.5735
 1210SOL     OW15262   2.138   1.384   0.688 -0.1639  0.1011 -0.1465
 1210SOL    HW115263   2.132   1.389   0.783  0.7471 -3.1574  0.0814
 1210SOL    HW215264   2.054   1.421   0.661  1.2047  2.8702 -0.6741
 1211SOL     OW15265   1.376   0.493  17.249  0.0139 -0.7496 -0.0006
 1211SOL    HW115266   1.457   0.443  17.252  0.9379  0.6975 -0.7135
 1211SOL    HW215267   1.305   0.429  17.259 -0.5147 -0.1992 -0.2006
 1212SOL     OW15268   0.211   1.792   4.362 -0.4868  0.4053 -0.0813
 1212SOL    HW115269   0.118   1.769   4.357 -0.4773  0.7987 -1.8953
 1212SOL    HW215270   0.220   1.856   4.292 -0.3881  1.4227  0.8746
 1213SOL     OW15271   4.161   1.486   9.213 -0.0332 -0.6200  0.1657
 1213SOL    HW115272   4.087   1.447   9.261  0.2489  0.6521  1.6220
 1213SOL    HW215273   4.178   1.419   9.147  0.0454 -0.2270 -0.2121
 1214SOL     OW15274   2.749   4.495  15.536 -0.0043 -0.5667  0.0994
 1214SOL    HW115275   2.785   4.498  15.624 -0.0235 -2.2413  0.1575
 1214SOL    HW215276   2.835   4.495  15.495 -0.5334  0.4431 -1.0326
 1215SOL     OW15277   0.572   0.583   9.785  0.0088  0.4888  0.1082
 1215SOL    HW115278   0.559   0.519   9.855  1.9550 -0.7320 -0.6351
 1215SOL    HW215279   0.616   0.657   9.825 -0.6151  0.5426  0.6945
 1216SOL     OW15280   2.215   1.113   2.950 -0.5353 -0.3412 -0.5551
 1216SOL    HW115281   2.247   1.033   2.908  1.9588  1.0255 -1.2819
 1216SOL    HW215282   2.282   1.129   3.017 -2.0664 -1.6913  1.2988
 1217SOL     OW15283   3.279   2.415   8.993 -0.1811 -0.6250 -0.0093
 1217SOL    HW115284   3.222   2.462   8.933 -1.4072 -2.6954 -0.4414
 1217SOL    HW215285   3.347   2.376   8.937 -1.7121  0.6477 -2.7439
 1218SOL     OW15286   1.805   2.969  11.414  0.4763 -0.3409 -0.4854
 1218SOL    HW115287   1.786   3.006  11.500 -0.8502 -2.1125 -0.0099
 1218SOL    HW215288   1.863   3.032  11.371 -0.5512  0.5853 -0.5292
 1219SOL     OW15289   2.138   3.663   6.663  0.4497  0.1475 -0.2890
 1219SOL    HW115290   2.190   3.588   6.636 -2.6072 -1.4757 -1.6024
 1219SOL    HW215291   2.190   3.711   6.728 -2.1074 -2.2653  3.5549
 1220SOL     OW15292   2.036   4.042  16.648 -0.2296 -0.6725  0.2435
 1220SOL    HW115293   2.098   4.116  16.653  0.9623 -1.6153 -0.4138
 1220SOL    HW215294   1.964   4.076  16.596  1.8477 -0.2160 -2.3800
 1221SOL     OW15295   4.006   2.087   4.900  0.5731  0.2780  0.1106
 1221SOL    HW115296   3.955   2.010   4.924  0.7343 -0.4315 -1.7826
 1221SOL    HW215297   3.949   2.126   4.833  1.6721 -1.6440 -1.9508
 1222SOL     OW15298   3.344   4.241   0.321 -0.6776  0.3383 -0.2999
 1222SOL    HW115299   3.316   4.330   0.302 -0.4041  0.4865 -0.0064
 1222SOL    HW215300   3.265   4.188   0.322  0.1474 -0.7981  3.0791
 1223SOL     OW15301   3.317   4.417  12.032  0.0613  0.0930 -0.7995
 1223SOL    HW115302   3.240   4.469  12.008 -0.8289  0.6287  3.1517
 1223SOL    HW215303   3.284   4.366  12.107  1.1629 -1.3397 -1.2838
 1224SOL     OW15304   0.832   4.123  14.394 -0.3203  0.4323  0.0078
 1224SOL    HW115305   0.890   4.123  14.318 -0.3682 -0.8778 -0.0336
 1224SOL    HW215306   0.776   4.199  14.377  2.5534  2.2722 -1.2662
 1225SOL     OW15307   1.739   3.912   1.769  0.1088  0.8066 -0.7871
 1225SOL    HW115308   1.775   3.858   1.698 -0.5738 -2.5496  1.4262
 1225SOL    HW215309   1.681   3.847   1.808 -1.0134  2.2437 -0.0472
 1226SOL     OW15310   3.009   1.870  16.670  0.7902  0.1196  0.1561
 1226SOL    HW115311   3.019   1.900  16.760 -0.3632  0.7752  0.0602
 1226SOL    HW215312   3.013   1.775  16.683  0.9849 -0.3274 -3.2606
 1227SOL     OW15313   4.531   2.798   3.105 -0.1494  0.5090  0.4398
 1227SOL    HW115314   4.498   2.826   3.190 -1.0751 -1.5379  0.7465
 1227SOL    HW215315   4.606   2.746   3.135 -0.3041 -0.4738 -0.8861
 1228SOL     OW15316   4.014   2.287   4.690 -0.7284  0.0778 -1.0710
 1228SOL    HW115317   4.022   2.372   4.646 -0.0268  0.5339 -0.0413
 1228SOL    HW215318   3.937   2.301   4.746 -0.9652  1.7156 -1.8053
 1229SOL     OW15319   1.369   3.253   4.313  0.4914 -0.2325 -0.5562
 1229SOL    HW115320   1.425   3.323   4.345  0.8427 -0.9627  0.4341
 1229SOL    HW215321   1.439   3.188   4.307 -0.2178 -0.9449 -1.1799
 1230SOL     OW15322   2.616   2.066  15.904 -0.4914  0.3601 -0.2691
 1230SOL    HW115323   2.621   2.113  15.820 -0.6774  0.3348 -0.2942
 1230SOL    HW215324   2.548   2.116  15.950 -0.7564  0.6205 -0.9457
 1231SOL     OW15325   2.181   4.403   9.676  0.1818  0.4290 -0.4017
 1231SOL    HW115326   2.212   4.314   9.659 -1.5572 -0.2356 -0.0809
 1231SOL    HW215327   2.197   4.450   9.595 -2.3201  1.1151 -0.4915
 1232SOL     OW15328   0.005   0.091   4.029 -0.5378  0.2842 -0.4101
 1232SOL    HW115329   4.731   0.177   3.988  1.1048  0.9441  0.6275
 1232SOL    HW215330   0.017   0.109   4.122 -1.3036 -0.2444 -0.2042
 1233SOL     OW15331   1.985   3.090   4.437  0.1481  0.0752  0.1881
 1233SOL    HW115332   1.919   3.026   4.410  1.2612 -0.9536 -0.1063
 1233SOL    HW215333   1.937   3.170   4.416  0.6795  0.0483 -1.1862
 1234SOL     OW15334   1.028   0.281   0.418 -0.0636 -0.1584  0.1790
 1234SOL    HW115335   0.956   0.343   0.427 -0.2822 -0.2333 -1.0538
 1234SOL    HW215336   1.039   0.270   0.323 -1.2100  2.0726 -0.1895
 1235SOL     OW15337   0.624   3.749   6.363 -0.0472 -0.2924  0.3306
 1235SOL    HW115338   0.609   3.654   6.365 -0.1478 -0.3132 -1.5363
 1235SOL    HW215339   0.588   3.770   6.450 -0.7651  0.4993 -0.1586
 1236SOL     OW15340   1.256   0.232   8.081  0.0545 -0.1666 -0.1590
 1236SOL    HW115341   1.183   0.266   8.132 -0.9821  0.9383 -2.3566
 1236SOL    HW215342   1.231   0.254   7.991  0.0947 -2.3111 -0.6972
 1237SOL     OW15343   2.585   1.284   7.178  0.4753 -0.2866  0.5704
 1237SOL    HW115344   2.556   1.332   7.100  0.2770  0.5446  1.1552
 1237SOL    HW215345   2.586   1.360   7.235  0.8645  1.2508 -1.4631
 1238SOL     OW15346   4.414   3.287   4.362  0.4444  0.2483 -0.1844
 1238SOL    HW115347   4.482   3.262   4.424 -0.0204 -0.3400  0.0957
 1238SOL    HW215348   4.335   3.264   4.410  0.5261  2.6703  1.0910
 1239SOL     OW15349   1.291   0.585   4.497 -0.2459 -0.1611  0.3582
 1239SOL    HW115350   1.217   0.630   4.457  0.7493 -0.6726 -2.1139
 1239SOL    HW215351   1.264   0.593   4.588 -0.4680 -1.8401  0.4497
 1240SOL     OW15352   1.134   1.033  12.251  0.6062  0.1245 -0.2498
 1240SOL    HW115353   1.114   0.942  12.271  0.6556  0.8236  2.8500
 1240SOL    HW215354   1.173   1.016  12.165  1.6857  1.1297  0.0413
 1241SOL     OW15355   1.209   1.459   6.002  0.2469 -0.3053 -0.2787
 1241SOL    HW115356   1.245   1.547   6.004 -1.3705  0.4102 -2.0484
 1241SOL    HW215357   1.281   1.404   6.032 -1.2714 -0.7635  2.5001
 1242SOL     OW15358   3.942   4.115   5.027  0.3999 -0.0012  0.0229
 1242SOL    HW115359   3.953   4.136   5.120  2.2660  0.0521 -0.2175
 1242SOL    HW215360   4.032   4.137   5.001  0.7417  0.0098  1.2277
 1243SOL     OW15361   0.427   3.226   2.921 -0.0569 -0.2285 -0.0237
 1243SOL    HW115362   0.491   3.294   2.939  1.3151 -0.6851 -3.2425
 1243SOL    HW215363   0.347   3.279   2.922  1.0369  1.4205 -0.4449
 1244SOL     OW15364   1.234   3.964   7.544 -0.0857  0.0486  0.2880
 1244SOL    HW115365   1.248   3.869   7.544 -1.6261 -0.1801  1.2615
 1244SOL    HW215366   1.323   3.998   7.530  0.2803 -1.3322 -0.7254
 1245SOL     OW15367   4.510   3.665   8.347  0.4680 -0.0206 -0.4179
 1245SOL    HW115368   4.510   3.573   8.373  2.8997  0.4245  1.1612
 1245SOL    HW215369   4.423   3.676   8.310 -0.4582  0.4795  1.9501
 1246SOL     OW15370   0.964   4.558   5.537 -0.0158 -0.3407  0.2145
 1246SOL    HW115371   0.991   4.544   5.446  2.0003  0.4043  0.7100
 1246SOL    HW215372   1.047   4.564   5.584  0.2484 -1.1350 -0.1518
 1247SOL     OW15373   4.327   2.495   4.623  0.4735 -0.8196  0.2784
 1247SOL    HW115374   4.378   2.429   4.669  1.3944 -1.2899 -1.4205
 1247SOL    HW215375   4.349   2.576   4.668 -0.1911  1.0075 -2.6739
 1248SOL     OW15376   3.678   2.846   8.762 -0.0879  0.6274  0.2169
 1248SOL    HW115377   3.586   2.821   8.752  0.8330 -3.1320  1.0563
 1248SOL    HW215378   3.694   2.894   8.681  2.0440  0.6527  0.6483
 1249SOL     OW15379   1.923   2.099   3.347  0.4107  0.3255  0.6892
 1249SOL    HW115380   1.865   2.027   3.370  0.4136  0.3066  0.6367
 1249SOL    HW215381   1.914   2.110   3.253 -0.0362  0.1237  0.7099
 1250SOL     OW15382   2.045   0.403   6.415  0.0477  0.0150  0.0185
 1250SOL    HW115383   2.107   0.332   6.428 -0.8997 -0.6317  1.0709
 1250SOL    HW215384   2.066   0.456   6.492  2.9403 -0.6175 -0.3394
 1251SOL     OW15385   0.496   2.241   4.722 -0.2802  0.2110  0.1122
 1251SOL    HW115386   0.490   2.234   4.818  1.1725  0.9628  0.2627
 1251SOL    HW215387   0.403   2.242   4.699  0.0995 -2.0867 -1.4889
 1252SOL     OW15388   0.208   2.202   5.358 -0.9921 -0.3063  0.3992
 1252SOL    HW115389   0.217   2.292   5.326 -4.0042 -0.2809 -0.3194
 1252SOL    HW215390   0.147   2.215   5.430 -0.0843  3.1793  0.5487
 1253SOL     OW15391   3.465   1.346   4.633  0.3948  0.0200  0.8415
 1253SOL    HW115392   3.546   1.387   4.664  0.8857 -0.4207  0.1238
 1253SOL    HW215393   3.448   1.375   4.544 -0.0779  0.5434  1.0987
 1254SOL     OW15394   1.646   3.906   4.756  0.2038 -0.5155 -0.3814
 1254SOL    HW115395   1.670   3.820   4.720  1.5495  0.0064 -0.6923
 1254SOL    HW215396   1.722   3.963   4.750  1.9481 -2.4859  2.8615
 1255SOL     OW15397   1.455   0.708   2.953 -0.5743  0.3616 -0.3411
 1255SOL    HW115398   1.524   0.647   2.927  0.1639  1.0396  0.0392
 1255SOL    HW215399   1.472   0.782   2.895  0.7075  1.1541  1.0458
 1256SOL     OW15400   4.009   2.246  17.564  0.1243  0.2207  0.2249
 1256SOL    HW115401   4.005   2.331  17.607  1.1140  0.2727  0.2136
 1256SOL    HW215402   3.994   2.181  17.633 -0.8028  2.2582  1.9671
 1257SOL     OW15403   0.066   0.923  14.825  0.6218 -0.5507  0.5534
 1257SOL    HW115404   0.120   1.002  14.815 -1.0378  0.0039 -3.8597
 1257SOL    HW215405   4.710   0.950  14.830  1.0673  0.6711  2.4207
 1258SOL     OW15406   3.153   1.509   4.760  0.0110 -0.3834  0.3730
 1258SOL    HW115407   3.233   1.461   4.781  0.8708  0.1785 -1.6537
 1258SOL    HW215408   3.087   1.443   4.782  1.9536 -2.7472 -1.0409
 1259SOL     OW15409   3.166   2.409   2.073  0.2584 -0.0640  0.0077
 1259SOL    HW115410   3.129   2.493   2.101 -0.0609  0.8232 -2.9785
 1259SOL    HW215411   3.101   2.346   2.103  0.0181  0.4992  0.6882
 1260SOL     OW15412   3.216   0.898   4.006 -0.2033  0.0708 -0.1402
 1260SOL    HW115413   3.167   0.820   3.980  2.4641 -2.2550  1.7926
 1260SOL    HW215414   3.248   0.869   4.092  1.3203 -0.2768 -0.8335
 1261SOL     OW15415   4.437   1.440   3.920 -0.0017  0.1442 -0.1535
 1261SOL    HW115416   4.462   1.404   4.006 -0.2346  1.7017  0.5736
 1261SOL    HW215417   4.344   1.462   3.920 -0.2648 -0.9647 -0.1102
 1262SOL     OW15418   3.087   3.429  16.501  0.0231  0.0847 -0.0769
 1262SOL    HW115419   3.182   3.438  16.495  0.1771 -1.2158  0.5305
 1262SOL    HW215420   3.069   3.466  16.587  3.4808 -2.2678  1.6557
 1263SOL     OW15421   1.845   2.800  12.277 -0.2641  0.3867  0.0159
 1263SOL    HW115422   1.759   2.828  12.306  0.9110  1.7131  2.1877
 1263SOL    HW215423   1.869   2.735  12.342  1.6790  0.4970 -0.5712
 1264SOL     OW15424   4.369   1.796   8.906 -0.3616 -0.3510  0.3061
 1264SOL    HW115425   4.293   1.838   8.947 -0.7149 -1.6694  1.0131
 1264SOL    HW215426   4.337   1.719   8.859 -0.5118 -0.3695  0.4376
 1265SOL     OW15427   0.887   1.460   3.228 -0.6175 -0.3111 -0.1369
 1265SOL    HW115428   0.823   1.466   3.157  1.9848 -0.1881 -2.4770
 1265SOL    HW215429   0.912   1.553   3.226  1.7050 -0.9777 -1.6067
 1266SOL     OW15430   3.987   4.290  12.613 -0.7605 -0.2916  0.0591
 1266SOL    HW115431   3.911   4.255  12.565  0.9754 -0.8661 -2.2522
 1266SOL    HW215432   4.043   4.215  12.631  1.0413  1.1975  0.6423
 1267SOL     OW15433   4.687   3.311   7.807 -0.6953 -0.5287  0.0494
 1267SOL    HW115434   4.630   3.338   7.879  0.2515 -0.7706  0.8828
 1267SOL    HW215435   4.685   3.386   7.748 -1.6929 -1.4497 -1.0822
 1268SOL     OW15436   1.768   2.435   1.176  0.2870  0.3091 -0.0887
 1268SOL    HW115437   1.700   2.409   1.114 -0.4187  0.9858  0.4012
 1268SOL    HW215438   1.742   2.401   1.262  0.3852  0.9795  0.2076
 1269SOL     OW15439   0.444   0.164   2.675 -0.3593  0.0766  0.2059
 1269SOL    HW115440   0.427   0.120   2.758 -1.2282  1.3810  0.7356
 1269SOL    HW215441   0.413   0.252   2.698  2.3464  0.9379  0.5926
 1270SOL     OW15442   1.884   2.500   9.220 -0.4953  0.2441 -0.2664
 1270SOL    HW115443   1.975   2.515   9.193 -0.9894  2.0166 -0.9612
 1270SOL    HW215444   1.873   2.412   9.184  5.4436 -0.9544  0.8152
 1271SOL     OW15445   1.651   1.225   7.582 -0.5710 -0.0341  0.1338
 1271SOL    HW115446   1.623   1.211   7.492 -1.3235 -0.2429  0.4023
 1271SOL    HW215447   1.641   1.137   7.619  2.5865  0.2776  1.7499
 1272SOL     OW15448   0.681   3.702   7.493 -0.2407 -0.0760 -0.7530
 1272SOL    HW115449   0.702   3.718   7.402 -0.0972 -0.0376 -0.7130
 1272SOL    HW215450   0.728   3.775   7.533 -1.2940  2.2983 -3.8699
 1273SOL     OW15451   0.970   1.860   2.475  0.2780  0.0255  0.1416
 1273SOL    HW115452   1.061   1.829   2.480 -0.0472 -1.4374 -3.0664
 1273SOL    HW215453   0.986   1.945   2.434 -1.7549  1.1249  1.6409
 1274SOL     OW15454   3.289   2.229  13.274  0.1119  0.1082 -0.2887
 1274SOL    HW115455   3.300   2.305  13.331 -0.7403  0.1480 -0.1770
 1274SOL    HW215456   3.320   2.275  13.196 -1.0692  0.5876 -0.4751
 1275SOL     OW15457   3.459   2.791   1.976 -0.2547  0.0530  0.3391
 1275SOL    HW115458   3.520   2.831   2.038 -1.2355  0.0226  1.3223
 1275SOL    HW215459   3.406   2.869   1.959 -0.7043  0.0841  1.9242
 1276SOL     OW15460   0.869   4.261   5.904 -0.0980  0.4980 -0.4670
 1276SOL    HW115461   0.921   4.203   5.848  0.9824  2.3672 -1.4339
 1276SOL    HW215462   0.805   4.295   5.842 -0.1827  2.0910  0.4911
 1277SOL     OW15463   0.529   2.857   8.463  0.4436 -0.8025  0.1220
 1277SOL    HW115464   0.497   2.928   8.408  0.6993 -0.4765  0.3899
 1277SOL    HW215465   0.446   2.810   8.466 -0.7719  1.3448  0.6975
 1278SOL     OW15466   0.625   1.434   0.600 -0.3188 -0.4000  0.6409
 1278SOL    HW115467   0.655   1.354   0.643  0.1306 -0.2808  0.5513
 1278SOL    HW215468   0.669   1.508   0.643 -0.3422 -0.0502  0.0651
 1279SOL     OW15469   3.434   1.684   1.787 -0.2408  0.0920 -0.8875
 1279SOL    HW115470   3.364   1.682   1.722 -0.8666  1.1062 -0.2460
 1279SOL    HW215471   3.457   1.777   1.781  2.3814 -0.4311  0.9276
 1280SOL     OW15472   0.298   2.051   5.072  0.5070  0.1775  0.2823
 1280SOL    HW115473   0.243   1.974   5.083 -1.0718  1.4460  1.2998
 1280SOL    HW215474   0.241   2.128   5.062  0.9800  0.2150 -2.1414
 1281SOL     OW15475   4.532   3.348   3.478 -0.4407 -0.2658  0.4956
 1281SOL    HW115476   4.581   3.306   3.548  2.3328  2.1859  0.0293
 1281SOL    HW215477   4.511   3.272   3.422  0.7155 -2.8257  3.5560
 1282SOL     OW15478   3.059   2.602   4.303  0.7737  0.4788  0.3219
 1282SOL    HW115479   3.080   2.509   4.307  3.0817  0.9492 -0.5237
 1282SOL    HW215480   3.091   2.622   4.215  0.0217 -1.4348 -0.3666
 1283SOL     OW15481   1.110   2.369   1.605 -0.0389  0.2045 -0.0181
 1283SOL    HW115482   1.029   2.378   1.555 -0.2021  2.1720  0.6101
 1283SOL    HW215483   1.081   2.353   1.695  1.8835  1.7125  0.8852
 1284SOL     OW15484   1.765   2.999   2.010 -0.6471  0.5553  0.1489
 1284SOL    HW115485   1.817   3.009   1.929  0.5026 -0.8242  0.7281
 1284SOL    HW215486   1.831   3.022   2.075  0.9504 -1.6045 -0.6977
 1285SOL     OW15487   1.648   1.373   3.856  0.6465 -0.0511  0.4135
 1285SOL    HW115488   1.618   1.283   3.846 -0.3909  0.1745  1.5380
 1285SOL    HW215489   1.719   1.357   3.919  1.3526 -0.9098 -0.6016
 1286SOL     OW15490   2.683   2.041   5.797  0.1550  0.1298 -0.0950
 1286SOL    HW115491   2.772   2.067   5.773 -0.3162  1.2845 -0.5511
 1286SOL    HW215492   2.704   1.973   5.861 -1.1438 -0.3218 -0.1499
 1287SOL     OW15493   2.614   3.552   0.914 -0.1532  0.0117  0.1059
 1287SOL    HW115494   2.624   3.579   1.006  0.1240 -1.4610  0.5145
 1287SOL    HW215495   2.639   3.637   0.879  0.9616  0.0287  0.9209
 1288SOL     OW15496   3.834   3.255  16.827  0.0832  0.0019  0.8101
 1288SOL    HW115497   3.787   3.239  16.908 -3.0080 -1.8683 -1.3640
 1288SOL    HW215498   3.925   3.258  16.858  0.3772  0.4497 -0.0888
 1289SOL     OW15499   1.039   1.643   5.691 -0.1356  0.5657  0.3460
 1289SOL    HW115500   1.115   1.683   5.732 -0.5655  1.1502  0.5807
 1289SOL    HW215501   1.022   1.690   5.609  3.3430  0.6029 -0.3283
 1290SOL     OW15502   0.191   4.431  14.120 -0.4926  0.5586 -0.5168
 1290SOL    HW115503   0.157   4.518  14.138 -3.0030 -0.6765  0.6657
 1290SOL    HW215504   0.261   4.425  14.185 -0.5591 -2.9560 -0.7885
 1291SOL     OW15505   0.392   1.841   7.990 -0.5567 -0.0791  0.4854
 1291SOL    HW115506   0.319   1.797   8.032 -0.8148 -0.1402 -0.0237
 1291SOL    HW215507   0.465   1.811   8.045  1.6628 -2.2244 -3.5263
 1292SOL     OW15508   3.644   0.226   5.582 -0.1771  0.0605  0.1120
 1292SOL    HW115509   3.604   0.287   5.644  0.3995  0.7009 -0.1364
 1292SOL    HW215510   3.736   0.253   5.576 -0.8267  1.8062 -2.4614
 1293SOL     OW15511   2.200   0.083   0.272 -0.5141  0.0803  0.4949
 1293SOL    HW115512   2.233   0.006   0.225  0.3596  1.2640 -0.8533
 1293SOL    HW215513   2.209   0.149   0.203 -0.2224 -0.8204 -0.3207
 1294SOL     OW15514   4.082   4.185   4.093 -0.3191 -0.2499  0.0938
 1294SOL    HW115515   4.037   4.183   4.177  2.0112  0.8948  1.3718
 1294SOL    HW215516   4.010   4.199   4.032 -0.2341 -0.8674 -0.1489
 1295SOL     OW15517   1.535   0.289   8.178  0.0794  0.1238  0.3959
 1295SOL    HW115518   1.542   0.245   8.263 -0.8307 -0.8726 -0.0440
 1295SOL    HW215519   1.459   0.253   8.132  0.8378  1.5160 -1.9124
 1296SOL     OW15520   0.809   0.748  17.307 -0.0689  0.0587 -0.3791
 1296SOL    HW115521   0.714   0.756  17.320 -0.1064 -0.2241 -0.4900
 1296SOL    HW215522   0.825   0.829  17.258 -0.2274  0.2911 -0.0481
 1297SOL     OW15523   0.158   4.585   4.498 -0.4849  0.2112 -0.2074
 1297SOL    HW115524   0.100   4.610   4.570 -0.8221 -0.2133 -0.3282
 1297SOL    HW215525   0.237   4.630   4.528  0.1789 -0.3601 -1.1026
 1298SOL     OW15526   2.310   3.480   7.077 -0.5677  0.6007  0.0072
 1298SOL    HW115527   2.373   3.518   7.138  0.0958 -2.8552  1.4519
 1298SOL    HW215528   2.348   3.520   6.999 -0.1313  0.2837  0.0564
 1299SOL     OW15529   1.888   4.656   4.260 -0.4084 -0.6664 -0.0262
 1299SOL    HW115530   1.946   4.681   4.188  0.0959  0.1467  0.6646
 1299SOL    HW215531   1.944   4.660   4.337 -0.1390  0.6146 -0.2761
 1300SOL     OW15532   3.092   1.230   3.537 -0.3796  0.8702  0.1893
 1300SOL    HW115533   3.124   1.303   3.485 -0.7924 -0.2242 -1.6145
 1300SOL    HW215534   3.006   1.226   3.495  0.2680 -1.7685 -0.8822
 1301SOL     OW15535   0.148   2.216   8.495  0.3294 -0.2228 -0.4031
 1301SOL    HW115536   0.102   2.163   8.560  0.1967 -0.8799 -1.0345
 1301SOL    HW215537   0.075   2.241   8.438 -1.3715  0.6652  2.1832
 1302SOL     OW15538   1.894   2.253   2.508  0.6050 -0.4222 -0.4461
 1302SOL    HW115539   1.913   2.204   2.427  4.0651 -1.1890  0.8164
 1302SOL    HW215540   1.826   2.307   2.469  1.4306 -0.2912 -1.7214
 1303SOL     OW15541   3.514   3.687   9.576  0.1421  0.7973  0.0862
 1303SOL    HW115542   3.550   3.604   9.607 -1.1247 -0.5253 -1.9606
 1303SOL    HW215543   3.586   3.750   9.574  0.4162  0.4808  0.1218
 1304SOL     OW15544   3.213   1.537   7.771  0.3744  0.5013 -0.2027
 1304SOL    HW115545   3.238   1.464   7.715  0.0766 -2.1031  3.0631
 1304SOL    HW215546   3.236   1.508   7.859 -0.0191  0.2872 -0.1692
 1305SOL     OW15547   0.984   1.942  10.948  0.2419  0.3999  0.2666
 1305SOL    HW115548   0.997   1.968  11.039  0.9521  0.6744  0.0809
 1305SOL    HW215549   0.902   1.991  10.935  0.0750 -0.2640 -1.1656
 1306SOL     OW15550   1.039   3.609  15.452 -0.2023  0.4265  0.1718
 1306SOL    HW115551   0.972   3.674  15.473 -0.0196  0.2600  1.2789
 1306SOL    HW215552   0.988   3.562  15.386 -2.0651 -0.4564  2.1895
 1307SOL     OW15553   1.725   4.598  11.614 -0.8909  0.1903  0.1835
 1307SOL    HW115554   1.747   4.581  11.705  3.3560 -0.4586 -0.9359
 1307SOL    HW215555   1.779   4.538  11.562 -0.2390  0.2023  0.8580
 1308SOL     OW15556   1.486   1.331  17.239 -0.5371 -0.1648  0.1725
 1308SOL    HW115557   1.476   1.249  17.288  3.0231 -1.1187 -0.6100
 1308SOL    HW215558   1.522   1.294  17.157 -2.4566  0.5931 -0.9911
 1309SOL     OW15559   3.238   2.698   7.278 -0.7211 -0.1865  0.6177
 1309SOL    HW115560   3.235   2.680   7.184  1.6229  1.5412  0.2329
 1309SOL    HW215561   3.333   2.694   7.287 -0.8524 -1.9213  1.1712
 1310SOL     OW15562   0.797   2.528  16.637  0.2880 -0.1990  0.4525
 1310SOL    HW115563   0.838   2.498  16.556  0.8053 -1.1385  1.0657
 1310SOL    HW215564   0.708   2.547  16.608  0.0956  0.5954  1.5536
 1311SOL     OW15565   4.366   4.678  12.393 -0.0030  0.0803  0.0978
 1311SOL    HW115566   4.365   4.599  12.448  1.0591 -1.2357 -1.7580
 1311SOL    HW215567   4.459   4.696  12.403  0.4520 -3.2443  1.9394
 1312SOL     OW15568   2.706   2.433   6.733 -0.0940 -0.0115 -0.4944
 1312SOL    HW115569   2.650   2.500   6.771 -0.8340 -1.2107  0.5335
 1312SOL    HW215570   2.705   2.366   6.802 -0.7222  2.0411  1.4651
 1313SOL     OW15571   2.631   3.788   5.706 -0.0379 -0.4941 -0.0235
 1313SOL    HW115572   2.682   3.721   5.661 -0.3277 -0.2431 -0.7354
 1313SOL    HW215573   2.541   3.756   5.696 -0.4980  1.1508 -1.2241
 1314SOL     OW15574   3.051   4.313   2.391  0.3116 -0.1184 -0.9005
 1314SOL    HW115575   3.027   4.379   2.456  1.9821 -1.1900  0.8233
 1314SOL    HW215576   3.054   4.237   2.450  0.9352  1.6663  1.3669
 1315SOL     OW15577   2.496   3.840   6.598 -0.0046 -0.4605  0.1831
 1315SOL    HW115578   2.557   3.765   6.595  0.0195 -0.5292  2.7151
 1315SOL    HW215579   2.412   3.796   6.609  0.3340 -1.6520 -1.8493
 1316SOL     OW15580   4.084   4.496  12.442 -0.2419  0.3007 -0.2712
 1316SOL    HW115581   4.058   4.417  12.490 -1.3539  1.1620  0.5498
 1316SOL    HW215582   4.160   4.468  12.391 -1.9202 -1.1663 -1.9989
 1317SOL     OW15583   2.693   1.765  11.373  0.2848  0.4690  0.4735
 1317SOL    HW115584   2.719   1.836  11.315  0.5935 -0.2268 -0.2451
 1317SOL    HW215585   2.686   1.694  11.309 -1.0163  1.4749 -0.5076
 1318SOL     OW15586   2.738   2.661  11.352 -0.5212  0.0195 -0.2452
 1318SOL    HW115587   2.684   2.737  11.371  0.0709 -0.4402  3.2108
 1318SOL    HW215588   2.823   2.685  11.388 -0.3125  0.4858 -1.0422
 1319SOL     OW15589   4.065   1.007  12.505 -0.9375  0.3739  0.2504
 1319SOL    HW115590   4.155   1.003  12.538 -0.5277  0.0510 -0.9316
 1319SOL    HW215591   4.009   1.030  12.579  0.5072  1.5664  0.9772
 1320SOL     OW15592   0.722   2.336   9.189  0.0899 -0.2366  0.0537
 1320SOL    HW115593   0.710   2.323   9.095 -0.3417 -0.4914  0.1446
 1320SOL    HW215594   0.643   2.295   9.224  0.3273  0.4879  1.4396
 1321SOL     OW15595   4.241   4.531  10.480  0.3291  0.0723  0.4058
 1321SOL    HW115596   4.284   4.510  10.563 -1.2089  1.6310  1.6110
 1321SOL    HW215597   4.318   4.556  10.429 -0.4507  0.8911 -0.3563
 1322SOL     OW15598   4.109   2.358  14.410 -0.1970  0.2890 -0.1539
 1322SOL    HW115599   4.158   2.276  14.405  1.3514  1.1793  0.3855
 1322SOL    HW215600   4.160   2.407  14.346  2.2713  1.5686  2.8266
 1323SOL     OW15601   0.212   2.068   2.531 -0.7459  0.0626 -0.1903
 1323SOL    HW115602   0.208   1.998   2.466 -1.1213 -1.8943  1.9215
 1323SOL    HW215603   0.239   2.015   2.606 -0.8301  0.5969  0.2222
 1324SOL     OW15604   4.485   0.555   4.573  0.0900  0.4521  0.0138
 1324SOL    HW115605   4.521   0.546   4.662 -2.0429  0.1023  0.8482
 1324SOL    HW215606   4.572   0.554   4.533 -0.1636 -1.3317 -0.4756
 1325SOL     OW15607   0.137   3.217   6.009 -0.2020  0.2975  0.2367
 1325SOL    HW115608   0.155   3.259   6.093  0.5117  1.8201 -0.6615
 1325SOL    HW215609   0.189   3.142   6.035  0.6855  1.2754  1.2912
 1326SOL     OW15610   3.844   1.201  14.875  0.3229 -0.8981  0.3126
 1326SOL    HW115611   3.837   1.105  14.870 -1.9402 -0.5917 -2.3283
 1326SOL    HW215612   3.753   1.225  14.859  0.7946  1.2109  0.7865
 1327SOL     OW15613   0.876   0.803  10.552  0.1334  0.0729  0.4131
 1327SOL    HW115614   0.950   0.742  10.555 -0.1820 -0.3206  0.1502
 1327SOL    HW215615   0.871   0.813  10.647  1.3441 -0.9146  0.5858
 1328SOL     OW15616   3.035   4.483  12.788 -0.4242 -0.0594  0.4957
 1328SOL    HW115617   2.992   4.561  12.751  0.0847  2.0362  4.2324
 1328SOL    HW215618   3.047   4.428  12.711  0.2982  1.2428 -0.3315
 1329SOL     OW15619   4.316   1.690   7.573 -0.3905 -0.6792  0.3654
 1329SOL    HW115620   4.409   1.668   7.569 -0.6555 -1.2643 -2.5406
 1329SOL    HW215621   4.302   1.696   7.667  0.6905  0.9550  0.4252
 1330SOL     OW15622   2.007   0.974   0.138 -0.3219 -0.4285  0.0372
 1330SOL    HW115623   2.019   1.047   0.199  0.2351  0.3445 -0.9887
 1330SOL    HW215624   2.026   0.903   0.199 -2.3626 -2.0141 -1.1695
 1331SOL     OW15625   3.982   0.349   6.957  0.5426 -0.4009  0.1028
 1331SOL    HW115626   3.949   0.438   6.968  0.7226 -0.1305 -1.6563
 1331SOL    HW215627   4.074   0.367   6.978  0.8011 -1.0946 -0.4297
 1332SOL     OW15628   1.024   0.581   6.602 -0.1554 -0.3196  0.2296
 1332SOL    HW115629   1.118   0.562   6.597 -0.5404 -2.2621  0.4307
 1332SOL    HW215630   1.040   0.675   6.605 -3.6415  0.3222 -1.3799
 1333SOL     OW15631   1.000   4.283  14.905 -0.0964  0.0038  0.1080
 1333SOL    HW115632   0.909   4.260  14.924  0.4304 -1.1612  1.2475
 1333SOL    HW215633   1.045   4.208  14.944 -0.2400 -0.0292  0.2132
 1334SOL     OW15634   3.626   3.285   3.616 -0.0109  0.2645  0.4689
 1334SOL    HW115635   3.596   3.351   3.554  0.2209 -0.8758 -0.8671
 1334SOL    HW215636   3.569   3.308   3.689 -0.5933  1.2765 -0.3167
 1335SOL     OW15637   2.252   4.434  15.426  0.3711 -0.1091 -0.3781
 1335SOL    HW115638   2.225   4.450  15.336  1.4743  1.6689 -0.3800
 1335SOL    HW215639   2.346   4.441  15.407  0.6185  1.7052  1.6093
 1336SOL     OW15640   1.183   2.091   1.593 -0.4524  0.0822 -0.7337
 1336SOL    HW115641   1.158   2.179   1.618  4.0683  1.0907  0.2175
 1336SOL    HW215642   1.262   2.109   1.542  0.1806 -2.1615 -0.5553
 1337SOL     OW15643   1.120   2.210   6.351  0.5269  0.2761  0.1805
 1337SOL    HW115644   1.115   2.176   6.262  2.3848  1.0342 -0.2147
 1337SOL    HW215645   1.203   2.258   6.351 -0.0163  1.1960 -1.5585
 1338SOL     OW15646   4.554   0.851  10.564 -0.5062  0.1437  0.1810
 1338SOL    HW115647   4.536   0.888  10.477  2.0032 -1.7064 -1.1480
 1338SOL    HW215648   4.598   0.929  10.600  0.4630 -0.1607 -0.3359
 1339SOL     OW15649   1.796   1.153  14.091  0.7866  0.2502  0.2607
 1339SOL    HW115650   1.837   1.195  14.166  1.9219 -2.5070  1.2034
 1339SOL    HW215651   1.710   1.194  14.091  0.8207  0.3012 -1.4879
 1340SOL     OW15652   2.317   2.673   5.138  0.2258  0.0575 -0.0118
 1340SOL    HW115653   2.231   2.705   5.164  0.9355  1.2480  0.8446
 1340SOL    HW215654   2.338   2.727   5.062 -2.0581 -0.1211 -0.7635
 1341SOL     OW15655   3.160   1.931  12.229  0.5296  0.8025 -0.5711
 1341SOL    HW115656   3.216   2.008  12.227  0.6839  0.7724  1.9871
 1341SOL    HW215657   3.109   1.956  12.306 -0.6681 -0.5275 -0.9269
 1342SOL     OW15658   0.320   2.317  11.117  0.6942  0.3656  0.2056
 1342SOL    HW115659   0.345   2.402  11.082 -0.3516  0.7380  0.3484
 1342SOL    HW215660   0.402   2.268  11.118 -0.1812 -1.0781  1.2018
 1343SOL     OW15661   0.250   0.272   8.505 -0.2218 -0.7068  0.1183
 1343SOL    HW115662   0.269   0.272   8.412 -0.9181  0.2860 -0.0191
 1343SOL    HW215663   0.240   0.180   8.527  0.0136 -1.0853 -1.4231
 1344SOL     OW15664   3.071   3.672   8.832 -0.3877 -0.6075 -0.1773
 1344SOL    HW115665   3.025   3.590   8.847  0.7877 -1.2893 -0.2819
 1344SOL    HW215666   3.162   3.644   8.821  0.1572  1.0656  0.1325
 1345SOL     OW15667   0.052   3.105   5.652 -0.0187 -0.0459 -0.0310
 1345SOL    HW115668   0.134   3.119   5.701  0.4136 -1.7986 -0.2584
 1345SOL    HW215669   0.055   3.013   5.625 -0.1720 -0.5027  1.4887
 1346SOL     OW15670   2.440   2.546   8.800 -0.0129 -0.0008  0.2251
 1346SOL    HW115671   2.511   2.560   8.863 -1.3475  0.6331  1.5957
 1346SOL    HW215672   2.368   2.608   8.807  0.4319  0.4627  0.6496
 1347SOL     OW15673   4.608   0.241   8.351  0.4914 -0.3622  0.9611
 1347SOL    HW115674   4.562   0.158   8.365 -2.2369  1.1516  1.0613
 1347SOL    HW215675   4.552   0.304   8.395  2.3832  1.1625  1.1645
 1348SOL     OW15676   1.771   1.514   2.171  0.7163  0.3233 -0.3073
 1348SOL    HW115677   1.735   1.602   2.184 -1.4050 -0.8443  1.5913
 1348SOL    HW215678   1.755   1.480   2.259  1.4037 -1.7322 -0.9739
 1349SOL     OW15679   3.324   1.423   8.559 -0.6285 -0.3402 -0.4960
 1349SOL    HW115680   3.276   1.369   8.622 -0.5434 -0.3079 -0.4034
 1349SOL    HW215681   3.306   1.509   8.598 -0.3117 -1.5416  2.3387
 1350SOL     OW15682   1.224   1.827   7.985 -0.1943 -0.0453  0.3830
 1350SOL    HW115683   1.252   1.736   7.998 -0.4413 -0.3517 -1.1450
 1350SOL    HW215684   1.249   1.843   8.075  2.1705 -0.2656 -0.2257
 1351SOL     OW15685   0.672   0.583   4.153 -0.8088 -0.1159  0.4109
 1351SOL    HW115686   0.627   0.667   4.149 -1.2850 -0.4813 -1.9257
 1351SOL    HW215687   0.682   0.573   4.058  0.1430 -2.0776  0.7242
 1352SOL     OW15688   0.238   3.784   0.867  0.1205 -0.8836 -0.1331
 1352SOL    HW115689   0.231   3.763   0.960  2.0355 -1.1477 -0.0565
 1352SOL    HW215690   0.297   3.717   0.835  4.0473  2.3009  0.4640
 1353SOL     OW15691   4.405   0.598   7.189  0.1475 -0.4432  0.5435
 1353SOL    HW115692   4.480   0.595   7.248 -1.7303  1.6907  3.0055
 1353SOL    HW215693   4.413   0.691   7.168 -0.6487 -0.5621 -0.2757
 1354SOL     OW15694   1.121   2.804   5.694  0.0232 -0.6844  0.0337
 1354SOL    HW115695   1.050   2.839   5.749 -1.3249 -0.5055 -1.8190
 1354SOL    HW215696   1.187   2.776   5.758 -0.8049  0.8408  1.5684
 1355SOL     OW15697   1.817   0.174   2.579  0.2522  0.7188  0.2963
 1355SOL    HW115698   1.865   0.127   2.511  2.0428  3.2932 -0.2138
 1355SOL    HW215699   1.778   0.247   2.529  1.0529  1.3745  0.6335
 1356SOL     OW15700   2.029   1.612   3.830 -0.1287  0.3897  0.7957
 1356SOL    HW115701   2.023   1.628   3.925 -2.3039 -1.4086  0.9798
 1356SOL    HW215702   2.028   1.517   3.818  2.7273  0.2148  1.9195
 1357SOL     OW15703   0.135   3.376  15.488 -0.3515 -0.6641 -0.3662
 1357SOL    HW115704   0.075   3.447  15.464 -1.1149 -0.1125  3.1960
 1357SOL    HW215705   0.117   3.354  15.579 -0.7297  1.1853  0.0118
 1358SOL     OW15706   1.526   0.486   4.425 -0.2865 -0.2042 -0.0298
 1358SOL    HW115707   1.444   0.530   4.449 -0.7236 -1.4340  0.7208
 1358SOL    HW215708   1.562   0.470   4.512 -0.7791 -0.5809  0.1046
 1359SOL     OW15709   4.123   0.329   8.434 -0.2957  0.1625  0.2952
 1359SOL    HW115710   4.141   0.238   8.459  1.0128  0.7948  1.6487
 1359SOL    HW215711   4.070   0.360   8.506  0.1789  0.7459  0.3951
 1360SOL     OW15712   4.051   4.377   5.953  0.1596  0.4383  0.0486
 1360SOL    HW115713   4.124   4.434   5.927 -0.6941  0.1378 -2.8944
 1360SOL    HW215714   4.108   4.306   5.983  0.6225  1.6046  1.9553
 1361SOL     OW15715   4.576   2.217   8.897  0.1926  0.1696 -0.1629
 1361SOL    HW115716   4.656   2.235   8.947  1.4038  1.0875 -2.4032
 1361SOL    HW215717   4.583   2.123   8.878 -0.1905  0.4767 -1.7650
 1362SOL     OW15718   4.098   3.345   6.613  0.0963 -0.2639  0.1550
 1362SOL    HW115719   4.039   3.417   6.633 -0.8665 -0.9075 -0.3750
 1362SOL    HW215720   4.107   3.356   6.518 -0.7309 -0.0290  0.1034
 1363SOL     OW15721   2.475   1.478   8.762  0.0564  0.3346 -0.1645
 1363SOL    HW115722   2.391   1.491   8.806  0.0915  1.9723 -0.5975
 1363SOL    HW215723   2.489   1.564   8.722  2.8400 -0.4161 -0.8431
 1364SOL     OW15724   2.362   2.695   2.320  0.1165  0.3930 -0.6393
 1364SOL    HW115725   2.373   2.649   2.237 -1.9994  1.9320 -1.7667
 1364SOL    HW215726   2.279   2.652   2.343 -0.7093  1.5022 -1.5491
 1365SOL     OW15727   2.841   4.104  17.332 -0.3351  0.8980  0.1136
 1365SOL    HW115728   2.907   4.152  17.283  1.0156 -0.0785  0.9699
 1365SOL    HW215729   2.763   4.157  17.318 -0.9859  0.4138  1.8178
 1366SOL     OW15730   2.886   2.266   6.560 -0.3280 -0.1430 -0.1032
 1366SOL    HW115731   2.867   2.182   6.602 -0.6231 -0.4812 -0.9181
 1366SOL    HW215732   2.861   2.331   6.626  0.4794  2.9631 -2.8560
 1367SOL     OW15733   1.198   1.550   7.791  0.1567  0.5604 -0.2962
 1367SOL    HW115734   1.226   1.632   7.751 -1.7077  2.1629  1.6859
 1367SOL    HW215735   1.244   1.485   7.737  1.5974 -0.4981  2.1901
 1368SOL     OW15736   1.962   4.040   2.608 -0.0231  0.6329 -0.0429
 1368SOL    HW115737   1.935   3.963   2.557 -0.0466 -1.1730  2.6732
 1368SOL    HW215738   2.057   4.039   2.591 -0.3559 -2.8231 -1.8116
 1369SOL     OW15739   0.638   4.004  17.239  0.2570  0.5680 -0.2506
 1369SOL    HW115740   0.547   4.033  17.240 -0.1984 -0.9062  0.3399
 1369SOL    HW215741   0.670   4.066  17.174 -0.9540  0.9859 -0.4342
 1370SOL     OW15742   3.422   1.636   3.197 -0.1697 -0.6535 -0.4437
 1370SOL    HW115743   3.417   1.618   3.291 -1.3249 -1.5078 -0.6686
 1370SOL    HW215744   3.517   1.635   3.190 -0.2042 -1.8928 -0.7836
 1371SOL     OW15745   3.795   1.867   0.240  0.3839  0.2150 -0.2293
 1371SOL    HW115746   3.872   1.901   0.194  0.0263  1.6551  0.2375
 1371SOL    HW215747   3.780   1.932   0.309  0.4897 -1.0035  0.9457
 1372SOL     OW15748   3.133   2.526   3.162  0.0360 -0.5414  0.2712
 1372SOL    HW115749   3.196   2.527   3.090 -0.8417  1.2043 -0.4894
 1372SOL    HW215750   3.056   2.547   3.109 -0.3718  0.8610  1.4298
 1373SOL     OW15751   0.760   4.659   0.474 -0.2320  0.4891  0.0639
 1373SOL    HW115752   0.747   0.019   0.466  0.0205  0.3667 -1.6768
 1373SOL    HW215753   0.671   4.626   0.472  0.2212 -0.7433  0.3287
 1374SOL     OW15754   2.886   1.899   0.591 -0.6557  0.1238 -0.1453
 1374SOL    HW115755   2.864   1.973   0.535  0.6849  0.1894 -0.5998
 1374SOL    HW215756   2.859   1.822   0.541  2.1520  0.0781 -1.6346
 1375SOL     OW15757   1.348   3.894   0.028  0.1535  0.3201  0.2949
 1375SOL    HW115758   1.281   3.958   0.051  0.6633  1.5231 -1.6272
 1375SOL    HW215759   1.323   3.815   0.076 -1.7943 -0.9262 -2.7796
 1376SOL     OW15760   3.697   4.541  13.090 -0.0267  0.4381 -0.1942
 1376SOL    HW115761   3.757   4.594  13.037  0.9652 -0.5392 -0.0572
 1376SOL    HW215762   3.746   4.532  13.172 -1.0277 -1.6159  0.1881
 1377SOL     OW15763   1.946   3.562   5.672 -0.2506 -0.9883  0.0314
 1377SOL    HW115764   2.009   3.590   5.606 -1.1595  0.5335 -0.1959
 1377SOL    HW215765   1.967   3.606   5.754 -1.1149  0.7155 -0.6670
 1378SOL     OW15766   4.011   0.561   7.548 -0.4536  0.5986 -0.4222
 1378SOL    HW115767   4.072   0.588   7.617  0.8312  1.7643 -2.0044
 1378SOL    HW215768   3.934   0.571   7.604  0.8560  0.7491  1.3589
 1379SOL     OW15769   1.067   2.635   4.262  0.6252  0.2894  0.0794
 1379SOL    HW115770   1.020   2.709   4.300  1.0129  0.7618 -0.3579
 1379SOL    HW215771   1.000   2.606   4.199 -1.8082 -1.1979  3.3638
 1380SOL     OW15772   3.910   3.028   2.324  0.3594 -0.3393  0.3292
 1380SOL    HW115773   3.930   3.088   2.251 -2.1726 -0.4177 -0.4375
 1380SOL    HW215774   3.988   3.032   2.379  2.5807 -0.1475 -2.8555
 1381SOL     OW15775   3.240   3.397  13.795  0.1708  0.4757  0.0877
 1381SOL    HW115776   3.291   3.455  13.852  0.1906  0.4425  0.1043
 1381SOL    HW215777   3.233   3.446  13.713  1.0743 -0.3789 -0.5010
 1382SOL     OW15778   1.359   4.201  15.129  0.2403 -0.0170  0.2390
 1382SOL    HW115779   1.437   4.221  15.180 -0.3823 -1.1391  1.6166
 1382SOL    HW215780   1.362   4.262  15.054  0.1519 -0.9627 -0.5309
 1383SOL     OW15781   2.902   1.292   3.728 -0.6485 -0.0756 -0.5630
 1383SOL    HW115782   2.825   1.341   3.701 -1.2601 -1.0000 -0.5090
 1383SOL    HW215783   2.956   1.289   3.649  0.8066  1.7053  0.3901
 1384SOL     OW15784   1.005   0.073  12.147 -0.1279 -0.1526  0.6807
 1384SOL    HW115785   0.979   4.717  12.164 -0.0451 -0.4822 -1.0029
 1384SOL    HW215786   0.926   0.113  12.111 -0.1827 -1.8055 -1.0260
 1385SOL     OW15787   0.335   1.156   3.127  0.2582  0.8600  0.0424
 1385SOL    HW115788   0.261   1.153   3.188 -0.3728 -0.2568 -0.7930
 1385SOL    HW215789   0.407   1.117   3.177  0.1245 -0.2787 -0.6602
 1386SOL     OW15790   0.022   0.262   3.712  0.3073 -1.0541 -0.3889
 1386SOL    HW115791   4.727   0.256   3.803  1.0636  1.5634  0.0217
 1386SOL    HW215792   0.108   0.221   3.719  0.6990 -0.2921 -0.6961
 1387SOL     OW15793   0.695   2.225  15.529 -0.0553 -0.3324  0.0958
 1387SOL    HW115794   0.710   2.310  15.571 -3.2420 -0.0781  0.7393
 1387SOL    HW215795   0.600   2.221  15.534 -0.0190 -0.3377  0.7511
 1388SOL     OW15796   2.761   2.088   7.534  0.2366  0.7354  0.1974
 1388SOL    HW115797   2.681   2.131   7.503  0.8375  0.2326 -2.0400
 1388SOL    HW215798   2.791   2.168   7.577  2.8146  0.3835 -0.9507
 1389SOL     OW15799   1.787   3.289   4.409  0.4376 -0.7141 -0.0335
 1389SOL    HW115800   1.717   3.300   4.345  0.4054 -0.7007  0.0034
 1389SOL    HW215801   1.739   3.267   4.489 -1.5329  1.9560 -0.4760
 1390SOL     OW15802   0.864   3.851   1.805  0.4295  0.1319 -0.2800
 1390SOL    HW115803   0.820   3.868   1.888 -2.3582 -1.5588 -1.4263
 1390SOL    HW215804   0.793   3.842   1.742  0.5553  1.4244 -0.6252
 1391SOL     OW15805   3.269   2.195   3.051 -0.0387  0.6909 -0.6048
 1391SOL    HW115806   3.343   2.135   3.041 -0.6170 -0.3568  1.5979
 1391SOL    HW215807   3.273   2.226   2.960  0.4683 -2.1720 -1.5728
 1392SOL     OW15808   0.218   1.380  14.385 -0.3926  0.0917 -0.7578
 1392SOL    HW115809   0.125   1.361  14.370 -0.2208 -0.7061 -0.7965
 1392SOL    HW215810   0.211   1.428  14.467  0.5943 -0.5655 -0.2930
 1393SOL     OW15811   2.092   3.002  11.675 -0.5758 -0.0380 -0.1286
 1393SOL    HW115812   2.104   2.993  11.770  2.7328  0.4567 -0.4950
 1393SOL    HW215813   2.053   3.090  11.675 -1.2417 -0.3295  0.8297
 1394SOL     OW15814   1.340   1.695   3.833 -0.2781 -0.0429  0.0518
 1394SOL    HW115815   1.375   1.650   3.910 -1.1328 -0.1163  0.4054
 1394SOL    HW215816   1.316   1.780   3.870 -0.0877  0.6631 -1.4560
 1395SOL     OW15817   3.115   2.016   8.466 -0.9472 -0.2224 -0.7066
 1395SOL    HW115818   3.207   2.002   8.443 -1.2585  0.8426 -2.5887
 1395SOL    HW215819   3.088   2.077   8.398  1.9482  0.7441 -1.0019
 1396SOL     OW15820   4.137   1.652   3.068 -0.1191 -0.3393 -0.6069
 1396SOL    HW115821   4.203   1.588   3.094  2.6492  1.8267 -2.3961
 1396SOL    HW215822   4.151   1.701   3.150 -0.0861 -0.6690 -0.4136
 1397SOL     OW15823   3.411   0.782   3.176 -0.2554 -0.2058 -0.0482
 1397SOL    HW115824   3.495   0.786   3.222 -0.2534  0.1810 -0.0826
 1397SOL    HW215825   3.440   0.791   3.085  2.3498 -0.8512  0.7379
 1398SOL     OW15826   2.975   4.158   8.963  0.0897 -0.2865 -0.6307
 1398SOL    HW115827   3.028   4.193   9.034 -1.0597  0.3997 -0.1191
 1398SOL    HW215828   3.047   4.122   8.911  2.0520  2.5006  0.1374
 1399SOL     OW15829   4.472   0.245  15.272  0.4280 -0.1868 -0.3393
 1399SOL    HW115830   4.394   0.264  15.221  1.4942  0.7645 -1.6036
 1399SOL    HW215831   4.492   0.156  15.243  0.9916  0.6782 -2.5774
 1400SOL     OW15832   1.181   4.625  14.608 -0.2811 -0.5338 -0.2919
 1400SOL    HW115833   1.152   4.606  14.697 -0.5485  1.1779 -0.0170
 1400SOL    HW215834   1.263   4.671  14.627  0.3124 -0.9020 -1.9084
 1401SOL     OW15835   4.544   3.242   8.946  0.0058  0.3546  0.0939
 1401SOL    HW115836   4.634   3.233   8.913  0.3955  0.2683  1.1912
 1401SOL    HW215837   4.515   3.157   8.912 -1.6236  1.8229 -2.2173
 1402SOL     OW15838   4.377   2.120  16.351  0.1201  0.0530  0.2615
 1402SOL    HW115839   4.422   2.035  16.347  0.1777  0.1427 -1.0762
 1402SOL    HW215840   4.432   2.161  16.418 -1.1866  0.5038  1.0550
 1403SOL     OW15841   1.268   4.692  17.057 -0.1318 -0.1680  0.1262
 1403SOL    HW115842   1.212   4.623  17.021  1.0934 -1.4424  0.6389
 1403SOL    HW215843   1.251   0.032  17.001  2.1098  1.4655  1.6428
 1404SOL     OW15844   4.005   2.601  12.941  0.1757  0.0629 -0.1549
 1404SOL    HW115845   3.952   2.677  12.966 -2.5483 -1.1490 -2.2377
 1404SOL    HW215846   3.946   2.533  12.973 -0.3137 -0.1032 -1.4117
 1405SOL     OW15847   1.064   3.676   8.247 -0.3347 -0.0909  0.4192
 1405SOL    HW115848   0.985   3.704   8.293 -2.3585 -2.1106 -1.8342
 1405SOL    HW215849   1.119   3.754   8.241  1.1612 -0.9692  3.0171
 1406SOL     OW15850   1.202   0.126   2.498  0.4422  0.3598 -1.1546
 1406SOL    HW115851   1.207   0.202   2.555 -0.2798 -1.7303  1.7057
 1406SOL    HW215852   1.294   0.104   2.488  0.4150  0.8895 -2.6037
 1407SOL     OW15853   4.208   0.760   6.248  0.2811 -0.0756  0.1145
 1407SOL    HW115854   4.249   0.844   6.267  1.7255 -0.6681 -0.4490
 1407SOL    HW215855   4.129   0.762   6.303 -0.5187  2.3785 -1.1073
 1408SOL     OW15856   0.586   0.651   2.086  0.4951 -0.3840 -0.0578
 1408SOL    HW115857   0.624   0.564   2.095 -2.9937 -2.1823 -2.7539
 1408SOL    HW215858   0.648   0.695   2.028  0.8636  0.1715  0.7559
 1409SOL     OW15859   4.009   3.605   4.549 -0.4653  0.5500 -0.4107
 1409SOL    HW115860   4.010   3.535   4.615  3.2502  1.9566  1.0141
 1409SOL    HW215861   3.927   3.654   4.559 -1.2179 -0.6669 -0.5651
 1410SOL     OW15862   1.860   0.506   3.113  0.4761 -0.1554  0.4417
 1410SOL    HW115863   1.889   0.595   3.132  5.6223 -2.0677  1.5010
 1410SOL    HW215864   1.883   0.492   3.021 -1.0368 -0.3767  0.0974
 1411SOL     OW15865   2.975   4.099   0.690 -0.0614 -0.4574 -0.6921
 1411SOL    HW115866   2.976   4.157   0.614 -1.1795 -0.1086 -0.4491
 1411SOL    HW215867   3.064   4.098   0.723  0.3416  1.6387 -1.7290
 1412SOL     OW15868   0.726   1.999  15.373 -0.2400  0.4121  0.1507
 1412SOL    HW115869   0.795   1.941  15.405  1.1602  2.0087  0.1042
 1412SOL    HW215870   0.742   2.074  15.431  2.4938 -1.1320  1.3949
 1413SOL     OW15871   1.967   4.646   5.316  0.5731  0.4651 -0.0575
 1413SOL    HW115872   1.917   4.570   5.348  1.4092 -1.2915 -2.9016
 1413SOL    HW215873   1.917   4.672   5.238 -0.9914 -0.2019  0.7234
 1414SOL     OW15874   4.130   0.932   6.750 -0.5396 -0.2644 -0.2963
 1414SOL    HW115875   4.199   0.991   6.720 -1.0360 -0.4138 -1.7547
 1414SOL    HW215876   4.158   0.902   6.836 -0.0459 -0.2827 -0.4609
 1415SOL     OW15877   0.818   1.475   4.351  0.0022 -0.3634  0.3640
 1415SOL    HW115878   0.860   1.557   4.325  1.0666 -0.9048  0.3486
 1415SOL    HW215879   0.736   1.497   4.307  0.0579  1.3344  1.0837
 1416SOL     OW15880   4.045   0.099   4.367 -0.4308  0.0465 -0.7862
 1416SOL    HW115881   4.035   0.194   4.376 -0.5401  0.2478 -3.1733
 1416SOL    HW215882   4.040   0.095   4.272 -1.4935 -0.6076 -0.6973
 1417SOL     OW15883   3.647   3.991   5.730  0.4994 -0.2546 -0.3615
 1417SOL    HW115884   3.590   3.916   5.708  0.7117 -0.8945  1.2991
 1417SOL    HW215885   3.604   4.044   5.797  1.0920  0.1847 -0.3397
 1418SOL     OW15886   3.291   1.054   5.910 -0.2863  0.0264 -0.7201
 1418SOL    HW115887   3.283   1.047   6.005  0.6898  0.0202 -0.6436
 1418SOL    HW215888   3.384   1.064   5.893 -0.0085 -0.5856  0.4058
 1419SOL     OW15889   2.047   4.534  14.405  0.4529 -0.0853  0.0618
 1419SOL    HW115890   2.022   4.479  14.330 -1.4052  2.8522 -1.4911
 1419SOL    HW215891   1.966   4.526  14.455 -0.3353  0.3044 -1.1517
 1420SOL     OW15892   4.217   3.935   3.949 -0.6897 -0.2953  0.2645
 1420SOL    HW115893   4.218   4.007   4.012 -1.1192 -1.1337  1.2229
 1420SOL    HW215894   4.121   3.928   3.945 -0.4690 -1.7822 -2.4119
 1421SOL     OW15895   1.461   1.779   4.640  0.1166  0.0114 -0.1448
 1421SOL    HW115896   1.414   1.699   4.619  1.4225 -0.7887  0.0232
 1421SOL    HW215897   1.397   1.840   4.678  1.5115  1.2028  0.2958
 1422SOL     OW15898   1.012   1.704   8.543 -0.2432 -0.4281 -0.2311
 1422SOL    HW115899   0.959   1.629   8.518  1.0786 -1.5398  0.2680
 1422SOL    HW215900   1.100   1.670   8.558 -0.0761 -0.1723 -0.6344
 1423SOL     OW15901   2.701   3.121   4.879  0.1499  0.8757 -0.2242
 1423SOL    HW115902   2.787   3.080   4.877 -0.1236  0.2865 -0.0589
 1423SOL    HW215903   2.667   3.083   4.798  0.3423  0.5251 -0.1381
 1424SOL     OW15904   2.227   3.434   4.454 -0.3368  0.0193 -0.0918
 1424SOL    HW115905   2.248   3.397   4.368 -0.5292 -0.0752 -0.0996
 1424SOL    HW215906   2.202   3.356   4.504  0.3492 -0.8137 -1.0424
 1425SOL     OW15907   0.507   0.214   4.892 -0.0681 -0.0713 -0.3479
 1425SOL    HW115908   0.516   0.119   4.895  0.7250  0.0717  1.6420
 1425SOL    HW215909   0.510   0.236   4.799  1.5063  0.1000 -0.2667
 1426SOL     OW15910   3.969   4.527  16.080 -0.0133  0.2978 -0.1274
 1426SOL    HW115911   3.927   4.454  16.036  0.2074 -0.4710  0.9477
 1426SOL    HW215912   3.890   4.580  16.083 -0.0596  0.2569 -0.7403
 1427SOL     OW15913   4.501   2.635   8.567  0.5018  0.0252 -0.4713
 1427SOL    HW115914   4.475   2.666   8.654 -1.9361  0.3456 -1.3089
 1427SOL    HW215915   4.575   2.578   8.587  0.5567 -0.2086 -1.3624
 1428SOL     OW15916   2.471   1.327   9.496 -0.5604 -0.2162 -0.0889
 1428SOL    HW115917   2.542   1.366   9.548  0.5778 -0.0706 -1.7644
 1428SOL    HW215918   2.507   1.246   9.460  1.3523 -0.1994  1.7702
 1429SOL     OW15919   0.383   1.857  13.723  0.5495 -0.3183 -0.0479
 1429SOL    HW115920   0.425   1.939  13.697  0.0661 -0.4534 -1.2630
 1429SOL    HW215921   0.367   1.806  13.643  1.2227  1.5538 -1.3598
 1430SOL     OW15922   0.358   3.858  12.172  0.3784 -0.1233 -0.3177
 1430SOL    HW115923   0.312   3.844  12.090 -1.9418  1.3596  0.7214
 1430SOL    HW215924   0.431   3.910  12.140  0.6596  1.1372  2.3351
 1431SOL     OW15925   3.826   3.988   8.582 -0.2722  0.6992 -0.1394
 1431SOL    HW115926   3.848   3.913   8.637 -0.6286  1.2908  0.8036
 1431SOL    HW215927   3.730   3.991   8.579 -0.2584  1.7687  0.7832
 1432SOL     OW15928   1.004   3.071  14.527  0.0279 -0.2554  0.1594
 1432SOL    HW115929   0.974   3.099  14.440  0.8284 -0.8086 -0.2933
 1432SOL    HW215930   1.099   3.064  14.517  0.0260 -0.2480  0.1347
 1433SOL     OW15931   1.702   0.755   6.903 -0.1079 -0.4656  0.0449
 1433SOL    HW115932   1.797   0.748   6.908  0.1289  1.9056 -1.1944
 1433SOL    HW215933   1.672   0.791   6.987  3.0960  0.4667  0.7873
 1434SOL     OW15934   3.970   0.732   1.715  0.0304 -0.5577 -0.1717
 1434SOL    HW115935   3.970   0.793   1.641  0.1881 -1.1949 -0.6867
 1434SOL    HW215936   4.064   0.730   1.732  0.4593  1.4225 -2.2071
 1435SOL     OW15937   2.137   2.849   0.292 -0.5986 -0.1006 -0.0478
 1435SOL    HW115938   2.203   2.898   0.342 -1.2426  0.7908 -0.0622
 1435SOL    HW215939   2.166   2.759   0.304 -0.1710  0.0810  0.2955
 1436SOL     OW15940   2.034   0.344   8.421  0.2000  0.6163  0.3277
 1436SOL    HW115941   2.040   0.410   8.353  0.4444  1.9137  1.6040
 1436SOL    HW215942   1.984   0.389   8.489  2.5744  2.8250  0.5940
 1437SOL     OW15943   2.862   0.784   4.821 -0.9393 -0.0949 -0.0304
 1437SOL    HW115944   2.795   0.715   4.815 -1.9409  0.8163  0.7597
 1437SOL    HW215945   2.884   0.782   4.914  0.1041  1.3837 -0.2550
 1438SOL     OW15946   1.258   1.134   5.427  0.1276  0.3056  0.2152
 1438SOL    HW115947   1.222   1.066   5.371  2.3834 -0.3059 -0.4996
 1438SOL    HW215948   1.202   1.203   5.394  0.8564  0.3607 -0.8823
 1439SOL     OW15949   3.725   2.354  10.244  0.3637 -0.4179 -0.9224
 1439SOL    HW115950   3.705   2.447  10.229 -4.3240 -1.2638  0.2306
 1439SOL    HW215951   3.756   2.349  10.335 -2.0384 -2.4312 -0.2313
 1440SOL     OW15952   0.171   4.193   0.421  0.1747  0.4444  0.0799
 1440SOL    HW115953   0.124   4.261   0.373 -2.2888 -0.7269  0.8116
 1440SOL    HW215954   0.254   4.178   0.376  0.2765 -0.5310  0.5792
 1441SOL     OW15955   4.691   1.934  16.785 -0.2454  0.8442 -0.7398
 1441SOL    HW115956   4.688   1.875  16.709  3.4712 -1.6845  1.0494
 1441SOL    HW215957   4.603   1.928  16.820  0.9972  1.7314  2.5096
 1442SOL     OW15958   2.311   3.285   1.416 -0.2886 -0.5401  0.1252
 1442SOL    HW115959   2.278   3.202   1.382  0.3199 -0.2052 -1.2973
 1442SOL    HW215960   2.249   3.293   1.488 -1.3295  1.2289 -0.9558
 1443SOL     OW15961   1.797   0.111  17.431 -0.2137 -0.0305  0.2932
 1443SOL    HW115962   1.827   0.168  17.361  0.2259  2.6824  2.6967
 1443SOL    HW215963   1.881   0.075  17.460 -0.3091 -0.5734 -0.1071
 1444SOL     OW15964   1.171   4.112   5.768 -0.0826  0.3172 -0.1571
 1444SOL    HW115965   1.169   4.159   5.684  1.1402 -1.1192 -1.0041
 1444SOL    HW215966   1.248   4.152   5.809 -2.2572  1.7954  2.4607
 1445SOL     OW15967   1.389   3.289   9.230  0.7360  0.2560  0.6830
 1445SOL    HW115968   1.294   3.292   9.245  0.8405 -1.4341  1.7222
 1445SOL    HW215969   1.421   3.373   9.262 -0.7093  0.5902  1.2411
 1446SOL     OW15970   4.051   4.372   9.388  0.3365  0.0600 -0.3611
 1446SOL    HW115971   4.106   4.359   9.311 -0.8456 -1.6588 -0.9424
 1446SOL    HW215972   4.110   4.422   9.444 -0.6139 -1.6293  2.1557
 1447SOL     OW15973   4.376   2.047   3.761 -0.3310 -0.1094 -0.2197
 1447SOL    HW115974   4.355   2.007   3.845  0.7150  1.9911  1.0264
 1447SOL    HW215975   4.302   2.107   3.754  0.1123  0.1944 -2.4324
 1448SOL     OW15976   3.944   4.199  15.706 -0.8695  0.4856 -0.3973
 1448SOL    HW115977   3.920   4.248  15.628 -1.1376  0.7893 -0.1217
 1448SOL    HW215978   4.019   4.145  15.679 -0.7912 -0.1351  1.0464
 1449SOL     OW15979   1.769   2.798   1.681 -0.1425 -0.2650 -0.6949
 1449SOL    HW115980   1.703   2.731   1.661 -1.2118  0.3312  0.8547
 1449SOL    HW215981   1.720   2.869   1.722 -1.1637 -0.6132 -1.3040
 1450SOL     OW15982   3.349   2.144   6.322 -0.3993  0.1900 -0.2316
 1450SOL    HW115983   3.279   2.093   6.282 -1.2818  1.7073 -0.6220
 1450SOL    HW215984   3.331   2.126   6.414 -0.2903  1.4112  0.0400
 1451SOL     OW15985   3.978   1.589  16.780 -0.3526  0.9295 -0.4800
 1451SOL    HW115986   4.063   1.571  16.820 -0.5776 -1.0417 -0.8801
 1451SOL    HW215987   3.967   1.680  16.808  0.9661  0.8045  0.4126
 1452SOL     OW15988   4.544   1.294  16.825  0.3872  0.1942 -0.3408
 1452SOL    HW115989   4.627   1.258  16.856 -1.1574 -3.4390 -0.4645
 1452SOL    HW215990   4.504   1.325  16.906  0.3195  0.6014 -0.5307
 1453SOL     OW15991   3.898   1.463   1.321  0.5918 -0.2849 -0.0732
 1453SOL    HW115992   3.961   1.452   1.250  2.0229 -2.6654  1.5492
 1453SOL    HW215993   3.916   1.381   1.367 -1.2489  0.0323  1.1872
 1454SOL     OW15994   1.147   4.691   3.453 -0.1060  0.3503  0.1745
 1454SOL    HW115995   1.120   0.015   3.382  1.0836 -0.3393 -0.8672
 1454SOL    HW215996   1.096   4.718   3.529 -0.1529 -0.8704  0.5810
 1455SOL     OW15997   4.541   3.848   3.266 -0.2591  0.3573  0.2878
 1455SOL    HW115998   4.630   3.873   3.291 -0.2132  0.8519 -0.3489
 1455SOL    HW215999   4.543   3.753   3.256 -1.0170  0.1798  1.8992
 1456SOL     OW16000   0.257   1.975   4.169 -0.8277 -0.3026  0.1334
 1456SOL    HW116001   0.236   2.048   4.110 -1.1267 -0.0815  0.5202
 1456SOL    HW216002   0.298   1.910   4.111 -0.3158  0.8762 -0.8351
 1457SOL     OW16003   2.531   3.966   5.048 -0.0330 -0.1305 -0.0065
 1457SOL    HW116004   2.501   4.037   4.990  1.2817  0.7825  0.4304
 1457SOL    HW216005   2.534   4.009   5.134 -0.7321  0.3751 -0.2347
 1458SOL     OW16006   1.893   4.535   1.566 -0.6196  0.2583  0.3673
 1458SOL    HW116007   1.986   4.514   1.565 -0.0172  2.9029  0.8767
 1458SOL    HW216008   1.861   4.463   1.512  0.3338  0.3353 -0.2979
 1459SOL     OW16009   3.971   2.502   2.371 -0.0717 -0.2081  0.0240
 1459SOL    HW116010   3.925   2.487   2.289 -0.7647 -2.2733  0.8084
 1459SOL    HW216011   3.978   2.597   2.363 -0.3824 -0.1441  0.5162
 1460SOL     OW16012   2.234   1.511   6.023 -0.2309  0.1205  0.0621
 1460SOL    HW116013   2.199   1.555   5.946 -1.8134 -1.1678  0.0616
 1460SOL    HW216014   2.159   1.492   6.079 -0.5233 -0.0198 -0.3753
 1461SOL     OW16015   0.762   3.988  11.102  0.7921  0.3182 -0.4756
 1461SOL    HW116016   0.837   4.041  11.074  1.2194 -0.1559 -0.2410
 1461SOL    HW216017   0.690   4.048  11.083  0.9457  0.7798  0.3581
 1462SOL     OW16018   3.302   1.197   4.798 -0.4795 -0.1884 -0.2052
 1462SOL    HW116019   3.363   1.234   4.734 -0.3426  0.3280  0.2194
 1462SOL    HW216020   3.329   1.105   4.797 -1.7358 -0.5194 -2.0645
 1463SOL     OW16021   3.060   3.445   7.808  0.7447 -0.1629  0.4882
 1463SOL    HW116022   3.055   3.398   7.891 -0.0148  0.4108  0.7722
 1463SOL    HW216023   3.055   3.537   7.832 -0.1705  0.5001 -2.2573
 1464SOL     OW16024   3.315   1.220   3.819  0.1131  0.4556 -0.2610
 1464SOL    HW116025   3.284   1.186   3.735 -1.1375  0.0971  0.3483
 1464SOL    HW216026   3.268   1.173   3.888  1.3359  0.8953  0.8795
 1465SOL     OW16027   2.425   0.998  11.155  0.8428 -0.0397 -0.0353
 1465SOL    HW116028   2.460   0.961  11.236 -1.2131  0.7275  1.2351
 1465SOL    HW216029   2.331   0.997  11.176  1.0457 -2.9296  0.6950
 1466SOL     OW16030   3.992   2.489   8.142 -0.6152  0.3662 -0.3571
 1466SOL    HW116031   3.906   2.458   8.173 -0.2958 -1.0147 -0.8473
 1466SOL    HW216032   3.990   2.584   8.149  0.3015  0.4278 -0.9710
 1467SOL     OW16033   2.498   1.029   7.229  0.1331 -0.3503 -0.4554
 1467SOL    HW116034   2.408   1.038   7.197 -0.6258  0.0967  1.7840
 1467SOL    HW216035   2.542   1.111   7.207 -0.2333 -0.3376 -1.1309
 1468SOL     OW16036   0.586   4.251   6.391  0.3404 -0.7996  0.0368
 1468SOL    HW116037   0.553   4.323   6.446 -3.6975 -1.6719 -1.2004
 1468SOL    HW216038   0.634   4.299   6.324 -1.0097  1.3274  0.5737
 1469SOL     OW16039   1.175   2.690   1.886 -0.3335  0.0357  0.4820
 1469SOL    HW116040   1.190   2.728   1.800 -1.1438  0.8920  0.7250
 1469SOL    HW216041   1.086   2.657   1.883 -0.3240  0.1381 -0.8865
 1470SOL     OW16042   1.467   3.914  17.507  0.0130 -0.5278  0.2020
 1470SOL    HW116043   1.401   3.904  17.575 -1.1498  0.4506 -0.7788
 1470SOL    HW216044   1.539   3.954  17.556 -0.2832 -0.8374  0.8822
 1471SOL     OW16045   0.363   1.432  10.735 -0.2198 -0.8884  0.0882
 1471SOL    HW116046   0.360   1.427  10.831  0.2907 -0.0397  0.1491
 1471SOL    HW216047   0.357   1.527  10.727  0.5828 -0.7497  1.0715
 1472SOL     OW16048   0.244   3.892   2.699  0.0998 -0.3888  0.1281
 1472SOL    HW116049   0.166   3.904   2.753 -0.4089  1.4617 -1.0176
 1472SOL    HW216050   0.297   3.852   2.769  1.3753  1.5884  0.3005
 1473SOL     OW16051   1.593   0.052  16.906 -0.1593 -0.2364  0.0363
 1473SOL    HW116052   1.644   0.031  16.828 -2.7544  0.9449 -1.9767
 1473SOL    HW216053   1.543   4.707  16.922 -0.7607  0.1074 -0.1278
 1474SOL     OW16054   4.125   3.199   9.562 -0.1489 -0.1793 -0.3120
 1474SOL    HW116055   4.035   3.230   9.575 -0.5559 -1.0360 -1.0359
 1474SOL    HW216056   4.108   3.109   9.533  0.1295 -0.3488  0.0434
 1475SOL     OW16057   3.357   3.735   3.597 -0.0848  0.1560 -0.2807
 1475SOL    HW116058   3.407   3.744   3.516  1.5251  0.8585  0.7695
 1475SOL    HW216059   3.410   3.800   3.643 -0.7307  0.8018 -0.4430
 1476SOL     OW16060   1.828   0.484  15.739 -0.7036  0.0830 -0.4600
 1476SOL    HW116061   1.910   0.533  15.731 -0.0929 -1.0466 -1.0055
 1476SOL    HW216062   1.846   0.411  15.797 -0.5395  0.4967  0.0043
 1477SOL     OW16063   3.084   4.622   8.433 -0.5891  0.7683  0.1601
 1477SOL    HW116064   3.153   4.634   8.368  0.3534 -1.2464  0.7637
 1477SOL    HW216065   3.125   4.615   8.519  0.4926 -0.3433 -0.4550
 1478SOL     OW16066   3.878   2.426   9.567  0.3825  0.3796 -0.4815
 1478SOL    HW116067   3.901   2.369   9.640 -0.1372 -0.7092 -1.1729
 1478SOL    HW216068   3.815   2.367   9.526  1.1204 -0.5379 -0.2944
 1479SOL     OW16069   1.964   2.203   5.473  0.0547  0.2439  0.1136
 1479SOL    HW116070   1.907   2.146   5.421 -0.9716  2.9142 -1.7285
 1479SOL    HW216071   2.035   2.242   5.421  1.4925 -1.0106  1.1400
 1480SOL     OW16072   0.179   4.423   1.840 -0.1920  0.2604 -0.5682
 1480SOL    HW116073   0.166   4.416   1.935 -1.1897 -0.6964 -0.7695
 1480SOL    HW216074   0.179   4.518   1.833  0.2686  0.2764 -0.3515
 1481SOL     OW16075   1.242   3.649   0.075 -0.1670  0.0658 -0.4829
 1481SOL    HW116076   1.211   3.647  17.724  2.1710 -0.0488 -1.2772
 1481SOL    HW216077   1.280   3.561   0.067  1.7754  0.7968  0.5484
 1482SOL     OW16078   1.097   4.088   2.369  0.3236  0.1227  0.0734
 1482SOL    HW116079   1.140   4.007   2.397 -1.5486 -0.5451  1.0013
 1482SOL    HW216080   1.052   4.060   2.289 -0.2160 -2.5073  1.2883
 1483SOL     OW16081   2.817   0.078  14.122  0.0122 -0.1895  0.1782
 1483SOL    HW116082   2.823   0.099  14.028  0.8939 -1.5590 -0.0750
 1483SOL    HW216083   2.833   0.169  14.145  1.5758 -0.4516  0.1032
 1484SOL     OW16084   2.122   3.806   5.943 -0.0260 -0.1392  0.2339
 1484SOL    HW116085   2.111   3.897   5.972  0.8025 -0.3874  1.3244
 1484SOL    HW216086   2.040   3.768   5.973 -0.5810  0.8995  0.0251
 1485SOL     OW16087   4.570   1.260   2.658  0.5779  0.3168 -0.1073
 1485SOL    HW116088   4.633   1.296   2.720  1.5260 -0.4170 -0.6522
 1485SOL    HW216089   4.631   1.235   2.589 -0.1412  1.1594 -1.0398
 1486SOL     OW16090   2.151   3.895  15.317  0.3433 -0.2441  0.3978
 1486SOL    HW116091   2.065   3.933  15.301 -0.3472 -2.8866 -2.1233
 1486SOL    HW216092   2.193   3.925  15.236  0.4943  0.3671  0.7010
 1487SOL     OW16093   4.478   1.194   9.350 -0.5096 -0.3888  0.1751
 1487SOL    HW116094   4.500   1.101   9.349  2.8088  0.4144 -2.7110
 1487SOL    HW216095   4.563   1.221   9.385 -0.5424  1.5003 -1.2325
 1488SOL     OW16096   2.899   0.025   0.785  0.6992 -0.0344  0.3322
 1488SOL    HW116097   2.833   4.692   0.793  0.0994  0.5852  0.6428
 1488SOL    HW216098   2.919   0.032   0.691 -0.6629  0.0566  0.0593
 1489SOL     OW16099   2.711   1.355   8.896  0.0399 -0.0791  0.0093
 1489SOL    HW116100   2.639   1.415   8.880  0.9554  1.4092  1.5407
 1489SOL    HW216101   2.728   1.363   8.990 -1.6358  0.9866  0.2179
 1490SOL     OW16102   2.900   2.292   7.682 -0.0725 -0.1608  0.1130
 1490SOL    HW116103   2.983   2.309   7.726  0.5902 -1.1324 -0.7325
 1490SOL    HW216104   2.871   2.379   7.655  0.4267 -0.4392 -1.3452
 1491SOL     OW16105   2.621   2.035   5.420 -0.7382  0.1502 -0.0006
 1491SOL    HW116106   2.636   2.122   5.381 -2.8203  0.0038 -1.1505
 1491SOL    HW216107   2.710   2.017   5.449  0.4650 -1.6295 -4.7577
 1492SOL     OW16108   2.401   1.268   7.538 -0.0456 -0.3955 -0.0650
 1492SOL    HW116109   2.495   1.259   7.555  0.3275 -0.9194 -2.3690
 1492SOL    HW216110   2.395   1.358   7.505 -0.6148  0.6327  2.7885
 1493SOL     OW16111   2.549   4.491   8.395 -0.2000 -0.0736 -0.6168
 1493SOL    HW116112   2.502   4.454   8.321 -1.0532 -1.5332  0.6479
 1493SOL    HW216113   2.625   4.528   8.350 -1.2973 -1.5675 -3.6118
 1494SOL     OW16114   4.109   4.207   8.328  0.0369  0.0461  0.4652
 1494SOL    HW116115   4.202   4.187   8.336  0.3799  2.1525  1.6424
 1494SOL    HW216116   4.077   4.134   8.275 -1.3210  0.6618  0.4317
 1495SOL     OW16117   1.064   2.186   8.307  0.7399 -0.6812  0.3027
 1495SOL    HW116118   1.080   2.266   8.356  1.9329 -2.5311  2.9509
 1495SOL    HW216119   1.066   2.210   8.215  2.8817  0.9441  0.7715
 1496SOL     OW16120   0.111   4.703   6.706 -0.9145 -0.0132 -0.0564
 1496SOL    HW116121   0.040   4.677   6.647 -2.0309 -1.9194  2.1267
 1496SOL    HW216122   0.110   4.629   6.766  1.4812  1.2610  1.5704
 1497SOL     OW16123   2.353   2.140  14.851 -0.2818 -0.6777 -0.3047
 1497SOL    HW116124   2.266   2.180  14.848 -0.0571 -0.0653  1.0607
 1497SOL    HW216125   2.405   2.219  14.862  0.5481 -1.4054  0.9756
 1498SOL     OW16126   1.008   1.037   8.609 -0.5463 -0.1581  0.0209
 1498SOL    HW116127   1.082   1.004   8.558 -0.0591  0.6271  0.2294
 1498SOL    HW216128   0.931   0.986   8.583  0.4665 -1.2671 -0.8133
 1499SOL     OW16129   1.526   4.369   2.868  0.3809  0.0753  0.0528
 1499SOL    HW116130   1.594   4.322   2.917  1.6967  2.7399  0.7254
 1499SOL    HW216131   1.541   4.462   2.880 -0.9426  0.2044  0.7469
 1500SOL     OW16132   2.528   0.205   9.034  0.1025 -0.4680 -0.5206
 1500SOL    HW116133   2.533   0.251   9.117  0.5267 -0.9666 -0.2707
 1500SOL    HW216134   2.606   0.150   9.046  0.2057 -0.9450 -3.3543
 1501SOL     OW16135   2.072   0.567   2.230  0.1345  0.8378  0.3585
 1501SOL    HW116136   2.026   0.642   2.267 -0.1269  0.1139  1.5027
 1501SOL    HW216137   1.998   0.533   2.180  2.4185  0.3323 -2.6787
 1502SOL     OW16138   0.730   4.613   7.294  0.3034 -0.6736 -0.2375
 1502SOL    HW116139   0.799   4.603   7.228  1.2596  0.6214  0.5657
 1502SOL    HW216140   0.685   4.529   7.282 -0.6925 -0.1967  0.1462
 1503SOL     OW16141   3.175   0.470   0.524 -0.1065  0.2056  0.3600
 1503SOL    HW116142   3.167   0.495   0.616 -0.0113  0.7823  0.2091
 1503SOL    HW216143   3.142   0.549   0.483  0.2566  0.6545  0.9262
 1504SOL     OW16144   2.636   3.824   0.882 -0.8613  0.3761 -0.3363
 1504SOL    HW116145   2.580   3.866   0.948  1.9334 -0.1732  2.4153
 1504SOL    HW216146   2.638   3.894   0.817 -0.6846  2.1535  1.5732
 1505SOL     OW16147   4.390   1.315   8.888 -0.3601  0.2990  0.4524
 1505SOL    HW116148   4.314   1.297   8.944  0.3796  1.3969  1.8202
 1505SOL    HW216149   4.456   1.253   8.920 -1.1992 -0.7104  0.2406
 1506SOL     OW16150   2.265   3.261   4.223 -0.1833  0.2627  0.7332
 1506SOL    HW116151   2.242   3.168   4.224 -0.3738  0.3110  0.8644
 1506SOL    HW216152   2.357   3.252   4.249  0.0455  0.3736 -0.0245
 1507SOL     OW16153   3.776   3.197   2.492 -0.1550 -0.2886  0.9142
 1507SOL    HW116154   3.865   3.222   2.519  0.2986 -1.2078  0.2616
 1507SOL    HW216155   3.800   3.132   2.425 -0.4903  1.9613 -1.4158
 1508SOL     OW16156   0.193   1.598   2.343 -0.4786 -0.7862 -0.2993
 1508SOL    HW116157   0.271   1.545   2.330  0.8751  1.4828 -1.3654
 1508SOL    HW216158   0.179   1.628   2.253  0.5016  0.4685 -0.0418
 1509SOL     OW16159   3.280   4.652   5.344 -0.3671  0.2334 -0.2196
 1509SOL    HW116160   3.247   4.699   5.421  1.9203  4.3648 -1.7530
 1509SOL    HW216161   3.289   4.734   5.295 -0.4709  1.0604  1.1546
 1510SOL     OW16162   2.984   1.614   7.619 -0.1203  0.1643  0.8371
 1510SOL    HW116163   2.924   1.602   7.693  0.0148 -2.0992  0.5639
 1510SOL    HW216164   3.060   1.574   7.661 -0.1161 -1.7936 -1.0427
 1511SOL     OW16165   2.560   1.736  13.287  0.3507 -0.2359  0.1807
 1511SOL    HW116166   2.594   1.826  13.291  0.0300 -0.0665 -1.1516
 1511SOL    HW216167   2.560   1.724  13.192  0.7171  0.8427  0.0440
 1512SOL     OW16168   4.315   2.527   9.128 -0.2253  0.2206  0.0927
 1512SOL    HW116169   4.317   2.435   9.154 -2.6623 -0.0872 -0.7620
 1512SOL    HW216170   4.357   2.529   9.042 -0.1097  0.5935  0.1598
 1513SOL     OW16171   1.222   3.268  15.653 -0.0031 -0.1666  0.0589
 1513SOL    HW116172   1.231   3.287  15.559 -2.1803  0.9097  0.0696
 1513SOL    HW216173   1.173   3.345  15.682  0.3710 -0.0750  0.4425
 1514SOL     OW16174   0.721   4.669   2.902 -0.8531  0.4895  0.5666
 1514SOL    HW116175   0.734   4.723   2.980  0.4901  0.6518  0.2280
 1514SOL    HW216176   0.714   0.004   2.837  3.2712 -0.5746 -1.0077
 1515SOL     OW16177   2.982   3.768   1.553  0.6018  0.0604 -0.4719
 1515SOL    HW116178   2.979   3.836   1.621  1.5359  0.3528 -0.7264
 1515SOL    HW216179   3.063   3.727   1.582  0.4589 -0.2234 -0.4778
 1516SOL     OW16180   2.016   3.744   8.268  0.0950 -0.0017 -0.3183
 1516SOL    HW116181   2.045   3.689   8.341 -2.2001 -0.5610  0.1660
 1516SOL    HW216182   1.921   3.745   8.261  0.1795  1.4133 -1.3480
 1517SOL     OW16183   3.962   2.315   6.920  0.5096  0.2043 -0.1920
 1517SOL    HW116184   4.017   2.255   6.870 -0.1667 -0.3219 -0.2986
 1517SOL    HW216185   4.009   2.299   7.002  0.9545 -1.0028 -0.6951
 1518SOL     OW16186   3.562   0.439   5.718  0.2415 -0.7500 -0.3998
 1518SOL    HW116187   3.523   0.525   5.707  1.9295  0.3206  1.9316
 1518SOL    HW216188   3.517   0.428   5.802  1.2471 -1.1274  0.1006
 1519SOL     OW16189   2.065   4.714   6.339  0.5038  0.2537 -0.2530
 1519SOL    HW116190   2.120   0.040   6.388 -1.3623 -0.1088  2.3165
 1519SOL    HW216191   1.998   4.695   6.405  1.5676  2.4035  1.4415
 1520SOL     OW16192   3.917   2.911  16.698  0.0579 -0.0535  0.0844
 1520SOL    HW116193   3.990   2.935  16.755 -0.2003 -3.0033  1.6649
 1520SOL    HW216194   3.853   2.882  16.763 -0.9567  4.1787  0.9562
 1521SOL     OW16195   1.771   2.049   1.758 -0.1288  0.0023 -0.9327
 1521SOL    HW116196   1.715   2.116   1.796 -0.2464 -0.1744 -0.7976
 1521SOL    HW216197   1.748   1.981   1.821  2.3052 -0.2623 -0.2957
 1522SOL     OW16198   2.872   2.549   5.916 -0.0239  0.5685 -0.4478
 1522SOL    HW116199   2.791   2.548   5.968  0.4436 -2.5684  0.2029
 1522SOL    HW216200   2.877   2.639   5.885  0.4227  1.0290  0.9731
 1523SOL     OW16201   2.981   0.467   7.778  0.3433 -0.5208  0.0980
 1523SOL    HW116202   2.938   0.383   7.791 -0.0482 -0.6019 -1.7415
 1523SOL    HW216203   3.019   0.484   7.865  1.0984  0.2909 -0.3906
 1524SOL     OW16204   1.570   2.384  10.547 -0.1320  0.3429 -0.2688
 1524SOL    HW116205   1.516   2.384  10.468 -1.1244 -0.7682  0.4161
 1524SOL    HW216206   1.654   2.381  10.501  0.0705 -2.2150  0.2557
 1525SOL     OW16207   0.729   0.155  17.702  0.4665  0.2743 -0.2041
 1525SOL    HW116208   0.650   0.110  17.674  0.9104  0.1291 -1.2402
 1525SOL    HW216209   0.746   0.223  17.636  0.1394  1.2801  0.7458
 1526SOL     OW16210   2.181   4.001   2.057  0.4304  0.2417  0.8861
 1526SOL    HW116211   2.240   4.068   2.092  2.1013  0.7119 -2.8344
 1526SOL    HW216212   2.143   4.059   1.991 -0.9194 -1.7627 -0.0973
 1527SOL     OW16213   0.434   0.897  13.884 -0.2220 -0.1873  0.5544
 1527SOL    HW116214   0.489   0.975  13.875  0.4273 -0.8193 -1.0032
 1527SOL    HW216215   0.393   0.910  13.970  1.0516 -1.9339  1.4126
 1528SOL     OW16216   3.631   0.860   7.645 -0.7603  0.5715  0.2163
 1528SOL    HW116217   3.537   0.848   7.635 -0.4279 -1.1668 -0.7666
 1528SOL    HW216218   3.640   0.952   7.620 -1.4384  0.8229  0.8935
 1529SOL     OW16219   3.113   3.885   8.664 -0.4485 -0.2934 -0.1933
 1529SOL    HW116220   3.049   3.897   8.593 -1.6568 -1.8532  0.6406
 1529SOL    HW216221   3.069   3.831   8.729  1.0038  0.4789  1.4389
 1530SOL     OW16222   0.324   3.378   4.271  0.0035  0.1625  0.0844
 1530SOL    HW116223   0.410   3.393   4.311  0.7216  0.1724 -1.4475
 1530SOL    HW216224   0.271   3.429   4.332  0.3772  0.0567  0.5011
 1531SOL     OW16225   1.612   3.555  16.776 -0.1215 -0.1983 -0.2600
 1531SOL    HW116226   1.517   3.545  16.768 -0.1048  0.7814 -1.7024
 1531SOL    HW216227   1.641   3.516  16.694 -1.8214 -1.5380 -0.2139
 1532SOL     OW16228   0.775   0.560   7.883  0.7450 -0.4258  0.8577
 1532SOL    HW116229   0.764   0.468   7.859 -1.4168 -0.1124  0.6481
 1532SOL    HW216230   0.830   0.564   7.962  0.6725  0.2322  0.8772
 1533SOL     OW16231   2.866   1.465   2.835 -0.0693 -0.3856  0.1492
 1533SOL    HW116232   2.805   1.508   2.895  0.1142  0.5400 -0.3377
 1533SOL    HW216233   2.933   1.426   2.891  1.2542  2.6304  0.6783
 1534SOL     OW16234   0.886   2.764   8.061  0.2920  0.0464  0.3452
 1534SOL    HW116235   0.945   2.829   8.098 -1.2761  0.5090  2.0241
 1534SOL    HW216236   0.829   2.747   8.136 -0.2282 -1.1367 -0.3089
 1535SOL     OW16237   0.888   2.902   1.702 -0.2194 -0.5835 -0.0730
 1535SOL    HW116238   0.850   2.929   1.785 -0.8785 -2.3698  0.2044
 1535SOL    HW216239   0.982   2.906   1.722 -0.1914  0.3009 -0.3717
 1536SOL     OW16240   3.180   3.134   3.088 -0.0463 -0.4445  0.4207
 1536SOL    HW116241   3.090   3.165   3.099  0.3966  0.6003  1.2539
 1536SOL    HW216242   3.201   3.109   3.178  1.3478  1.3648  0.6062
 1537SOL     OW16243   3.606   0.098  12.897 -0.8035  0.0007 -0.6205
 1537SOL    HW116244   3.629   0.019  12.849 -1.1582 -0.9355  0.7631
 1537SOL    HW216245   3.562   0.150  12.830  0.6962  0.3885 -1.2825
 1538SOL     OW16246   2.371   2.065   3.208 -0.0442 -0.3340  0.2730
 1538SOL    HW116247   2.370   2.149   3.162  0.5751 -0.4494  0.0448
 1538SOL    HW216248   2.416   2.016   3.140  1.6353  0.1184  1.0515
 1539SOL     OW16249   0.514   4.651  16.762  0.0911 -0.2002 -0.5419
 1539SOL    HW116250   0.489   4.732  16.719  1.4633 -0.6381 -2.1622
 1539SOL    HW216251   0.500   4.681  16.852 -0.5389  0.8196 -0.9813
 1540SOL     OW16252   0.982   3.926   0.049  0.3532  0.1503  0.3396
 1540SOL    HW116253   1.020   3.904  17.703  0.5090  1.0678  0.1644
 1540SOL    HW216254   1.025   4.008   0.073  1.4826 -0.0388 -1.0228
 1541SOL     OW16255   3.462   1.447  10.126 -0.3092  0.2536  0.8074
 1541SOL    HW116256   3.421   1.529  10.100 -1.0954 -0.7876 -1.1831
 1541SOL    HW216257   3.542   1.474  10.173 -0.8631  1.6763  0.9267
 1542SOL     OW16258   1.794   0.587  12.252 -0.0385 -0.2379  0.7718
 1542SOL    HW116259   1.804   0.675  12.216  0.7865 -0.4433  0.4791
 1542SOL    HW216260   1.744   0.535  12.189  0.0351  0.3438  0.2320
 1543SOL     OW16261   0.337   2.996   1.445 -0.2701  0.1768  0.2274
 1543SOL    HW116262   0.391   2.956   1.377  0.1010 -1.7070  1.6214
 1543SOL    HW216263   0.338   2.922   1.506  0.5202  0.7029  0.8593
 1544SOL     OW16264   1.517   0.944   1.157  0.2459  0.0478  0.4532
 1544SOL    HW116265   1.440   0.900   1.121  1.8098 -1.7175 -0.7293
 1544SOL    HW216266   1.480   1.010   1.215 -0.3912 -0.2530  0.3901
 1545SOL     OW16267   1.078   4.557   6.670  0.5802  0.5192 -0.1799
 1545SOL    HW116268   1.089   4.471   6.630  1.9853  0.2537  0.7829
 1545SOL    HW216269   1.146   4.613   6.631 -0.0274 -0.3118 -2.4168
 1546SOL     OW16270   4.528   2.911  12.179 -0.4146 -0.4312 -0.6570
 1546SOL    HW116271   4.554   2.849  12.111  1.4644  1.6352 -1.8490
 1546SOL    HW216272   4.613   2.933  12.217 -0.5037 -1.1580 -0.0365
 1547SOL     OW16273   1.093   3.464   7.748 -0.3448 -0.8689  0.1173
 1547SOL    HW116274   1.015   3.477   7.694 -0.9137 -1.7547  0.7013
 1547SOL    HW216275   1.063   3.519   7.821  1.8159 -0.0937  0.4265
 1548SOL     OW16276   0.473   3.200   5.062 -0.4546 -0.2652 -0.2063
 1548SOL    HW116277   0.437   3.197   4.973 -0.1281  2.1588 -0.4021
 1548SOL    HW216278   0.515   3.114   5.065 -0.0115 -0.0968 -1.7608
 1549SOL     OW16279   3.843   2.686   0.187  0.3352  0.0248  0.9319
 1549SOL    HW116280   3.759   2.649   0.158  0.3720  0.0225  0.8278
 1549SOL    HW216281   3.856   2.676   0.281  0.9793  0.6466  0.9090
 1550SOL     OW16282   0.229   2.041   8.826  0.6567  0.2053 -0.3132
 1550SOL    HW116283   0.210   2.031   8.919 -1.3292 -0.4173 -0.7676
 1550SOL    HW216284   0.322   2.023   8.816  0.6232  0.0764 -0.4055
 1551SOL     OW16285   3.093   2.023   6.692 -0.1323 -0.0345  0.6150
 1551SOL    HW116286   3.010   2.004   6.736 -0.5879 -1.8692 -1.0208
 1551SOL    HW216287   3.123   2.103   6.734  2.0078 -1.3145  1.5048
 1552SOL     OW16288   1.062   3.137  10.576 -0.0075 -0.4729  0.1485
 1552SOL    HW116289   1.061   3.227  10.545 -0.1261  0.0105  1.5224
 1552SOL    HW216290   1.058   3.086  10.495  2.5725  1.0388 -0.8982
 1553SOL     OW16291   3.306   1.428  17.165 -0.3914 -0.5743 -0.0689
 1553SOL    HW116292   3.254   1.350  17.185  0.9479 -1.1572  1.1278
 1553SOL    HW216293   3.391   1.390  17.145 -1.0706 -0.8477 -2.4471
 1554SOL     OW16294   0.171   1.595   4.047  0.2204 -0.0573  0.0445
 1554SOL    HW116295   0.119   1.579   3.969  1.3966  1.5788 -1.0854
 1554SOL    HW216296   0.106   1.638   4.102  0.8823  1.8686 -0.6829
 1555SOL     OW16297   3.131   2.728   3.821  0.2045  0.0027  0.1256
 1555SOL    HW116298   3.144   2.819   3.794  0.9604 -0.3297 -0.6593
 1555SOL    HW216299   3.111   2.681   3.740 -2.8633  1.5720  0.0101
 1556SOL     OW16300   2.542   3.492   1.413 -0.1982 -1.1596  0.0292
 1556SOL    HW116301   2.488   3.414   1.425  1.3384 -2.0556  1.1013
 1556SOL    HW216302   2.527   3.530   1.500  1.4302 -1.4141  0.4219
 1557SOL     OW16303   3.298   2.058   5.820 -0.2928 -0.1558 -0.0911
 1557SOL    HW116304   3.214   2.028   5.855 -2.1891  5.3327  0.0083
 1557SOL    HW216305   3.282   2.023   5.733  1.8407 -0.4106 -0.3993
 1558SOL     OW16306   2.000   1.443  17.680 -0.1009 -0.3999 -0.1680
 1558SOL    HW116307   2.037   1.525  17.712  0.1991  0.4260 -2.6182
 1558SOL    HW216308   1.983   1.459  17.587 -0.5921 -2.1332 -0.3736
 1559SOL     OW16309   2.710   3.460   4.872  0.0622  0.1905  0.0543
 1559SOL    HW116310   2.659   3.539   4.890  0.7027  0.8351 -0.9129
 1559SOL    HW216311   2.640   3.395   4.870  2.0214 -1.9377  1.4253
 1560SOL     OW16312   3.169   2.011   3.633  0.2152 -0.1545 -0.2045
 1560SOL    HW116313   3.094   2.062   3.602  0.3111 -0.0008 -0.1829
 1560SOL    HW216314   3.127   1.982   3.714  1.3250  1.5978  0.9947
 1561SOL     OW16315   1.394   0.091   7.517 -0.4013 -0.1150  0.1232
 1561SOL    HW116316   1.434   0.021   7.569  0.4982 -0.9430 -1.7143
 1561SOL    HW216317   1.315   0.045   7.487 -0.9722  0.6897  0.3764
 1562SOL     OW16318   1.440   4.004   5.153 -0.2556  0.2538  0.0755
 1562SOL    HW116319   1.507   3.938   5.172 -2.3146 -1.7446  0.4610
 1562SOL    HW216320   1.415   4.027   5.242 -1.2146  2.2798 -0.7181
 1563SOL     OW16321   1.567   0.918   7.675 -0.0695  0.4705 -0.8253
 1563SOL    HW116322   1.486   0.868   7.671  0.2898 -0.2593  1.1564
 1563SOL    HW216323   1.525   0.981   7.734 -0.6895 -1.5254  0.8861
 1564SOL     OW16324   2.045   0.411   3.940  0.3656 -0.1165  0.0202
 1564SOL    HW116325   1.970   0.403   3.881  0.2819 -2.6072  0.4741
 1564SOL    HW216326   2.122   0.419   3.884  0.4725 -0.2342  0.1519
 1565SOL     OW16327   3.695   4.136  12.619 -0.0105 -0.4874  0.6971
 1565SOL    HW116328   3.723   4.055  12.661  0.1392 -0.8474 -0.0912
 1565SOL    HW216329   3.727   4.139  12.529  2.4411  2.2620  1.6877
 1566SOL     OW16330   0.120   3.118   3.889 -0.2234  0.0870 -0.0912
 1566SOL    HW116331   0.112   3.079   3.975  1.1807  1.1498  0.5255
 1566SOL    HW216332   0.030   3.151   3.888 -0.5870 -0.9202 -0.2505
 1567SOL     OW16333   2.805   1.674   7.410  0.0372  0.3346  0.5429
 1567SOL    HW116334   2.878   1.679   7.471  0.3716  1.0947  0.0760
 1567SOL    HW216335   2.858   1.658   7.332 -0.1857 -1.6216  0.7764
 1568SOL     OW16336   4.106   0.356   7.364 -0.1983 -0.3283 -0.4802
 1568SOL    HW116337   4.167   0.415   7.408 -1.3168 -0.4960  1.2689
 1568SOL    HW216338   4.023   0.400   7.381 -0.3878 -1.5423  1.7598
 1569SOL     OW16339   3.561   2.727  12.790  0.0880 -0.9099  0.3349
 1569SOL    HW116340   3.573   2.819  12.814  0.3868 -0.7192 -0.5208
 1569SOL    HW216341   3.507   2.734  12.711  0.1019  1.2652  0.5115
 1570SOL     OW16342   2.681   3.191  17.231 -0.3598  0.1545  0.6924
 1570SOL    HW116343   2.654   3.229  17.147 -1.2200 -0.8573  0.5182
 1570SOL    HW216344   2.681   3.097  17.214  1.8195  0.4630 -0.9709
 1571SOL     OW16345   3.568   3.072   5.198 -0.4596 -0.1786  0.2801
 1571SOL    HW116346   3.495   3.110   5.149  0.5308 -0.9834 -1.7683
 1571SOL    HW216347   3.520   2.998   5.235  2.0167 -0.9189  1.9555
 1572SOL     OW16348   2.131   4.674   2.064 -0.1678  0.3860  0.6366
 1572SOL    HW116349   2.143   0.032   2.083 -1.2045  1.1497 -2.4578
 1572SOL    HW216350   2.040   4.652   2.081  0.3625 -1.5154  1.0193
 1573SOL     OW16351   1.692   0.431   9.637 -0.0843  0.2980 -0.6181
 1573SOL    HW116352   1.672   0.443   9.545  1.3405  0.7493 -0.8749
 1573SOL    HW216353   1.623   0.367   9.655 -0.3570  0.8686  0.3679
 1574SOL     OW16354   3.800   3.582  14.492 -0.1455 -0.6658  0.4206
 1574SOL    HW116355   3.855   3.660  14.485 -0.7639 -0.3731 -1.2206
 1574SOL    HW216356   3.778   3.580  14.398  0.3100  1.6309  0.2619
 1575SOL     OW16357   3.705   1.329   6.665 -0.0581 -0.0581  0.4014
 1575SOL    HW116358   3.621   1.337   6.619  0.2384 -1.4722 -0.3792
 1575SOL    HW216359   3.755   1.289   6.594  0.3613  0.4908  0.3823
 1576SOL     OW16360   0.255   1.438  10.971  0.4056 -0.6231 -0.5895
 1576SOL    HW116361   0.281   1.457  11.062  0.9043 -2.0179 -0.4521
 1576SOL    HW216362   0.183   1.501  10.963  1.2702  0.5169  0.5480
 1577SOL     OW16363   0.824   3.092   2.712 -0.1405  0.3629 -0.1287
 1577SOL    HW116364   0.878   3.059   2.784 -0.9545 -0.0586  0.2859
 1577SOL    HW216365   0.743   3.046   2.734 -0.0642  0.2073 -0.1669
 1578SOL     OW16366   1.396   3.591   6.135 -0.2295 -0.9240  0.2380
 1578SOL    HW116367   1.478   3.588   6.184  0.2162  3.4716 -0.1855
 1578SOL    HW216368   1.418   3.572   6.044 -0.5790 -0.9293  0.1517
 1579SOL     OW16369   4.131   2.387   0.507 -0.3058  0.7278  0.0433
 1579SOL    HW116370   4.090   2.303   0.488 -1.1201  1.2263 -0.3866
 1579SOL    HW216371   4.106   2.398   0.598 -0.2474 -0.8902  0.2439
 1580SOL     OW16372   2.343   1.790  16.078 -0.4726  0.1908 -0.8148
 1580SOL    HW116373   2.435   1.799  16.104 -0.2822 -1.3976 -0.9678
 1580SOL    HW216374   2.326   1.875  16.037 -1.3236  0.1261 -0.5870
 1581SOL     OW16375   0.614   1.712  17.033 -0.4864 -0.0194  0.0555
 1581SOL    HW116376   0.541   1.773  17.019  0.1840  0.9292  0.7114
 1581SOL    HW216377   0.681   1.763  17.077  0.8990 -1.4402 -0.4088
 1582SOL     OW16378   0.972   0.574   8.788 -0.1547 -0.7287  0.3716
 1582SOL    HW116379   0.914   0.547   8.859 -0.2489  0.7080  0.8571
 1582SOL    HW216380   0.915   0.589   8.713  0.1839 -0.5460  0.1480
 1583SOL     OW16381   0.797   3.842   7.302 -0.4371  0.3340  0.3289
 1583SOL    HW116382   0.831   3.930   7.285 -2.2144  0.8926 -0.3806
 1583SOL    HW216383   0.749   3.829   7.220 -0.6225 -1.1607  0.6721
 1584SOL     OW16384   0.493   2.913   4.143 -0.1467  0.4348  0.2319
 1584SOL    HW116385   0.558   2.956   4.198  1.2036 -1.2887 -0.0002
 1584SOL    HW216386   0.421   2.908   4.207 -0.3885 -0.6610 -0.1283
 1585SOL     OW16387   0.764   4.014   6.907  0.1611 -0.0429 -0.6457
 1585SOL    HW116388   0.671   4.012   6.927  0.2375 -0.6758 -0.3575
 1585SOL    HW216389   0.789   3.922   6.901  1.3024  0.1377  1.3489
 1586SOL     OW16390   4.456   2.866   9.116  0.4001 -0.5610  0.1549
 1586SOL    HW116391   4.395   2.818   9.059  0.4337  1.5843 -1.6715
 1586SOL    HW216392   4.402   2.944   9.130 -0.6528 -1.4426  0.9980
 1587SOL     OW16393   3.181   3.350   8.035 -0.1695  0.6198 -0.5988
 1587SOL    HW116394   3.269   3.387   8.038  0.6768 -1.3400 -1.7410
 1587SOL    HW216395   3.140   3.394   8.110  2.6940  0.3128  1.1214
 1588SOL     OW16396   0.089   0.664  12.756 -0.0645  0.2766 -0.9036
 1588SOL    HW116397   0.028   0.606  12.802 -0.5823 -0.2334 -2.2281
 1588SOL    HW216398   0.030   0.694  12.687 -0.8777  1.9125  0.4678
 1589SOL     OW16399   1.092   0.815   3.125  0.0581  0.4343 -0.8429
 1589SOL    HW116400   1.061   0.840   3.038 -0.6327  0.6986 -0.5252
 1589SOL    HW216401   1.115   0.902   3.158  0.4901 -0.9808  2.5936
 1590SOL     OW16402   4.061   1.618   8.412  0.2498  0.3062  0.4227
 1590SOL    HW116403   4.040   1.611   8.505 -0.3189  1.5591  0.3908
 1590SOL    HW216404   4.152   1.649   8.413  0.7185 -1.0978  0.7248
 1591SOL     OW16405   4.354   2.181   1.600 -0.9058 -0.0759 -0.1256
 1591SOL    HW116406   4.329   2.117   1.667  0.7834 -1.1006 -0.4742
 1591SOL    HW216407   4.275   2.169   1.548 -0.7129 -1.4129 -0.1109
 1592SOL     OW16408   0.111   4.156  15.996  0.2377  0.2733  0.5777
 1592SOL    HW116409   0.073   4.088  16.051  3.4035 -0.7727  1.4442
 1592SOL    HW216410   0.204   4.137  16.002  0.1738 -0.3069 -0.3310
 1593SOL     OW16411   4.034   4.409  11.944  0.3433 -0.1918 -0.0917
 1593SOL    HW116412   4.113   4.361  11.918 -0.9164 -2.2208 -0.1698
 1593SOL    HW216413   3.972   4.351  11.900 -0.9554  3.0062 -2.4485
 1594SOL     OW16414   2.159   0.926   4.480  0.0477 -0.2192  0.5897
 1594SOL    HW116415   2.138   0.928   4.387 -0.7963 -0.7457  0.7654
 1594SOL    HW216416   2.071   0.922   4.517 -0.2164  0.4390  0.0291
 1595SOL     OW16417   0.902   1.744   3.430  0.3307 -0.0346  0.6197
 1595SOL    HW116418   0.986   1.701   3.444 -0.3639 -1.6399 -0.2498
 1595SOL    HW216419   0.883   1.777   3.518 -2.4296  0.3898 -0.1375
 1596SOL     OW16420   3.628   2.865   6.968 -0.3711  0.4158  0.0906
 1596SOL    HW116421   3.671   2.929   6.910  1.7432 -0.7287  0.3749
 1596SOL    HW216422   3.646   2.783   6.922  0.2535 -0.2768  1.5646
 1597SOL     OW16423   0.240   4.103   8.088 -0.2878  0.8007  0.5578
 1597SOL    HW116424   0.300   4.089   8.162  0.2757 -0.3536 -0.1258
 1597SOL    HW216425   0.243   4.199   8.087 -1.4272  0.7715 -2.4034
 1598SOL     OW16426   3.003   0.891   9.566  0.6235 -0.0926 -0.5521
 1598SOL    HW116427   2.953   0.969   9.542  1.0433  0.4028  0.1822
 1598SOL    HW216428   2.944   0.818   9.549  0.4757 -0.0219 -0.3380
 1599SOL     OW16429   1.514   2.810   6.097 -0.6847 -0.0100  0.0375
 1599SOL    HW116430   1.431   2.855   6.083  1.2768  3.6652  0.4896
 1599SOL    HW216431   1.525   2.851   6.182 -0.5155 -1.1896  0.5901
 1600SOL     OW16432   0.376   2.279   8.641  0.0367  0.4127  0.1642
 1600SOL    HW116433   0.321   2.278   8.563  0.2379 -1.7382  0.0549
 1600SOL    HW216434   0.308   2.242   8.697 -0.3736  1.0380  0.0861
 1601SOL     OW16435   3.544   3.569   2.044  0.0820  0.3765 -0.0125
 1601SOL    HW116436   3.633   3.537   2.027 -1.0420 -2.6225 -0.3127
 1601SOL    HW216437   3.567   3.653   2.083  2.2891 -1.6123  3.0693
 1602SOL     OW16438   4.211   4.606   8.296 -0.4804 -0.0755 -0.4126
 1602SOL    HW116439   4.127   4.621   8.254 -0.5881  0.2497 -0.0798
 1602SOL    HW216440   4.229   4.512   8.294  1.2163  0.2229  0.1848
 1603SOL     OW16441   3.717   0.345  15.098  0.6347  0.0748  0.1793
 1603SOL    HW116442   3.731   0.354  15.004 -3.0473  0.9257 -0.3098
 1603SOL    HW216443   3.622   0.361  15.092  0.5859  0.7518  2.8943
 1604SOL     OW16444   0.308   0.140   4.478 -0.2851  0.0773 -0.2827
 1604SOL    HW116445   0.254   0.183   4.411 -1.9194 -3.6828 -1.3637
 1604SOL    HW216446   0.254   0.134   4.556 -0.1624  2.6243  0.0178
 1605SOL     OW16447   2.550   2.220   9.322  0.0613  0.1357  0.4152
 1605SOL    HW116448   2.558   2.199   9.229  1.1957 -0.2869  0.6078
 1605SOL    HW216449   2.550   2.134   9.364  0.5816  0.5117  1.1933
 1606SOL     OW16450   4.485   1.130  15.620  0.3101  0.3106  0.0011
 1606SOL    HW116451   4.540   1.098  15.691 -0.7513  0.3861  0.8518
 1606SOL    HW216452   4.533   1.087  15.549 -1.6146  0.7513 -1.5982
 1607SOL     OW16453   2.142   1.655   5.802 -0.0499  0.1853  0.3802
 1607SOL    HW116454   2.163   1.677   5.711 -1.7665  0.8632  0.1468
 1607SOL    HW216455   2.046   1.656   5.795  0.0875 -0.4442 -1.5959
 1608SOL     OW16456   2.034   3.863  15.648 -0.2659 -0.3153 -0.2296
 1608SOL    HW116457   2.006   3.867  15.740  3.2509  1.7269  0.7571
 1608SOL    HW216458   2.004   3.778  15.616  0.1150 -0.3803 -0.4102
 1609SOL     OW16459   0.843   4.261   6.594  0.8011 -0.2498 -1.0015
 1609SOL    HW116460   0.775   4.322   6.623  2.4205  0.2032  1.8151
 1609SOL    HW216461   0.800   4.176   6.581 -0.7039  0.6633 -2.2018
 1610SOL     OW16462   2.745   3.425   2.454 -0.0158  0.4368 -0.4417
 1610SOL    HW116463   2.797   3.378   2.519  1.2136  3.2924  0.5856
 1610SOL    HW216464   2.815   3.482   2.423  0.0751  1.4098  1.5159
 1611SOL     OW16465   0.034   0.371   5.993  0.2679 -0.2230 -0.2563
 1611SOL    HW116466   0.080   0.295   6.028 -0.2503 -0.0485  0.7771
 1611SOL    HW216467   0.099   0.437   6.017 -1.0426  0.8631  0.2961
 1612SOL     OW16468   1.376   1.091   8.197 -0.0969 -0.1113  0.1677
 1612SOL    HW116469   1.460   1.074   8.156 -0.1109  2.2551 -0.8144
 1612SOL    HW216470   1.316   1.089   8.122 -0.0792  1.0713  0.1217
 1613SOL     OW16471   1.118   2.332   8.093 -0.6965  0.0732  0.0276
 1613SOL    HW116472   1.190   2.385   8.059 -1.0037  0.1114 -0.5636
 1613SOL    HW216473   1.054   2.398   8.066 -1.2015  0.6998  2.7823
 1614SOL     OW16474   3.154   3.575   1.269  0.1358  0.2281  0.2682
 1614SOL    HW116475   3.165   3.484   1.241 -0.5860 -0.0692  0.9243
 1614SOL    HW216476   3.215   3.617   1.209  0.3843 -0.9431 -0.3052
 1615SOL     OW16477   4.167   3.147   8.075 -0.1326  0.3782  0.3031
 1615SOL    HW116478   4.236   3.133   8.140 -0.7454 -3.7400  0.0899
 1615SOL    HW216479   4.192   3.232   8.039  0.4664  0.0360 -0.1068
 1616SOL     OW16480   3.579   3.762  11.080  0.4277 -0.1433 -0.4113
 1616SOL    HW116481   3.595   3.821  11.154  1.6188  0.6090 -1.2678
 1616SOL    HW216482   3.657   3.707  11.075 -0.5548 -1.5103 -0.6419
 1617SOL     OW16483   1.462   3.341   2.602  0.0988 -0.3160  0.2420
 1617SOL    HW116484   1.469   3.431   2.631 -0.9772  0.8972 -3.1995
 1617SOL    HW216485   1.473   3.293   2.684  1.7149 -1.1276 -0.4521
 1618SOL     OW16486   3.887   3.125  14.243  0.0659  0.0879 -0.7149
 1618SOL    HW116487   3.926   3.122  14.155 -0.1346 -2.1484 -0.7408
 1618SOL    HW216488   3.799   3.156  14.222  0.1622  1.9718  1.6318
 1619SOL     OW16489   3.586   2.586   4.487 -0.2068  0.5507  0.1773
 1619SOL    HW116490   3.530   2.509   4.483 -1.1251  1.2361 -0.1747
 1619SOL    HW216491   3.670   2.542   4.477 -0.8551 -0.4108 -1.0736
 1620SOL     OW16492   2.741   0.794   2.789  0.1122  0.3044 -0.1448
 1620SOL    HW116493   2.784   0.871   2.826  1.2013 -2.0899  3.4430
 1620SOL    HW216494   2.701   0.834   2.711 -1.0339 -4.7645 -2.1628
 1621SOL     OW16495   3.194   3.122   6.616 -0.0382 -0.0850 -0.3266
 1621SOL    HW116496   3.209   3.062   6.689  0.4206 -0.5190 -0.7834
 1621SOL    HW216497   3.273   3.175   6.611 -0.5984  1.1034  3.4858
 1622SOL     OW16498   1.713   0.272  12.483  0.4698 -0.3856 -0.9101
 1622SOL    HW116499   1.797   0.231  12.503  0.9846  0.6251 -1.0073
 1622SOL    HW216500   1.674   0.195  12.441  0.5465 -0.0761 -1.5487
 1623SOL     OW16501   1.108   2.758   3.309  0.5821  0.2222 -0.0405
 1623SOL    HW116502   1.125   2.847   3.278  1.4854  0.7957  2.1338
 1623SOL    HW216503   1.045   2.767   3.380  0.7705 -0.3692  0.2038
 1624SOL     OW16504   0.843   2.167   4.973  0.3162 -0.3332  0.6171
 1624SOL    HW116505   0.818   2.137   4.885  1.0425  1.1496 -0.0918
 1624SOL    HW216506   0.762   2.161   5.023  1.2279 -1.0733  1.9985
 1625SOL     OW16507   2.324   0.283  10.381 -0.5756  0.1110 -0.1724
 1625SOL    HW116508   2.323   0.248  10.291 -0.3664  1.7427 -0.8006
 1625SOL    HW216509   2.243   0.333  10.376  0.2580  1.4796  0.0637
 1626SOL     OW16510   1.585   0.573   4.126 -1.3281 -0.0420  0.0852
 1626SOL    HW116511   1.509   0.614   4.085 -1.5338  0.5014  1.0237
 1626SOL    HW216512   1.553   0.561   4.215  0.3324 -1.0038  0.5510
 1627SOL     OW16513   0.861   2.598   7.537 -0.2056 -0.2868  0.0219
 1627SOL    HW116514   0.791   2.655   7.505 -1.9128 -0.9804  2.5561
 1627SOL    HW216515   0.858   2.516   7.488  0.4250 -1.3738  1.8014
 1628SOL     OW16516   0.339   4.644   3.514 -0.6903 -0.2064 -0.2776
 1628SOL    HW116517   0.310   4.635   3.605  3.2410 -0.5806  0.9319
 1628SOL    HW216518   0.300   4.567   3.475  1.4154 -0.9534 -0.9114
 1629SOL     OW16519   3.441   1.464   3.725 -0.2282 -0.0730  0.0006
 1629SOL    HW116520   3.403   1.516   3.796 -0.9957  1.5355 -1.5769
 1629SOL    HW216521   3.393   1.382   3.732 -0.8719  0.4250  1.5518
 1630SOL     OW16522   0.681   0.156   6.161 -0.0074  0.2688  0.5006
 1630SOL    HW116523   0.726   0.089   6.108 -0.3475 -0.3931  1.0469
 1630SOL    HW216524   0.761   0.194   6.195  0.4242  0.1419 -0.3525
 1631SOL     OW16525   2.352   0.154   8.427 -0.4370 -0.3223  0.5294
 1631SOL    HW116526   2.277   0.186   8.476  0.4448  2.6876 -0.1362
 1631SOL    HW216527   2.385   0.089   8.490 -0.3561 -1.7343 -0.9568
 1632SOL     OW16528   1.096   1.128   4.448  0.5628  0.0447  0.1701
 1632SOL    HW116529   1.187   1.100   4.434  0.1599 -1.2821  0.2156
 1632SOL    HW216530   1.078   1.136   4.541  1.6375 -0.9226  0.4741
 1633SOL     OW16531   3.971   1.153   2.137  0.1309 -0.1479 -0.7953
 1633SOL    HW116532   4.051   1.104   2.151 -0.9224 -1.3511  0.9248
 1633SOL    HW216533   3.956   1.132   2.045  0.3905  2.6009 -1.4682
 1634SOL     OW16534   4.292   2.449  13.114  0.6726  0.0368  0.2876
 1634SOL    HW116535   4.369   2.442  13.171 -0.8018  1.1199  2.3933
 1634SOL    HW216536   4.244   2.370  13.139  0.3515  0.1593  0.0532
 1635SOL     OW16537   3.609   3.718   4.981 -0.2980  0.2159 -0.3960
 1635SOL    HW116538   3.540   3.778   5.009  0.1494  0.2746  0.5613
 1635SOL    HW216539   3.616   3.653   5.051 -2.4003  0.1305 -0.2921
 1636SOL     OW16540   4.503   1.221   7.135  0.5755 -0.1683 -0.4060
 1636SOL    HW116541   4.465   1.305   7.112 -0.1094 -0.4457 -0.2812
 1636SOL    HW216542   4.494   1.181   7.049  0.2852  0.6816 -0.7633
 1637SOL     OW16543   2.180   0.174   2.515 -0.1370  0.5294 -0.7675
 1637SOL    HW116544   2.176   0.266   2.488 -0.3735  0.6445 -0.3506
 1637SOL    HW216545   2.269   0.152   2.488 -0.3927 -1.3679 -0.0373
 1638SOL     OW16546   4.138   1.479   5.401 -0.1078  0.6145  0.4525
 1638SOL    HW116547   4.106   1.560   5.440 -1.0379  0.2957  0.3707
 1638SOL    HW216548   4.216   1.460   5.452  0.2838 -0.0332 -0.3838
 1639SOL     OW16549   2.941   3.189  10.421  0.1364 -0.0006  0.1703
 1639SOL    HW116550   2.954   3.100  10.388 -1.9598 -0.2182 -0.0837
 1639SOL    HW216551   2.991   3.243  10.359  0.7882 -1.3394 -0.4706
 1640SOL     OW16552   1.863   2.188   6.012 -0.0029  0.4495  0.1565
 1640SOL    HW116553   1.797   2.255   5.996  0.0302  0.4905  0.1924
 1640SOL    HW216554   1.909   2.185   5.928  0.3340 -0.2407  0.3677
 1641SOL     OW16555   4.039   0.659   7.920 -0.6734 -0.5120 -0.1644
 1641SOL    HW116556   3.990   0.741   7.919 -2.8591 -1.7821  1.0839
 1641SOL    HW216557   4.098   0.677   7.847  0.7174 -1.6900  0.6627
 1642SOL     OW16558   0.232   2.919  13.377  0.4914  0.4187 -0.0810
 1642SOL    HW116559   0.327   2.919  13.387  0.7635 -1.5360 -2.9003
 1642SOL    HW216560   0.213   2.827  13.360  1.7751  0.4884 -1.8038
 1643SOL     OW16561   2.753   0.197   8.662  0.1124  0.3223  1.0187
 1643SOL    HW116562   2.744   0.276   8.715  0.7986  0.8220  0.3952
 1643SOL    HW216563   2.845   0.170   8.669  0.2623 -0.2572 -3.3809
 1644SOL     OW16564   3.977   2.770   8.178 -0.2459 -0.0853 -0.0573
 1644SOL    HW116565   3.891   2.811   8.188 -0.5462 -0.2845 -1.9749
 1644SOL    HW216566   4.017   2.824   8.110 -1.5681  2.1065  0.9160
 1645SOL     OW16567   2.187   2.581   6.997  0.1456 -0.6207  0.4166
 1645SOL    HW116568   2.258   2.547   7.050  1.0266  1.2373  0.4278
 1645SOL    HW216569   2.209   2.673   6.980 -0.4942 -0.2827  1.4056
 1646SOL     OW16570   2.793   1.091  11.142  0.9389 -0.1567  0.1187
 1646SOL    HW116571   2.795   0.997  11.162  1.0007 -0.5486 -1.6780
 1646SOL    HW216572   2.856   1.131  11.201  0.6829  0.8847 -0.3247
 1647SOL     OW16573   2.792   3.767   7.170 -0.2463  0.0306  0.4456
 1647SOL    HW116574   2.721   3.795   7.228 -0.8539  0.9118 -0.7208
 1647SOL    HW216575   2.756   3.783   7.083 -0.1429  0.8922  0.5651
 1648SOL     OW16576   2.728   4.523   2.434  0.4093  0.4303 -0.1631
 1648SOL    HW116577   2.767   4.473   2.506  1.8629 -2.1558 -2.7519
 1648SOL    HW216578   2.788   4.596   2.436 -0.0614  0.8139 -0.0325
 1649SOL     OW16579   2.188   2.159   3.389  0.5242 -0.0481 -0.6680
 1649SOL    HW116580   2.093   2.143   3.385  0.1761  1.0941  3.1146
 1649SOL    HW216581   2.222   2.102   3.321 -1.1517 -3.1633  1.0794
 1650SOL     OW16582   2.736   0.117   9.421 -0.0294 -0.4383 -0.4062
 1650SOL    HW116583   2.714   0.068   9.500  1.3195 -0.8627 -0.3024
 1650SOL    HW216584   2.785   0.056   9.367 -1.5621 -0.2410 -2.0424
 1651SOL     OW16585   3.917   1.721   9.045 -0.0161  0.1818  0.2854
 1651SOL    HW116586   3.991   1.741   8.988  0.5533 -1.5179  0.4572
 1651SOL    HW216587   3.953   1.738   9.133  0.1253 -3.5642  0.9497
 1652SOL     OW16588   2.505   3.728  15.146 -0.4748 -0.5533 -0.1143
 1652SOL    HW116589   2.422   3.773  15.131 -0.3009 -0.1088  0.2365
 1652SOL    HW216590   2.494   3.652  15.089 -1.6968  0.1191 -0.7505
 1653SOL     OW16591   0.451   2.065  12.811 -0.6576 -0.2876  0.9377
 1653SOL    HW116592   0.391   1.991  12.803 -0.5232 -0.1387 -1.4736
 1653SOL    HW216593   0.517   2.032  12.873  1.0600  2.6520  0.6856
 1654SOL     OW16594   3.737   3.243  10.536  1.0783 -0.0002 -0.1348
 1654SOL    HW116595   3.651   3.230  10.576  0.9466  0.4673 -0.2753
 1654SOL    HW216596   3.771   3.154  10.550 -0.4175 -0.4235  0.7803
 1655SOL     OW16597   2.201   1.128   7.366 -0.4567 -0.1328 -0.3395
 1655SOL    HW116598   2.172   1.196   7.306  0.6511  0.4667 -0.1793
 1655SOL    HW216599   2.254   1.175   7.430 -1.8261  0.8266  0.0815
 1656SOL     OW16600   1.109   1.225   2.224 -0.6924  0.0458  0.7701
 1656SOL    HW116601   1.025   1.232   2.178 -2.0228 -1.8531  2.9382
 1656SOL    HW216602   1.101   1.283   2.300  3.2011  2.2558 -0.5004
 1657SOL     OW16603   2.453   0.248   7.303 -0.4647  0.0135  0.3372
 1657SOL    HW116604   2.403   0.169   7.284  0.5983 -0.3443 -0.9452
 1657SOL    HW216605   2.454   0.302   7.223 -0.1359 -0.5490 -0.0359
 1658SOL     OW16606   0.137   1.056   2.877 -0.2890 -0.1840  0.2636
 1658SOL    HW116607   0.200   1.028   2.811 -0.9519  1.4015 -1.0197
 1658SOL    HW216608   0.190   1.126   2.914  0.2014 -0.5391  0.2381
 1659SOL     OW16609   2.250   0.504   9.409  0.4516 -0.1346  0.1903
 1659SOL    HW116610   2.170   0.460   9.381  0.2690  0.0993  0.3366
 1659SOL    HW216611   2.228   0.597   9.417 -0.6922 -0.4244  0.3952
 1660SOL     OW16612   2.038   3.989   0.922  0.4323 -0.4336 -0.3247
 1660SOL    HW116613   1.992   3.938   0.855  2.2091  1.1452 -2.7522
 1660SOL    HW216614   1.975   3.976   0.993 -0.1892 -1.0462 -0.9857
 1661SOL     OW16615   3.744   0.619   6.022  0.3950  0.1526 -0.2123
 1661SOL    HW116616   3.733   0.524   6.019 -2.9741  0.5089  1.3899
 1661SOL    HW216617   3.767   0.653   6.108  0.4588 -0.2132 -0.0863
 1662SOL     OW16618   3.116   3.994  11.706  0.5175  0.3469 -0.0067
 1662SOL    HW116619   3.024   4.001  11.729  1.0558  2.2084  1.5919
 1662SOL    HW216620   3.118   3.963  11.615  1.5962 -0.0062  0.1346
 1663SOL     OW16621   3.257   3.444  16.204 -0.0516  0.3596  0.0907
 1663SOL    HW116622   3.286   3.535  16.189  0.7384  0.2215  0.7991
 1663SOL    HW216623   3.165   3.448  16.178  0.4121 -1.1998 -1.8038
 1664SOL     OW16624   4.186   3.422   6.867  0.0096  0.1529  0.2708
 1664SOL    HW116625   4.282   3.418   6.869 -0.0038  0.2054  1.5071
 1664SOL    HW216626   4.159   3.401   6.778 -2.3518 -1.1654  1.2780
 1665SOL     OW16627   1.044   3.730   1.368 -0.0221 -0.5275 -0.1378
 1665SOL    HW116628   1.072   3.761   1.455 -1.9165  2.7140 -0.7102
 1665SOL    HW216629   0.949   3.741   1.375 -0.1763 -1.7094 -0.4765
 1666SOL     OW16630   4.675   1.077  10.705 -0.9295 -0.1979  0.3669
 1666SOL    HW116631   0.013   1.124  10.744 -2.0022  0.4908  1.5586
 1666SOL    HW216632   4.621   1.153  10.683 -0.9248 -0.4291 -0.4402
 1667SOL     OW16633   4.007   3.053   7.634 -0.5493  0.1278 -0.3783
 1667SOL    HW116634   4.038   3.049   7.543  0.9391 -0.6407  0.1596
 1667SOL    HW216635   3.988   2.963   7.659 -0.5942  0.3011  0.2182
 1668SOL     OW16636   0.322   0.768  12.680  0.0369 -0.5554 -0.0518
 1668SOL    HW116637   0.290   0.779  12.590 -0.0255  0.1757  0.0593
 1668SOL    HW216638   0.237   0.748  12.719  1.4344 -2.7996  1.8525
 1669SOL     OW16639   0.817   0.878   5.649 -0.1320 -0.1574  0.3319
 1669SOL    HW116640   0.884   0.812   5.636 -0.9348 -0.5900 -1.5969
 1669SOL    HW216641   0.874   0.950   5.677  1.7320 -0.6286 -2.3266
 1670SOL     OW16642   2.155   3.690   3.176  0.0906 -0.2778 -0.2318
 1670SOL    HW116643   2.175   3.766   3.230 -0.6532 -0.0884 -0.2139
 1670SOL    HW216644   2.197   3.619   3.224 -1.5452 -1.0505  0.0806
 1671SOL     OW16645   4.498   0.208  12.189  0.5038  0.2963 -0.1831
 1671SOL    HW116646   4.498   0.118  12.220  1.9227  0.2918 -0.1838
 1671SOL    HW216647   4.406   0.225  12.174  0.1705 -0.8649  0.5199
 1672SOL     OW16648   2.339   3.760   8.806 -0.2267 -0.8121 -0.6308
 1672SOL    HW116649   2.329   3.674   8.846 -1.6500 -1.8426 -3.1524
 1672SOL    HW216650   2.374   3.814   8.876  2.8616 -0.4088 -2.4680
 1673SOL     OW16651   4.056   0.145   8.682  0.6427  0.4294  0.2473
 1673SOL    HW116652   4.047   0.141   8.778  1.8942  0.0427  0.3414
 1673SOL    HW216653   3.968   0.176   8.658  1.0428  0.0368 -1.6698
 1674SOL     OW16654   3.970   2.068   2.014 -0.0685  0.1226  0.2948
 1674SOL    HW116655   3.894   2.011   2.011 -0.5408  0.8733 -2.1929
 1674SOL    HW216656   3.979   2.082   2.108 -2.3049  0.2269  0.4749
 1675SOL     OW16657   0.744   2.733   2.290 -0.4521  0.0587  0.0641
 1675SOL    HW116658   0.703   2.803   2.240  0.8725 -0.8952 -2.3377
 1675SOL    HW216659   0.741   2.779   2.373  1.6145 -0.6935  0.5734
 1676SOL     OW16660   0.752   0.178   0.939  0.4719  0.3440  0.3947
 1676SOL    HW116661   0.741   0.239   0.866  3.2989  1.1377  0.6348
 1676SOL    HW216662   0.773   0.102   0.886 -1.3120  1.3639 -1.7712
 1677SOL     OW16663   4.168   1.561   5.101  0.0816  0.1515 -0.1024
 1677SOL    HW116664   4.174   1.538   5.193  1.6973 -0.9731 -0.4824
 1677SOL    HW216665   4.078   1.537   5.078  0.6738 -1.6382 -0.5796
 1678SOL     OW16666   2.880   3.396  14.506 -0.0369 -0.0409  0.0777
 1678SOL    HW116667   2.929   3.379  14.425  3.0299  0.8296  1.7836
 1678SOL    HW216668   2.923   3.475  14.538 -1.5714  0.5427  0.7177
 1679SOL     OW16669   1.081   3.098   7.270 -0.1665  0.0690 -0.1334
 1679SOL    HW116670   1.030   3.023   7.242 -0.8315 -0.5662  2.8563
 1679SOL    HW216671   1.010   3.163   7.268 -0.3322 -0.1851 -2.1313
 1680SOL     OW16672   1.442   0.916   4.431 -0.5782 -0.1552  0.0605
 1680SOL    HW116673   1.403   0.851   4.373  0.6854 -0.8471 -0.0053
 1680SOL    HW216674   1.425   0.889   4.521  2.9537  0.1371  0.8092
 1681SOL     OW16675   1.420   2.119  11.513  0.3227 -0.5138  0.4874
 1681SOL    HW116676   1.385   2.172  11.584  0.6711  2.2129 -1.3903
 1681SOL    HW216677   1.485   2.182  11.482 -0.0163  0.1604  1.1567
 1682SOL     OW16678   2.845   3.944   4.208  0.2686  0.5413 -0.4792
 1682SOL    HW116679   2.854   3.906   4.121  0.6709  1.2469 -0.7383
 1682SOL    HW216680   2.798   3.877   4.259  0.8298 -0.2904 -1.0518
 1683SOL     OW16681   1.346   4.015   3.825  0.2816  0.1797 -0.3619
 1683SOL    HW116682   1.396   3.999   3.905 -2.3071 -1.5004  0.9463
 1683SOL    HW216683   1.342   4.110   3.827 -1.8957  0.0345  3.6799
 1684SOL     OW16684   3.051   0.667   6.108 -0.0110  0.8479 -0.7935
 1684SOL    HW116685   3.070   0.597   6.171 -0.7690  0.5767 -0.8627
 1684SOL    HW216686   2.965   0.690   6.143  0.0813 -1.2532  0.7714
 1685SOL     OW16687   2.646   2.854   2.500  0.3720  0.3952 -0.2456
 1685SOL    HW116688   2.643   2.949   2.491 -2.3735  0.2313 -1.3396
 1685SOL    HW216689   2.728   2.850   2.452 -0.3670 -0.6793 -1.4343
 1686SOL     OW16690   4.263   1.357   0.418 -0.0562  0.1522 -0.9985
 1686SOL    HW116691   4.308   1.295   0.360  1.5740  1.2669 -0.9240
 1686SOL    HW216692   4.238   1.293   0.485  1.5760  0.3912 -0.1590
 1687SOL     OW16693   2.130   3.813   7.298 -0.7841  0.6633  0.3827
 1687SOL    HW116694   2.173   3.727   7.296 -0.4292  0.8426  0.3417
 1687SOL    HW216695   2.071   3.810   7.223  0.3296 -0.5753 -0.4456
 1688SOL     OW16696   0.598   0.077   7.827 -0.0215  0.4478  0.1224
 1688SOL    HW116697   0.594   0.002   7.767  0.2496  1.7732 -1.5669
 1688SOL    HW216698   0.506   0.098   7.835 -0.9065 -3.3135  0.0134
 1689SOL     OW16699   0.551   2.613   3.452 -0.4413  0.6777 -0.3173
 1689SOL    HW116700   0.509   2.544   3.503 -0.7414  2.2809  1.5891
 1689SOL    HW216701   0.625   2.629   3.511 -1.6415  0.5817  1.2132
 1690SOL     OW16702   1.074   3.483   5.910  0.0076  0.6310  0.7751
 1690SOL    HW116703   1.068   3.490   6.005 -1.9168  0.1573  0.7011
 1690SOL    HW216704   0.983   3.499   5.885 -0.6390 -1.4550  1.7379
 1691SOL     OW16705   1.804   2.054   3.077 -0.5873  0.1084  0.5998
 1691SOL    HW116706   1.734   2.055   3.012  0.1308 -1.6640 -0.2111
 1691SOL    HW216707   1.876   2.101   3.035 -0.2055  0.8573  2.0688
 1692SOL     OW16708   3.868   4.333  15.924  0.2248  0.0183  0.2279
 1692SOL    HW116709   3.901   4.302  15.840 -0.7662  1.0949 -0.5466
 1692SOL    HW216710   3.778   4.300  15.925  0.5409 -0.8411  0.9307
 1693SOL     OW16711   3.281   1.686  17.183 -0.0282  0.9724 -0.4761
 1693SOL    HW116712   3.275   1.590  17.179 -1.0862  1.0027  0.6299
 1693SOL    HW216713   3.269   1.722  17.095 -1.5119 -0.4285 -0.8553
 1694SOL     OW16714   3.886   2.486   8.477  0.4758  0.0706 -0.2752
 1694SOL    HW116715   3.861   2.445   8.394  1.0179  1.4188 -1.1134
 1694SOL    HW216716   3.982   2.486   8.468  0.4458  0.2396 -0.6267
 1695SOL     OW16717   1.994   0.646   5.495 -0.0170 -0.1452  0.4423
 1695SOL    HW116718   1.951   0.591   5.561 -0.9834  0.7986  0.5881
 1695SOL    HW216719   2.083   0.612   5.485  0.1563  0.2664  0.6031
 1696SOL     OW16720   2.304   1.233  10.617  0.2504  0.5437  0.1626
 1696SOL    HW116721   2.387   1.216  10.662  1.2874 -0.2723 -2.0525
 1696SOL    HW216722   2.329   1.258  10.528  1.4454  2.0212  0.9084
 1697SOL     OW16723   2.746   0.419   8.833 -0.5907  0.0932  0.3194
 1697SOL    HW116724   2.733   0.424   8.927  1.4048 -0.2140  0.6148
 1697SOL    HW216725   2.663   0.447   8.793 -2.1459 -1.8437  2.2102
 1698SOL     OW16726   3.475   1.261   9.614 -0.3155 -0.9016 -0.1757
 1698SOL    HW116727   3.458   1.301   9.529  0.9264 -1.0182 -0.4834
 1698SOL    HW216728   3.569   1.242   9.615 -0.2375 -0.3950  1.1427
 1699SOL     OW16729   1.997   0.827   4.239  0.1032  0.0456 -0.2041
 1699SOL    HW116730   1.909   0.825   4.201 -0.4194  1.8494  0.8802
 1699SOL    HW216731   2.027   0.738   4.220 -0.8284 -0.0582 -1.2129
 1700SOL     OW16732   2.371   3.103   8.233  0.3579  0.0566 -0.9624
 1700SOL    HW116733   2.440   3.155   8.275 -0.3920  0.2400  0.0383
 1700SOL    HW216734   2.306   3.173   8.230  1.8733  1.5077 -0.0971
 1701SOL     OW16735   4.363   2.375   2.627 -0.4305 -0.5142  0.4108
 1701SOL    HW116736   4.350   2.349   2.718 -1.1368 -0.5914  0.2863
 1701SOL    HW216737   4.307   2.451   2.609  1.4992  1.3062  2.0830
 1702SOL     OW16738   2.664   2.069   3.518 -0.1033  0.5123  0.1440
 1702SOL    HW116739   2.571   2.064   3.496  0.4605 -0.5336 -2.0508
 1702SOL    HW216740   2.665   2.137   3.586 -0.7617  0.7681 -0.1004
 1703SOL     OW16741   0.970   1.447   0.334 -0.3417 -0.1887  0.2264
 1703SOL    HW116742   1.046   1.476   0.282  0.4161  0.6661  1.8069
 1703SOL    HW216743   0.893   1.485   0.290  0.7135 -0.8734 -2.2386
 1704SOL     OW16744   0.676   3.456   4.999 -0.3116 -0.5780 -0.2236
 1704SOL    HW116745   0.614   3.500   5.057  0.8350  2.8573 -1.6680
 1704SOL    HW216746   0.701   3.380   5.052  2.1029 -0.5677 -1.3307
 1705SOL     OW16747   1.255   4.708  17.615  0.2184 -0.7221 -0.4900
 1705SOL    HW116748   1.166   4.699  17.581  0.9214  0.5907 -2.7141
 1705SOL    HW216749   1.300   4.729  17.533  2.7329 -3.4426  0.2341
 1706SOL     OW16750   3.143   2.703  12.032  0.1968 -0.1268 -0.2214
 1706SOL    HW116751   3.105   2.625  11.992  1.6388 -0.5976 -0.6623
 1706SOL    HW216752   3.237   2.694  12.021  0.1349 -0.5386 -0.3982
 1707SOL     OW16753   3.452   1.833   6.737  0.5525 -0.2822  0.2072
 1707SOL    HW116754   3.536   1.866   6.768  2.3490 -2.5327 -2.2634
 1707SOL    HW216755   3.397   1.813   6.814 -0.8606 -1.0915 -1.0195
 1708SOL     OW16756   0.345   4.690   3.163 -0.5671  0.6545 -0.3914
 1708SOL    HW116757   0.396   4.659   3.237  0.0545 -1.9730 -1.9192
 1708SOL    HW216758   0.257   4.652   3.159  0.2438 -1.2890  0.3304
 1709SOL     OW16759   4.434   1.493   2.605 -0.3363 -0.4187 -0.3871
 1709SOL    HW116760   4.512   1.538   2.572 -0.3152  1.0963  1.6853
 1709SOL    HW216761   4.466   1.405   2.623 -0.5819 -0.7001 -1.3060
 1710SOL     OW16762   0.428   1.730   3.644  0.8360 -0.2839  0.2617
 1710SOL    HW116763   0.386   1.807   3.607 -0.1782 -0.6466  0.6717
 1710SOL    HW216764   0.475   1.692   3.570 -0.8590 -0.0406 -0.9281
 1711SOL     OW16765   1.168   2.017   5.567 -0.3247  0.4618  0.5502
 1711SOL    HW116766   1.074   2.029   5.584 -0.7036 -0.0676 -1.2066
 1711SOL    HW216767   1.167   1.981   5.478  1.8951  0.2399  0.6106
 1712SOL     OW16768   2.674   1.534   8.374 -0.1807  0.0936  0.5273
 1712SOL    HW116769   2.654   1.450   8.416 -0.1423  0.2118  0.7782
 1712SOL    HW216770   2.647   1.517   8.284  0.5891  1.7919 -0.0293
 1713SOL     OW16771   1.604   0.403   9.375 -0.1167  0.1733 -0.0621
 1713SOL    HW116772   1.554   0.471   9.331 -1.1595  0.3500  1.3743
 1713SOL    HW216773   1.660   0.384   9.300  0.3965  1.0898  0.0965
 1714SOL     OW16774   1.048   0.178   5.549  0.1949 -0.4511 -0.4103
 1714SOL    HW116775   0.983   0.119   5.511 -0.6242 -0.1655  0.5413
 1714SOL    HW216776   1.115   0.150   5.487  0.1384 -1.9971  0.2400
 1715SOL     OW16777   3.189   3.988   3.122 -0.3715 -0.5868  0.2705
 1715SOL    HW116778   3.214   3.903   3.159 -0.1982 -0.7012 -0.1197
 1715SOL    HW216779   3.147   4.025   3.200  0.2136  2.0140 -0.6505
 1716SOL     OW16780   3.610   0.542  11.922  0.3311  0.3216 -0.2750
 1716SOL    HW116781   3.573   0.630  11.911 -1.2411 -0.2975  0.1856
 1716SOL    HW216782   3.543   0.490  11.966  0.8614  0.1966  0.3734
 1717SOL     OW16783   1.477   1.289   5.867 -0.7628  0.3705 -0.2746
 1717SOL    HW116784   1.548   1.276   5.805 -2.8567 -0.6418 -2.4535
 1717SOL    HW216785   1.464   1.383   5.855 -0.1105  0.2545 -1.8104
 1718SOL     OW16786   2.684   3.758  14.539 -0.1492  0.0655  0.6754
 1718SOL    HW116787   2.591   3.764  14.563 -0.5378 -0.8327 -0.5648
 1718SOL    HW216788   2.722   3.842  14.564 -0.3423  0.0053  1.1697
 1719SOL     OW16789   0.551   0.734   1.016  0.9571  0.0565  0.5228
 1719SOL    HW116790   0.611   0.707   0.946 -0.6752 -1.4445 -0.3102
 1719SOL    HW216791   0.593   0.678   1.082 -2.2358 -4.0208 -0.9032
 1720SOL     OW16792   3.074   2.637  11.214 -0.2790  0.0521  0.1578
 1720SOL    HW116793   3.130   2.619  11.138  2.4887 -1.4886  2.5440
 1720SOL    HW216794   3.012   2.565  11.202 -0.5340 -0.0679  2.2367
 1721SOL     OW16795   2.173   0.532  10.295 -0.0678 -0.2220 -0.1231
 1721SOL    HW116796   2.133   0.604  10.247 -1.1925 -0.5557  0.3049
 1721SOL    HW216797   2.213   0.573  10.371  0.8618 -0.5060 -0.4495
 1722SOL     OW16798   0.317   1.637  16.294 -0.4248 -0.2200 -0.4363
 1722SOL    HW116799   0.364   1.557  16.274  0.6299  0.0436  1.0017
 1722SOL    HW216800   0.380   1.698  16.332 -0.7898  1.4023 -2.4436
 1723SOL     OW16801   0.572   2.048   4.350 -0.1398  0.5484 -0.3602
 1723SOL    HW116802   0.495   2.102   4.370 -1.0647 -0.2171 -1.8212
 1723SOL    HW216803   0.641   2.096   4.305 -1.8199  3.2025 -0.0915
 1724SOL     OW16804   2.586   1.896   2.248 -0.0451 -0.5664  0.1179
 1724SOL    HW116805   2.636   1.923   2.171 -1.0022  1.3429  0.1607
 1724SOL    HW216806   2.622   1.812   2.275 -0.4728 -0.4725  0.9641
 1725SOL     OW16807   2.793   0.053  13.830 -0.0742 -0.1621 -0.0033
 1725SOL    HW116808   2.712   0.094  13.800 -0.7401 -0.3728  1.4819
 1725SOL    HW216809   2.839   0.021  13.753 -0.5815  1.2943 -0.9183
 1726SOL     OW16810   2.010   3.981  11.368 -0.1242 -0.1235  0.0716
 1726SOL    HW116811   1.941   4.038  11.334  1.6361  2.1534  0.3019
 1726SOL    HW216812   2.078   4.047  11.381  1.1216 -1.1799 -1.0573
 1727SOL     OW16813   2.052   1.003   2.656  0.1646 -0.1288  0.3400
 1727SOL    HW116814   2.118   0.956   2.707 -2.0449 -1.2361  2.1962
 1727SOL    HW216815   2.060   0.967   2.568 -0.7867 -1.6736  0.8699
 1728SOL     OW16816   0.654   0.393  11.056 -0.1026  0.2813 -0.1574
 1728SOL    HW116817   0.594   0.455  11.014  0.5919 -0.2961 -2.0003
 1728SOL    HW216818   0.673   0.334  10.983  3.0562  4.2466 -2.5765
 1729SOL     OW16819   3.923   1.950  14.021 -0.4293  0.4007  0.5499
 1729SOL    HW116820   4.017   1.953  14.040  0.0893 -0.3279 -1.9426
 1729SOL    HW216821   3.902   2.042  14.005 -0.2981  0.4040  0.3903
 1730SOL     OW16822   2.142   0.028   5.000 -0.9609  0.3164 -0.0766
 1730SOL    HW116823   2.208   4.694   5.010 -0.3584  0.6151 -2.1115
 1730SOL    HW216824   2.208   0.095   4.988 -0.4018 -0.0075  1.1752
 1731SOL     OW16825   2.400   4.089   4.076 -0.1017  0.3976 -0.3077
 1731SOL    HW116826   2.412   4.030   4.001 -0.8238  0.5051 -0.5078
 1731SOL    HW216827   2.397   4.039   4.158  2.5865  3.5350  1.6934
 1732SOL     OW16828   4.296   2.997   6.355  0.6175 -0.2535  0.4738
 1732SOL    HW116829   4.272   3.082   6.319  3.0941 -0.3746 -1.4778
 1732SOL    HW216830   4.256   2.983   6.441  1.6594  0.1185  1.0234
 1733SOL     OW16831   0.916   3.295   7.388  0.2484  0.0172 -0.0735
 1733SOL    HW116832   0.826   3.302   7.357  0.9662 -1.9503 -2.6645
 1733SOL    HW216833   0.905   3.281   7.482  0.0955 -0.9548 -0.2310
 1734SOL     OW16834   4.442   4.687  11.067 -0.2689  0.2058  0.4617
 1734SOL    HW116835   4.408   4.729  11.146 -1.3469  0.8794 -0.3647
 1734SOL    HW216836   4.516   4.640  11.106 -1.1041 -0.3408  1.3816
 1735SOL     OW16837   4.703   3.714   8.142 -0.1031  0.2804 -0.1435
 1735SOL    HW116838   4.690   3.729   8.235 -1.0541  0.0246 -0.2350
 1735SOL    HW216839   0.063   3.725   8.143 -0.2518  1.3794  0.7245
 1736SOL     OW16840   3.333   2.823   3.428 -0.2993 -0.4030  0.3022
 1736SOL    HW116841   3.416   2.777   3.442 -0.2295 -0.7303 -1.2083
 1736SOL    HW216842   3.324   2.816   3.333 -0.8113  0.0612  0.3159
 1737SOL     OW16843   0.929   2.573   9.188 -0.7240  0.1804  0.3810
 1737SOL    HW116844   0.863   2.512   9.222 -0.1147  0.0091  1.2693
 1737SOL    HW216845   1.000   2.510   9.173  0.4832  1.1982  1.8067
 1738SOL     OW16846   1.766   0.670  13.680 -0.2216 -0.6144 -0.0554
 1738SOL    HW116847   1.700   0.619  13.633 -0.4445  1.4566 -1.9898
 1738SOL    HW216848   1.730   0.759  13.682  1.1895 -0.0307 -0.8407
 1739SOL     OW16849   4.409   2.061   3.226  0.3836  0.0849  0.6892
 1739SOL    HW116850   4.372   2.058   3.314 -0.9299  1.0237  0.1653
 1739SOL    HW216851   4.363   2.135   3.187  0.1093 -0.0186  0.8151
 1740SOL     OW16852   1.596   1.628   7.298 -0.0793 -0.5196  0.2437
 1740SOL    HW116853   1.647   1.551   7.325  1.1198 -0.8283 -2.8798
 1740SOL    HW216854   1.619   1.702   7.353 -1.8085  0.8141 -0.8341
 1741SOL     OW16855   1.010   1.902   1.527 -0.3460 -0.5731 -0.1685
 1741SOL    HW116856   1.092   1.949   1.544 -0.9100  0.0538  0.7570
 1741SOL    HW216857   0.948   1.941   1.588 -0.8193 -0.5110 -0.6848
 1742SOL     OW16858   0.937   3.061   2.272 -0.2790 -0.1441 -0.0641
 1742SOL    HW116859   0.855   3.106   2.294 -0.1040  0.2338 -0.2003
 1742SOL    HW216860   0.970   3.115   2.201 -0.8967  0.3468  0.0239
 1743SOL     OW16861   4.542   3.062   2.976 -0.0808  0.2786  0.3365
 1743SOL    HW116862   4.578   3.055   2.887 -1.4355  0.9934 -0.2665
 1743SOL    HW216863   4.546   2.969   2.998  0.9540 -0.3910 -2.6748
 1744SOL     OW16864   4.152   2.094  14.119  0.3752  0.3043 -0.3819
 1744SOL    HW116865   4.157   2.075  14.213  3.1565 -0.8493 -0.7658
 1744SOL    HW216866   4.237   2.125  14.089 -0.4991  1.6986 -1.4059
 1745SOL     OW16867   4.462   2.396   6.772  0.5181 -0.2020 -0.3511
 1745SOL    HW116868   4.461   2.454   6.848 -0.2816 -0.9107  0.1730
 1745SOL    HW216869   4.479   2.452   6.696  0.5153 -1.0836 -0.9972
 1746SOL     OW16870   3.007   0.019   7.238 -0.5591  0.3716  0.1276
 1746SOL    HW116871   2.922   4.712   7.230 -0.2336  0.3188 -3.0794
 1746SOL    HW216872   2.983   0.110   7.217  0.6443  0.1072 -2.4180
 1747SOL     OW16873   3.155   2.298   7.823  0.2562  0.0426  0.2138
 1747SOL    HW116874   3.198   2.215   7.844  1.2166 -0.1810 -2.5291
 1747SOL    HW216875   3.215   2.351   7.877  0.9577 -0.6293  0.0913
 1748SOL     OW16876   1.856   1.172   2.443  0.1674 -0.0539 -0.1837
 1748SOL    HW116877   1.923   1.241   2.449 -1.3382  1.1950  2.1355
 1748SOL    HW216878   1.780   1.212   2.485 -1.2640 -1.1810 -1.6732
 1749SOL     OW16879   2.542   3.377  12.237 -0.2348  0.2128  0.0127
 1749SOL    HW116880   2.605   3.444  12.266  1.1906 -1.2721  0.3046
 1749SOL    HW216881   2.522   3.418  12.153 -1.3071  2.1864  1.2238
 1750SOL     OW16882   3.864   2.290  12.241  0.3602 -0.0049 -0.0489
 1750SOL    HW116883   3.885   2.205  12.280  2.6329 -0.5505 -2.4161
 1750SOL    HW216884   3.878   2.345  12.318  0.2554 -1.2954  0.8928
 1751SOL     OW16885   0.056   1.647   5.492 -0.7810 -0.7071 -0.0942
 1751SOL    HW116886   0.020   1.649   5.581 -1.5058 -2.8797 -0.3425
 1751SOL    HW216887   0.109   1.567   5.490  1.7173  0.9264  0.9761
 1752SOL     OW16888   4.377   2.800   8.784  0.2892  0.4574 -0.0245
 1752SOL    HW116889   4.331   2.878   8.751 -1.0735 -0.5556 -0.4894
 1752SOL    HW216890   4.304   2.774   8.839  0.4416 -0.4093 -0.2395
 1753SOL     OW16891   3.525   4.548   3.957 -0.4801  0.4606  0.3276
 1753SOL    HW116892   3.506   4.628   3.907 -2.8903  0.5403  1.3694
 1753SOL    HW216893   3.438   4.510   3.970  0.0925 -1.5218 -1.6506
 1754SOL     OW16894   3.643   1.115   4.860 -0.3361 -0.1496  0.1674
 1754SOL    HW116895   3.695   1.048   4.905 -0.0446  0.2271  0.3948
 1754SOL    HW216896   3.693   1.143   4.784 -1.9433  1.7929 -0.1514
 1755SOL     OW16897   2.798   2.240   8.345 -0.5722  0.3645 -0.0742
 1755SOL    HW116898   2.753   2.244   8.261  0.2979  4.1410 -0.3561
 1755SOL    HW216899   2.890   2.257   8.324 -0.6272 -0.2706 -0.8319
 1756SOL     OW16900   4.574   4.477   8.821  0.2318 -0.1489  0.1433
 1756SOL    HW116901   4.622   4.541   8.874  0.7254  0.4666 -1.0673
 1756SOL    HW216902   4.639   4.422   8.778 -0.3198 -1.0039  0.3972
 1757SOL     OW16903   0.200   3.754  12.623 -0.7685 -0.3899  0.5881
 1757SOL    HW116904   0.225   3.669  12.588  1.2375  0.3355  0.2467
 1757SOL    HW216905   0.263   3.755  12.696  0.5285  1.9692 -0.5566
 1758SOL     OW16906   1.367   2.214  10.111 -0.0701 -0.0051  0.1049
 1758SOL    HW116907   1.420   2.135  10.096 -0.5595 -0.0719 -1.2361
 1758SOL    HW216908   1.284   2.178  10.142  1.3387  0.9852  5.1022
 1759SOL     OW16909   2.796   1.631   9.210 -0.2052  0.1410  0.0571
 1759SOL    HW116910   2.879   1.594   9.239  0.4742  0.9531 -0.8507
 1759SOL    HW216911   2.822   1.723   9.209 -2.1253  0.6873 -2.9550
 1760SOL     OW16912   4.313   1.787   3.607  0.4506 -0.2668 -0.0095
 1760SOL    HW116913   4.334   1.847   3.679  0.6049  0.1159 -0.3705
 1760SOL    HW216914   4.308   1.848   3.534 -2.6563 -1.2541 -0.6218
 1761SOL     OW16915   3.827   1.228  13.099  0.1383  0.3984  0.1778
 1761SOL    HW116916   3.760   1.205  13.035  1.3066 -1.3508 -0.4353
 1761SOL    HW216917   3.906   1.244  13.046  0.9077  0.8058  1.4516
 1762SOL     OW16918   1.142   0.784   7.437  0.1080  0.0098  0.5294
 1762SOL    HW116919   1.222   0.803   7.486  0.3502 -1.1019  0.5546
 1762SOL    HW216920   1.160   0.697   7.402  3.1162  0.5126  0.7637
 1763SOL     OW16921   3.285   1.668   8.697  0.0384 -0.4099  0.3406
 1763SOL    HW116922   3.203   1.700   8.660  1.5688  3.6674  0.4521
 1763SOL    HW216923   3.325   1.746   8.734  0.6271 -0.1624 -0.8145
 1764SOL     OW16924   3.049   1.939  15.413 -0.3506  0.2970 -0.3567
 1764SOL    HW116925   3.137   1.974  15.426 -0.8141  1.0824  0.7562
 1764SOL    HW216926   3.028   1.965  15.323 -0.7837  4.2850  0.8708
 1765SOL     OW16927   0.666   2.580   2.728 -0.1479  0.0248  0.5765
 1765SOL    HW116928   0.608   2.656   2.736 -0.7352 -0.2378 -1.2442
 1765SOL    HW216929   0.667   2.543   2.817  0.8496  0.9296  0.9423
 1766SOL     OW16930   3.223   1.213  15.822 -0.2378 -0.4595  0.6866
 1766SOL    HW116931   3.160   1.278  15.792 -0.5437 -2.2183 -2.5235
 1766SOL    HW216932   3.290   1.276  15.849  1.7967 -1.3048 -2.2544
 1767SOL     OW16933   4.169   2.288   8.263 -0.0247 -0.3339 -0.1119
 1767SOL    HW116934   4.131   2.339   8.191 -0.0276 -1.0382 -0.6076
 1767SOL    HW216935   4.095   2.234   8.291 -1.5018  2.1142  0.7223
 1768SOL     OW16936   3.638   1.177   1.727 -0.1823  0.2637 -0.2297
 1768SOL    HW116937   3.600   1.186   1.639  0.8923  3.1151 -0.3792
 1768SOL    HW216938   3.552   1.168   1.769 -1.1590  0.9706 -2.0749
 1769SOL     OW16939   1.348   4.577  15.122  0.3052  0.3537 -0.2911
 1769SOL    HW116940   1.392   4.495  15.147 -1.1670 -0.6131 -0.8863
 1769SOL    HW216941   1.381   4.579  15.032  2.7674  1.0941  0.6227
 1770SOL     OW16942   3.211   1.082   7.492 -0.5458 -0.4314  0.0307
 1770SOL    HW116943   3.159   1.028   7.552  0.1319  0.9682  1.8777
 1770SOL    HW216944   3.221   1.017   7.422 -1.0192  0.7277 -1.1183
 1771SOL     OW16945   0.711   2.128   3.026 -0.2361 -0.0237 -0.3393
 1771SOL    HW116946   0.788   2.097   3.073  1.2440  1.2943 -1.8610
 1771SOL    HW216947   0.735   2.221   3.028  1.9313 -0.4776 -3.9078
 1772SOL     OW16948   3.958   2.676   9.536 -0.0175  0.0878  0.2918
 1772SOL    HW116949   3.945   2.585   9.563  0.0114 -0.2223 -0.7683
 1772SOL    HW216950   3.882   2.675   9.477  0.4504 -1.3831 -0.2571
 1773SOL     OW16951   2.429   1.890  12.665 -0.0129  0.4506  0.4097
 1773SOL    HW116952   2.489   1.816  12.677  0.0024  0.4856  0.5503
 1773SOL    HW216953   2.383   1.898  12.749 -1.4738 -0.0617 -0.3517
 1774SOL     OW16954   0.806   0.879   8.534  0.4237  0.4173 -0.2227
 1774SOL    HW116955   0.797   0.787   8.557  0.6873  0.0255 -1.6986
 1774SOL    HW216956   0.747   0.883   8.459 -0.4286  2.2194  0.5546
 1775SOL     OW16957   2.065   1.421   6.277  0.9012 -0.1144 -0.2714
 1775SOL    HW116958   2.120   1.434   6.354  0.4031 -1.9963  0.4090
 1775SOL    HW216959   2.071   1.328   6.255 -3.4241 -0.2642 -0.8432
 1776SOL     OW16960   2.476   3.314   3.952  0.6165 -0.6259  0.1283
 1776SOL    HW116961   2.414   3.354   4.013 -0.1021 -0.2103 -0.8688
 1776SOL    HW216962   2.523   3.390   3.917 -1.1947  0.4434  0.0251
 1777SOL     OW16963   3.995   3.434   0.411  0.0186 -0.0447  0.8350
 1777SOL    HW116964   3.959   3.356   0.370  0.7550 -0.0375  0.1636
 1777SOL    HW216965   3.998   3.498   0.340  0.2381  0.5194  1.3527
 1778SOL     OW16966   3.247   3.774   3.263  0.0526 -0.4185  0.4146
 1778SOL    HW116967   3.335   3.749   3.289  0.4492  0.1610 -0.3691
 1778SOL    HW216968   3.193   3.708   3.307  0.4255 -1.5689 -0.8542
 1779SOL     OW16969   3.370   2.910   7.049 -0.5304 -0.1172 -0.2428
 1779SOL    HW116970   3.365   2.850   6.976 -0.3549  1.1572 -1.3036
 1779SOL    HW216971   3.458   2.882   7.074 -1.1062 -1.9923 -0.3161
 1780SOL     OW16972   2.620   1.042  16.775 -0.2568  0.1485 -0.1111
 1780SOL    HW116973   2.668   0.981  16.831 -1.0678  0.7617  1.2392
 1780SOL    HW216974   2.551   0.983  16.742 -0.4183 -0.2031  0.8569
 1781SOL     OW16975   4.324   4.441   5.973  1.1177 -0.5331 -0.2129
 1781SOL    HW116976   4.278   4.387   6.037  0.7239  1.2552  1.0007
 1781SOL    HW216977   4.411   4.437   6.014  0.6897  0.3566  0.7613
 1782SOL     OW16978   3.818   0.734   3.005  0.6146 -0.4724  0.0436
 1782SOL    HW116979   3.816   0.730   3.100  1.9533  0.4266  0.1203
 1782SOL    HW216980   3.725   0.743   2.986  1.0461  1.3967 -1.1925
 1783SOL     OW16981   3.177   1.009  15.676 -0.4841 -0.0513 -0.3251
 1783SOL    HW116982   3.259   0.963  15.693 -1.8682 -2.3325  0.2073
 1783SOL    HW216983   3.173   1.083  15.735  1.6850 -0.3569  0.1882
 1784SOL     OW16984   0.393   2.029  13.095  0.4901 -0.7590  0.0176
 1784SOL    HW116985   0.384   2.067  13.008 -1.5894 -1.0705  0.0862
 1784SOL    HW216986   0.452   2.086  13.145 -1.6175  1.6528 -0.2524
 1785SOL     OW16987   3.250   4.106  15.318 -0.4681 -0.1818  0.4153
 1785SOL    HW116988   3.188   4.108  15.391 -0.0954 -2.9266  0.8245
 1785SOL    HW216989   3.193   4.054  15.262 -1.3762  1.2825 -0.0067
 1786SOL     OW16990   0.291   3.583   7.666  0.0287  0.4937  0.1025
 1786SOL    HW116991   0.339   3.625   7.595 -0.8560 -1.2922 -1.5620
 1786SOL    HW216992   0.228   3.652   7.688  0.6504  0.5970  1.5485
 1787SOL     OW16993   2.725   4.436   3.249  0.1742  0.1232 -0.5365
 1787SOL    HW116994   2.739   4.413   3.157 -1.1167 -1.7458 -0.2601
 1787SOL    HW216995   2.695   4.526   3.238 -2.1526 -0.7622 -1.4462
 1788SOL     OW16996   1.730   1.367   4.261  0.2578 -0.1876  0.0236
 1788SOL    HW116997   1.682   1.437   4.217  1.1018  1.2505  1.3811
 1788SOL    HW216998   1.781   1.339   4.185  2.2182  0.5996  1.0415
 1789SOL     OW16999   3.646   2.914   2.316  0.3287 -0.2657  0.2432
 1789SOL    HW117000   3.742   2.913   2.312  0.2562  1.7067 -1.8536
 1789SOL    HW217001   3.624   2.821   2.311 -0.1514 -0.1874  0.9053
 1790SOL     OW17002   3.777   0.991  16.847 -0.0074 -0.0656  0.3175
 1790SOL    HW117003   3.838   1.061  16.867 -0.3792  0.5811 -0.8148
 1790SOL    HW217004   3.799   0.913  16.898 -0.3745  0.1472  0.7988
 1791SOL     OW17005   0.295   2.801   2.562 -0.4656 -0.0354  0.1191
 1791SOL    HW117006   0.206   2.820   2.590 -0.9708 -1.4931 -0.5124
 1791SOL    HW217007   0.284   2.844   2.478 -2.0517  1.2931  1.0184
 1792SOL     OW17008   2.167   2.604  13.767 -0.2150 -0.1851 -0.4258
 1792SOL    HW117009   2.194   2.593  13.858 -0.6972 -1.2022 -0.3990
 1792SOL    HW217010   2.180   2.697  13.752 -1.0666  0.0609  0.3736
 1793SOL     OW17011   3.369   3.344   2.851 -0.5503  0.1451  0.2362
 1793SOL    HW117012   3.281   3.370   2.825  0.1586  1.5857 -0.7489
 1793SOL    HW217013   3.361   3.250   2.839 -0.6815  0.5137 -2.5377
 1794SOL     OW17014   2.475   2.986   4.358  0.1020  0.4516 -0.3129
 1794SOL    HW117015   2.380   2.996   4.347  0.2141 -1.9630 -3.5167
 1794SOL    HW217016   2.506   3.066   4.316 -0.2566  0.3377 -0.8025
 1795SOL     OW17017   1.006   3.843   1.121  0.3312 -0.0897  0.4287
 1795SOL    HW117018   1.043   3.806   1.201 -1.4134  1.0252  1.7584
 1795SOL    HW217019   0.988   3.932   1.150  2.7222  0.4146  0.3361
 1796SOL     OW17020   3.278   3.733   2.504  0.1420  0.5520 -0.3767
 1796SOL    HW117021   3.244   3.807   2.554  1.0841  0.1732  0.8300
 1796SOL    HW217022   3.359   3.713   2.552 -0.3499  0.4664  0.4303
 1797SOL     OW17023   4.693   2.632   6.829 -0.3546 -0.5397  0.4826
 1797SOL    HW117024   4.660   2.704   6.882 -0.9998 -0.4202 -0.0892
 1797SOL    HW217025   4.668   2.556   6.883  0.0975 -1.8285 -1.1168
 1798SOL     OW17026   1.964   3.397   5.027 -0.3062 -0.1056 -0.0882
 1798SOL    HW117027   2.027   3.395   4.955 -1.7977  0.7995 -1.4152
 1798SOL    HW217028   1.915   3.474   5.000  0.7313  0.0734 -1.4470
 1799SOL     OW17029   2.677   1.814  14.380  0.7736 -0.0711  0.4020
 1799SOL    HW117030   2.742   1.857  14.325  1.8079 -0.6287  1.1929
 1799SOL    HW217031   2.627   1.888  14.415  2.1049  1.3341 -0.6770
 1800SOL     OW17032   0.971   1.661   1.407  0.1704  0.2711 -0.3084
 1800SOL    HW117033   0.978   1.755   1.425  1.6013 -0.5010  3.1703
 1800SOL    HW217034   0.907   1.644   1.477  0.1915  0.8387 -0.1519
 1801SOL     OW17035   2.795   4.567   4.830  0.6889 -0.2550 -0.0404
 1801SOL    HW117036   2.742   4.541   4.906 -0.6084  1.5070 -0.3669
 1801SOL    HW217037   2.848   4.639   4.864  0.1040 -0.0567  0.4580
 1802SOL     OW17038   0.369   3.916   1.712  0.3465 -0.3036 -0.0143
 1802SOL    HW117039   0.427   3.989   1.695 -1.8010  1.5933  0.8096
 1802SOL    HW217040   0.328   3.930   1.797  2.9046  2.0303  0.7976
 1803SOL     OW17041   1.458   0.107  11.361 -0.3740  0.0564 -0.8215
 1803SOL    HW117042   1.508   0.175  11.405  0.4540 -1.6023  0.8000
 1803SOL    HW217043   1.385   0.158  11.326  0.9628  1.6682 -1.2419
 1804SOL     OW17044   0.731   3.950   2.003 -0.2645  0.9018 -0.0569
 1804SOL    HW117045   0.726   4.037   2.043 -1.8432  0.8700 -0.2055
 1804SOL    HW217046   0.750   3.891   2.077 -0.5133  0.4945 -0.3180
 1805SOL     OW17047   1.732   0.589   6.240  0.2340  0.5079  0.5868
 1805SOL    HW117048   1.755   0.672   6.198 -2.7534  1.2594  0.4118
 1805SOL    HW217049   1.818   0.546   6.237 -1.2059 -2.2712 -0.8555
 1806SOL     OW17050   3.770   4.688  16.108 -0.0284  0.0999 -0.1624
 1806SOL    HW117051   3.678   4.678  16.084  0.9325 -2.3387 -2.7892
 1806SOL    HW217052   3.778   0.039  16.150 -1.2797  0.2531 -0.2448
 1807SOL     OW17053   4.407   3.574   5.250 -0.1814  0.5304 -0.1331
 1807SOL    HW117054   4.358   3.551   5.171  1.7036  1.4718 -1.5934
 1807SOL    HW217055   4.431   3.665   5.233 -0.7283  0.5641 -0.7487
 1808SOL     OW17056   1.604   3.112   8.002 -0.4423  0.6296  0.0833
 1808SOL    HW117057   1.596   3.117   8.098  1.2093  0.2181  0.2508
 1808SOL    HW217058   1.675   3.049   7.993 -2.0388 -0.8709 -1.9466
 1809SOL     OW17059   2.867   4.333   7.060  0.3721 -0.2429  0.4787
 1809SOL    HW117060   2.877   4.392   7.135  2.3510  0.7394 -0.5451
 1809SOL    HW217061   2.959   4.316   7.037  0.3844 -0.8771  0.9850
 1810SOL     OW17062   0.318   3.836  15.091  0.3333  0.2408 -0.2132
 1810SOL    HW117063   0.393   3.852  15.148  1.6165  0.0712 -1.8389
 1810SOL    HW217064   0.327   3.914  15.037  1.4844  0.9826  1.0416
 1811SOL     OW17065   1.525   2.389   6.701 -0.2106 -0.0744 -0.4551
 1811SOL    HW117066   1.436   2.425   6.701 -0.2850 -0.2527 -0.0721
 1811SOL    HW217067   1.576   2.452   6.651 -0.6183  0.6278  0.0062
 1812SOL     OW17068   4.236   3.462   9.381 -0.5476 -0.6545  0.5776
 1812SOL    HW117069   4.325   3.432   9.401  0.0244  0.2444 -0.6297
 1812SOL    HW217070   4.200   3.375   9.399 -1.7190 -0.1921  0.4711
 1813SOL     OW17071   1.380   3.010   0.471  0.4044 -0.0204 -0.2379
 1813SOL    HW117072   1.368   3.103   0.491 -2.3966 -0.7797  1.5043
 1813SOL    HW217073   1.306   3.006   0.411 -0.2799 -1.0643  0.6790
 1814SOL     OW17074   0.392   3.604   1.470  0.2678  0.2494  1.3812
 1814SOL    HW117075   0.430   3.691   1.454  0.3280 -0.0778 -0.2046
 1814SOL    HW217076   0.445   3.544   1.418  0.4249 -0.1446  1.9943
 1815SOL     OW17077   0.433   4.284   8.676 -0.1662  0.0304 -0.6579
 1815SOL    HW117078   0.451   4.374   8.650  0.4663 -0.1616 -0.8764
 1815SOL    HW217079   0.351   4.296   8.725  1.1857 -0.1810  1.6269
 1816SOL     OW17080   1.742   0.023   6.566  0.7851  0.7458  0.1556
 1816SOL    HW117081   1.751   0.098   6.508  1.1691  0.2538 -0.4218
 1816SOL    HW217082   1.829   0.002   6.599  1.5308  2.3540 -0.8241
 1817SOL     OW17083   0.003   2.611   7.393 -0.1011 -0.0897 -0.3848
 1817SOL    HW117084   0.070   2.661   7.439 -0.8676  0.3057  0.3042
 1817SOL    HW217085   4.676   2.678   7.365  0.5431  0.7756  0.3019
 1818SOL     OW17086   0.725   1.699   7.327  0.1602  0.1293 -0.0259
 1818SOL    HW117087   0.651   1.684   7.385 -1.6707  1.5669 -1.9901
 1818SOL    HW217088   0.782   1.749   7.385 -0.8603  3.2329 -1.6792
 1819SOL     OW17089   2.783   0.798   9.797 -0.1402 -0.2949  0.4531
 1819SOL    HW117090   2.688   0.788   9.789 -0.2973  2.1893 -0.8437
 1819SOL    HW217091   2.779   0.890   9.825  3.2050 -0.6006  1.9074
 1820SOL     OW17092   3.116   1.858   1.194 -0.3064  0.2938 -0.4348
 1820SOL    HW117093   3.145   1.836   1.282 -0.7188 -0.4141 -0.4705
 1820SOL    HW217094   3.187   1.916   1.168 -1.2007  2.0492  1.1031
 1821SOL     OW17095   1.248   4.683   8.543  0.1151  0.7555 -0.5977
 1821SOL    HW117096   1.265   4.609   8.485  1.6439  1.7228 -1.3982
 1821SOL    HW217097   1.335   4.704   8.576 -0.8168  0.6129  1.9014
 1822SOL     OW17098   2.981   1.849   5.164 -0.4593 -1.0037 -0.1372
 1822SOL    HW117099   2.901   1.866   5.115 -0.2047 -1.6666 -0.7902
 1822SOL    HW217100   3.030   1.807   5.092 -0.3648  0.2068 -0.7742
 1823SOL     OW17101   1.585   2.071   7.709 -0.1010  0.0270  0.3015
 1823SOL    HW117102   1.494   2.094   7.690 -0.3845 -0.5805  0.8927
 1823SOL    HW217103   1.628   2.131   7.648  1.3509 -0.4806  0.8072
 1824SOL     OW17104   3.348   4.092   3.790  0.1535  0.3734 -0.0731
 1824SOL    HW117105   3.385   4.004   3.798  0.2834  0.3977 -0.3860
 1824SOL    HW217106   3.421   4.149   3.814 -2.5552  3.6987  0.2682
 1825SOL     OW17107   2.320   3.823   1.879  0.2397  0.1698  0.1032
 1825SOL    HW117108   2.367   3.907   1.878 -0.7583  0.7403  1.2541
 1825SOL    HW217109   2.258   3.855   1.945 -1.3324 -1.0556 -0.8089
 1826SOL     OW17110   4.458   2.059   6.551  0.6938 -0.3105  0.3518
 1826SOL    HW117111   4.486   2.003   6.478 -1.5944 -1.5687  0.4150
 1826SOL    HW217112   4.406   2.129   6.511 -0.8864 -0.5209  1.9836
 1827SOL     OW17113   0.864   3.323   4.422  0.3188 -0.0125 -0.0943
 1827SOL    HW117114   0.924   3.365   4.361 -0.3745 -1.0568 -1.5072
 1827SOL    HW217115   0.931   3.262   4.452  2.8803  2.7532 -0.1490
 1828SOL     OW17116   4.450   2.550   7.939  0.6813  0.2123 -0.0958
 1828SOL    HW117117   4.529   2.498   7.953 -0.2605 -0.6615  2.1114
 1828SOL    HW217118   4.476   2.599   7.862  0.0855  1.6144  0.5916
 1829SOL     OW17119   2.287   3.587   7.420  0.2557  0.2582  0.2834
 1829SOL    HW117120   2.242   3.503   7.426 -1.7018  1.1901 -1.3247
 1829SOL    HW217121   2.369   3.559   7.381  0.3169 -0.1451  0.7085
 1830SOL     OW17122   1.284   1.950   4.729 -0.1761 -0.2024 -0.0282
 1830SOL    HW117123   1.294   2.043   4.750 -1.5870  0.1527 -0.9173
 1830SOL    HW217124   1.204   1.942   4.782 -0.1111 -0.3811  0.0440
 1831SOL     OW17125   4.454   0.157   4.468 -0.0106  0.3550  0.2339
 1831SOL    HW117126   4.393   0.195   4.532 -0.9130  0.2715 -0.5831
 1831SOL    HW217127   4.539   0.177   4.508  0.3913 -0.8426 -0.0409
 1832SOL     OW17128   2.701   3.274  11.383  0.6718  0.8534 -0.1624
 1832SOL    HW117129   2.641   3.341  11.348  0.1258  0.2316 -0.4356
 1832SOL    HW217130   2.779   3.322  11.408  1.4301 -0.2878 -0.3676
 1833SOL     OW17131   3.789   2.896  11.055  0.2259  0.6602 -0.4072
 1833SOL    HW117132   3.703   2.931  11.029 -0.0344  0.7947  0.6504
 1833SOL    HW217133   3.840   2.970  11.021  0.2725  1.4116  1.3182
 1834SOL     OW17134   1.329   0.772  15.574  0.3027 -0.9400 -0.4106
 1834SOL    HW117135   1.344   0.834  15.646  2.8163 -1.8328 -0.1659
 1834SOL    HW217136   1.290   0.699  15.621 -1.1915  1.1683  1.6528
 1835SOL     OW17137   2.322   4.156   0.671 -0.0419 -0.3936 -0.4109
 1835SOL    HW117138   2.286   4.149   0.760  0.3134 -0.3045 -0.2632
 1835SOL    HW217139   2.248   4.183   0.617  0.3449 -2.1330 -1.8020
 1836SOL     OW17140   0.988   4.325  15.981  0.0354 -0.3987  0.0992
 1836SOL    HW117141   0.955   4.240  15.954  1.2854 -0.9863  0.4132
 1836SOL    HW217142   1.080   4.316  15.955  0.5524  3.0200  0.7263
 1837SOL     OW17143   4.433   0.230   1.586  0.1929  0.3453 -0.2403
 1837SOL    HW117144   4.358   0.174   1.606  1.2901 -0.9261  0.3087
 1837SOL    HW217145   4.497   0.177   1.633 -0.8463 -0.4233  0.3229
 1838SOL     OW17146   1.127   0.467  13.355  0.0202 -0.4153 -0.2621
 1838SOL    HW117147   1.126   0.448  13.449  0.2250  1.2619  0.0740
 1838SOL    HW217148   1.115   0.562  13.350  0.7331 -0.2309  1.4649
 1839SOL     OW17149   0.737   2.134   2.749 -0.0031  0.4077  0.0565
 1839SOL    HW117150   0.782   2.050   2.743 -0.7529 -0.0134  0.3523
 1839SOL    HW217151   0.720   2.138   2.843 -0.1224  0.6728  0.0264
 1840SOL     OW17152   2.112   3.299  15.728 -0.2067  0.1336 -0.5561
 1840SOL    HW117153   2.183   3.361  15.745  0.9893 -1.3872  0.0653
 1840SOL    HW217154   2.140   3.257  15.646  1.7612 -0.9347  0.6516
 1841SOL     OW17155   0.414   4.490   7.383  0.0897  0.3541 -0.7852
 1841SOL    HW117156   0.362   4.411   7.397  1.9024 -1.0811 -2.2361
 1841SOL    HW217157   0.483   4.452   7.329  1.0419  2.7667 -1.2737
 1842SOL     OW17158   4.380   2.157  13.941 -0.0582 -0.1037 -0.0778
 1842SOL    HW117159   4.469   2.122  13.936  1.0880  2.3632  2.7593
 1842SOL    HW217160   4.404   2.249  13.928 -3.3257  1.0799  2.4329
 1843SOL     OW17161   3.716   0.598  10.837  0.0630  0.2301 -0.3656
 1843SOL    HW117162   3.738   0.508  10.812 -0.8713 -0.1635  0.2384
 1843SOL    HW217163   3.726   0.638  10.751  2.3556 -2.8680 -1.5573
 1844SOL     OW17164   2.357   1.790   7.051  0.2700  0.1257  0.6258
 1844SOL    HW117165   2.366   1.801   7.146 -0.2141  2.8433  0.3484
 1844SOL    HW217166   2.335   1.880   7.028 -1.4125 -0.7833 -1.2114
 1845SOL     OW17167   3.171   0.320   3.100  0.0918  0.0174  0.1030
 1845SOL    HW117168   3.182   0.370   3.181 -1.1203 -0.0634  0.3192
 1845SOL    HW217169   3.199   0.382   3.033 -1.9730 -0.6944 -1.4040
 1846SOL     OW17170   0.043   1.081  13.516 -0.2486  0.2218 -0.1510
 1846SOL    HW117171   0.007   1.083  13.427 -0.9623 -0.4969  0.1191
 1846SOL    HW217172   4.727   1.008  13.551  2.7607 -1.8297 -0.0201
 1847SOL     OW17173   4.010   3.737   3.171  0.4534  0.1725 -0.5424
 1847SOL    HW117174   4.101   3.753   3.197  1.0742 -1.8239 -1.4164
 1847SOL    HW217175   3.957   3.803   3.214  1.3963 -0.7775  2.0766
 1848SOL     OW17176   2.225   2.779   2.009 -0.0195  0.3371 -0.2948
 1848SOL    HW117177   2.246   2.708   1.949  0.4347 -0.4880  0.8538
 1848SOL    HW217178   2.135   2.761   2.037  0.5998 -1.7482  0.3296
 1849SOL     OW17179   4.686   2.646   9.515 -0.0481  0.4117  0.0765
 1849SOL    HW117180   4.625   2.645   9.441  0.5651  1.5675 -0.4518
 1849SOL    HW217181   4.729   2.561   9.510  0.1942  0.5447 -0.1691
 1850SOL     OW17182   2.228   1.628   5.272 -0.1137  0.4138 -0.0706
 1850SOL    HW117183   2.301   1.620   5.211  0.9382  1.6876  1.0233
 1850SOL    HW217184   2.154   1.647   5.215  0.8826  0.6225 -1.2722
 1851SOL     OW17185   4.108   1.261   6.946  0.1866 -0.2208  0.3080
 1851SOL    HW117186   4.123   1.276   6.853  0.1286 -2.2205 -0.0304
 1851SOL    HW217187   4.021   1.220   6.944 -0.3142  0.8260  0.7111
 1852SOL     OW17188   3.784   0.847   6.898 -0.2111 -0.0359 -0.4191
 1852SOL    HW117189   3.749   0.812   6.980 -1.4390 -1.0209 -1.3613
 1852SOL    HW217190   3.797   0.771   6.842  1.5261  0.7295 -1.0309
 1853SOL     OW17191   1.875   1.634   5.793  0.1945  0.3368  0.3322
 1853SOL    HW117192   1.813   1.670   5.730  0.3122  0.9341  0.5480
 1853SOL    HW217193   1.826   1.638   5.875 -1.4069  0.0366 -0.6166
 1854SOL     OW17194   2.900   0.210  13.498 -0.2357  0.7561 -0.4906
 1854SOL    HW117195   2.805   0.200  13.509 -0.1058 -0.3014 -0.3174
 1854SOL    HW217196   2.927   0.122  13.471 -1.9960  0.2588 -0.6297
 1855SOL     OW17197   0.133   1.946   8.376  0.0045  0.2444  0.1376
 1855SOL    HW117198   0.053   1.979   8.335  0.6884 -0.3955 -1.7168
 1855SOL    HW217199   0.112   1.962   8.468  0.7091 -0.4151  0.4172
 1856SOL     OW17200   1.577   4.114  14.900  0.0390  0.4798  0.0010
 1856SOL    HW117201   1.537   4.065  14.828 -0.6504  3.0556 -1.3830
 1856SOL    HW217202   1.528   4.196  14.900  2.5106  1.9897 -1.0412
 1857SOL     OW17203   2.705   3.669   5.110 -0.1939  0.6509 -0.0668
 1857SOL    HW117204   2.639   3.619   5.159 -1.3060  3.1593  1.0184
 1857SOL    HW217205   2.660   3.712   5.037 -0.0365 -2.4529 -2.0238
 1858SOL     OW17206   3.515   3.509  15.316  0.3633 -0.2430 -0.1552
 1858SOL    HW117207   3.480   3.428  15.280 -1.2460  1.4546 -2.4037
 1858SOL    HW217208   3.583   3.520  15.250  1.5882  1.7945  1.4233
 1859SOL     OW17209   3.660   4.238  16.479  0.8965  0.1364 -0.3844
 1859SOL    HW117210   3.647   4.332  16.464  1.6415  0.3067  0.0738
 1859SOL    HW217211   3.753   4.229  16.459  1.3068  0.9547  1.2213
 1860SOL     OW17212   1.751   2.436   6.288 -0.3399 -0.5059 -0.3493
 1860SOL    HW117213   1.833   2.463   6.246 -1.4872  1.3468 -1.3609
 1860SOL    HW217214   1.690   2.478   6.227  0.8695  0.2818 -1.0228
 1861SOL     OW17215   2.524   2.513   4.097 -0.5296 -0.1363 -0.0474
 1861SOL    HW117216   2.593   2.577   4.080 -0.2375 -0.2599  0.6497
 1861SOL    HW217217   2.546   2.462   4.175  1.3778 -1.1384 -1.2420
 1862SOL     OW17218   1.194   0.405   8.672 -0.1005  0.1558 -0.1077
 1862SOL    HW117219   1.191   0.340   8.742  0.6814 -0.7677 -0.9273
 1862SOL    HW217220   1.138   0.466   8.721 -0.6743 -0.5650  0.1375
 1863SOL     OW17221   4.052   1.835   7.519 -0.3629 -0.3950 -0.0230
 1863SOL    HW117222   4.011   1.806   7.601  0.7648 -2.3831 -0.1365
 1863SOL    HW217223   4.136   1.789   7.524  0.1222  0.4097 -1.0336
 1864SOL     OW17224   2.070   1.405   2.430 -0.1102  0.2570 -0.0421
 1864SOL    HW117225   2.154   1.360   2.423  0.6471  1.6223  0.2816
 1864SOL    HW217226   2.083   1.484   2.377  3.0316  0.3817  0.9353
 1865SOL     OW17227   0.371   2.631   5.071 -0.0299  0.2633 -0.0367
 1865SOL    HW117228   0.288   2.677   5.084  0.4561  1.3216 -0.6132
 1865SOL    HW217229   0.388   2.651   4.979  1.2500  2.3012  0.6413
 1866SOL     OW17230   4.111   0.081   7.692 -0.5586 -1.2308  0.6924
 1866SOL    HW117231   4.161   0.090   7.612  1.3776 -1.2378  1.8996
 1866SOL    HW217232   4.146   0.158   7.736 -0.8764 -1.2492  0.9849
 1867SOL     OW17233   4.059   1.612   6.583 -0.3188 -0.3145 -0.6528
 1867SOL    HW117234   4.049   1.538   6.522  0.4091  0.4108 -1.6633
 1867SOL    HW217235   4.025   1.581   6.666  2.3541 -2.7325 -0.4447
 1868SOL     OW17236   2.840   4.580  13.024 -0.0047 -0.4860  0.0003
 1868SOL    HW117237   2.876   4.552  12.940  2.1789  2.3078  0.0211
 1868SOL    HW217238   2.763   4.632  13.001  0.1129 -0.8162 -1.1090
 1869SOL     OW17239   1.512   0.823   8.348  1.0798 -0.4596  0.1802
 1869SOL    HW117240   1.531   0.894   8.286 -2.5564  0.8022  0.5372
 1869SOL    HW217241   1.475   0.873   8.421  0.2247 -1.1611  0.2179
 1870SOL     OW17242   3.353   3.229   2.436 -0.0578  0.0269 -0.0548
 1870SOL    HW117243   3.291   3.301   2.439 -0.4716 -0.3425  0.2268
 1870SOL    HW217244   3.401   3.259   2.358  0.1186 -1.2737 -0.4616
 1871SOL     OW17245   2.752   1.283   7.837  0.3283  0.4977 -0.5683
 1871SOL    HW117246   2.713   1.240   7.913  3.4406 -0.4331  0.4981
 1871SOL    HW217247   2.845   1.282   7.857 -0.0276  0.7810  1.1001
 1872SOL     OW17248   2.212   0.847   3.198  0.7453 -0.3492 -0.0608
 1872SOL    HW117249   2.245   0.900   3.270 -2.7841  1.4717  0.1767
 1872SOL    HW217250   2.290   0.844   3.142 -0.6106  1.7785 -2.0798
 1873SOL     OW17251   4.549   2.731  15.667 -0.1236  0.3078 -0.2324
 1873SOL    HW117252   4.621   2.775  15.710  1.7478 -2.8412 -0.1327
 1873SOL    HW217253   4.512   2.683  15.741 -1.3621  1.1116 -0.3324
 1874SOL     OW17254   2.960   2.194  14.145  0.9014  0.4831 -0.1814
 1874SOL    HW117255   2.945   2.289  14.144  1.4635  0.5856  0.7983
 1874SOL    HW217256   3.054   2.189  14.128  0.5233  0.8060 -2.3371
 1875SOL     OW17257   0.452   3.538  11.832 -0.3535  0.1877 -0.0772
 1875SOL    HW117258   0.450   3.511  11.924 -1.3544  2.1742  0.4669
 1875SOL    HW217259   0.399   3.478  11.780 -2.2520  0.4754  1.5501
 1876SOL     OW17260   4.028   1.876   1.727 -0.4200 -0.2909  0.0945
 1876SOL    HW117261   3.958   1.814   1.748 -0.5626  0.0947  0.7552
 1876SOL    HW217262   4.062   1.825   1.653 -1.5099  0.1743 -0.7213
 1877SOL     OW17263   4.511   0.612   6.622  0.0855  0.0447  0.0192
 1877SOL    HW117264   4.599   0.648   6.613  0.7331 -0.9715  2.2366
 1877SOL    HW217265   4.511   0.607   6.717  0.2926 -0.5048 -0.0052
 1878SOL     OW17266   2.235   4.445  12.642  0.5499 -0.0850  0.3091
 1878SOL    HW117267   2.302   4.395  12.688  0.4388 -0.1472  0.4026
 1878SOL    HW217268   2.219   4.378  12.576 -2.7804  1.1111 -0.0785
 1879SOL     OW17269   0.107   3.959   1.595  0.4070  0.2322  0.4611
 1879SOL    HW117270   0.174   3.991   1.535  1.6792 -1.6281  0.8811
 1879SOL    HW217271   0.160   3.955   1.675  2.8079  1.7006 -1.0706
 1880SOL     OW17272   2.654   0.194   5.599  0.2235  0.0687  0.6175
 1880SOL    HW117273   2.659   0.221   5.690 -1.9672 -0.4467  0.8949
 1880SOL    HW217274   2.617   0.276   5.565  0.8114 -0.2293 -0.7628
 1881SOL     OW17275   0.269   4.500   9.393 -0.5487  0.4584  0.3329
 1881SOL    HW117276   0.307   4.439   9.329 -0.9364 -0.8168  1.3134
 1881SOL    HW217277   0.302   4.584   9.361 -2.2977  0.7970 -0.5641
 1882SOL     OW17278   1.186   0.380   3.960 -0.3062 -0.1957  0.5010
 1882SOL    HW117279   1.215   0.470   3.978 -0.9855  0.9341 -3.9932
 1882SOL    HW217280   1.209   0.352   4.048  1.2025  2.8827  1.0836
 1883SOL     OW17281   1.314   0.100   5.036 -0.1582 -0.3379  0.0528
 1883SOL    HW117282   1.311   0.189   5.071  2.8706 -0.1596 -0.1442
 1883SOL    HW217283   1.309   0.048   5.116 -0.7217 -1.3300 -0.6134
 1884SOL     OW17284   4.398   2.878   7.524 -0.0329 -0.7578 -0.3120
 1884SOL    HW117285   4.418   2.964   7.562  1.6461 -0.0642 -2.8208
 1884SOL    HW217286   4.354   2.906   7.444  1.1986 -2.2205 -1.4876
 1885SOL     OW17287   2.333   2.129  17.064  0.3133 -0.2921 -0.3807
 1885SOL    HW117288   2.347   2.195  17.132 -0.1390  0.6535 -1.2256
 1885SOL    HW217289   2.252   2.160  17.024  0.1022 -0.6860 -0.2651
 1886SOL     OW17290   0.229   4.421   1.098 -0.4931 -0.0562 -0.5441
 1886SOL    HW117291   0.255   4.395   1.010  1.3115 -0.4355  0.0982
 1886SOL    HW217292   0.197   4.508   1.073 -0.3685  0.0633 -0.2875
 1887SOL     OW17293   1.894   3.181   9.458  0.0579 -0.3203 -0.1521
 1887SOL    HW117294   1.885   3.253   9.520  0.5492  0.4820 -1.0197
 1887SOL    HW217295   1.986   3.199   9.440 -0.0558 -0.3457 -0.7827
 1888SOL     OW17296   2.198   2.487   2.352  0.1231 -0.7150 -0.0913
 1888SOL    HW117297   2.230   2.412   2.401  3.5719  0.4591 -0.5318
 1888SOL    HW217298   2.251   2.485   2.273 -2.2102 -0.9443 -1.6621
 1889SOL     OW17299   4.171   0.070  13.016 -0.2567  0.0538 -0.0311
 1889SOL    HW117300   4.174   0.158  12.978  0.4331 -0.5511 -1.4030
 1889SOL    HW217301   4.083   0.046  12.987 -1.9735  3.4027  2.4414
 1890SOL     OW17302   4.629   3.233  13.617 -0.5673  0.2386  0.1369
 1890SOL    HW117303   4.700   3.170  13.602 -1.8949 -1.3838  0.6530
 1890SOL    HW217304   4.672   3.316  13.598  2.2014 -0.6296  2.5173
 1891SOL     OW17305   4.462   2.217   9.672 -0.6757  0.5509  0.2534
 1891SOL    HW117306   4.491   2.247   9.586  0.4164  1.1993  0.8543
 1891SOL    HW217307   4.446   2.126   9.646  1.7656 -0.1552  1.1797
 1892SOL     OW17308   3.298   3.941   1.310 -0.3747 -0.2398 -0.0783
 1892SOL    HW117309   3.323   3.866   1.256  0.2535  0.5038 -0.8305
 1892SOL    HW217310   3.205   3.929   1.327 -0.2651 -1.7775 -0.5222
 1893SOL     OW17311   3.474   4.592   6.646  0.0421  0.5024 -0.2115
 1893SOL    HW117312   3.536   4.541   6.593  0.9236 -1.0068  2.2784
 1893SOL    HW217313   3.487   4.552   6.732  1.4060  1.4051  0.0081
 1894SOL     OW17314   0.964   3.584   2.755 -0.2348  0.0367 -0.0409
 1894SOL    HW117315   1.058   3.568   2.756 -0.1486  0.4672 -1.2799
 1894SOL    HW217316   0.952   3.585   2.850  0.0369 -1.6169  0.0030
 1895SOL     OW17317   0.456   3.894   8.441 -0.0047  0.0559  0.0190
 1895SOL    HW117318   0.466   3.869   8.349 -0.6464 -1.4922  0.3831
 1895SOL    HW217319   0.529   3.846   8.480  0.1218 -0.1208 -0.4389
 1896SOL     OW17320   1.437   3.588   5.036 -0.4554  0.1364 -0.0023
 1896SOL    HW117321   1.518   3.537   5.037 -0.4822  0.1368  2.0592
 1896SOL    HW217322   1.409   3.603   5.126  0.5240  0.8726  0.1784
 1897SOL     OW17323   1.012   0.535   2.743 -0.1214  0.0419  0.5140
 1897SOL    HW117324   1.059   0.565   2.822 -1.6566  1.9723  0.6857
 1897SOL    HW217325   0.977   0.451   2.771 -0.0531  0.2020  1.0811
 1898SOL     OW17326   3.084   4.020   4.332 -0.2682  0.6334  0.0405
 1898SOL    HW117327   3.061   4.112   4.350  0.6310  1.0925 -1.1157
 1898SOL    HW217328   2.995   3.995   4.305  0.2774  0.3284 -1.4648
 1899SOL     OW17329   4.400   4.499   6.968 -0.4377  0.3484 -0.3246
 1899SOL    HW117330   4.310   4.533   6.963  0.0453  0.9306 -4.5447
 1899SOL    HW217331   4.432   4.497   6.878  1.3514 -0.0545  0.3172
 1900SOL     OW17332   1.192   0.515   5.408  0.0043  0.0010 -0.1429
 1900SOL    HW117333   1.244   0.435   5.410  1.5061  0.9817  0.0719
 1900SOL    HW217334   1.140   0.501   5.487 -0.1866  0.4100 -0.1967
 1901SOL     OW17335   1.115   1.663   9.189 -0.3137 -0.1108 -0.3027
 1901SOL    HW117336   1.199   1.692   9.224  0.4196 -1.7215 -0.7099
 1901SOL    HW217337   1.133   1.614   9.108 -0.1446  0.7781 -0.8070
 1902SOL     OW17338   2.997   0.334   7.306 -0.1030 -0.3125 -0.1508
 1902SOL    HW117339   2.917   0.304   7.263 -0.4906  0.2021  0.2235
 1902SOL    HW217340   2.957   0.413   7.340  0.3575 -0.1695  0.0611
 1903SOL     OW17341   1.497   4.142   6.457 -0.4356 -0.7306  0.3756
 1903SOL    HW117342   1.496   4.129   6.362 -0.9719  0.8075  0.1738
 1903SOL    HW217343   1.560   4.215   6.464  0.8378 -1.9189  1.2118
 1904SOL     OW17344   2.798   2.026   4.270 -0.0267  0.2074 -0.8325
 1904SOL    HW117345   2.744   2.099   4.243 -0.5402  0.5802  1.2011
 1904SOL    HW217346   2.730   1.978   4.317  2.4269  0.2032  2.7403
 1905SOL     OW17347   1.861   3.223  10.548  0.2871 -0.4048 -0.1732
 1905SOL    HW117348   1.920   3.235  10.622  0.2667 -1.2058 -0.0289
 1905SOL    HW217349   1.772   3.206  10.581 -0.2303  2.3714 -0.1243
 1906SOL     OW17350   0.101   2.536   5.733  0.2059 -0.5759  0.0810
 1906SOL    HW117351   0.084   2.455   5.685 -1.1690 -1.0610  1.3656
 1906SOL    HW217352   0.033   2.522   5.799 -0.4316 -1.8309 -0.8378
 1907SOL     OW17353   1.601   2.411   6.958 -0.2257  0.5795  0.3769
 1907SOL    HW117354   1.637   2.322   6.963 -1.9073  0.0587  3.5595
 1907SOL    HW217355   1.560   2.406   6.872  0.7752  1.3617 -0.1468
 1908SOL     OW17356   3.010   2.224   4.858  0.5890 -0.0285  0.7003
 1908SOL    HW117357   2.952   2.299   4.846 -0.3802 -0.1600  4.5537
 1908SOL    HW217358   3.039   2.254   4.945  0.0208  0.1855  0.8158
 1909SOL     OW17359   3.092   4.028   8.311  0.0813 -0.1025  0.9892
 1909SOL    HW117360   3.128   4.065   8.392 -1.4975  1.7898  0.8278
 1909SOL    HW217361   3.032   4.096   8.279  0.2222  0.4296  1.8550
 1910SOL     OW17362   3.775   2.339  12.003 -0.3742  0.5712  0.0614
 1910SOL    HW117363   3.801   2.337  12.095  0.8055 -0.0361 -0.2851
 1910SOL    HW217364   3.727   2.256  12.002 -1.6025  1.3088 -1.2018
 1911SOL     OW17365   2.700   4.477   9.782 -0.2295 -0.6849  0.2561
 1911SOL    HW117366   2.783   4.499   9.823 -0.2054 -1.1840  0.4740
 1911SOL    HW217367   2.641   4.459   9.855  0.0501 -1.2465  0.3443
 1912SOL     OW17368   3.559   1.927   7.793  0.1882  0.2493  0.0602
 1912SOL    HW117369   3.621   1.923   7.720  0.1477 -1.8165  0.1550
 1912SOL    HW217370   3.508   1.848   7.784 -1.5754  1.5212 -0.9491
 1913SOL     OW17371   4.357   2.007   6.796  0.1962 -0.3192  0.5935
 1913SOL    HW117372   4.380   2.032   6.706  0.3314  1.9189  1.2327
 1913SOL    HW217373   4.320   1.920   6.786 -1.2582  0.2972  0.6962
 1914SOL     OW17374   3.573   4.506   4.477  0.4540 -0.0641 -0.0881
 1914SOL    HW117375   3.612   4.509   4.390  1.2647  1.4252  0.3288
 1914SOL    HW217376   3.479   4.490   4.464  0.8588 -1.5599 -1.1548
 1915SOL     OW17377   2.387   2.686   0.967 -0.3097  0.5250  0.6231
 1915SOL    HW117378   2.466   2.722   0.928 -1.4357  2.6945  0.3338
 1915SOL    HW217379   2.328   2.761   0.956 -0.2935  0.4016 -0.3106
 1916SOL     OW17380   1.894   2.449   5.179  0.4216 -0.4164 -0.3047
 1916SOL    HW117381   1.874   2.421   5.089  0.9292 -1.7303 -0.0144
 1916SOL    HW217382   1.989   2.436   5.175  0.5888 -0.3236  3.3830
 1917SOL     OW17383   1.428   0.718  10.676 -0.1287  0.2795  0.1868
 1917SOL    HW117384   1.401   0.793  10.623 -1.3708 -0.1656  0.1898
 1917SOL    HW217385   1.369   0.728  10.751  1.9712 -1.5734  2.0875
 1918SOL     OW17386   0.268   4.453   3.306 -0.0687 -0.1740 -0.4642
 1918SOL    HW117387   0.328   4.409   3.245  3.1840 -0.3099  2.8630
 1918SOL    HW217388   0.199   4.484   3.248 -1.3515 -0.3363  0.9774
 1919SOL     OW17389   1.489   4.640  14.887  0.5728 -0.2731  0.1995
 1919SOL    HW117390   1.477   4.688  14.805 -0.7459 -1.1868 -0.1464
 1919SOL    HW217391   1.574   4.677  14.910  1.3642 -1.1630 -1.2542
 1920SOL     OW17392   4.241   0.338  13.235  0.0382  0.3476 -0.1632
 1920SOL    HW117393   4.190   0.260  13.215 -0.8230  0.7522  0.4224
 1920SOL    HW217394   4.325   0.301  13.261 -0.3525 -1.3171 -1.2737
 1921SOL     OW17395   3.257   2.558   6.241  0.0426  0.3899 -0.0136
 1921SOL    HW117396   3.223   2.478   6.282 -1.6623  1.7227  1.1566
 1921SOL    HW217397   3.278   2.534   6.150 -1.8705  0.7914 -0.5600
 1922SOL     OW17398   3.842   1.679   2.123 -0.1587  0.1427 -0.1990
 1922SOL    HW117399   3.780   1.632   2.179 -1.7065  0.4495 -1.6447
 1922SOL    HW217400   3.890   1.607   2.084  0.1743 -0.7424  1.8705
 1923SOL     OW17401   4.684   2.507   1.814 -0.3142  0.2536 -0.0945
 1923SOL    HW117402   4.626   2.568   1.768 -1.0952 -0.2967  0.1564
 1923SOL    HW217403   4.664   2.425   1.769  1.3142  0.2051 -0.7337
 1924SOL     OW17404   1.242   3.213   9.885  0.1461  0.5014 -0.4972
 1924SOL    HW117405   1.240   3.118   9.900  0.9876  0.6171  0.4084
 1924SOL    HW217406   1.152   3.235   9.864 -1.3821 -3.6996  1.6756
 1925SOL     OW17407   1.513   4.297   3.252  0.5989 -0.0099  0.1140
 1925SOL    HW117408   1.539   4.336   3.335 -4.6951  2.2127  0.7393
 1925SOL    HW217409   1.513   4.373   3.193 -1.0654 -2.1790 -2.6727
 1926SOL     OW17410   1.687   0.337   6.558  0.4958 -0.2274 -0.2293
 1926SOL    HW117411   1.704   0.355   6.651  1.0597  1.2429 -0.6208
 1926SOL    HW217412   1.651   0.422   6.534  2.2894  0.7248  0.4553
 1927SOL     OW17413   1.116   3.111   3.525 -0.7847  0.4766  0.5881
 1927SOL    HW117414   1.080   3.196   3.550 -1.0946  0.0123  1.7190
 1927SOL    HW217415   1.097   3.121   3.431 -2.0872 -0.1000  0.7934
 1928SOL     OW17416   2.894   2.473   4.781  0.2651 -0.2812 -0.4572
 1928SOL    HW117417   2.818   2.495   4.727  0.6524  1.1700 -0.4213
 1928SOL    HW217418   2.887   2.533   4.856  0.1685 -0.6499 -0.1753
 1929SOL     OW17419   2.628   3.049   3.272  0.9664  0.1302  0.5078
 1929SOL    HW117420   2.667   3.101   3.343 -0.0880  0.5326  0.7974
 1929SOL    HW217421   2.614   2.961   3.306  1.0183 -0.2801 -0.5302
 1930SOL     OW17422   3.283   3.455   3.123 -0.0776  0.2598 -0.2698
 1930SOL    HW117423   3.254   3.510   3.050  0.2445  2.1519  1.0108
 1930SOL    HW217424   3.250   3.373   3.087 -1.6614  0.7814 -0.0347
 1931SOL     OW17425   2.744   4.587   3.933  0.0115  0.3473 -0.1667
 1931SOL    HW117426   2.665   4.537   3.956  1.1554 -1.2661  0.3175
 1931SOL    HW217427   2.698   4.656   3.886 -1.3208 -0.3229  0.1485
 1932SOL     OW17428   0.275   0.861   1.214 -0.6850  0.1701 -0.0685
 1932SOL    HW117429   0.357   0.909   1.225  0.4155 -1.1394 -2.6020
 1932SOL    HW217430   0.271   0.867   1.118  0.6506  0.5646 -0.0988
 1933SOL     OW17431   0.607   4.702  14.179  0.4892 -0.2517  0.0330
 1933SOL    HW117432   0.616   4.636  14.248 -2.2103 -1.4762 -0.7711
 1933SOL    HW217433   0.692   0.011  14.186  0.9872 -1.1352 -0.5110
 1934SOL     OW17434   2.819   4.146   6.456  0.4164  0.0119  0.0851
 1934SOL    HW117435   2.906   4.162   6.493  0.6606 -2.2040  0.4410
 1934SOL    HW217436   2.767   4.108   6.527  0.7150  0.5165  0.5741
 1935SOL     OW17437   1.480   0.242  17.082 -0.3161 -0.1063 -0.0275
 1935SOL    HW117438   1.495   0.213  16.991  1.2286 -1.5529  0.6870
 1935SOL    HW217439   1.388   0.223  17.100 -0.5180 -0.4611 -1.4400
 1936SOL     OW17440   2.545   2.239   7.465 -0.0169  0.0819  0.4784
 1936SOL    HW117441   2.553   2.265   7.373 -0.7408  0.5737  0.5595
 1936SOL    HW217442   2.482   2.304   7.494  0.4332  0.7807 -0.1113
 1937SOL     OW17443   4.189   4.138  10.382 -0.2740 -0.2081  0.1157
 1937SOL    HW117444   4.171   4.225  10.416 -0.3758  0.4671 -1.6564
 1937SOL    HW217445   4.105   4.119  10.341 -0.6957 -0.8673  1.2942
 1938SOL     OW17446   0.151   2.919  10.117 -0.4465 -0.0677 -0.1765
 1938SOL    HW117447   0.170   2.945  10.027  0.9458 -2.7333 -0.6495
 1938SOL    HW217448   0.154   3.007  10.154 -0.6314 -0.5860  1.0766
 1939SOL     OW17449   2.727   3.806  15.654  0.2718 -0.4476  0.0449
 1939SOL    HW117450   2.652   3.862  15.674  0.9141  0.1861  0.6711
 1939SOL    HW217451   2.696   3.761  15.576 -0.0672 -2.0435  1.1172
 1940SOL     OW17452   3.835   2.626   5.492 -0.3393 -0.3403  0.2090
 1940SOL    HW117453   3.822   2.655   5.582 -0.9525  3.1369 -0.9911
 1940SOL    HW217454   3.823   2.531   5.486  2.1017 -0.6196 -0.6691
 1941SOL     OW17455   2.683   3.755   1.595  0.8508  0.2249 -0.0176
 1941SOL    HW117456   2.718   3.825   1.651 -0.5987  0.5617  0.4650
 1941SOL    HW217457   2.737   3.676   1.601  0.9535  0.1204 -2.4116
 1942SOL     OW17458   1.105   4.429  10.415  0.4929  0.4128 -0.1586
 1942SOL    HW117459   1.177   4.488  10.396 -1.6958  2.7225 -1.3340
 1942SOL    HW217460   1.135   4.421  10.505  0.1559  2.5083  0.1395
 1943SOL     OW17461   2.526   0.314  11.808  0.2799 -0.0990  0.5077
 1943SOL    HW117462   2.551   0.406  11.799 -0.7282  0.0418 -0.8327
 1943SOL    HW217463   2.509   0.309  11.902 -0.6564  0.1210  0.3544
 1944SOL     OW17464   1.943   0.194   6.951 -0.0992  0.3686 -0.3101
 1944SOL    HW117465   1.935   0.176   7.045  0.4846 -1.7381 -0.6645
 1944SOL    HW217466   1.851   0.199   6.926  0.2973 -1.0250 -2.0550
 1945SOL     OW17467   4.028   0.866  12.892  0.5842  0.1719 -0.4083
 1945SOL    HW117468   3.988   0.923  12.827  1.1017 -1.3072 -1.9989
 1945SOL    HW217469   3.969   0.873  12.967 -1.4476 -3.4812 -1.6784
 1946SOL     OW17470   2.654   4.082   8.394  0.1938  0.7120 -0.0672
 1946SOL    HW117471   2.612   4.141   8.456 -0.7934 -0.5831  0.4932
 1946SOL    HW217472   2.579   4.061   8.339  1.5267  2.2336 -2.4686
 1947SOL     OW17473   2.078   1.394  15.413  0.2477 -0.1921  0.0840
 1947SOL    HW117474   2.013   1.437  15.358 -0.0072 -1.0975 -0.3290
 1947SOL    HW217475   2.049   1.306  15.390 -2.0545  0.6639 -0.2212
 1948SOL     OW17476   3.341   0.026   8.373  0.0991  0.0493 -0.1550
 1948SOL    HW117477   3.319   0.092   8.307  1.1581  0.6242  0.0690
 1948SOL    HW217478   3.393   4.700   8.322 -0.0158  0.2533 -0.5249
 1949SOL     OW17479   0.952   3.356   7.011 -0.4817  0.1420  0.4912
 1949SOL    HW117480   1.045   3.342   7.024 -0.4701 -0.4787 -0.2797
 1949SOL    HW217481   0.936   3.430   7.070  2.2407  0.3651  0.9112
 1950SOL     OW17482   3.307   2.058   1.251 -0.4903  0.0263 -0.4948
 1950SOL    HW117483   3.400   2.076   1.256 -0.1630 -1.6282 -0.7468
 1950SOL    HW217484   3.285   2.147   1.280  1.1679  1.0414 -2.3812
 1951SOL     OW17485   1.212   4.004   8.311 -0.3430  0.3472 -0.3297
 1951SOL    HW117486   1.286   3.943   8.321  0.5261  1.3140 -0.8621
 1951SOL    HW217487   1.227   4.060   8.387  0.2300 -0.4902  0.1737
 1952SOL     OW17488   4.500   2.433   3.345  0.3005 -0.0009 -0.3106
 1952SOL    HW117489   4.464   2.463   3.428 -0.4590  0.8568 -0.9427
 1952SOL    HW217490   4.573   2.382   3.379 -0.9950 -2.4300 -1.0874
 1953SOL     OW17491   0.009   1.273   7.272 -0.2550 -0.2784 -0.3827
 1953SOL    HW117492   0.061   1.267   7.192 -1.7825  2.8620 -1.6594
 1953SOL    HW217493   4.669   1.227   7.234 -0.3029 -0.4539 -0.0678
 1954SOL     OW17494   4.527   2.466   3.950  0.4159 -0.0082 -0.0102
 1954SOL    HW117495   4.434   2.471   3.927  0.7205  0.2212 -1.1732
 1954SOL    HW217496   4.514   2.430   4.038  0.0360 -0.4764 -0.2610
 1955SOL     OW17497   3.500   4.336   6.150 -0.5623  0.0644 -0.7645
 1955SOL    HW117498   3.509   4.321   6.056  0.8792 -0.2463 -0.5676
 1955SOL    HW217499   3.538   4.423   6.164  0.2504 -1.1416  4.5372
 1956SOL     OW17500   0.092   4.676   5.461  0.3443 -0.2614 -0.1482
 1956SOL    HW117501   0.024   4.608   5.465  1.8889 -1.7801  0.3536
 1956SOL    HW217502   0.076   4.716   5.546 -1.6075 -0.6991 -0.2931
 1957SOL     OW17503   0.633   3.373   3.206 -0.0065  0.1780  0.2137
 1957SOL    HW117504   0.546   3.414   3.215 -0.8426 -1.2949 -1.2164
 1957SOL    HW217505   0.603   3.284   3.220  3.2853 -0.9726 -0.0645
 1958SOL     OW17506   3.033   0.762  11.472  0.2772 -0.1750  0.0925
 1958SOL    HW117507   3.111   0.747  11.418  0.8341 -1.2138  1.1786
 1958SOL    HW217508   3.043   0.689  11.534 -0.7976 -1.8441 -1.6777
 1959SOL     OW17509   2.788   0.698   3.574 -0.1724 -0.3657 -0.1091
 1959SOL    HW117510   2.803   0.633   3.642 -1.6598 -0.8590 -0.2550
 1959SOL    HW217511   2.762   0.762   3.641  0.6977 -1.0249  0.8584
 1960SOL     OW17512   4.540   1.908   0.858  0.9278  0.3925 -0.2590
 1960SOL    HW117513   4.523   1.921   0.765 -0.8723 -3.8660 -0.5074
 1960SOL    HW217514   4.478   1.974   0.891 -0.7061 -1.2054 -0.1493
 1961SOL     OW17515   0.798   0.057   5.351 -0.4778 -0.2849  0.2536
 1961SOL    HW117516   0.751   0.022   5.427 -0.1412 -0.7005  0.2717
 1961SOL    HW217517   0.782   4.721   5.288  0.3717  0.0470 -0.3338
 1962SOL     OW17518   2.757   0.226   7.213 -0.1633  0.1253  0.1124
 1962SOL    HW117519   2.734   0.253   7.124  2.6757 -0.1691 -0.7019
 1962SOL    HW217520   2.676   0.238   7.264  0.4893  1.8121  0.7725
 1963SOL     OW17521   2.551   2.065   6.791 -0.1588  0.1678 -0.0702
 1963SOL    HW117522   2.488   2.134   6.813 -0.1228  0.2758 -0.3029
 1963SOL    HW217523   2.571   2.090   6.701 -0.7730 -2.0097 -0.8215
 1964SOL     OW17524   1.741   3.911   3.089 -0.3886  0.7209  0.2675
 1964SOL    HW117525   1.684   3.846   3.129 -0.5510  0.3169 -0.6269
 1964SOL    HW217526   1.718   3.905   2.996  0.4193 -0.1054  0.1131
 1965SOL     OW17527   4.694   4.090   0.712  0.3350 -0.1384 -0.1571
 1965SOL    HW117528   4.615   4.090   0.658  1.2118  0.2365 -1.4339
 1965SOL    HW217529   4.648   4.090   0.796 -0.0072 -0.4856 -0.3416
 1966SOL     OW17530   2.005   0.572   3.682 -0.0611  0.8255 -0.2994
 1966SOL    HW117531   2.024   0.597   3.591  1.9925 -1.9975 -0.6334
 1966SOL    HW217532   1.910   0.579   3.686 -0.0486  2.9383 -3.6954
 1967SOL     OW17533   1.081   1.278   3.367  0.0755  0.1167  0.3490
 1967SOL    HW117534   1.036   1.205   3.325  0.4960  0.5359 -0.8432
 1967SOL    HW217535   1.042   1.350   3.317 -0.8188  0.5748  1.7335
 1968SOL     OW17536   1.087   4.483  11.859  0.1528  0.2793  0.0197
 1968SOL    HW117537   1.055   4.395  11.838 -0.2192  0.5054 -0.3690
 1968SOL    HW217538   1.148   4.504  11.788 -0.8166 -1.2559 -1.2660
 1969SOL     OW17539   2.968   2.327   9.636 -0.0744 -0.0177 -0.4852
 1969SOL    HW117540   2.963   2.414   9.676 -0.8050 -0.0347 -0.5293
 1969SOL    HW217541   3.041   2.344   9.577 -0.5825 -0.8280 -1.3409
 1970SOL     OW17542   2.864   0.268   1.650  0.7626  0.5721 -0.6315
 1970SOL    HW117543   2.840   0.216   1.726 -0.0315  0.4670 -0.9533
 1970SOL    HW217544   2.918   0.339   1.683 -1.2808  1.0971  1.5498
 1971SOL     OW17545   0.448   2.772   2.771 -0.0516 -0.3440  0.0068
 1971SOL    HW117546   0.416   2.688   2.805  0.0793 -0.8167 -1.0280
 1971SOL    HW217547   0.386   2.785   2.699 -0.5005  0.0863  0.4699
 1972SOL     OW17548   1.804   4.051   3.989  0.2619 -0.6055  0.1216
 1972SOL    HW117549   1.833   4.100   3.912 -1.0211  2.4306  1.5723
 1972SOL    HW217550   1.890   4.038   4.028 -0.3995  0.2978  1.8715
 1973SOL     OW17551   2.440   0.167   1.905 -0.0275  0.1843 -0.2879
 1973SOL    HW117552   2.422   0.258   1.925  4.0979  1.1572 -0.9632
 1973SOL    HW217553   2.520   0.148   1.954 -0.7075  2.3811  1.6501
 1974SOL     OW17554   2.328   1.894  16.748 -0.1553 -0.2676  0.1911
 1974SOL    HW117555   2.386   1.967  16.772  0.6901 -1.5027  1.9032
 1974SOL    HW217556   2.360   1.822  16.803 -1.1458 -1.4401 -0.7653
 1975SOL     OW17557   3.373   2.622   8.091 -0.3831  0.0003  0.0814
 1975SOL    HW117558   3.435   2.659   8.029 -0.7123 -1.8230 -1.3427
 1975SOL    HW217559   3.325   2.702   8.114  1.1195  0.8631  0.1818
 1976SOL     OW17560   0.307   0.341  13.573 -0.6599  0.0876  0.0215
 1976SOL    HW117561   0.364   0.387  13.510 -1.0569 -0.6885 -0.9048
 1976SOL    HW217562   0.341   0.252  13.564 -2.7250 -0.7396  0.5393
 1977SOL     OW17563   0.744   3.322   5.621  0.0397  1.2172  0.2466
 1977SOL    HW117564   0.727   3.381   5.547 -1.7510 -1.4493 -1.4889
 1977SOL    HW217565   0.727   3.236   5.581  0.3640  1.6983 -0.9275
 1978SOL     OW17566   0.539   3.617  15.365  0.0058 -0.1454  0.0568
 1978SOL    HW117567   0.477   3.551  15.395  0.7477 -0.3628  1.0950
 1978SOL    HW217568   0.558   3.583  15.278  1.1116  0.7077 -0.0424
 1979SOL     OW17569   3.589   1.437  12.264 -0.2991 -0.0220 -0.4969
 1979SOL    HW117570   3.505   1.419  12.307 -0.4435 -0.5339 -0.9866
 1979SOL    HW217571   3.639   1.377  12.319  3.2830  2.3877 -1.1269
 1980SOL     OW17572   1.713   1.880   7.495  0.1009  0.1535 -0.2727
 1980SOL    HW117573   1.711   1.910   7.586  0.2873 -0.3412 -0.1031
 1980SOL    HW217574   1.797   1.834   7.486 -0.2197 -0.3757 -0.5119
 1981SOL     OW17575   0.432   1.480   4.895 -0.3489  0.6799 -0.3521
 1981SOL    HW117576   0.342   1.490   4.925 -0.2163 -5.2748  1.9965
 1981SOL    HW217577   0.413   1.490   4.802  0.5357 -1.9829 -0.8255
 1982SOL     OW17578   0.723   4.011   1.264 -0.1211  0.2915  0.3980
 1982SOL    HW117579   0.699   4.097   1.229  2.4395  1.2224  0.9283
 1982SOL    HW217580   0.644   3.964   1.237  0.4903 -1.1015  1.0808
 1983SOL     OW17581   3.463   0.788   3.543  0.1860 -0.7207 -0.3913
 1983SOL    HW117582   3.537   0.746   3.501  0.8328  1.0275 -0.9920
 1983SOL    HW217583   3.418   0.717   3.588 -1.1485 -0.5030 -1.3806
 1984SOL     OW17584   4.172   4.258   8.753 -0.4248 -0.1755  0.4736
 1984SOL    HW117585   4.129   4.284   8.835  1.5819  1.1964  1.0837
 1984SOL    HW217586   4.113   4.298   8.690  1.3853 -1.3704 -2.0126
 1985SOL     OW17587   0.030   0.801   4.983 -0.0820 -0.1666  0.1186
 1985SOL    HW117588   4.716   0.822   4.904 -0.1560  0.5009  0.3470
 1985SOL    HW217589   0.112   0.788   4.936  0.4563  0.7496  0.8113
 1986SOL     OW17590   4.550   1.453  16.577  0.5400 -0.0453 -0.3386
 1986SOL    HW117591   4.568   1.370  16.621 -0.7537  0.5642  1.3291
 1986SOL    HW217592   4.455   1.447  16.591  0.5880 -2.1338 -0.8360
 1987SOL     OW17593   3.357   3.093  11.332 -0.2368 -0.0097  0.1246
 1987SOL    HW117594   3.450   3.103  11.310 -0.4075 -3.3735 -2.1003
 1987SOL    HW217595   3.360   3.134  11.419  0.2950  0.0472  0.0828
 1988SOL     OW17596   1.485   0.840   7.414  0.3928 -0.4260  0.5804
 1988SOL    HW117597   1.418   0.903   7.439  2.2481  0.7677  2.5765
 1988SOL    HW217598   1.557   0.881   7.463  1.2596 -0.9466 -0.2651
 1989SOL     OW17599   1.523   3.993   6.843 -0.1229  0.1755  0.5011
 1989SOL    HW117600   1.545   3.968   6.933 -0.3418  0.7913  0.7309
 1989SOL    HW217601   1.460   4.062   6.865 -0.0498  0.0512  1.1067
 1990SOL     OW17602   4.371   2.791   0.828  0.2721 -0.9841  0.4554
 1990SOL    HW117603   4.408   2.818   0.912 -0.2794 -1.0839  0.7283
 1990SOL    HW217604   4.278   2.806   0.844 -0.3219 -2.4637 -1.6499
 1991SOL     OW17605   4.545   1.990   1.532 -0.0715 -0.0911 -0.9836
 1991SOL    HW117606   4.522   1.897   1.541 -0.8290  0.4569  2.6685
 1991SOL    HW217607   4.464   2.030   1.561  0.5554  0.1119  0.4585
 1992SOL     OW17608   2.673   4.049   5.537  1.1835  0.4613 -0.1227
 1992SOL    HW117609   2.739   3.991   5.498  0.3652 -0.4236 -0.2039
 1992SOL    HW217610   2.656   3.990   5.611  0.2117 -0.2477 -0.9086
 1993SOL     OW17611   3.395   0.624   5.614  0.0490 -0.2076 -0.4318
 1993SOL    HW117612   3.405   0.709   5.656 -3.2638 -0.0208  0.0446
 1993SOL    HW217613   3.318   0.638   5.559 -0.2628  1.5809  0.4562
 1994SOL     OW17614   0.327   4.536   5.421 -0.3868 -0.1170 -0.6098
 1994SOL    HW117615   0.282   4.458   5.390  1.0179  0.4373 -4.0955
 1994SOL    HW217616   0.266   4.577   5.481 -0.8170 -1.0565 -0.4146
 1995SOL     OW17617   3.523   0.255   6.573  0.1614 -0.6849 -0.2406
 1995SOL    HW117618   3.603   0.248   6.626  0.6840  0.8704 -0.8219
 1995SOL    HW217619   3.464   0.186   6.603 -0.6110 -0.3867 -1.0757
 1996SOL     OW17620   1.333   4.706   6.617 -0.5841 -0.2094  0.6149
 1996SOL    HW117621   1.411   4.665   6.580  0.0987  1.4058  0.2667
 1996SOL    HW217622   1.311   0.029   6.544 -2.0607  1.7777  2.6434
 1997SOL     OW17623   2.746   2.395   5.117 -0.1753  0.5855 -0.0467
 1997SOL    HW117624   2.700   2.393   5.201 -2.9898  0.9267 -1.5953
 1997SOL    HW217625   2.674   2.408   5.057 -0.8359 -2.6766  0.0120
 1998SOL     OW17626   0.125   4.659  12.232  0.2721  0.2687  0.2408
 1998SOL    HW117627   0.139   4.630  12.323  0.9038 -1.2001 -0.3170
 1998SOL    HW217628   0.175   4.597  12.179  0.5251 -1.4997  2.5382
 1999SOL     OW17629   0.090   3.399   5.130  0.0449 -0.0145  0.6610
 1999SOL    HW117630   0.129   3.466   5.187  2.3958 -1.5583  0.8489
 1999SOL    HW217631   0.009   3.445   5.106 -0.3808  0.4489  2.9438
 2000SOL     OW17632   3.173   0.459   2.844  0.2282  0.2603  0.0224
 2000SOL    HW117633   3.085   0.495   2.857 -1.6298 -3.6375 -1.6431
 2000SOL    HW217634   3.155   0.377   2.798  0.9402  0.6543 -0.9555
 2001SOL     OW17635   1.393   0.078   6.865  0.7824 -0.2612  0.0519
 2001SOL    HW117636   1.368   0.037   6.782 -1.9414  0.0728  0.6975
 2001SOL    HW217637   1.437   0.155   6.830  1.4305 -0.3421  0.6797
 2002SOL     OW17638   1.156   2.555   6.963 -0.1230  0.0229 -0.2092
 2002SOL    HW117639   1.229   2.519   7.014  0.1312 -0.5365 -0.9586
 2002SOL    HW217640   1.075   2.513   6.991  0.2920 -1.4916 -1.2554
 2003SOL     OW17641   3.927   1.453  14.761  0.0676  0.2561 -0.4409
 2003SOL    HW117642   3.865   1.475  14.830  0.1413 -0.7679 -0.0575
 2003SOL    HW217643   3.919   1.358  14.760 -0.1181  0.2439  1.7033
 2004SOL     OW17644   0.014   2.660  11.997 -0.0777  0.6784  0.0538
 2004SOL    HW117645   4.706   2.686  11.916  1.0559 -0.2890 -0.8675
 2004SOL    HW217646   4.696   2.585  12.023  1.2223 -0.8698 -1.7015
 2005SOL     OW17647   1.978   3.749   6.449 -0.2996 -0.1310 -0.0220
 2005SOL    HW117648   2.037   3.745   6.524 -0.9677 -0.4900  0.4939
 2005SOL    HW217649   1.953   3.841   6.453 -1.2964 -0.3974 -0.0382
 2006SOL     OW17650   2.042   0.253  17.263 -0.1464  0.8854 -0.6673
 2006SOL    HW117651   2.133   0.269  17.239 -0.2737  0.5870 -1.3536
 2006SOL    HW217652   2.012   0.217  17.179  0.2885  0.9379 -0.8460
 2007SOL     OW17653   4.099   1.712  12.630  0.1467 -0.4410  0.1685
 2007SOL    HW117654   4.140   1.747  12.709 -0.7429 -1.2329  0.9681
 2007SOL    HW217655   4.173   1.725  12.571 -0.6689  0.2190 -0.7040
 2008SOL     OW17656   3.173   4.453   8.826  0.2100 -0.0234 -0.7180
 2008SOL    HW117657   3.172   4.411   8.739 -0.9472 -3.3278  0.8936
 2008SOL    HW217658   3.209   4.540   8.810  0.1006  0.3531  1.0958
 2009SOL     OW17659   1.356   0.191   0.009 -0.1256  0.1891 -0.1529
 2009SOL    HW117660   1.376   0.177   0.101 -0.9021 -2.3623 -0.3641
 2009SOL    HW217661   1.322   0.105  17.722  0.1481 -0.0695  0.3378
 2010SOL     OW17662   1.069   3.861  17.513  0.1411  0.1816 -0.4490
 2010SOL    HW117663   1.051   3.770  17.493 -1.4921  0.4889 -0.3912
 2010SOL    HW217664   1.035   3.912  17.440  0.6016 -0.1172 -0.8725
 2011SOL     OW17665   3.775   1.367  16.489 -0.1549  0.3225 -0.2354
 2011SOL    HW117666   3.762   1.447  16.438  1.4620  0.6016 -0.2064
 2011SOL    HW217667   3.861   1.392  16.524 -0.4076  2.8315 -1.4069
 2012SOL     OW17668   1.641   2.136   6.938  0.8892  0.4471  0.0118
 2012SOL    HW117669   1.702   2.064   6.956 -0.5916 -0.9539 -0.4778
 2012SOL    HW217670   1.563   2.083   6.921  0.9006  1.0647 -1.9781
 2013SOL     OW17671   1.958   2.985   7.081  0.1385  0.0770  0.7434
 2013SOL    HW117672   2.026   2.967   7.016  0.8484  1.4766  1.1214
 2013SOL    HW217673   1.968   2.907   7.136 -0.0418 -0.5927 -0.1571
 2014SOL     OW17674   3.674   2.413   9.209  0.1509 -0.1480 -0.1158
 2014SOL    HW117675   3.709   2.332   9.246 -4.5761 -1.1698  2.1231
 2014SOL    HW217676   3.746   2.445   9.154 -0.7569  1.9245 -0.0961
 2015SOL     OW17677   4.068   4.103   4.409  0.4601  0.1737 -0.0425
 2015SOL    HW117678   4.091   4.018   4.372  0.6065  1.1763 -2.2717
 2015SOL    HW217679   3.982   4.076   4.443  0.0002 -0.0229 -1.3419
 2016SOL     OW17680   0.054   0.592   2.999 -0.1921  0.7129  0.0856
 2016SOL    HW117681   0.000   0.573   3.076 -0.5652  0.1046 -0.3197
 2016SOL    HW217682   0.084   0.675   3.035 -0.4021  1.3731 -1.2843
 2017SOL     OW17683   3.550   1.800   1.203 -0.1034 -0.1526  0.6745
 2017SOL    HW117684   3.525   1.841   1.286  0.3663 -2.1679  1.7962
 2017SOL    HW217685   3.585   1.868   1.146 -2.4815  1.5913  1.2721
 2018SOL     OW17686   2.926   2.801   5.778  0.5451  1.1215 -0.0966
 2018SOL    HW117687   2.848   2.822   5.727  1.1193  0.7500 -1.1261
 2018SOL    HW217688   2.991   2.795   5.709 -0.7224 -1.7759 -1.0227
 2019SOL     OW17689   3.881   2.780   3.887 -0.1352  0.1120 -0.1388
 2019SOL    HW117690   3.797   2.823   3.871  0.7494  2.5498  1.8860
 2019SOL    HW217691   3.935   2.857   3.902  0.2379 -0.0106 -0.8533
 2020SOL     OW17692   3.578   0.170   9.999  0.0754 -0.7118 -0.3840
 2020SOL    HW117693   3.668   0.138  10.003 -0.5154 -2.4621 -1.3016
 2020SOL    HW217694   3.531   0.090  10.024 -1.1143 -0.2737 -1.1947
 2021SOL     OW17695   3.088   2.328   4.346 -0.0978 -0.4898  0.6456
 2021SOL    HW117696   3.081   2.311   4.441 -1.2871 -1.0131  0.4670
 2021SOL    HW217697   3.167   2.278   4.327  0.2824  0.2383  0.3561
 2022SOL     OW17698   1.500   3.941  17.245  0.4441  0.0599  0.0345
 2022SOL    HW117699   1.434   3.886  17.203 -0.2651  2.2076 -1.6527
 2022SOL    HW217700   1.469   3.929  17.335  0.1594  2.8033  0.3017
 2023SOL     OW17701   1.414   3.772   8.303 -0.0824 -0.3879  0.1654
 2023SOL    HW117702   1.506   3.765   8.328 -0.0263 -0.2404 -0.0024
 2023SOL    HW217703   1.384   3.780   8.393 -0.3314 -1.8418  0.2148
 2024SOL     OW17704   3.055   1.135   1.329 -0.2880  0.4382 -0.4655
 2024SOL    HW117705   3.040   1.139   1.234 -2.1095  0.4435 -0.1777
 2024SOL    HW217706   3.060   1.228   1.353 -0.7583  0.0112  1.2566
 2025SOL     OW17707   3.041   3.145   8.522  0.1202 -0.5002  0.5457
 2025SOL    HW117708   3.063   3.235   8.498 -0.6419 -0.8564 -1.5352
 2025SOL    HW217709   2.993   3.142   8.605 -1.1219 -1.4936 -0.2081
 2026SOL     OW17710   1.222   3.442   3.801  0.0774 -0.0685  0.0019
 2026SOL    HW117711   1.280   3.513   3.773 -3.3397  2.2074 -1.3250
 2026SOL    HW217712   1.263   3.417   3.884  0.3241  0.1011 -0.0680
 2027SOL     OW17713   2.150   3.631   4.621 -0.5208 -0.5971  0.9540
 2027SOL    HW117714   2.191   3.573   4.557  0.5851  0.4634  0.7047
 2027SOL    HW217715   2.106   3.694   4.564  0.3509  0.3655  1.3537
 2028SOL     OW17716   2.804   4.606   7.130 -0.5025 -0.2444  0.2324
 2028SOL    HW117717   2.710   4.618   7.146 -1.0859 -1.7086 -2.1669
 2028SOL    HW217718   2.821   4.649   7.047  0.1802 -1.1319 -0.0895
 2029SOL     OW17719   2.979   4.483   5.845  0.3139  0.6042 -0.0268
 2029SOL    HW117720   3.071   4.508   5.837 -0.2598  2.4659 -0.7072
 2029SOL    HW217721   2.981   4.396   5.805  0.2509  0.5534  0.0789
 2030SOL     OW17722   1.166   2.403  13.232 -0.1245  0.1123 -0.2666
 2030SOL    HW117723   1.180   2.492  13.201  0.1287  0.4741  0.8750
 2030SOL    HW217724   1.125   2.362  13.156  0.4241 -0.7480 -0.0984
 2031SOL     OW17725   3.107   1.706   2.577 -0.2615  0.1151 -0.6457
 2031SOL    HW117726   3.138   1.784   2.531  1.5033  0.5999  1.3730
 2031SOL    HW217727   3.016   1.700   2.547 -0.3688 -0.9071 -0.1266
 2032SOL     OW17728   2.434   2.956   9.543  0.2007 -0.3277  0.3318
 2032SOL    HW117729   2.422   2.871   9.586  0.9199  0.7141  2.5678
 2032SOL    HW217730   2.358   2.958   9.485  0.2255  2.1169  0.3983
 2033SOL     OW17731   4.198   0.008   2.644  0.4379 -0.5456 -0.2642
 2033SOL    HW117732   4.245   4.676   2.594  1.1838 -0.2609  0.0612
 2033SOL    HW217733   4.128   0.032   2.583 -0.6797 -0.0974  1.2018
 2034SOL     OW17734   1.752   1.381   7.824  0.3002 -0.0393  0.3311
 2034SOL    HW117735   1.670   1.430   7.831  1.6966  2.0472  2.2396
 2034SOL    HW217736   1.714   1.305   7.779 -0.4557  1.7966 -2.1071
 2035SOL     OW17737   1.213   0.464  14.410  0.5769 -0.1842 -0.0220
 2035SOL    HW117738   1.169   0.497  14.333  0.0690 -1.4488 -0.2729
 2035SOL    HW217739   1.133   0.454  14.462  1.9262 -1.3525  1.8614
 2036SOL     OW17740   4.005   1.245   9.957  0.0412 -0.2070 -0.3222
 2036SOL    HW117741   3.916   1.264   9.987  0.0540 -0.4572 -0.1191
 2036SOL    HW217742   4.047   1.331   9.962 -1.7605  0.7272 -1.6761
 2037SOL     OW17743   2.550   1.333   8.502  0.4388 -0.5862 -0.3974
 2037SOL    HW117744   2.515   1.250   8.536  1.4497  0.0747  2.2641
 2037SOL    HW217745   2.557   1.375   8.588 -3.4293  0.6121 -0.6644
 2038SOL     OW17746   0.548   3.684   0.692  0.1458 -0.3582 -0.3907
 2038SOL    HW117747   0.509   3.602   0.663 -0.0809  0.0410 -1.2119
 2038SOL    HW217748   0.616   3.655   0.753 -1.9021 -0.2443  1.9323
 2039SOL     OW17749   2.739   2.122   7.851  0.5107  0.4149 -0.7983
 2039SOL    HW117750   2.759   2.054   7.788 -0.7685  0.2665 -1.0533
 2039SOL    HW217751   2.796   2.189   7.813 -0.3162  1.4549 -0.2224
 2040SOL     OW17752   1.332   4.193   2.531  0.1409  0.3558  0.0583
 2040SOL    HW117753   1.422   4.217   2.552  0.2836  0.3439 -0.5364
 2040SOL    HW217754   1.327   4.210   2.437 -1.7513 -2.1903 -0.3054
 2041SOL     OW17755   1.742   0.921   7.904  0.6280 -0.0665 -0.3380
 2041SOL    HW117756   1.788   0.847   7.864 -2.1641 -1.1408 -1.5708
 2041SOL    HW217757   1.670   0.914   7.840  0.2198  2.6346 -0.1514
 2042SOL     OW17758   1.958   2.188   6.722 -0.5278  0.2646  0.1257
 2042SOL    HW117759   2.031   2.244   6.750 -0.2008  0.5219 -1.2458
 2042SOL    HW217760   1.888   2.254   6.723 -1.2029 -0.4773  1.1333
 2043SOL     OW17761   1.039   2.164  12.342  0.3939 -0.3346  0.4188
 2043SOL    HW117762   1.037   2.210  12.259  1.5518  1.1990  1.2299
 2043SOL    HW217763   1.073   2.082  12.307  1.8983 -0.1968  1.5413
 2044SOL     OW17764   3.762   3.237   0.932  0.4147  0.2735 -0.2771
 2044SOL    HW117765   3.730   3.174   0.997  1.0914  0.4186  0.1984
 2044SOL    HW217766   3.730   3.205   0.848  2.2351  0.2315 -0.9712
 2045SOL     OW17767   2.056   2.826   1.601  0.0162 -0.1829  0.1558
 2045SOL    HW117768   2.076   2.782   1.519  1.1671  0.5859  0.0314
 2045SOL    HW217769   1.962   2.831   1.618 -0.5059 -1.8371 -2.2682
 2046SOL     OW17770   1.187   2.118   7.076 -0.1364  0.1498 -0.2440
 2046SOL    HW117771   1.181   2.031   7.035 -0.6852  0.2927 -0.4713
 2046SOL    HW217772   1.137   2.171   7.014  0.0426  4.0751  2.9927
 2047SOL     OW17773   0.246   2.086   3.336  0.2761 -0.7066 -0.3233
 2047SOL    HW117774   0.312   2.058   3.273  2.2264 -0.4309  1.6052
 2047SOL    HW217775   0.208   2.165   3.298  1.8948 -0.1060 -0.6758
 2048SOL     OW17776   1.771   3.535  12.175  0.6943  0.3421  0.2696
 2048SOL    HW117777   1.818   3.457  12.203  0.3756 -0.1133 -0.4619
 2048SOL    HW217778   1.767   3.525  12.080  0.7014  0.5609  0.2471
 2049SOL     OW17779   1.784   4.448   5.533 -0.0249 -0.0878 -0.6274
 2049SOL    HW117780   1.840   4.373   5.550  0.1451  0.1364 -0.2080
 2049SOL    HW217781   1.707   4.403   5.497  0.5632 -3.7863  2.7871
 2050SOL     OW17782   3.700   3.130   8.034  0.7493  0.3814 -0.2495
 2050SOL    HW117783   3.772   3.160   7.979  0.5983 -0.3599 -0.8506
 2050SOL    HW217784   3.638   3.091   7.972  0.1302  1.2753 -0.1902
 2051SOL     OW17785   2.625   0.025   8.056  0.1707  0.1699  0.2366
 2051SOL    HW117786   2.581   0.109   8.048 -3.0498 -1.5934 -0.6471
 2051SOL    HW217787   2.707   0.037   8.105  0.4223  1.2849 -0.4690
 2052SOL     OW17788   0.586   4.163   5.969 -0.3316 -0.2974  0.3308
 2052SOL    HW117789   0.665   4.202   5.931  0.2355 -0.8733  0.9092
 2052SOL    HW217790   0.552   4.226   6.032  0.9710  1.0455 -0.3096
 2053SOL     OW17791   4.186   3.004   8.761 -0.0030  0.2534 -0.0235
 2053SOL    HW117792   4.193   3.087   8.714 -1.8944  0.6042  0.3049
 2053SOL    HW217793   4.092   2.987   8.748  0.3218 -1.0594 -0.6046
 2054SOL     OW17794   0.871   3.818   7.708  0.1855  0.1239  0.0838
 2054SOL    HW117795   0.787   3.781   7.734 -0.0005 -1.2583 -2.3953
 2054SOL    HW217796   0.927   3.740   7.702  0.8909  0.6533 -0.3370
 2055SOL     OW17797   1.489   2.881   1.734  0.2773 -0.0831  0.1019
 2055SOL    HW117798   1.394   2.883   1.723  0.6287  1.1031 -2.5402
 2055SOL    HW217799   1.500   2.858   1.827 -0.2815 -0.3008  0.1162
 2056SOL     OW17800   2.063   2.254   0.672  0.6141 -0.1936 -0.2244
 2056SOL    HW117801   1.974   2.263   0.639 -0.2144 -1.7475  1.5536
 2056SOL    HW217802   2.121   2.277   0.599  2.8562 -1.4873  1.1250
 2057SOL     OW17803   2.765   4.206   5.070 -0.6116 -0.4238  0.0028
 2057SOL    HW117804   2.806   4.267   5.132 -0.0400 -0.0041 -0.7903
 2057SOL    HW217805   2.840   4.192   5.012  0.1803 -0.5853  1.0580
 2058SOL     OW17806   2.583   4.499   9.106 -0.1115 -0.0425 -0.8470
 2058SOL    HW117807   2.623   4.541   9.183  0.3997 -0.9022 -0.6479
 2058SOL    HW217808   2.655   4.444   9.075  1.0226  1.7431 -1.3511
 2059SOL     OW17809   0.995   4.080   7.680  0.9605 -0.5791 -0.0111
 2059SOL    HW117810   0.959   3.991   7.682 -0.7661  0.1693  3.0059
 2059SOL    HW217811   1.081   4.061   7.641  2.4701  1.8192  2.1774
 2060SOL     OW17812   1.700   1.040  17.167  0.7847 -0.7973  0.2333
 2060SOL    HW117813   1.643   1.096  17.220  1.2281 -0.9524  0.8758
 2060SOL    HW217814   1.658   0.954  17.173  1.6149 -1.3019 -1.2546
 2061SOL     OW17815   0.470   0.836  14.702 -0.4193  0.4329 -0.1762
 2061SOL    HW117816   0.472   0.804  14.792  2.9414  1.9887  0.3182
 2061SOL    HW217817   0.439   0.760  14.653  0.3977 -0.5425  0.8121
 2062SOL     OW17818   2.853   3.927   8.519 -0.2709  0.4192  0.2183
 2062SOL    HW117819   2.796   3.951   8.592  0.6156  0.9489  0.7324
 2062SOL    HW217820   2.783   3.918   8.454 -1.4940  0.8954  1.4732
 2063SOL     OW17821   1.801   2.367  15.990 -0.2187  0.0934  0.1377
 2063SOL    HW117822   1.854   2.426  16.045 -0.9365  0.3529  0.5613
 2063SOL    HW217823   1.868   2.304  15.964 -0.2160  0.8994 -1.8180
 2064SOL     OW17824   0.011   0.179  12.081 -0.3348 -0.0788 -0.4509
 2064SOL    HW117825   4.659   0.187  12.121  0.2532 -0.7157  0.9735
 2064SOL    HW217826   0.032   0.091  12.113  0.4255  0.3106  0.1424
 2065SOL     OW17827   0.862   3.991  15.457  0.5430  0.2135  0.0492
 2065SOL    HW117828   0.837   4.064  15.400  1.5785  1.8435  1.7006
 2065SOL    HW217829   0.853   4.031  15.544 -2.1948  1.8667 -0.9902
 2066SOL     OW17830   2.722   4.159  17.036  0.0465 -0.2156 -0.5891
 2066SOL    HW117831   2.772   4.238  17.053  1.3373 -1.0585 -0.4909
 2066SOL    HW217832   2.648   4.161  17.097 -0.4758  0.4970 -1.2456
 2067SOL     OW17833   1.395   2.198   1.430 -0.4024  0.3750  0.3982
 2067SOL    HW117834   1.463   2.156   1.482  0.7267  1.0934 -0.5215
 2067SOL    HW217835   1.427   2.181   1.342 -2.2255 -2.9855  0.3577
 2068SOL     OW17836   4.069   3.565   1.622  0.7939 -0.3243 -0.5678
 2068SOL    HW117837   4.020   3.639   1.657 -1.1258 -1.6870 -0.3412
 2068SOL    HW217838   4.070   3.513   1.702  1.6699  2.5103  1.2229
 2069SOL     OW17839   3.290   1.140   1.692 -0.0096 -0.1800 -0.0293
 2069SOL    HW117840   3.221   1.205   1.689 -0.8303 -1.0165  0.5033
 2069SOL    HW217841   3.335   1.151   1.608 -1.2380 -2.3343 -0.9592
 2070SOL     OW17842   2.132   0.023  13.713  0.5123 -0.6697  0.5192
 2070SOL    HW117843   2.156   4.699  13.785 -0.2442  0.9922  2.1392
 2070SOL    HW217844   2.063   4.714  13.664 -0.5477  0.7141  0.7876
 2071SOL     OW17845   4.429   1.670  12.342  0.2058  0.1924 -0.2266
 2071SOL    HW117846   4.422   1.731  12.269  2.0499 -0.6370 -1.0753
 2071SOL    HW217847   4.412   1.725  12.418  0.4117  1.6286 -1.2343
 2072SOL     OW17848   0.453   4.249  15.254  0.0550 -0.2518  0.0476
 2072SOL    HW117849   0.503   4.325  15.285 -0.6022  0.0509  0.3521
 2072SOL    HW217850   0.459   4.255  15.159  0.8009 -2.4432 -0.0570
 2073SOL     OW17851   0.612   4.094   9.091 -0.3596  0.3819 -0.2078
 2073SOL    HW117852   0.631   4.130   9.004  0.8265  1.2312  0.4017
 2073SOL    HW217853   0.594   4.001   9.076 -0.1354  0.3750 -0.4440
 2074SOL     OW17854   3.637   4.246  16.847 -0.6443 -0.6106  0.0607
 2074SOL    HW117855   3.656   4.259  16.940 -0.7607  0.6728 -0.0979
 2074SOL    HW217856   3.722   4.205  16.829  0.1035  0.3063  1.4341
 2075SOL     OW17857   3.374   4.572   9.042  0.1062 -0.0729 -0.3533
 2075SOL    HW117858   3.294   4.622   9.056  0.8921  1.1395 -0.1767
 2075SOL    HW217859   3.437   4.641   9.063 -0.9989 -0.3766  3.9877
 2076SOL     OW17860   4.160   2.689  12.550 -0.0101  0.5353  0.3398
 2076SOL    HW117861   4.134   2.657  12.464  0.9725  1.0888 -0.1546
 2076SOL    HW217862   4.076   2.715  12.588 -0.5305 -1.0952  0.2892
 2077SOL     OW17863   3.962   1.227   4.856  0.7566 -0.4603  0.3788
 2077SOL    HW117864   3.968   1.131   4.852  2.2020 -0.4683  3.4448
 2077SOL    HW217865   3.966   1.245   4.950  0.9858  2.5349 -0.2158
 2078SOL     OW17866   4.064   0.661   0.376  0.3171  0.3977  0.1791
 2078SOL    HW117867   4.099   0.745   0.346  0.1032  0.2775 -0.3965
 2078SOL    HW217868   4.121   0.636   0.449  1.3538  1.2453 -0.3508
 2079SOL     OW17869   0.866   0.445   7.255  0.1144 -0.0126 -0.3178
 2079SOL    HW117870   0.948   0.404   7.227  0.6779  0.6500  0.3965
 2079SOL    HW217871   0.878   0.534   7.222  1.8018 -0.0528  0.1828
 2080SOL     OW17872   1.556   0.627  17.714 -0.4405  0.3014  0.2741
 2080SOL    HW117873   1.642   0.587  17.723  0.6495  2.5586 -0.2062
 2080SOL    HW217874   1.553   0.650  17.621  2.6368 -4.7130 -1.0558
 2081SOL     OW17875   0.567   0.392  11.604  0.3124  0.2075 -0.2532
 2081SOL    HW117876   0.522   0.449  11.542 -0.2505 -0.6135 -0.6089
 2081SOL    HW217877   0.596   0.324  11.542  1.3235 -2.5200  3.2086
 2082SOL     OW17878   3.056   1.697   6.908 -0.4984  0.7160 -0.4659
 2082SOL    HW117879   3.078   1.609   6.938 -1.6609  0.6451  0.1369
 2082SOL    HW217880   3.141   1.741   6.915  1.8876 -3.7907 -0.8728
 2083SOL     OW17881   0.852   1.103   6.763  0.5327 -0.6243  0.2025
 2083SOL    HW117882   0.825   1.019   6.799 -0.2795  0.2745  1.6969
 2083SOL    HW217883   0.872   1.077   6.673 -2.9092 -0.4104 -0.6589
 2084SOL     OW17884   0.280   3.264   2.216  0.1147 -0.2397  0.0707
 2084SOL    HW117885   0.250   3.252   2.306  2.3383  2.0553  1.1128
 2084SOL    HW217886   0.229   3.202   2.164 -1.6464  1.6672 -0.4534
 2085SOL     OW17887   0.301   4.500   8.920  0.1937  0.0249  0.1296
 2085SOL    HW117888   0.243   4.429   8.894  0.1792  0.4593 -1.0134
 2085SOL    HW217889   0.288   4.555   8.843 -2.1589  0.3753  0.7801
 2086SOL     OW17890   2.529   4.105  12.549  0.1368  0.4984 -0.3385
 2086SOL    HW117891   2.568   4.183  12.587  0.3108  2.0237 -3.6005
 2086SOL    HW217892   2.461   4.157  12.507  0.4456 -0.0188 -1.4946
 2087SOL     OW17893   1.051   2.144   3.037  0.0502 -0.6864  0.2047
 2087SOL    HW117894   1.024   2.055   3.012 -2.2536 -0.1442  0.8312
 2087SOL    HW217895   1.101   2.120   3.115 -0.8011  0.9770  1.2500
 2088SOL     OW17896   1.184   3.302   5.275 -0.3764  0.0352  0.4470
 2088SOL    HW117897   1.122   3.278   5.206  2.5929 -0.6369 -1.9936
 2088SOL    HW217898   1.131   3.374   5.307 -2.2064 -0.8686 -0.5229
 2089SOL     OW17899   3.733   2.306   0.663  0.0796 -0.2286 -0.4153
 2089SOL    HW117900   3.672   2.246   0.706  2.0160 -1.0989  1.1663
 2089SOL    HW217901   3.763   2.252   0.589 -1.5411 -0.8473 -0.6340
 2090SOL     OW17902   2.035   1.647   5.080 -0.1449 -0.1348 -0.1882
 2090SOL    HW117903   1.945   1.624   5.105  0.0355 -4.5011 -3.7389
 2090SOL    HW217904   2.041   1.606   4.994 -0.9136 -1.5411  0.4177
 2091SOL     OW17905   2.436   3.897   9.022 -0.3896 -0.7605  0.3684
 2091SOL    HW117906   2.453   3.829   9.086  0.5559  0.5788  1.5362
 2091SOL    HW217907   2.509   3.958   9.037 -1.5373 -0.1972  3.6155
 2092SOL     OW17908   1.020   3.683   2.041 -0.1404  0.5470 -0.1652
 2092SOL    HW117909   1.036   3.589   2.034  1.3466  0.9725 -2.5422
 2092SOL    HW217910   0.982   3.705   1.956 -1.0835  2.1448  0.6584
 2093SOL     OW17911   0.259   1.927   6.578 -0.3128 -0.7822  0.1021
 2093SOL    HW117912   0.193   1.857   6.571  0.1302 -0.9537 -2.1960
 2093SOL    HW217913   0.304   1.911   6.495 -1.5852  0.8683 -0.9028
 2094SOL     OW17914   2.372   0.778   9.219 -0.2523  0.1082 -0.2195
 2094SOL    HW117915   2.434   0.705   9.219 -1.7585 -1.1618 -2.8520
 2094SOL    HW217916   2.313   0.762   9.292 -0.6736 -0.8997 -0.7865
 2095SOL     OW17917   0.359   2.362   9.524  0.3379 -0.8314  0.4358
 2095SOL    HW117918   0.290   2.423   9.498 -0.6960 -1.6200  1.2669
 2095SOL    HW217919   0.432   2.423   9.524 -1.2288  1.0273 -2.1995
 2096SOL     OW17920   0.256   3.716   6.501 -0.1679 -0.0278 -0.6478
 2096SOL    HW117921   0.335   3.764   6.526 -0.0337 -1.2776  1.3669
 2096SOL    HW217922   0.196   3.786   6.478 -1.2204 -0.4764  0.7491
 2097SOL     OW17923   0.941   0.784  11.659  0.7998  0.8092 -0.2944
 2097SOL    HW117924   0.957   0.701  11.704 -2.8891 -0.2552 -0.9309
 2097SOL    HW217925   0.853   0.770  11.624  0.6887 -0.2282  0.4017
 2098SOL     OW17926   3.620   3.080  16.077 -0.2927  0.0519 -0.3318
 2098SOL    HW117927   3.585   3.154  16.127  0.3982 -0.3057  0.6827
 2098SOL    HW217928   3.629   3.009  16.140  2.5262  0.2402 -0.5204
 2099SOL     OW17929   0.288   1.532  15.987 -0.0982 -0.1525  0.1711
 2099SOL    HW117930   0.307   1.469  16.057 -3.1878  2.6874  3.5858
 2099SOL    HW217931   0.206   1.564  16.024 -0.5556  0.5785 -1.5070
 2100SOL     OW17932   4.324   1.664   8.470  0.6621 -0.5070 -0.1841
 2100SOL    HW117933   4.314   1.647   8.563  1.1874  1.4290  0.2018
 2100SOL    HW217934   4.411   1.694   8.447 -0.3770  1.7467 -1.1667
 2101SOL     OW17935   0.671   4.420  16.993 -0.3740 -0.2602  0.3820
 2101SOL    HW117936   0.707   4.433  16.905  1.2495  2.5740  1.4806
 2101SOL    HW217937   0.631   4.505  17.006 -1.3999 -0.0712 -3.9965
 2102SOL     OW17938   0.290   1.270   9.881  0.0657 -0.2677  0.3533
 2102SOL    HW117939   0.264   1.212   9.810 -0.3295 -0.2600  0.4920
 2102SOL    HW217940   0.245   1.214   9.945 -0.0728  0.9654  1.3528
 2103SOL     OW17941   1.666   4.253   8.097  0.2594 -0.1327 -0.2933
 2103SOL    HW117942   1.623   4.259   8.011 -0.5376 -0.2060  0.1029
 2103SOL    HW217943   1.597   4.277   8.159  0.2479  2.4288 -1.2859
 2104SOL     OW17944   3.521   1.268  17.120 -0.3462  0.6931  0.6085
 2104SOL    HW117945   3.559   1.322  17.051  1.8628 -1.4232  0.1719
 2104SOL    HW217946   3.516   1.182  17.080 -1.8046  0.5664  1.0625
 2105SOL     OW17947   3.925   1.494   0.587 -0.9865  0.4189  0.7467
 2105SOL    HW117948   3.859   1.441   0.542 -0.3977  1.7965 -1.6911
 2105SOL    HW217949   3.975   1.422   0.626 -2.5707 -1.1402 -0.1079
 2106SOL     OW17950   0.454   4.728   5.255  0.2469  0.0272  0.4784
 2106SOL    HW117951   0.507   0.061   5.297 -2.0103  2.8701 -1.3038
 2106SOL    HW217952   0.416   4.692   5.335 -0.1919  0.7271  0.5904
 2107SOL     OW17953   3.075   4.472   5.447  0.6864  0.0666 -0.0272
 2107SOL    HW117954   3.156   4.421   5.452  0.7778  0.0669 -1.4332
 2107SOL    HW217955   3.119   4.553   5.423 -0.7669  0.5879 -0.9502
 2108SOL     OW17956   3.113   3.239   3.401 -0.2767 -0.0999 -1.0807
 2108SOL    HW117957   3.168   3.312   3.427 -0.5720 -0.7368  1.3394
 2108SOL    HW217958   3.148   3.184   3.471  0.9395  1.9158 -0.1263
 2109SOL     OW17959   4.228   2.500  13.762  0.0473 -0.0552 -0.2060
 2109SOL    HW117960   4.173   2.456  13.827 -0.9569 -1.9735 -2.3455
 2109SOL    HW217961   4.307   2.446  13.769  0.1458  0.1123 -0.0260
 2110SOL     OW17962   0.672   1.675   9.459 -0.1853  0.3662 -0.3286
 2110SOL    HW117963   0.642   1.584   9.451 -1.9056  0.9837 -0.9635
 2110SOL    HW217964   0.584   1.707   9.477  0.1317  0.5979  0.8072
 2111SOL     OW17965   4.371   1.313  13.089  0.0783  0.4772 -0.1371
 2111SOL    HW117966   4.355   1.219  13.103 -0.7979  0.4425 -1.5067
 2111SOL    HW217967   4.319   1.343  13.163 -0.9397 -0.2648 -0.5520
 2112SOL     OW17968   2.520   3.447   5.196  0.3076  0.6371 -0.4813
 2112SOL    HW117969   2.447   3.455   5.257  1.1395 -0.6395  0.6852
 2112SOL    HW217970   2.591   3.411   5.249 -0.4619  0.6648  0.5512
 2113SOL     OW17971   3.134   2.862   4.282  0.3666 -0.7721  0.2183
 2113SOL    HW117972   3.190   2.815   4.344 -0.3555  1.9127  2.9218
 2113SOL    HW217973   3.060   2.803   4.265  0.2279 -0.9771  1.5431
 2114SOL     OW17974   0.329   2.612   2.069  0.4511 -0.2035  0.2725
 2114SOL    HW117975   0.250   2.560   2.055 -0.5066  1.5133 -0.5829
 2114SOL    HW217976   0.361   2.589   2.157  0.6992  0.5247  0.3772
 2115SOL     OW17977   0.910   2.652   4.785 -0.0054 -0.3011 -0.4454
 2115SOL    HW117978   0.819   2.625   4.769 -0.7827  0.8784  2.1345
 2115SOL    HW217979   0.964   2.573   4.795 -0.4142 -0.4628  0.3953
 2116SOL     OW17980   1.747   4.598   2.358  0.3079  0.4752 -0.1361
 2116SOL    HW117981   1.725   4.562   2.444 -0.4786 -0.7904 -0.8806
 2116SOL    HW217982   1.830   4.643   2.376  1.5461 -1.7950 -0.2025
 2117SOL     OW17983   0.348   2.533   2.825  0.3813 -0.4201 -0.2486
 2117SOL    HW117984   0.372   2.448   2.789  0.3747 -0.3817 -0.3458
 2117SOL    HW217985   0.382   2.523   2.913 -0.0714 -1.7033 -0.2218
 2118SOL     OW17986   2.410   3.099   4.650 -0.3213 -0.6898 -0.3223
 2118SOL    HW117987   2.458   3.019   4.674  3.6014  0.9725 -2.5341
 2118SOL    HW217988   2.476   3.142   4.595 -0.2965  1.2707  1.2719
 2119SOL     OW17989   3.601   4.305   0.523  0.6412 -0.0222  0.2530
 2119SOL    HW117990   3.543   4.314   0.598 -2.4389 -2.5551 -1.8194
 2119SOL    HW217991   3.590   4.394   0.489  0.8217 -0.6765 -1.5017
 2120SOL     OW17992   3.347   0.097  17.704 -0.0920 -0.1674 -0.2651
 2120SOL    HW117993   3.396   0.149   0.029 -2.5312 -1.7313  2.9216
 2120SOL    HW217994   3.387   0.013  17.727  1.4453  0.1100 -1.9382
 2121SOL     OW17995   1.246   1.030   3.164 -0.2779  0.5594 -0.2478
 2121SOL    HW117996   1.324   1.085   3.159  0.6252 -0.5124  2.1424
 2121SOL    HW217997   1.192   1.086   3.108  0.4030  0.9588 -0.5082
 2122SOL     OW17998   0.017   4.453  11.657  0.1792  0.0386 -0.0016
 2122SOL    HW117999   0.073   4.418  11.587 -1.8370 -0.7683 -1.1938
 2122SOL    HW218000   0.044   4.544  11.669 -3.1223  1.0431 -0.4176
 2123SOL     OW18001   1.729   0.867   2.942  0.1427 -0.2135 -0.1332
 2123SOL    HW118002   1.700   0.792   2.890 -0.9572  0.1438 -0.0264
 2123SOL    HW218003   1.770   0.931   2.883 -0.4047  0.5538  0.3259
 2124SOL     OW18004   1.701   1.855  14.681  0.2963 -0.0847  0.1213
 2124SOL    HW118005   1.781   1.851  14.629 -0.5821  1.6530 -1.3606
 2124SOL    HW218006   1.633   1.821  14.623  0.3524  2.5734 -1.4922
 2125SOL     OW18007   3.129   3.275   9.566 -0.5534  0.2643  0.6039
 2125SOL    HW118008   3.059   3.225   9.523  1.3778 -0.6875 -1.4533
 2125SOL    HW218009   3.085   3.344   9.615  0.2026  0.6518  0.7252
 2126SOL     OW18010   2.241   2.727   4.834  0.2636  0.2350 -0.3242
 2126SOL    HW118011   2.274   2.678   4.758 -0.4997 -1.5116  0.4550
 2126SOL    HW218012   2.182   2.791   4.795  0.6033  1.0771  0.5522
 2127SOL     OW18013   4.192   1.250   9.077  0.2522 -0.2302 -0.4816
 2127SOL    HW118014   4.205   1.160   9.106 -0.1851  0.4488  1.8980
 2127SOL    HW218015   4.113   1.234   9.026 -0.5290  4.3357 -0.7154
 2128SOL     OW18016   2.035   0.458   5.046 -0.2017  0.2173  0.5535
 2128SOL    HW118017   2.121   0.492   5.020 -0.8244  1.6142  0.3518
 2128SOL    HW218018   1.980   0.516   4.994  1.3182 -0.2942 -1.6064
 2129SOL     OW18019   1.415   1.001   0.370 -0.2385 -0.0717 -0.0454
 2129SOL    HW118020   1.480   0.946   0.414 -1.4929  0.0410  1.9399
 2129SOL    HW218021   1.412   0.952   0.287 -1.2947 -0.4822  0.2241
 2130SOL     OW18022   2.201   0.079   7.901 -0.6911  0.1283 -0.1712
 2130SOL    HW118023   2.223   4.726   7.873 -0.8102 -0.2450  0.9284
 2130SOL    HW218024   2.256   0.088   7.978 -0.8725  2.6643 -0.3170
 2131SOL     OW18025   4.089   0.457   4.831 -0.0823 -0.6953 -0.1043
 2131SOL    HW118026   4.131   0.377   4.862  0.7329 -0.8932 -1.7359
 2131SOL    HW218027   4.121   0.452   4.741  0.2068 -1.2618  0.0275
 2132SOL     OW18028   3.994   2.183  16.822 -0.1972  0.6223 -0.2468
 2132SOL    HW118029   4.060   2.246  16.852 -1.2229  0.3647  2.5182
 2132SOL    HW218030   4.008   2.116  16.889  0.8231  0.5086 -0.5860
 2133SOL     OW18031   4.069   2.126   2.705 -0.1862  0.8216  0.2308
 2133SOL    HW118032   4.149   2.138   2.653 -0.2995  2.0045  0.3372
 2133SOL    HW218033   4.004   2.154   2.640  0.1328  1.1230  0.0430
 2134SOL     OW18034   2.897   1.526   4.575 -0.1404  0.3743  0.5321
 2134SOL    HW118035   2.925   1.571   4.496  0.6601 -0.3951  0.3805
 2134SOL    HW218036   2.898   1.441   4.530  2.8383 -0.2290  1.7038
 2135SOL     OW18037   3.024   1.229   4.798  0.5074 -0.5440 -0.1251
 2135SOL    HW118038   2.976   1.209   4.718  1.9117 -0.3557 -0.9984
 2135SOL    HW218039   3.114   1.211   4.772  0.5150 -0.4967 -0.1302
 2136SOL     OW18040   4.224   0.641   1.969 -0.4395 -0.1725 -0.1735
 2136SOL    HW118041   4.249   0.569   1.912  0.2493  0.2505 -0.4024
 2136SOL    HW218042   4.238   0.715   1.910 -0.1991 -0.2412 -0.2013
 2137SOL     OW18043   1.272   1.387   9.439 -0.2139 -0.4763 -0.5011
 2137SOL    HW118044   1.314   1.428   9.364 -0.0042 -1.2423 -0.8036
 2137SOL    HW218045   1.193   1.440   9.450  0.6617  0.9733 -1.2633
 2138SOL     OW18046   2.720   2.714   6.385 -0.0732 -0.3304  0.4832
 2138SOL    HW118047   2.802   2.749   6.349 -0.4780  0.9525  0.7977
 2138SOL    HW218048   2.742   2.701   6.477  3.8361 -2.4182 -0.7167
 2139SOL     OW18049   2.374   2.546   9.143  0.3423 -0.0359 -0.3404
 2139SOL    HW118050   2.451   2.556   9.199  1.0374 -1.5631 -1.0261
 2139SOL    HW218051   2.358   2.639   9.126 -0.1902 -0.1282 -0.3470
 2140SOL     OW18052   3.628   2.094   0.785  0.0051  0.2850  0.2697
 2140SOL    HW118053   3.605   2.062   0.872  0.2054 -0.0540  0.1974
 2140SOL    HW218054   3.701   2.033   0.784  0.1242  0.4166  0.9046
 2141SOL     OW18055   3.445   1.351  13.719  0.1496 -0.1836  0.2986
 2141SOL    HW118056   3.394   1.401  13.784  0.5792  1.6084 -0.7396
 2141SOL    HW218057   3.387   1.356  13.642 -0.3650  0.1667  0.7038
 2142SOL     OW18058   0.044   4.053   1.317 -0.0035 -0.1210  0.6328
 2142SOL    HW118059   0.078   3.974   1.274 -0.3083  0.3198 -0.4109
 2142SOL    HW218060   0.109   4.056   1.388  0.0549 -0.0771  0.5773
 2143SOL     OW18061   0.228   2.065  11.188  0.1822 -0.1430 -0.9162
 2143SOL    HW118062   0.235   2.154  11.156 -1.2081 -0.8692 -3.2071
 2143SOL    HW218063   0.161   2.073  11.255 -0.4048  1.9787 -1.7695
 2144SOL     OW18064   1.825   3.885   6.909 -0.0567 -0.0160 -0.3448
 2144SOL    HW118065   1.819   3.816   6.975 -0.7094  0.9281  0.5877
 2144SOL    HW218066   1.846   3.836   6.830 -0.4998  0.3423 -0.6820
 2145SOL     OW18067   0.162   0.621   4.211 -0.1240  0.0696  0.3351
 2145SOL    HW118068   0.178   0.560   4.139 -3.0530  0.0241 -0.2954
 2145SOL    HW218069   0.131   0.698   4.163 -0.2751  0.1673  0.5867
 2146SOL     OW18070   2.223   4.005   3.713  0.1555 -0.4537  0.0592
 2146SOL    HW118071   2.180   4.035   3.633  0.1433 -3.1553 -0.9474
 2146SOL    HW218072   2.229   3.912   3.694  0.9275 -0.1749 -1.1630
 2147SOL     OW18073   4.580   3.395   2.810  0.3558 -0.3793  0.2944
 2147SOL    HW118074   4.515   3.435   2.752  0.0238  1.7929  2.1950
 2147SOL    HW218075   4.627   3.347   2.742 -0.2804 -1.3723  0.5566
 2148SOL     OW18076   4.132   1.334  14.939 -0.7604  0.2168 -0.0519
 2148SOL    HW118077   4.108   1.398  14.873  0.9643  2.4749  1.5254
 2148SOL    HW218078   4.048   1.293  14.961 -0.6057 -0.1769 -0.1976
 2149SOL     OW18079   2.263   2.543   5.819  0.2507 -0.2821 -0.9171
 2149SOL    HW118080   2.250   2.621   5.766 -1.0301 -2.0211 -3.1398
 2149SOL    HW218081   2.309   2.497   5.749  0.6157 -0.5786 -0.4853
 2150SOL     OW18082   1.366   3.407   7.693  0.7868  0.6545 -0.0757
 2150SOL    HW118083   1.321   3.477   7.741 -1.0080 -1.2883  1.1191
 2150SOL    HW218084   1.286   3.365   7.661 -0.2855  1.4609  1.5269
 2151SOL     OW18085   0.245   4.279   2.371  0.0511  0.2426 -0.5011
 2151SOL    HW118086   0.341   4.275   2.374  0.0148 -0.0127  0.2333
 2151SOL    HW218087   0.216   4.205   2.423 -1.1686  1.0247 -0.0752
 2152SOL     OW18088   3.901   1.343  15.753  0.8405 -0.0760 -1.2007
 2152SOL    HW118089   3.951   1.263  15.770 -2.1795 -1.6682  0.2334
 2152SOL    HW218090   3.818   1.319  15.795 -1.0977  2.6066 -3.5150
 2153SOL     OW18091   1.810   2.915   6.009 -0.0421 -0.7173  0.0895
 2153SOL    HW118092   1.732   2.895   6.060 -1.2369  1.4832 -0.8922
 2153SOL    HW218093   1.779   2.981   5.947 -2.2155 -1.1825  0.6860
 2154SOL     OW18094   0.323   2.710   8.925  0.6666  0.2621  0.3606
 2154SOL    HW118095   0.344   2.671   8.840 -1.4213  0.6708 -0.3484
 2154SOL    HW218096   0.377   2.789   8.917  0.8702 -0.0452 -1.3253
 2155SOL     OW18097   0.282   0.687   5.335 -0.3370 -0.6656  0.0280
 2155SOL    HW118098   0.313   0.650   5.418  0.3129 -0.2401 -0.0220
 2155SOL    HW218099   0.226   0.620   5.298 -2.8209  0.6522  1.3885
 2156SOL     OW18100   3.672   0.450   4.144 -0.6517  0.0171 -0.7989
 2156SOL    HW118101   3.749   0.457   4.201  1.4223 -1.1690 -3.4120
 2156SOL    HW218102   3.600   0.471   4.203 -1.0796 -2.1771 -0.5598
 2157SOL     OW18103   0.127   3.933   4.661 -0.0193  0.2991 -0.4896
 2157SOL    HW118104   0.084   3.939   4.575  0.2952  0.4548 -0.6351
 2157SOL    HW218105   0.169   3.848   4.651 -0.2972  0.1890 -0.7146
 2158SOL     OW18106   1.107   4.232   5.328 -0.0626  0.5200  0.2782
 2158SOL    HW118107   1.147   4.160   5.278  0.3074  1.9477 -1.4731
 2158SOL    HW218108   1.030   4.246   5.273  1.0610  0.1405 -1.4022
 2159SOL     OW18109   4.028   2.565   4.767 -0.2421  0.2575  0.0186
 2159SOL    HW118110   3.979   2.503   4.821  3.0018 -1.5407  0.9518
 2159SOL    HW218111   4.105   2.588   4.820  0.5916 -2.2635 -0.0799
 2160SOL     OW18112   1.514   2.073   2.873 -0.4191  0.0035  0.1393
 2160SOL    HW118113   1.491   2.163   2.893 -0.2557  0.0159  0.2700
 2160SOL    HW218114   1.508   2.028   2.957  0.0728 -0.7194 -0.2138
 2161SOL     OW18115   3.510   0.608   4.986  0.1869  0.0570  0.5105
 2161SOL    HW118116   3.484   0.574   4.900 -1.1119  1.7150  0.2527
 2161SOL    HW218117   3.568   0.534   5.007 -0.1330 -0.1228  0.7577
 2162SOL     OW18118   3.655   1.992   6.049 -0.1869  0.4459 -0.5738
 2162SOL    HW118119   3.663   1.947   5.965 -0.1404 -0.2766 -0.1923
 2162SOL    HW218120   3.645   1.911   6.100  2.6699 -0.7780 -1.9910
 2163SOL     OW18121   3.551   3.059  11.578 -0.5797  0.0843 -0.1088
 2163SOL    HW118122   3.489   3.122  11.615 -1.5949 -1.4808  0.8800
 2163SOL    HW218123   3.569   3.006  11.656 -0.5468 -0.0365 -0.1982
 2164SOL     OW18124   3.393   4.475  16.602  0.0811  0.1963 -0.3640
 2164SOL    HW118125   3.428   4.401  16.651 -0.1525 -0.4535 -1.1663
 2164SOL    HW218126   3.454   4.481  16.528 -0.8132 -1.4191 -1.2281
 2165SOL     OW18127   1.422   0.468   8.547  0.6961  0.9245  0.1196
 2165SOL    HW118128   1.342   0.423   8.574  0.5668 -0.0829 -1.9208
 2165SOL    HW218129   1.446   0.481   8.638 -0.6401 -0.0569  0.6124
 2166SOL     OW18130   2.009   1.475   3.391  0.0761  0.0187 -0.1906
 2166SOL    HW118131   2.058   1.509   3.466 -2.0541  1.5425  0.4878
 2166SOL    HW218132   1.966   1.397   3.427  0.2014  0.0659  0.0617
 2167SOL     OW18133   2.848   0.806   6.965  0.3340 -0.3854  0.0528
 2167SOL    HW118134   2.944   0.806   6.968  0.3354 -1.6525  0.0405
 2167SOL    HW218135   2.812   0.819   7.053  1.3568 -1.5839  0.6469
 2168SOL     OW18136   2.405   4.668   3.323 -0.1664  0.3370  0.0502
 2168SOL    HW118137   2.444   4.725   3.257  0.0913  1.1178  0.8806
 2168SOL    HW218138   2.389   0.000   3.389 -1.4263  1.8342 -1.8126
 2169SOL     OW18139   0.301   3.506   2.639 -0.5501 -0.4639  0.3554
 2169SOL    HW118140   0.393   3.484   2.624  0.1570  2.2823  0.5548
 2169SOL    HW218141   0.300   3.601   2.624  3.3097 -0.7174 -1.5294
 2170SOL     OW18142   4.586   0.321   2.357 -0.3231  0.0499 -0.3626
 2170SOL    HW118143   4.611   0.376   2.283  1.1013 -0.1399 -0.0260
 2170SOL    HW218144   4.540   0.392   2.402 -1.0390  0.2639 -1.4307
 2171SOL     OW18145   2.200   2.586  16.721 -0.1236  0.4461 -0.4079
 2171SOL    HW118146   2.231   2.595  16.631 -0.1491  0.6566 -0.3941
 2171SOL    HW218147   2.256   2.510  16.739  1.0523  2.0903  2.7356
 2172SOL     OW18148   1.671   1.266   5.649 -0.8164 -0.2059 -0.6133
 2172SOL    HW118149   1.610   1.275   5.576 -1.5513  1.2610  0.1834
 2172SOL    HW218150   1.747   1.309   5.610  0.6842 -1.1559  1.2577
 2173SOL     OW18151   1.285   0.328   7.564  0.0939  0.4661 -0.4214
 2173SOL    HW118152   1.303   0.235   7.550 -0.0798  0.5899 -1.4513
 2173SOL    HW218153   1.193   0.334   7.538 -0.2702  1.9239  1.1636
 2174SOL     OW18154   4.548   4.402  10.549  0.4539 -0.1468  0.3520
 2174SOL    HW118155   4.587   4.412  10.463 -0.6253  0.5858 -0.0529
 2174SOL    HW218156   4.623   4.352  10.582 -0.0533 -0.5169  0.9716
 2175SOL     OW18157   0.672   4.265   4.406  0.2798  0.1124  0.6249
 2175SOL    HW118158   0.755   4.258   4.455  0.6216  1.1097  0.1816
 2175SOL    HW218159   0.638   4.176   4.416 -0.4692  0.2998 -0.2960
 2176SOL     OW18160   1.108   3.632   6.440  0.0703  0.0538 -0.6140
 2176SOL    HW118161   1.151   3.644   6.525  1.5415 -1.1318 -1.1758
 2176SOL    HW218162   1.033   3.578   6.464  0.8414 -0.1971  1.2405
 2177SOL     OW18163   3.622   2.981   9.336  0.2001 -0.0471  0.0961
 2177SOL    HW118164   3.572   2.971   9.417 -0.7465  4.1616  0.0295
 2177SOL    HW218165   3.693   3.037   9.366  0.5446 -0.9611  0.9901
 2178SOL     OW18166   3.941   2.930   2.934 -0.9136  0.1788  0.4108
 2178SOL    HW118167   3.889   3.000   2.896 -1.6635 -0.2671  0.6136
 2178SOL    HW218168   4.027   2.972   2.939 -0.8806  0.4408 -2.3701
 2179SOL     OW18169   4.424   0.648  10.679  0.1951 -0.1271 -0.0792
 2179SOL    HW118170   4.348   0.658  10.622 -0.2972 -0.8979  0.4243
 2179SOL    HW218171   4.491   0.704  10.641  0.8039 -1.6270 -1.2506
 2180SOL     OW18172   2.481   2.392  13.592  0.8434  0.4207  0.4915
 2180SOL    HW118173   2.572   2.417  13.575  2.1225 -3.2552  2.0081
 2180SOL    HW218174   2.438   2.426  13.513  1.8998  1.1887  0.2484
 2181SOL     OW18175   4.532   1.423   1.762  0.3068  0.2007 -0.2798
 2181SOL    HW118176   4.607   1.475   1.731 -0.1477  0.1412 -1.4835
 2181SOL    HW218177   4.451   1.459   1.727 -0.6102 -2.6318 -1.0454
 2182SOL     OW18178   2.251   3.550  15.734  0.1301 -0.0876  0.6489
 2182SOL    HW118179   2.286   3.572  15.648 -3.3977 -0.4547 -0.8589
 2182SOL    HW218180   2.254   3.636  15.776  0.6708 -0.2400  0.9284
 2183SOL     OW18181   1.422   1.939   8.213  0.0639  0.3253 -0.3353
 2183SOL    HW118182   1.516   1.940   8.194 -0.0042  2.2224 -0.5833
 2183SOL    HW218183   1.400   2.033   8.213 -1.4706 -0.0402  4.2553
 2184SOL     OW18184   4.120   0.185  17.156 -0.5448  0.2459 -0.0138
 2184SOL    HW118185   4.135   0.155  17.246  2.7504  0.3532 -0.5306
 2184SOL    HW218186   4.208   0.203  17.123 -2.5134  1.2618 -4.7356
 2185SOL     OW18187   0.659   2.237   0.814  0.1353 -0.0048  0.5602
 2185SOL    HW118188   0.625   2.306   0.757  0.0572  1.1549  1.9992
 2185SOL    HW218189   0.594   2.243   0.884  0.0248  1.8344  0.3032
 2186SOL     OW18190   1.368   3.228  15.949  0.2684  0.2607 -0.4265
 2186SOL    HW118191   1.328   3.217  15.863 -2.6521 -3.3453  1.3971
 2186SOL    HW218192   1.458   3.251  15.926 -0.5459  1.9129 -1.9332
 2187SOL     OW18193   0.784   3.849   4.715 -0.2701 -0.4790  0.2980
 2187SOL    HW118194   0.795   3.816   4.804  0.2819 -1.0896  0.0078
 2187SOL    HW218195   0.759   3.769   4.668  0.0596 -0.4568  0.0790
 2188SOL     OW18196   2.030   4.427   2.444 -0.0741  0.4107 -0.1139
 2188SOL    HW118197   1.977   4.393   2.372  0.5698  1.0757 -0.9070
 2188SOL    HW218198   2.105   4.458   2.392  0.3512  1.0139  0.8720
 2189SOL     OW18199   4.288   3.168   2.713 -0.6911 -0.2803 -0.0171
 2189SOL    HW118200   4.319   3.259   2.721  0.9741 -1.1389  3.1932
 2189SOL    HW218201   4.368   3.133   2.674 -1.0484  0.9125 -1.8412
 2190SOL     OW18202   2.565   1.390   4.517 -0.4181  0.7325  0.3436
 2190SOL    HW118203   2.570   1.414   4.610 -1.6402  2.0110  0.0724
 2190SOL    HW218204   2.603   1.460   4.465 -1.2643  0.9817  0.0599
 2191SOL     OW18205   3.640   2.265   4.671 -0.0697  0.2318 -0.1255
 2191SOL    HW118206   3.595   2.209   4.734  0.6953  0.1020  0.3067
 2191SOL    HW218207   3.580   2.272   4.596 -1.1832 -1.9703  0.5648
 2192SOL     OW18208   4.080   4.248   6.609 -0.6466  0.2649 -0.3438
 2192SOL    HW118209   4.146   4.318   6.605  0.1254 -0.2105  3.9140
 2192SOL    HW218210   3.999   4.287   6.577 -1.0201 -1.7273 -1.7700
 2193SOL     OW18211   2.288   1.168  14.332 -0.2434 -0.0797 -0.5175
 2193SOL    HW118212   2.327   1.222  14.400  3.1955 -2.0434 -0.9316
 2193SOL    HW218213   2.220   1.118  14.377  1.0515 -1.4662 -0.1221
 2194SOL     OW18214   3.750   3.670   5.428 -0.2935 -0.1268 -0.0193
 2194SOL    HW118215   3.680   3.703   5.485  0.9590 -1.8576  2.5541
 2194SOL    HW218216   3.713   3.606   5.368  2.7067 -0.6191 -1.3788
 2195SOL     OW18217   4.687   4.573  15.501 -0.4945  0.1802 -0.2633
 2195SOL    HW118218   4.594   4.551  15.502 -0.6327  0.7519  0.4017
 2195SOL    HW218219   4.700   4.580  15.596  2.4791  0.2970 -0.6898
 2196SOL     OW18220   4.599   0.718  17.342  0.1657 -0.3374  0.6760
 2196SOL    HW118221   4.594   0.721  17.247  0.1203  1.1135  0.7258
 2196SOL    HW218222   4.689   0.747  17.355  0.0118 -1.2331  3.8990
 2197SOL     OW18223   3.070   2.048   5.312 -0.1730  0.5946 -0.2961
 2197SOL    HW118224   3.056   1.962   5.272  1.5125 -0.8407  2.1823
 2197SOL    HW218225   3.023   2.097   5.245 -0.0859  1.7712  0.5006
 2198SOL     OW18226   4.208   0.119   1.673  0.1921  0.0694  0.2190
 2198SOL    HW118227   4.204   0.037   1.722  0.3059 -0.6900 -1.0384
 2198SOL    HW218228   4.156   0.165   1.739 -0.4683  0.7732 -0.7921
 2199SOL     OW18229   3.849   3.149  15.960  0.4218 -0.4346  0.5540
 2199SOL    HW118230   3.767   3.124  16.004  0.6776  0.4306  1.5279
 2199SOL    HW218231   3.885   3.067  15.928 -0.6018 -0.5978 -0.1906
 2200SOL     OW18232   2.542   4.655  14.163  0.1672  0.0967 -0.2934
 2200SOL    HW118233   2.633   4.669  14.136  0.8932 -0.4042  1.9175
 2200SOL    HW218234   2.506   4.729  14.212 -0.9281  0.9570 -2.3818
 2201SOL     OW18235   2.102   3.591   8.508 -0.1738  0.8871 -0.3398
 2201SOL    HW118236   2.116   3.496   8.511  1.5414  1.1185 -0.9325
 2201SOL    HW218237   2.059   3.590   8.593 -2.4374  2.0201 -1.4908
 2202SOL     OW18238   1.599   3.587  17.446  0.5199 -0.5095 -0.5881
 2202SOL    HW118239   1.637   3.551  17.366 -0.5644  0.2824 -1.4574
 2202SOL    HW218240   1.673   3.636  17.481  0.0746 -0.4306  0.2491
 2203SOL     OW18241   3.524   1.470   5.724  0.0708  0.3392  0.1677
 2203SOL    HW118242   3.486   1.546   5.769 -3.5306 -2.2816  1.5221
 2203SOL    HW218243   3.616   1.491   5.741 -0.0791 -0.1258  1.5463
 2204SOL     OW18244   2.216   2.909   6.341  0.3483  0.0892 -0.1191
 2204SOL    HW118245   2.229   2.859   6.261 -1.3600  1.2483 -1.1099
 2204SOL    HW218246   2.303   2.903   6.382  0.5567 -1.1770 -0.7643
 2205SOL     OW18247   4.185   3.150   0.682 -0.6849  0.4819 -0.0180
 2205SOL    HW118248   4.183   3.055   0.671  0.0507  0.2807  1.6403
 2205SOL    HW218249   4.148   3.170   0.768 -0.2100  0.5077  0.1858
 2206SOL     OW18250   3.020   3.614   2.616 -0.3283 -0.2050 -0.4173
 2206SOL    HW118251   2.951   3.624   2.551 -1.5769 -0.6908  0.8264
 2206SOL    HW218252   3.098   3.641   2.567 -0.2198  0.8993  0.3627
 2207SOL     OW18253   3.221   1.611   6.255 -0.2041 -0.4019 -0.1838
 2207SOL    HW118254   3.220   1.579   6.345 -1.3836 -0.0439 -0.0757
 2207SOL    HW218255   3.313   1.607   6.227  0.0492  1.9646  0.3805
 2208SOL     OW18256   1.117   0.446  13.618  0.1689  0.8128 -0.6576
 2208SOL    HW118257   1.188   0.486  13.668  1.5019 -1.1131 -1.0288
 2208SOL    HW218258   1.051   0.437  13.687  1.3431  0.5624  0.4185
 2209SOL     OW18259   3.940   2.269   9.090  0.1656  0.1491 -0.3626
 2209SOL    HW118260   4.022   2.277   9.138 -1.3064 -1.2053  2.3424
 2209SOL    HW218261   3.965   2.329   9.020  1.2144 -0.3726 -0.4356
 2210SOL     OW18262   2.000   0.155   8.667  0.7944  0.0136  0.2558
 2210SOL    HW118263   2.011   0.069   8.627 -3.6592 -0.2826 -0.3297
 2210SOL    HW218264   1.934   0.185   8.605 -0.1326  0.0421  1.2665
 2211SOL     OW18265   0.277   2.592   9.383 -0.4017  0.8642  0.3182
 2211SOL    HW118266   0.248   2.645   9.458  0.4628  0.7210  0.7492
 2211SOL    HW218267   0.368   2.621   9.382 -0.6601  1.6467 -0.1713
 2212SOL     OW18268   3.130   4.349  11.647 -0.2636 -0.9166 -0.0291
 2212SOL    HW118269   3.082   4.402  11.710 -0.6546  0.2845 -1.3510
 2212SOL    HW218270   3.185   4.316  11.719 -1.0720 -0.4678  0.8057
 2213SOL     OW18271   2.752   1.548  14.153  0.3592  0.3504  0.4211
 2213SOL    HW118272   2.800   1.555  14.235 -0.0517  1.1926  0.5939
 2213SOL    HW218273   2.778   1.628  14.107 -0.4068  0.1616 -0.3445
 2214SOL     OW18274   1.669   1.914   3.870  0.1709 -0.0327  0.4721
 2214SOL    HW118275   1.703   1.989   3.820  0.7318 -0.4838  0.1811
 2214SOL    HW218276   1.676   1.842   3.807  0.6914  1.9208 -1.7269
 2215SOL     OW18277   0.348   1.019   0.976  0.2493  0.0604  0.4766
 2215SOL    HW118278   0.404   1.023   1.054 -1.3063  1.4997  1.5107
 2215SOL    HW218279   0.363   1.101   0.929  0.3398 -0.7613 -0.9076
 2216SOL     OW18280   3.080   0.174  15.547  0.0929 -0.1087 -0.1863
 2216SOL    HW118281   3.004   0.122  15.521 -1.3002  1.1975  1.1984
 2216SOL    HW218282   3.130   0.164  15.466  1.9397  3.0413  0.5766
 2217SOL     OW18283   0.471   0.115   8.171 -0.2298  0.0643 -0.1123
 2217SOL    HW118284   0.540   0.104   8.236  0.3454 -1.0428 -0.9065
 2217SOL    HW218285   0.466   0.029   8.129  1.7181  0.4938 -1.2372
 2218SOL     OW18286   4.678   3.367   4.483  0.4508 -0.3976  0.3917
 2218SOL    HW118287   4.718   3.320   4.410  1.4737 -0.8270  1.2303
 2218SOL    HW218288   4.653   3.452   4.445  0.7128  0.1122  1.3574
 2219SOL     OW18289   4.151   1.153  16.895 -0.3326  0.0589  0.2241
 2219SOL    HW118290   4.172   1.104  16.974 -0.4075  0.5992  0.5785
 2219SOL    HW218291   4.212   1.226  16.907 -0.5026  0.2324  0.0359
 2220SOL     OW18292   4.496   0.623   5.919 -0.0788  0.4380  0.1437
 2220SOL    HW118293   4.576   0.617   5.868 -0.8734 -1.1435 -0.9079
 2220SOL    HW218294   4.517   0.690   5.985  2.2294  1.1125 -1.2729
 2221SOL     OW18295   1.857   1.234  15.623  0.2496 -0.4391  0.2245
 2221SOL    HW118296   1.875   1.222  15.530 -0.9700 -3.4795  0.3771
 2221SOL    HW218297   1.835   1.327  15.628  2.2281  0.0024  0.3509
 2222SOL     OW18298   1.842   1.216  13.407  0.1961 -0.0944 -0.3103
 2222SOL    HW118299   1.903   1.278  13.367 -0.9957  0.3728 -1.4220
 2222SOL    HW218300   1.777   1.200  13.338  1.1897  0.3628 -1.3413
 2223SOL     OW18301   2.759   1.662   3.003 -0.1488  0.0103 -0.5314
 2223SOL    HW118302   2.841   1.711   3.002  0.1289 -0.4640 -0.5929
 2223SOL    HW218303   2.692   1.729   2.985 -0.5337 -0.1045  0.4675
 2224SOL     OW18304   3.854   4.345   2.869 -0.3670 -0.0987 -0.2115
 2224SOL    HW118305   3.844   4.325   2.962 -2.6739  0.9125 -0.2542
 2224SOL    HW218306   3.939   4.306   2.847  0.1156  0.6864  0.2319
 2225SOL     OW18307   4.136   2.367  12.679 -0.0498  0.2973  0.2810
 2225SOL    HW118308   4.205   2.303  12.665 -1.1049 -0.7950  0.0247
 2225SOL    HW218309   4.184   2.433  12.730  2.0392 -1.3546  0.4252
 2226SOL     OW18310   2.543   0.676   5.838 -0.3333 -0.7379 -0.2955
 2226SOL    HW118311   2.522   0.662   5.930 -0.5321  1.0821 -0.0572
 2226SOL    HW218312   2.458   0.710   5.810  0.6791  2.0891  0.1177
 2227SOL     OW18313   0.542   4.696  17.320  0.2606  0.1931 -0.2162
 2227SOL    HW118314   0.509   0.012  17.394 -0.3836  0.6024 -0.7893
 2227SOL    HW218315   0.612   4.641  17.356 -2.1232 -1.5356  1.7282
 2228SOL     OW18316   4.104   4.628   2.875 -0.1959  0.5458 -0.4999
 2228SOL    HW118317   4.106   4.685   2.798 -0.3402 -1.0672 -1.6941
 2228SOL    HW218318   4.179   4.574   2.850 -0.1873  0.6288 -0.6523
 2229SOL     OW18319   0.286   3.389   6.562 -0.0757  0.7149 -0.0373
 2229SOL    HW118320   0.260   3.461   6.619 -1.0258 -1.2503  1.9996
 2229SOL    HW218321   0.209   3.361   6.513 -1.1627  0.7770  1.6552
 2230SOL     OW18322   2.697   2.990   6.590 -0.6998 -0.0837 -1.0269
 2230SOL    HW118323   2.775   2.976   6.644  0.0471  2.2730 -1.5076
 2230SOL    HW218324   2.738   3.035   6.517  1.4179  2.5623  1.7741
 2231SOL     OW18325   1.166   3.753  15.021  0.3826  0.4499 -0.9814
 2231SOL    HW118326   1.202   3.811  15.088  2.1285 -1.2625 -0.4013
 2231SOL    HW218327   1.084   3.744  15.070  0.1729  0.4918 -1.3312
 2232SOL     OW18328   4.488   4.404   1.062  0.0758 -0.0935  0.0194
 2232SOL    HW118329   4.576   4.380   1.091 -0.7617 -0.8651  1.8975
 2232SOL    HW218330   4.509   4.488   1.020 -1.0314  1.3280  2.3150
 2233SOL     OW18331   2.244   4.091   7.185 -0.1053 -0.3837 -0.3582
 2233SOL    HW118332   2.158   4.053   7.200  0.3469 -0.4554  2.0232
 2233SOL    HW218333   2.283   4.047   7.110  0.9542  1.0699 -0.6723
 2234SOL     OW18334   0.859   3.150   4.739  0.3555 -0.6068  0.4807
 2234SOL    HW118335   0.915   3.225   4.759  0.9239 -0.4422 -1.7193
 2234SOL    HW218336   0.878   3.086   4.808 -0.7479  0.1103  1.4488
 2235SOL     OW18337   0.497   3.058   6.364  0.1700 -0.2212 -0.9537
 2235SOL    HW118338   0.414   3.013   6.382  0.7095 -0.5105  0.8521
 2235SOL    HW218339   0.559   2.986   6.361 -1.0396 -1.2971 -0.2226
 2236SOL     OW18340   1.072   2.986   4.290 -0.0528  0.2863  0.2113
 2236SOL    HW118341   0.984   2.950   4.276 -0.1394  0.4705  0.2837
 2236SOL    HW218342   1.087   3.022   4.202  1.1463  0.9617  0.7006
 2237SOL     OW18343   2.105   2.656   4.091  0.2959 -0.2336 -0.7612
 2237SOL    HW118344   2.164   2.614   4.029  0.9161 -0.2383 -0.1637
 2237SOL    HW218345   2.051   2.696   4.023 -1.3257  2.2070  1.9669
 2238SOL     OW18346   4.460   2.059   7.516  0.1666  0.1797 -0.1529
 2238SOL    HW118347   4.525   2.066   7.445 -1.9435  0.6891 -2.0244
 2238SOL    HW218348   4.373   2.065   7.476 -0.4174 -1.6971  0.8407
 2239SOL     OW18349   2.876   0.780   6.249 -0.2171 -0.3444 -0.4044
 2239SOL    HW118350   2.912   0.843   6.312 -2.0396 -0.0623  0.3792
 2239SOL    HW218351   2.795   0.830   6.235 -0.2573 -0.7593 -1.6088
 2240SOL     OW18352   0.757   1.311   2.366 -0.4084 -0.1474  0.0904
 2240SOL    HW118353   0.755   1.267   2.451  1.6741 -0.3416  0.0398
 2240SOL    HW218354   0.784   1.237   2.313  0.9104 -0.9342  1.8610
 2241SOL     OW18355   2.332   0.044   3.876 -0.4927  0.7235  0.7174
 2241SOL    HW118356   2.284   0.046   3.959 -1.3784 -0.0393  0.2258
 2241SOL    HW218357   2.268   4.726   3.828  2.8815  0.9884 -4.0751
 2242SOL     OW18358   1.737   2.540   7.153 -0.3124  0.2384 -0.1652
 2242SOL    HW118359   1.690   2.493   7.084 -0.7904 -2.3255  1.8853
 2242SOL    HW218360   1.780   2.613   7.108 -0.1955  0.8280  0.8985
 2243SOL     OW18361   3.261   3.639   5.066  0.5803  0.4357  0.1682
 2243SOL    HW118362   3.319   3.563   5.054 -0.0574  0.5813 -3.7626
 2243SOL    HW218363   3.332   3.695   5.097  1.2360 -1.1298  1.4735
 2244SOL     OW18364   4.469   1.876   3.031  0.0421 -0.6132  0.4735
 2244SOL    HW118365   4.471   1.943   2.964 -0.6661  0.4166  1.4833
 2244SOL    HW218366   4.468   1.937   3.105  0.1696  2.8882 -2.4681
 2245SOL     OW18367   1.976   2.965  13.691  0.0078  0.5425  0.0620
 2245SOL    HW118368   1.993   3.059  13.699  0.1346  0.6360 -1.2440
 2245SOL    HW218369   1.882   2.971  13.673  0.3760  2.4784 -1.1911
 2246SOL     OW18370   0.530   1.180   4.247  0.2533  0.1452  0.5578
 2246SOL    HW118371   0.560   1.242   4.180  0.1643 -2.4823 -1.9274
 2246SOL    HW218372   0.468   1.127   4.196 -2.2002  2.5794  1.0381
 2247SOL     OW18373   1.769   0.015   1.167  0.0067  0.5307 -0.0193
 2247SOL    HW118374   1.723   4.666   1.162  1.4134 -0.1601 -1.5831
 2247SOL    HW218375   1.723   0.056   1.241 -0.3934  0.5869 -0.2996
 2248SOL     OW18376   4.334   0.468   3.287 -0.4489  0.0438 -0.0332
 2248SOL    HW118377   4.282   0.522   3.345 -1.2684 -1.1986  0.3897
 2248SOL    HW218378   4.311   0.375   3.285 -0.3912  0.0564 -1.5461
 2249SOL     OW18379   1.996   4.639  16.460  0.5343 -0.3762  0.5405
 2249SOL    HW118380   1.928   4.593  16.411 -0.6037  1.1965  0.6857
 2249SOL    HW218381   1.962   4.727  16.476 -1.3328 -1.0027 -0.0172
 2250SOL     OW18382   0.935   0.796   7.616 -0.1467  0.0910 -0.9652
 2250SOL    HW118383   1.008   0.799   7.555  1.3071 -0.3386  0.7451
 2250SOL    HW218384   0.884   0.724   7.579 -0.9993  0.9268 -1.3930
 2251SOL     OW18385   2.339   4.612   5.766  0.0845 -0.4196  0.3266
 2251SOL    HW118386   2.256   4.627   5.812  0.7602  1.2340  0.9933
 2251SOL    HW218387   2.335   4.516   5.761 -0.2656 -0.3553 -0.5899
 2252SOL     OW18388   4.495   1.169  14.330  0.4451 -0.7426 -1.0022
 2252SOL    HW118389   4.453   1.234  14.274  0.4246 -0.0015 -0.1298
 2252SOL    HW218390   4.489   1.082  14.291 -2.2162 -1.5046  1.1094
 2253SOL     OW18391   2.589   2.589   9.309  0.4354  0.5363  0.0668
 2253SOL    HW118392   2.670   2.538   9.309  0.6104  0.8249  1.8246
 2253SOL    HW218393   2.617   2.676   9.337 -0.0860  0.6733  0.1581
 2254SOL     OW18394   1.922   3.027   3.976  0.0338 -0.4330  0.1864
 2254SOL    HW118395   1.930   3.015   3.881 -1.4509 -2.2184  0.2924
 2254SOL    HW218396   1.952   3.117   3.989  1.7982 -0.8710 -0.8577
 2255SOL     OW18397   2.936   0.643  17.003  0.4737  0.1172 -0.9131
 2255SOL    HW118398   2.986   0.615  17.079 -0.9476 -0.1967 -0.1055
 2255SOL    HW218399   3.007   0.666  16.942  1.3148  1.0937  0.4499
 2256SOL     OW18400   4.111   0.494  10.935 -0.8495 -0.1042  0.0858
 2256SOL    HW118401   4.146   0.475  11.022 -0.9735  0.4041  0.2461
 2256SOL    HW218402   4.121   0.404  10.905  0.8625 -0.4044  1.5811
 2257SOL     OW18403   1.403   1.529  17.411  0.2530  0.0895  0.2181
 2257SOL    HW118404   1.417   1.579  17.331 -2.0601  1.0327  0.3883
 2257SOL    HW218405   1.473   1.464  17.407  1.5021  1.3280  2.0547
 2258SOL     OW18406   3.162   3.109  16.131 -0.5040 -0.4330  0.1254
 2258SOL    HW118407   3.253   3.133  16.149 -0.3707 -2.5521  2.2439
 2258SOL    HW218408   3.152   3.148  16.044  1.9460  1.5995  0.7517
 2259SOL     OW18409   0.937   2.553   2.691  0.0756  0.5151 -0.0145
 2259SOL    HW118410   0.845   2.579   2.690 -0.0859 -0.0969 -0.7724
 2259SOL    HW218411   0.938   2.475   2.636 -0.0910 -0.0209  0.7438
 2260SOL     OW18412   2.413   2.726   3.090 -0.2599  0.1546  0.0046
 2260SOL    HW118413   2.358   2.675   3.150  0.0858  1.3953  1.3765
 2260SOL    HW218414   2.500   2.700   3.119  0.1108 -0.7938 -1.9832
 2261SOL     OW18415   2.684   0.118   4.335  0.4633 -0.2770 -0.3099
 2261SOL    HW118416   2.706   0.043   4.280  1.3238 -1.2692  1.3850
 2261SOL    HW218417   2.596   0.091   4.363 -0.0592  3.3466  1.5890
 2262SOL     OW18418   1.315   4.284   6.185  0.0660  0.6059 -0.4698
 2262SOL    HW118419   1.265   4.303   6.105 -1.3838 -1.8732 -0.1698
 2262SOL    HW218420   1.254   4.224   6.228  2.3906 -0.2829  1.5498
 2263SOL     OW18421   2.285   2.970   5.907  0.2221 -0.0588  0.8621
 2263SOL    HW118422   2.337   3.049   5.913  1.3664 -0.6464 -1.3738
 2263SOL    HW218423   2.353   2.912   5.872  1.3652  2.7217 -1.4711
 2264SOL     OW18424   0.577   1.816   8.582  0.1009 -0.2771 -0.2187
 2264SOL    HW118425   0.603   1.740   8.530  1.4238 -0.7098  1.0791
 2264SOL    HW218426   0.573   1.887   8.517 -0.0993  1.5829  1.8071
 2265SOL     OW18427   0.540   0.259   9.350  0.2921 -0.0129  0.0315
 2265SOL    HW118428   0.517   0.308   9.272 -2.2579  0.7302  1.2606
 2265SOL    HW218429   0.634   0.254   9.331  0.0922 -3.2811 -0.0698
 2266SOL     OW18430   4.041   2.402   1.721 -0.5647 -0.0183  0.0026
 2266SOL    HW118431   4.074   2.339   1.657  1.0096  0.0844  0.6830
 2266SOL    HW218432   3.948   2.400   1.701 -0.5131  2.3288 -0.4714
 2267SOL     OW18433   2.648   2.306   2.545 -0.2654 -0.4598 -0.0879
 2267SOL    HW118434   2.613   2.377   2.491 -2.2994 -1.1129  0.3519
 2267SOL    HW218435   2.685   2.359   2.615 -0.3062  0.4185 -0.7321
 2268SOL     OW18436   1.879   4.579   2.072  0.5363 -0.4928 -0.2329
 2268SOL    HW118437   1.797   4.561   2.118  0.4120 -2.2177 -1.1235
 2268SOL    HW218438   1.864   4.543   1.985  0.7446  0.0015 -0.4705
 2269SOL     OW18439   2.251   3.311   7.478 -0.3963 -0.3581  0.4337
 2269SOL    HW118440   2.296   3.235   7.441 -0.3409  0.3247 -0.9143
 2269SOL    HW218441   2.300   3.319   7.560  0.4472 -1.3813  0.0333
 2270SOL     OW18442   4.198   0.074   5.551  0.2972 -0.3531  0.1004
 2270SOL    HW118443   4.239   0.126   5.620 -0.4622  0.0145  0.2779
 2270SOL    HW218444   4.273   0.041   5.502 -1.5138 -1.1027 -2.1088
 2271SOL     OW18445   3.211   4.224  16.755 -1.0317  0.3961  0.3936
 2271SOL    HW118446   3.297   4.201  16.720 -1.9266 -2.8410  0.2504
 2271SOL    HW218447   3.195   4.148  16.812  1.8399 -0.0091  0.6588
 2272SOL     OW18448   2.061   2.872   4.691 -0.0692  0.2185 -0.1305
 2272SOL    HW118449   2.071   2.884   4.596 -2.4359  1.3832 -0.2173
 2272SOL    HW218450   1.969   2.892   4.709 -0.8349 -2.1384 -1.4949
 2273SOL     OW18451   0.878   1.982   2.052 -0.4950 -0.4541 -0.1213
 2273SOL    HW118452   0.860   2.067   2.093  0.5942 -0.1477 -0.2815
 2273SOL    HW218453   0.972   1.984   2.036 -0.5708 -0.8651 -0.5994
 2274SOL     OW18454   2.493   0.813  14.364  0.1960  0.0160  0.6550
 2274SOL    HW118455   2.527   0.788  14.450  1.8043  1.0875  0.3248
 2274SOL    HW218456   2.553   0.884  14.343 -1.3766  1.3470  0.5955
 2275SOL     OW18457   1.151   3.249   6.254 -0.2835 -0.0494  0.5323
 2275SOL    HW118458   1.191   3.249   6.341 -1.4344 -2.7736  1.0759
 2275SOL    HW218459   1.166   3.337   6.221 -1.7030  0.2562  0.7348
 2276SOL     OW18460   0.232   0.271  11.428 -0.1762 -0.2587  0.1205
 2276SOL    HW118461   0.141   0.274  11.398  0.5214  0.1485 -1.9617
 2276SOL    HW218462   0.265   0.334  11.363  0.4278 -1.2398 -0.5156
 2277SOL     OW18463   1.309   2.266   9.820 -0.2096 -0.1560  0.3263
 2277SOL    HW118464   1.222   2.296   9.845 -1.3923 -1.8262 -1.8667
 2277SOL    HW218465   1.355   2.261   9.904  0.8164 -0.2709 -0.2386
 2278SOL     OW18466   1.106   1.216  11.372  0.7151 -0.0058  0.3077
 2278SOL    HW118467   1.120   1.262  11.289 -1.0652  0.2574  0.1530
 2278SOL    HW218468   1.023   1.173  11.354 -0.3065  1.5231  1.4078
 2279SOL     OW18469   3.524   0.601   4.302 -0.1048 -0.1319 -0.3408
 2279SOL    HW118470   3.541   0.574   4.392 -1.5119 -1.3681 -0.4540
 2279SOL    HW218471   3.531   0.696   4.309 -0.8874 -0.2027  1.3760
 2280SOL     OW18472   2.311   0.899   6.115  0.2029  0.5052 -0.2091
 2280SOL    HW118473   2.350   0.945   6.189 -1.8205 -0.0920  1.2336
 2280SOL    HW218474   2.366   0.822   6.103 -0.9004 -0.4800  1.0607
 2281SOL     OW18475   4.394   0.122   7.200  0.1644  0.4267  0.6073
 2281SOL    HW118476   4.323   0.127   7.135 -0.2971  1.1267  1.1557
 2281SOL    HW218477   4.455   0.188   7.167  0.8921  0.5585  2.1996
 2282SOL     OW18478   3.853   1.221   3.482  0.2939  0.3010 -0.6282
 2282SOL    HW118479   3.866   1.265   3.565  0.8830 -0.5131 -0.3011
 2282SOL    HW218480   3.759   1.241   3.477  0.3780  1.0142  0.7672
 2283SOL     OW18481   1.054   4.633  15.106 -0.1883 -0.1851  0.3435
 2283SOL    HW118482   1.035   4.577  15.180 -1.3105  0.0024  0.1938
 2283SOL    HW218483   1.149   4.644  15.115 -0.2127  1.1402 -0.9797
 2284SOL     OW18484   0.035   2.025   5.217  0.5193 -0.0710  0.8009
 2284SOL    HW118485   0.118   2.046   5.259  0.9959 -1.1478  0.3976
 2284SOL    HW218486   4.716   1.992   5.289  0.5312 -0.7492  0.5055
 2285SOL     OW18487   2.939   1.783   0.841  0.1440  0.1593  0.2053
 2285SOL    HW118488   3.023   1.827   0.833  1.1268 -1.6278  0.6557
 2285SOL    HW218489   2.882   1.817   0.772 -0.2554  1.2048  1.0649
 2286SOL     OW18490   0.528   2.592   4.473 -0.0037 -0.3455 -0.2218
 2286SOL    HW118491   0.446   2.544   4.482 -1.1999  2.1858  2.4052
 2286SOL    HW218492   0.503   2.673   4.517  0.8048 -0.3375  0.2135
 2287SOL     OW18493   0.752   4.320   0.238 -0.2371 -0.6190  0.1049
 2287SOL    HW118494   0.684   4.319   0.305  0.6990  1.7125  1.1115
 2287SOL    HW218495   0.821   4.360   0.291  0.7190 -0.7870 -1.0084
 2288SOL     OW18496   3.960   1.986  15.634  0.1119 -0.1771  0.3484
 2288SOL    HW118497   3.990   2.076  15.622  3.2578 -1.7897 -3.9295
 2288SOL    HW218498   3.972   1.945  15.548 -0.7990  1.0630 -0.3750
 2289SOL     OW18499   3.478   0.878   3.882 -0.0926  0.1748  0.4441
 2289SOL    HW118500   3.459   0.787   3.858 -0.8459  0.2187  0.8673
 2289SOL    HW218501   3.393   0.903   3.919 -0.2754 -1.8992  1.4313
 2290SOL     OW18502   0.570   3.473   6.427 -0.5189  0.0874 -0.0758
 2290SOL    HW118503   0.477   3.456   6.446 -0.2071 -0.0264  1.3742
 2290SOL    HW218504   0.588   3.460   6.334 -2.2030  1.4188 -0.5934
 2291SOL     OW18505   1.665   4.335  14.235 -0.2011 -0.3423  0.0490
 2291SOL    HW118506   1.658   4.430  14.244 -0.7714 -0.1699 -2.2050
 2291SOL    HW218507   1.581   4.315  14.192 -1.5794  1.7187  1.7782
 2292SOL     OW18508   4.300   3.025   8.476 -0.3286 -0.1170 -0.3403
 2292SOL    HW118509   4.326   3.068   8.557 -2.5457  0.0762  0.2671
 2292SOL    HW218510   4.206   3.042   8.477 -0.3063 -0.0322  0.3297
 2293SOL     OW18511   2.255   1.514   7.741 -0.5710  0.0838 -0.1008
 2293SOL    HW118512   2.216   1.486   7.658  0.7318 -0.8881 -0.3923
 2293SOL    HW218513   2.185   1.499   7.805 -0.9783  0.8047 -0.3780
 2294SOL     OW18514   4.284   0.165   6.702 -0.1873  0.0694 -0.0311
 2294SOL    HW118515   4.284   0.108   6.625 -3.8672 -2.5903  1.9618
 2294SOL    HW218516   4.377   0.185   6.710 -0.2032 -0.4499  1.4220
 2295SOL     OW18517   0.087   0.111   6.354  0.6219 -0.2415  0.0711
 2295SOL    HW118518   0.178   0.139   6.347  1.6571 -3.8577 -0.5100
 2295SOL    HW218519   0.052   0.109   6.265 -0.0370  2.9083  0.2384
 2296SOL     OW18520   3.927   0.176   7.213  0.3489 -0.1276  0.0707
 2296SOL    HW118521   3.989   0.235   7.256  0.3269 -0.7730  0.9905
 2296SOL    HW218522   3.946   0.190   7.121  2.8140  1.6637  0.8537
 2297SOL     OW18523   1.407   4.060   7.231 -0.0736  0.5655 -0.8322
 2297SOL    HW118524   1.376   3.971   7.247 -0.9185  1.0189  0.0517
 2297SOL    HW218525   1.473   4.029   7.170  0.1841  0.8432 -0.6897
 2298SOL     OW18526   2.075   1.365   0.972 -0.2324 -0.3097  0.5905
 2298SOL    HW118527   2.111   1.448   1.002 -0.2733  0.1006 -0.5051
 2298SOL    HW218528   1.980   1.371   0.984 -0.2014  0.0696  0.6481
 2299SOL     OW18529   2.054   3.604   0.821 -0.4280  0.0855  0.4675
 2299SOL    HW118530   2.149   3.602   0.817 -0.3989  0.4292  1.1248
 2299SOL    HW218531   2.036   3.514   0.791 -3.1069 -0.2010  2.9174
 2300SOL     OW18532   3.132   4.283   3.890  0.3781  0.3148 -0.1328
 2300SOL    HW118533   3.051   4.269   3.842  0.2635  2.5834 -0.6273
 2300SOL    HW218534   3.185   4.205   3.875 -0.5285 -0.9055  3.1682
 2301SOL     OW18535   1.822   3.138   5.379  0.1800 -0.1707 -0.7015
 2301SOL    HW118536   1.837   3.226   5.343  2.8352 -0.9387 -1.4760
 2301SOL    HW218537   1.896   3.089   5.344  0.6679  0.3497 -0.4017
 2302SOL     OW18538   2.974   2.676   8.081 -0.4429  0.0783 -0.5502
 2302SOL    HW118539   2.952   2.586   8.057 -0.7026  0.3047 -1.1808
 2302SOL    HW218540   2.892   2.715   8.050  0.1057  1.7229  0.0832
 2303SOL     OW18541   1.515   4.629   0.585  0.1718  0.4719 -0.0428
 2303SOL    HW118542   1.482   4.576   0.513  0.9941 -0.0799 -0.0142
 2303SOL    HW218543   1.552   4.706   0.542  3.3511 -0.1653  1.5352
 2304SOL     OW18544   2.518   0.420   7.093 -0.5757 -1.0023  0.4429
 2304SOL    HW118545   2.596   0.454   7.051 -1.4090  0.7778  0.3502
 2304SOL    HW218546   2.460   0.485   7.053  0.4470 -0.9822 -0.9771
 2305SOL     OW18547   3.797   3.219   5.159 -0.2757 -0.3332 -0.5597
 2305SOL    HW118548   3.720   3.162   5.169  1.3663 -2.1114  2.0836
 2305SOL    HW218549   3.817   3.202   5.067  0.7231 -2.0956 -0.0128
 2306SOL     OW18550   0.481   3.159  15.683  0.1102 -0.2833 -0.2274
 2306SOL    HW118551   0.510   3.240  15.725 -0.6404  0.1449 -0.5247
 2306SOL    HW218552   0.507   3.182  15.594 -0.3440  1.1295  0.0139
 2307SOL     OW18553   1.283   2.429   1.346  0.6973 -0.5592  0.0907
 2307SOL    HW118554   1.222   2.398   1.414  0.0430  2.6327  0.9376
 2307SOL    HW218555   1.356   2.374   1.373  0.6368 -0.0078  1.3560
 2308SOL     OW18556   4.476   2.498  10.483 -0.2426 -0.1598  0.2379
 2308SOL    HW118557   4.556   2.547  10.499 -1.5008  1.8711  0.2938
 2308SOL    HW218558   4.417   2.547  10.540  0.8614  1.7644 -0.2705
 2309SOL     OW18559   0.050   1.243   3.391  0.1973 -0.4686  0.2401
 2309SOL    HW118560   0.076   1.191   3.467  0.5307  1.2710  1.3178
 2309SOL    HW218561   0.129   1.295   3.374 -1.6480  1.9506 -1.0074
 2310SOL     OW18562   2.851   1.033  10.877 -0.0989  0.0019  0.1958
 2310SOL    HW118563   2.847   0.941  10.902  2.1660 -0.1459  0.0246
 2310SOL    HW218564   2.833   1.060  10.967 -4.4425  2.2342 -1.3322
 2311SOL     OW18565   3.889   4.149  16.727  0.2738 -0.3962 -0.4333
 2311SOL    HW118566   3.920   4.156  16.817 -0.5369 -2.2737 -0.0150
 2311SOL    HW218567   3.865   4.057  16.723 -3.0006  0.4878 -1.1996
 2312SOL     OW18568   2.211   2.227  13.541  0.1733 -0.2925  0.0748
 2312SOL    HW118569   2.133   2.172  13.550  1.5961 -2.3742 -0.1149
 2312SOL    HW218570   2.196   2.260  13.452  1.5254  0.3601  0.0785
 2313SOL     OW18571   4.677   3.771   1.218  0.2315 -0.0665  0.1776
 2313SOL    HW118572   4.619   3.772   1.295 -1.5823 -0.3945 -1.1911
 2313SOL    HW218573   4.646   3.689   1.181  1.9322 -0.4982 -0.2760
 2314SOL     OW18574   4.073   4.558  11.669  0.3610 -0.2235 -0.1690
 2314SOL    HW118575   4.005   4.600  11.722  3.0848  1.0746  2.3418
 2314SOL    HW218576   4.113   4.512  11.743  0.1808 -0.9801 -0.5512
 2315SOL     OW18577   2.925   2.062   3.509 -0.2157 -0.5102 -0.5748
 2315SOL    HW118578   2.916   2.142   3.456  0.6310  0.4512  0.7103
 2315SOL    HW218579   2.832   2.047   3.522  0.0046 -0.6096  0.8630
 2316SOL     OW18580   2.139   4.173   8.460 -0.3798 -0.0983  0.4229
 2316SOL    HW118581   2.142   4.078   8.469 -0.6630 -0.0665  0.8415
 2316SOL    HW218582   2.159   4.186   8.367  0.7642 -3.1193  0.2477
 2317SOL     OW18583   1.646   4.233   7.807  0.1552 -0.1149  0.4104
 2317SOL    HW118584   1.634   4.301   7.742 -1.1629 -0.4700  0.2879
 2317SOL    HW218585   1.571   4.176   7.789 -0.0035  0.2365 -0.0278
 2318SOL     OW18586   4.244   0.285   7.838  0.0162  0.1670  0.3663
 2318SOL    HW118587   4.270   0.292   7.930  1.1861  0.6095  0.0077
 2318SOL    HW218588   4.323   0.313   7.792  2.4408 -2.3521  3.0220
 2319SOL     OW18589   4.384   1.679   5.885  0.4077 -0.0654 -0.3587
 2319SOL    HW118590   4.387   1.734   5.963 -1.3463 -0.4207 -0.0455
 2319SOL    HW218591   4.431   1.605   5.923 -0.5685 -0.3649  0.2629
 2320SOL     OW18592   2.227   0.865   3.633 -0.4989  0.2135 -0.4531
 2320SOL    HW118593   2.226   0.812   3.713  1.8794  0.4234 -0.2697
 2320SOL    HW218594   2.263   0.804   3.569  0.0874 -1.5217  1.5188
 2321SOL     OW18595   4.120   3.105   7.070  0.8665  0.2138 -0.0700
 2321SOL    HW118596   4.049   3.167   7.086  0.8824  0.3289 -0.4327
 2321SOL    HW218597   4.064   3.027   7.062  1.1371  0.0788 -0.7061
 2322SOL     OW18598   1.748   2.605   0.278 -0.1843 -0.0688 -0.0474
 2322SOL    HW118599   1.798   2.526   0.259  1.9089  1.1423  0.3989
 2322SOL    HW218600   1.810   2.653   0.333 -0.3862 -1.5514  1.4834
 2323SOL     OW18601   4.669   4.069  10.129 -0.0823 -0.6566 -0.7761
 2323SOL    HW118602   4.602   4.137  10.141  0.9600  0.1141  0.6417
 2323SOL    HW218603   4.607   3.998  10.114 -0.4330 -0.7061  0.8692
 2324SOL     OW18604   2.774   1.377   9.575 -0.1380 -0.0074 -0.0894
 2324SOL    HW118605   2.860   1.405   9.542 -0.3722  1.5968  0.6442
 2324SOL    HW218606   2.777   1.283   9.559  0.6591 -0.2560  1.5495
 2325SOL     OW18607   4.176   1.719   2.803  0.2593  0.3669  0.4031
 2325SOL    HW118608   4.182   1.624   2.793  0.8824  0.1504  2.8328
 2325SOL    HW218609   4.158   1.726   2.897 -0.2937  1.6269  0.2050
 2326SOL     OW18610   3.462   0.422   4.763 -0.0971  0.2635  0.2388
 2326SOL    HW118611   3.373   0.457   4.760  0.4138  1.4675 -0.9408
 2326SOL    HW218612   3.447   0.343   4.712  0.0126  0.9532 -0.8668
 2327SOL     OW18613   2.391   3.955   3.066  0.1485 -0.2389 -0.2193
 2327SOL    HW118614   2.372   4.039   3.024  0.9401  1.1710  2.2112
 2327SOL    HW218615   2.375   3.893   2.995  0.3147 -1.3718  0.7419
 2328SOL     OW18616   3.506   1.654   7.139 -0.4522 -0.0337 -0.0539
 2328SOL    HW118617   3.502   1.659   7.234 -0.1044 -1.1231  0.0193
 2328SOL    HW218618   3.504   1.562   7.112  0.3211 -0.2472  0.6499
 2329SOL     OW18619   1.041   3.138   1.171  0.9009  0.3842 -0.0149
 2329SOL    HW118620   1.084   3.150   1.086  0.7918  2.6582  0.2460
 2329SOL    HW218621   1.068   3.051   1.199  0.8836  0.3942  0.0316
 2330SOL     OW18622   4.666   0.066   2.587 -0.0730 -0.1332  0.0434
 2330SOL    HW118623   4.660   0.156   2.621  1.8129  1.1315 -2.9690
 2330SOL    HW218624   4.664   0.014   2.667  0.1386  3.0289  2.0806
 2331SOL     OW18625   4.038   0.386   6.476  0.2139 -0.1003  0.0044
 2331SOL    HW118626   4.023   0.315   6.537  0.1383 -0.4534 -0.4220
 2331SOL    HW218627   4.106   0.434   6.524 -0.2627  0.5958 -0.0204
 2332SOL     OW18628   1.497   1.675   9.462 -0.0551  0.0231 -0.2560
 2332SOL    HW118629   1.414   1.723   9.463 -0.3959 -0.5840  1.8389
 2332SOL    HW218630   1.532   1.720   9.539 -1.3788  0.8998 -0.1626
 2333SOL     OW18631   2.259   3.853   0.363 -0.1805 -0.5120  0.4933
 2333SOL    HW118632   2.249   3.860   0.458  2.2232 -0.2020  0.7265
 2333SOL    HW218633   2.180   3.808   0.333 -1.2555  0.1328  2.3591
 2334SOL     OW18634   4.495   0.940   5.734  0.0039 -0.0535  0.2871
 2334SOL    HW118635   4.458   0.863   5.691 -0.7781 -0.4690  1.7101
 2334SOL    HW218636   4.417   0.974   5.778 -0.0194 -1.9710  1.7271
 2335SOL     OW18637   0.184   4.611   7.914 -0.6064  0.2363  0.2467
 2335SOL    HW118638   0.237   4.544   7.870 -1.1789 -0.5105  0.6982
 2335SOL    HW218639   0.168   4.556   7.991 -1.5832 -1.8580 -1.4336
 2336SOL     OW18640   1.977   3.761  11.943 -0.0765  0.3877  0.3466
 2336SOL    HW118641   1.897   3.769  11.995  0.4286 -0.5985  1.2747
 2336SOL    HW218642   1.948   3.734  11.855 -1.2470 -2.7378  1.6823
 2337SOL     OW18643   2.087   4.088   6.004 -0.0930  0.5215 -0.6818
 2337SOL    HW118644   2.148   4.137   5.950  0.1312  2.0932  0.9781
 2337SOL    HW218645   2.102   4.138   6.084  1.3768 -2.5995  0.9951
 2338SOL     OW18646   1.081   0.921  15.495 -0.4559 -0.5364 -0.2641
 2338SOL    HW118647   1.171   0.939  15.523 -0.3983  1.1289 -1.5492
 2338SOL    HW218648   1.100   0.862  15.421 -1.3618  0.5056 -1.3261
 2339SOL     OW18649   2.795   0.387   8.263 -0.2903 -0.1210  0.1413
 2339SOL    HW118650   2.741   0.324   8.310 -0.4491  1.9524  2.7289
 2339SOL    HW218651   2.728   0.444   8.224  0.1530 -0.8821 -1.7295
 2340SOL     OW18652   3.567   0.914  14.786 -0.9567  0.3070 -0.3366
 2340SOL    HW118653   3.647   0.898  14.836 -0.6371  3.1707  0.0667
 2340SOL    HW218654   3.592   0.981  14.724  1.3861 -0.6331 -0.3878
 2341SOL     OW18655   0.906   2.728   5.866 -0.0074  0.0822  0.1090
 2341SOL    HW118656   0.880   2.654   5.811  0.1633 -2.3001  3.2482
 2341SOL    HW218657   0.882   2.694   5.952  1.8602 -0.5042  0.4035
 2342SOL     OW18658   2.297   3.498   5.341 -0.1107  0.2838  0.2667
 2342SOL    HW118659   2.232   3.461   5.400 -1.2144 -0.3733 -1.3582
 2342SOL    HW218660   2.244   3.509   5.262  0.3986 -0.1340 -0.1386
 2343SOL     OW18661   1.225   2.557  16.751 -0.3886 -0.5433 -0.2284
 2343SOL    HW118662   1.131   2.559  16.737 -0.5668 -1.6628  0.8202
 2343SOL    HW218663   1.220   2.527  16.842 -2.0665 -0.2657 -0.2333
 2344SOL     OW18664   4.522   4.119   0.980 -0.1329  0.1241  0.2782
 2344SOL    HW118665   4.547   4.150   1.067 -2.5599 -2.0695  1.7583
 2344SOL    HW218666   4.426   4.118   0.984 -0.0365 -0.6015  2.4509
 2345SOL     OW18667   1.470   0.249   6.333  0.4746  0.2931  0.7440
 2345SOL    HW118668   1.405   0.218   6.396 -2.2551  1.5845 -1.4243
 2345SOL    HW218669   1.545   0.270   6.389  0.9908 -0.2113  0.2452
 2346SOL     OW18670   1.544   3.369   7.903  0.1736 -0.1857  0.1884
 2346SOL    HW118671   1.511   3.382   7.814 -2.7793  0.0287  1.3181
 2346SOL    HW218672   1.517   3.282   7.932 -3.4696  0.8563 -0.0778
 2347SOL     OW18673   0.849   1.880   8.411 -0.0161 -0.1454  0.8385
 2347SOL    HW118674   0.925   1.925   8.373 -0.3941  0.1383  0.4290
 2347SOL    HW218675   0.890   1.822   8.476 -1.9949 -4.2148 -1.6188
 2348SOL     OW18676   2.943   3.945  13.175  0.2035 -0.1624 -0.0171
 2348SOL    HW118677   3.029   3.929  13.137  0.6381 -1.6451  1.6187
 2348SOL    HW218678   2.886   3.876  13.141  0.2361 -0.5527  0.7268
 2349SOL     OW18679   2.955   3.972  13.485 -0.1656 -0.2653  0.3899
 2349SOL    HW118680   3.014   4.047  13.487 -0.7550  0.2103 -0.2824
 2349SOL    HW218681   2.918   3.975  13.397 -0.8552 -1.0887  0.6530
 2350SOL     OW18682   2.166   2.613   8.458  1.0094  0.1992  0.2860
 2350SOL    HW118683   2.114   2.693   8.467  0.9434  0.1650  0.2027
 2350SOL    HW218684   2.110   2.537   8.469 -2.1633  2.4479 -0.4311
 2351SOL     OW18685   2.122   4.112   9.248  0.2130  0.3359 -0.4600
 2351SOL    HW118686   2.130   4.065   9.164  0.4588  1.2024 -0.9203
 2351SOL    HW218687   2.208   4.153   9.253 -0.0861  1.0151 -0.8791
 2352SOL     OW18688   2.157   0.070   2.762  0.3020 -0.4482 -0.0976
 2352SOL    HW118689   2.062   0.076   2.770  0.3337 -0.5471  0.3556
 2352SOL    HW218690   2.171   0.116   2.679  0.2503 -0.6573 -0.2223
 2353SOL     OW18691   1.131   0.407   3.415 -0.3579 -0.2205  0.0297
 2353SOL    HW118692   1.130   0.433   3.323 -1.6201 -2.3853 -0.5707
 2353SOL    HW218693   1.204   0.346   3.426 -0.1080  0.2347  0.9584
 2354SOL     OW18694   0.197   2.409   4.720  0.4563  0.1323  0.6970
 2354SOL    HW118695   0.225   2.407   4.629 -1.8928 -1.5550  0.0036
 2354SOL    HW218696   0.221   2.498   4.744 -1.7677  0.7030  0.8857
 2355SOL     OW18697   1.374   4.463  11.306  0.5236 -0.0056  0.6251
 2355SOL    HW118698   1.448   4.405  11.287  0.2040 -0.0051 -0.6052
 2355SOL    HW218699   1.408   4.517  11.377  0.4711  2.4418 -1.2261
 2356SOL     OW18700   0.787   4.342   3.773  0.0906 -0.2346 -0.1098
 2356SOL    HW118701   0.834   4.408   3.723 -1.3710  0.7313 -0.2090
 2356SOL    HW218702   0.863   4.287   3.792  0.2738 -0.6494 -2.1029
 2357SOL     OW18703   2.867   4.304   5.307 -0.0015 -0.5145 -0.0117
 2357SOL    HW118704   2.903   4.366   5.370 -0.5071  0.3376 -0.5533
 2357SOL    HW218705   2.952   4.274   5.275 -0.3886 -2.2706  0.6068
 2358SOL     OW18706   2.698   2.062   3.105  0.0607 -0.3050 -0.5225
 2358SOL    HW118707   2.679   2.028   3.193  1.9910  2.5493  0.9945
 2358SOL    HW218708   2.790   2.086   3.114 -0.1960  0.6365 -0.3872
 2359SOL     OW18709   1.984   4.710   7.464 -0.2381 -0.1308  0.3813
 2359SOL    HW118710   1.961   0.068   7.466  1.5571  0.3371 -1.1758
 2359SOL    HW218711   1.953   4.668   7.384  0.6877 -0.4971  0.2165
 2360SOL     OW18712   1.783   4.468  14.500  0.2524  0.3729  0.2107
 2360SOL    HW118713   1.715   4.405  14.523  2.9968 -3.0544 -1.2196
 2360SOL    HW218714   1.741   4.538  14.450  0.8778 -0.2324 -1.1394
 2361SOL     OW18715   3.466   0.166   1.307  0.0311 -0.0063 -0.0224
 2361SOL    HW118716   3.530   0.132   1.244 -1.9010 -1.5407 -1.2001
 2361SOL    HW218717   3.378   0.159   1.270  0.4762  1.4437 -1.3290
 2362SOL     OW18718   2.597   1.493   8.116 -0.6020  0.4572 -0.2270
 2362SOL    HW118719   2.531   1.520   8.053  0.0732  4.8363  0.9437
 2362SOL    HW218720   2.680   1.532   8.090 -1.5396  1.9354 -0.9741
 2363SOL     OW18721   0.869   1.641   5.190  0.1647 -0.0826  1.3082
 2363SOL    HW118722   0.798   1.582   5.166 -0.5121 -0.1522  3.5157
 2363SOL    HW218723   0.826   1.726   5.199  0.3184 -0.0189  1.4446
 2364SOL     OW18724   0.717   0.906   7.417  0.2865  0.1215 -0.5514
 2364SOL    HW118725   0.712   0.884   7.510 -1.4632  2.0951 -0.1694
 2364SOL    HW218726   0.683   0.824   7.381 -1.6855  0.9239 -0.5166
 2365SOL     OW18727   1.300   2.999  15.622  0.4763 -0.1747 -0.1097
 2365SOL    HW118728   1.264   2.956  15.700 -1.2596  1.0234 -0.2497
 2365SOL    HW218729   1.275   3.090  15.633 -0.0888 -0.1365 -1.7497
 2366SOL     OW18730   0.103   3.424   1.362  0.2828 -0.7555 -0.0528
 2366SOL    HW118731   0.161   3.371   1.417  1.6349  0.2475 -0.5047
 2366SOL    HW218732   0.088   3.498   1.421  1.9504 -1.0900  0.7945
 2367SOL     OW18733   4.473   0.692   6.297 -0.1457 -0.4042  0.2332
 2367SOL    HW118734   4.382   0.697   6.267  0.9269 -0.8160 -3.1177
 2367SOL    HW218735   4.511   0.730   6.217  0.0228 -1.0428  0.0116
 2368SOL     OW18736   2.359   4.049   2.711  0.1215  0.2109 -0.0029
 2368SOL    HW118737   2.309   4.097   2.777 -2.4940  1.0445 -2.5932
 2368SOL    HW218738   2.394   4.117   2.655 -0.8975  0.4274 -0.3768
 2369SOL     OW18739   3.420   0.001  13.069 -0.9022  0.0941  0.3941
 2369SOL    HW118740   3.477   0.031  12.997  1.4283 -2.7817  1.0655
 2369SOL    HW218741   3.400   4.650  13.032 -0.7304 -0.2610  1.1427
 2370SOL     OW18742   3.059   4.260   1.958 -0.0608 -0.3640  0.2621
 2370SOL    HW118743   3.054   4.200   1.883  0.1503 -1.6077  1.2338
 2370SOL    HW218744   3.146   4.247   1.996 -0.3026 -0.7847  0.6698
 2371SOL     OW18745   0.548   1.382   6.958  0.5445 -0.5190  0.1568
 2371SOL    HW118746   0.472   1.325   6.949  1.2435 -1.2228 -1.1491
 2371SOL    HW218747   0.583   1.359   7.044 -0.7173  0.9699  1.0807
 2372SOL     OW18748   1.396   3.086   6.307 -0.1456  0.2996  0.3616
 2372SOL    HW118749   1.371   3.176   6.329 -0.7534  0.2392 -0.0995
 2372SOL    HW218750   1.489   3.097   6.285 -0.2259 -1.9922 -1.0491
 2373SOL     OW18751   1.284   2.340  16.132  0.8549  0.2603 -0.4732
 2373SOL    HW118752   1.332   2.324  16.213 -0.5794 -0.3329  0.2676
 2373SOL    HW218753   1.363   2.354  16.080 -0.4419 -0.8838 -2.7513
 2374SOL     OW18754   3.152   3.705   0.971  0.4474 -0.2724  0.5910
 2374SOL    HW118755   3.059   3.700   0.947  0.4029 -3.4130  1.3332
 2374SOL    HW218756   3.156   3.800   0.972 -0.8928 -0.2168  0.2083
 2375SOL     OW18757   1.688   1.904  15.383 -0.3352 -0.4230 -0.9452
 2375SOL    HW118758   1.768   1.904  15.437 -0.7311  0.5494 -0.3562
 2375SOL    HW218759   1.633   1.844  15.433 -1.3708  2.3779  1.2775
 2376SOL     OW18760   1.036   3.904   8.578 -0.5961  0.0947 -0.3706
 2376SOL    HW118761   0.964   3.858   8.536 -2.8302  2.4436  0.8705
 2376SOL    HW218762   0.990   3.943   8.652 -0.5737 -2.0143  0.7530
 2377SOL     OW18763   0.421   2.691   6.848  0.0373  0.7146  0.4317
 2377SOL    HW118764   0.436   2.637   6.926  3.5077  0.4366 -0.4352
 2377SOL    HW218765   0.503   2.739   6.842 -1.7939  3.9092  0.7688
 2378SOL     OW18766   3.330   1.789   6.986  0.0452 -0.6390  0.0177
 2378SOL    HW118767   3.339   1.882   7.008  1.6869 -0.3166 -2.0091
 2378SOL    HW218768   3.382   1.751   7.057  2.3330 -2.3530 -2.5611
 2379SOL     OW18769   2.240   4.697   6.127  0.5331 -0.1269 -0.0509
 2379SOL    HW118770   2.166   4.710   6.186  0.4096 -2.0602  0.2193
 2379SOL    HW218771   2.205   4.724   6.042 -3.7382 -1.1398  1.3772
 2380SOL     OW18772   4.246   2.619   7.259  0.4786 -0.0434  0.0009
 2380SOL    HW118773   4.236   2.632   7.164 -0.8974  0.5304  0.2278
 2380SOL    HW218774   4.341   2.620   7.272  0.5474  2.0087 -0.6155
 2381SOL     OW18775   2.912   0.520   5.806 -0.1918  0.0710  0.3093
 2381SOL    HW118776   2.975   0.591   5.793  1.4044 -1.2067  1.0040
 2381SOL    HW218777   2.900   0.511   5.901 -0.7214  0.7338  0.3048
 2382SOL     OW18778   3.157   1.534  16.471  0.2623 -0.3791 -0.0492
 2382SOL    HW118779   3.211   1.468  16.513  3.0370  3.3479  2.2276
 2382SOL    HW218780   3.121   1.572  16.551 -3.8023  1.0151 -2.5483
 2383SOL     OW18781   3.464   2.131   0.511  0.8536 -0.0374  0.7761
 2383SOL    HW118782   3.399   2.199   0.529  0.6700  0.1396 -0.5663
 2383SOL    HW218783   3.515   2.141   0.592  2.0955 -0.7865  0.1019
 2384SOL     OW18784   1.344   4.544   6.295  0.1098 -0.4463 -0.2702
 2384SOL    HW118785   1.356   4.457   6.260 -0.2314 -0.7707  0.4064
 2384SOL    HW218786   1.407   4.549   6.367 -0.3538  0.7137  0.0598
 2385SOL     OW18787   3.607   2.461   5.110  0.3303  0.3428  0.6297
 2385SOL    HW118788   3.675   2.526   5.126  1.3119 -1.1963  2.7149
 2385SOL    HW218789   3.558   2.489   5.187 -3.1696  0.9398 -1.7756
 2386SOL     OW18790   2.450   0.992   5.636  0.2317  0.6954 -0.3288
 2386SOL    HW118791   2.441   1.067   5.694  1.4801  0.9719 -0.5020
 2386SOL    HW218792   2.379   1.023   5.581 -1.2575  1.6701  2.1563
 2387SOL     OW18793   0.697   2.487   2.427 -0.2391  0.1463 -0.4939
 2387SOL    HW118794   0.693   2.539   2.508 -2.6188 -0.3330 -0.3147
 2387SOL    HW218795   0.704   2.559   2.364 -1.3604 -0.3109 -1.1354
 2388SOL     OW18796   0.198   3.435   3.311  0.1802  0.5442  0.7431
 2388SOL    HW118797   0.246   3.352   3.313 -0.9632 -0.1294 -0.4338
 2388SOL    HW218798   0.123   3.398   3.265  0.8161 -2.0877  1.8013
 2389SOL     OW18799   2.288   0.188   3.441  0.5751  0.1201  0.2140
 2389SOL    HW118800   2.271   0.272   3.483  1.2400  0.2733  0.1782
 2389SOL    HW218801   2.219   0.193   3.375  1.5763 -2.6810 -1.0568
 2390SOL     OW18802   2.701   2.544   8.225 -0.0671  0.5847 -0.3102
 2390SOL    HW118803   2.629   2.482   8.219 -0.6361  0.9657  2.5363
 2390SOL    HW218804   2.726   2.550   8.133  1.5386  0.1249  0.0856
 2391SOL     OW18805   0.486   3.025   0.693  0.2034 -0.0118 -0.5077
 2391SOL    HW118806   0.493   3.061   0.605 -1.0681 -2.4066 -1.5859
 2391SOL    HW218807   0.505   3.102   0.746 -0.1202 -0.7004  0.6171
 2392SOL     OW18808   0.789   0.637  17.572  0.1597 -0.3526 -0.5514
 2392SOL    HW118809   0.873   0.594  17.563  0.6325  0.6849 -1.1291
 2392SOL    HW218810   0.761   0.633  17.480  1.2921  3.3286 -1.0617
 2393SOL     OW18811   0.940   2.497  12.544 -0.1608 -0.2874 -0.3124
 2393SOL    HW118812   0.914   2.416  12.500 -0.7831  0.2064 -0.8524
 2393SOL    HW218813   1.022   2.523  12.500 -0.7290 -0.5575 -1.5170
 2394SOL     OW18814   3.421   0.234  14.792 -0.3186 -0.0576 -0.1874
 2394SOL    HW118815   3.393   0.213  14.703 -2.0938 -1.3399  0.6560
 2394SOL    HW218816   3.503   0.185  14.800  0.6904  1.1594 -3.1631
 2395SOL     OW18817   2.479   4.517  15.720  0.9250  0.0303 -0.3743
 2395SOL    HW118818   2.535   4.588  15.751 -3.5909  3.2246  0.4341
 2395SOL    HW218819   2.422   4.568  15.663  0.7242 -0.5863 -0.7232
 2396SOL     OW18820   3.195   2.832   8.111 -0.2818  0.6607 -0.1369
 2396SOL    HW118821   3.121   2.772   8.105  0.5937 -0.4078 -0.2389
 2396SOL    HW218822   3.158   2.905   8.161 -0.9600 -0.8410  1.5628
 2397SOL     OW18823   3.989   2.587  14.041  0.4433  0.0194 -0.2284
 2397SOL    HW118824   3.999   2.640  14.120 -1.1708 -1.4741  0.9728
 2397SOL    HW218825   3.896   2.591  14.020  0.3733  2.8916  0.6562
 2398SOL     OW18826   2.645   4.539   4.569 -0.6108  0.0192 -0.2674
 2398SOL    HW118827   2.722   4.555   4.625 -0.8217 -0.2613  0.1059
 2398SOL    HW218828   2.588   4.602   4.612 -1.8158 -1.1222 -0.1838
 2399SOL     OW18829   4.371   3.761   0.672 -0.0444 -0.2745  0.1255
 2399SOL    HW118830   4.298   3.821   0.654 -0.3916 -1.1226 -1.3646
 2399SOL    HW218831   4.421   3.818   0.729 -1.5079 -0.4124  1.5443
 2400SOL     OW18832   0.805   1.177   7.359  0.6495  0.4926 -0.0756
 2400SOL    HW118833   0.791   1.196   7.452 -1.2957 -1.0942 -0.0304
 2400SOL    HW218834   0.811   1.081   7.359  0.9310  0.5086 -0.0443
 2401SOL     OW18835   3.615   4.154   2.389  0.2532  0.1020  0.1158
 2401SOL    HW118836   3.542   4.212   2.410  1.7538  1.6348  1.0631
 2401SOL    HW218837   3.621   4.171   2.295 -1.5723  1.0166  0.1654
 2402SOL     OW18838   2.263   2.002  10.367  0.1498  0.6619 -0.7492
 2402SOL    HW118839   2.195   1.965  10.425  0.3809 -1.0130 -1.5347
 2402SOL    HW218840   2.315   2.061  10.421  1.0268 -0.6592 -0.1244
 2403SOL     OW18841   2.601   0.988   6.601  0.5875 -0.1463 -0.2046
 2403SOL    HW118842   2.604   1.050   6.673 -0.2354  0.5358 -0.7569
 2403SOL    HW218843   2.652   1.041   6.539  1.6167  1.1358  1.7657
 2404SOL     OW18844   1.202   3.177   0.954  0.2817  0.2772  0.1204
 2404SOL    HW118845   1.223   3.120   0.880 -0.4729 -0.3975  0.4144
 2404SOL    HW218846   1.135   3.229   0.911  0.2394  1.0046  1.0641
 2405SOL     OW18847   4.603   0.813   1.383 -0.7481 -0.2315  0.4071
 2405SOL    HW118848   4.685   0.833   1.427  0.5079 -0.5657 -1.7519
 2405SOL    HW218849   4.565   0.900   1.392  1.2709  0.9458 -2.6914
 2406SOL     OW18850   4.379   1.498   2.180 -0.3957 -0.0329  0.1158
 2406SOL    HW118851   4.358   1.425   2.121  1.5512 -0.9562  0.5880
 2406SOL    HW218852   4.298   1.503   2.232 -1.3416 -0.1762 -1.3344
 2407SOL     OW18853   2.907   1.510   4.168 -0.0311 -0.1723  0.4296
 2407SOL    HW118854   2.962   1.465   4.104  1.3597 -0.2195  1.6771
 2407SOL    HW218855   2.922   1.454   4.244 -1.4194 -2.1059 -0.7340
 2408SOL     OW18856   4.627   3.690   5.587 -0.3384  0.1356  0.4053
 2408SOL    HW118857   4.688   3.641   5.532 -0.8091 -0.3821  0.3472
 2408SOL    HW218858   4.553   3.632   5.570 -0.2528  0.8436 -2.5210
 2409SOL     OW18859   0.638   2.682   4.041  0.8616  0.0962 -0.1552
 2409SOL    HW118860   0.587   2.609   4.075 -0.1875  0.8285 -0.1628
 2409SOL    HW218861   0.596   2.762   4.074 -0.1912  0.4958 -2.4549
 2410SOL     OW18862   1.443   2.378   7.674  0.0315  0.4552 -0.0553
 2410SOL    HW118863   1.414   2.292   7.645  2.7938 -0.6518  0.4616
 2410SOL    HW218864   1.411   2.429   7.600 -0.4593 -0.5076 -0.5072
 2411SOL     OW18865   2.633   4.386   6.175  0.4941 -0.4020  0.1988
 2411SOL    HW118866   2.623   4.387   6.079  3.2124 -0.0688 -0.0811
 2411SOL    HW218867   2.691   4.459   6.197 -1.2882  0.5702  1.6731
 2412SOL     OW18868   1.591   2.884   7.398  0.3118  0.1912 -0.4235
 2412SOL    HW118869   1.607   2.815   7.463 -0.4909  0.2691 -0.1399
 2412SOL    HW218870   1.562   2.948   7.463  0.5416 -1.8360  1.6668
 2413SOL     OW18871   1.150   4.654  10.001  0.0188 -0.1017 -0.6811
 2413SOL    HW118872   1.073   4.709  10.016 -0.4676 -0.9425 -0.1725
 2413SOL    HW218873   1.206   4.678  10.075 -1.3555  1.2639 -0.0760
 2414SOL     OW18874   2.502   4.368   9.426  0.2217  0.6765 -0.1974
 2414SOL    HW118875   2.442   4.326   9.486  0.6209  1.2538  0.6139
 2414SOL    HW218876   2.452   4.444   9.397  2.8889  2.0921 -1.1599
 2415SOL     OW18877   1.459   1.276   3.133  0.4524 -0.5398 -0.2056
 2415SOL    HW118878   1.448   1.247   3.223  2.8201 -1.6014 -0.2571
 2415SOL    HW218879   1.501   1.362   3.142  1.2420 -1.0148  0.6300
 2416SOL     OW18880   3.923   0.747  12.390 -0.1052  0.0947 -0.3848
 2416SOL    HW118881   3.926   0.843  12.396  2.9232 -0.1830  2.2735
 2416SOL    HW218882   3.907   0.725  12.481 -1.1554 -0.7171 -0.7616
 2417SOL     OW18883   1.141   1.836   4.497  0.0327  0.4986 -0.2638
 2417SOL    HW118884   1.190   1.900   4.550 -1.6449  0.0024  1.9025
 2417SOL    HW218885   1.205   1.832   4.426 -0.1242  1.4020 -0.4608
 2418SOL     OW18886   3.958   1.002   8.107 -0.0227 -0.1843 -0.0911
 2418SOL    HW118887   3.881   1.059   8.121 -0.2084 -0.4564 -0.0037
 2418SOL    HW218888   3.917   0.933   8.056 -0.8525 -0.4260  0.8822
 2419SOL     OW18889   3.687   1.387  13.273 -0.5998  0.7949  0.0849
 2419SOL    HW118890   3.726   1.335  13.203 -0.8133 -0.4270  0.8814
 2419SOL    HW218891   3.595   1.391  13.249 -0.4619  0.9277 -0.4259
 2420SOL     OW18892   2.055   0.268   7.458 -0.1503  0.9522 -0.5683
 2420SOL    HW118893   2.078   0.305   7.373  0.4619  1.6735 -0.0819
 2420SOL    HW218894   2.138   0.234   7.491 -0.8897 -2.3318 -1.9967
 2421SOL     OW18895   1.921   0.795   6.115  0.1649  0.2429 -0.5740
 2421SOL    HW118896   1.946   0.880   6.078  0.3154  1.1594  1.5919
 2421SOL    HW218897   1.860   0.766   6.047  1.9980 -1.3744 -1.5005
 2422SOL     OW18898   4.661   4.690   6.515  0.1651 -0.2694 -0.2588
 2422SOL    HW118899   4.583   0.009   6.510  0.2891 -0.1683 -1.0688
 2422SOL    HW218900   4.717   0.006   6.456  1.1099 -0.0093  0.8591
 2423SOL     OW18901   0.971   0.697   5.565 -0.1267  0.2146 -0.3427
 2423SOL    HW118902   1.001   0.620   5.614  1.3899  0.4648 -0.8649
 2423SOL    HW218903   1.046   0.716   5.509  1.1853  0.7048  1.5769
 2424SOL     OW18904   2.076   2.525  10.183  0.0581 -0.0339 -0.3009
 2424SOL    HW118905   2.112   2.483  10.261  0.1236  0.4447 -0.0692
 2424SOL    HW218906   2.146   2.523  10.117 -0.3187 -0.9610 -0.6635
 2425SOL     OW18907   3.726   1.928   1.582 -0.1974 -0.3294 -0.1410
 2425SOL    HW118908   3.720   1.889   1.669 -0.0096 -0.3645 -0.1452
 2425SOL    HW218909   3.705   1.847   1.534  0.3875 -1.0866  0.8854
 2426SOL     OW18910   1.231   1.123  15.087 -0.3031 -0.3997  0.0289
 2426SOL    HW118911   1.177   1.052  15.051 -0.1732  0.1630 -1.2776
 2426SOL    HW218912   1.164   1.187  15.112  1.3577  0.8667  1.1831
 2427SOL     OW18913   3.832   3.957   2.054  0.4516 -0.3353 -0.0559
 2427SOL    HW118914   3.752   3.905   2.045 -0.6950  1.5474 -0.7018
 2427SOL    HW218915   3.862   3.913   2.134 -2.3481 -2.6921 -0.3038
 2428SOL     OW18916   2.598   3.834   3.489  0.0401 -0.0358 -0.1294
 2428SOL    HW118917   2.691   3.811   3.481  0.4653  1.7642 -0.3710
 2428SOL    HW218918   2.570   3.799   3.404 -1.8432  1.3473 -0.0967
 2429SOL     OW18919   1.821   3.336   1.767  0.4865  0.9255 -0.3478
 2429SOL    HW118920   1.753   3.382   1.817 -2.5081 -2.1199 -1.6170
 2429SOL    HW218921   1.897   3.380   1.804  0.0235 -0.7370  2.5980
 2430SOL     OW18922   3.417   4.656   2.558 -0.1506 -0.5796  0.5583
 2430SOL    HW118923   3.478   4.692   2.493  1.7565  0.9268  3.2088
 2430SOL    HW218924   3.473   4.594   2.605 -1.1394  0.5620  3.2565
 2431SOL     OW18925   1.631   1.801   4.892  0.3299 -0.2769 -0.1124
 2431SOL    HW118926   1.675   1.720   4.864  0.8194 -0.1448  0.2587
 2431SOL    HW218927   1.573   1.813   4.817 -0.0682 -1.2204  0.0431
 2432SOL     OW18928   2.091   1.172   8.050 -0.4548  0.1160  0.0356
 2432SOL    HW118929   2.049   1.119   8.118 -0.6841 -1.4382 -1.3131
 2432SOL    HW218930   2.114   1.249   8.102  0.9888 -0.5660  0.4155
 2433SOL     OW18931   1.987   4.392   8.547  0.6611  0.4771 -0.1138
 2433SOL    HW118932   1.911   4.348   8.509  0.8953  0.0706 -0.1039
 2433SOL    HW218933   2.053   4.340   8.502 -1.5090 -0.1636 -2.5854
 2434SOL     OW18934   2.008   1.342  14.542 -0.2761 -0.4511  0.6792
 2434SOL    HW118935   1.950   1.415  14.517 -0.4962 -0.4366  1.2298
 2434SOL    HW218936   2.093   1.383  14.558 -0.2263 -0.9121  1.6139
 2435SOL     OW18937   0.707   2.379   8.487  0.1786  0.4172 -0.1452
 2435SOL    HW118938   0.787   2.371   8.435  0.4998  0.0797  0.4019
 2435SOL    HW218939   0.713   2.473   8.503  1.6522  0.1123  1.0957
 2436SOL     OW18940   4.249   2.015   5.916 -0.0562 -0.0863 -0.0687
 2436SOL    HW118941   4.272   2.001   5.825  0.4791  4.9133 -0.7063
 2436SOL    HW218942   4.160   1.980   5.928 -0.1797  0.8482  1.8371
 2437SOL     OW18943   2.494   4.359   7.521 -0.7244  0.0036  0.0009
 2437SOL    HW118944   2.408   4.327   7.493 -1.0523  0.3755  0.5742
 2437SOL    HW218945   2.466   4.422   7.588  1.9773 -1.5670  2.6158
 2438SOL     OW18946   0.173   2.337  15.621  0.1024 -0.4500  0.4599
 2438SOL    HW118947   0.126   2.399  15.676 -0.0684  1.0342 -1.3669
 2438SOL    HW218948   0.176   2.387  15.540  2.5503 -0.6068  0.4572
 2439SOL     OW18949   2.694   3.895   0.350  0.1085  0.1349  0.1342
 2439SOL    HW118950   2.652   3.846   0.279 -0.3080  0.4160  0.1829
 2439SOL    HW218951   2.751   3.955   0.303  0.4091 -0.4402 -0.2468
 2440SOL     OW18952   3.289   0.864   5.655 -0.4242 -0.0978 -0.4495
 2440SOL    HW118953   3.236   0.806   5.710  0.8586  1.5169  2.4942
 2440SOL    HW218954   3.281   0.939   5.715 -1.7580  0.7778 -1.7258
 2441SOL     OW18955   0.385   1.367   8.097 -0.0316  0.4145  0.1050
 2441SOL    HW118956   0.374   1.287   8.046  0.4974 -0.4418  1.3617
 2441SOL    HW218957   0.295   1.393   8.119 -0.1941  0.8841 -1.1241
 2442SOL     OW18958   0.492   2.560   7.753 -0.2060 -0.4298  0.7554
 2442SOL    HW118959   0.508   2.482   7.699  1.0156 -0.5696  1.3090
 2442SOL    HW218960   0.523   2.524   7.836 -0.5419  0.8159  1.4169
 2443SOL     OW18961   4.055   4.158   5.275  0.2914 -0.0684 -0.4560
 2443SOL    HW118962   4.093   4.071   5.286  2.1735  0.7583 -0.5278
 2443SOL    HW218963   4.141   4.197   5.284 -0.1747  0.4420  1.7766
 2444SOL     OW18964   0.781   3.817  13.789  0.1054 -0.7753  0.3174
 2444SOL    HW118965   0.691   3.846  13.800 -0.8605 -2.3970 -3.2740
 2444SOL    HW218966   0.802   3.771  13.870 -2.5339 -2.3592  0.0746
 2445SOL     OW18967   4.328   3.656   7.248 -0.0115 -0.1790 -0.0719
 2445SOL    HW118968   4.250   3.643   7.193 -0.7166  1.1983  0.6082
 2445SOL    HW218969   4.312   3.745   7.277  0.9319  0.1026 -0.4213
 2446SOL     OW18970   3.956   2.052   2.279 -0.0700 -0.2135  0.1082
 2446SOL    HW118971   3.953   2.095   2.365  0.7446 -2.1153  1.0808
 2446SOL    HW218972   3.918   1.969   2.309 -1.9873  0.8510  0.6763
 2447SOL     OW18973   1.404   1.493   0.721 -0.0552  0.3384  0.3871
 2447SOL    HW118974   1.394   1.405   0.758 -0.5965  0.4540  0.5195
 2447SOL    HW218975   1.399   1.468   0.629 -3.9135 -2.1318  1.3017
 2448SOL     OW18976   3.756   3.097   3.418 -0.4946  0.2413  0.6565
 2448SOL    HW118977   3.801   3.030   3.468  0.3541  1.8532  2.0709
 2448SOL    HW218978   3.695   3.135   3.482  1.2788  1.6653  1.4847
 2449SOL     OW18979   3.058   1.754   8.605  0.0551  0.2124  0.5185
 2449SOL    HW118980   3.033   1.838   8.566 -0.4745 -0.4146 -0.5212
 2449SOL    HW218981   2.969   1.743   8.640 -0.6709  0.5185 -1.1905
 2450SOL     OW18982   1.160   4.140   0.107 -0.1289  0.0576  0.3012
 2450SOL    HW118983   1.144   4.151   0.201 -3.0692  0.8459 -0.2767
 2450SOL    HW218984   1.213   4.217   0.084  1.8347 -1.4578 -0.2514
 2451SOL     OW18985   2.912   2.666   9.030 -0.3499 -0.6601  0.1606
 2451SOL    HW118986   2.968   2.624   9.095 -1.3058  0.4248  1.6906
 2451SOL    HW218987   2.964   2.661   8.950  1.2516  1.1420  1.1034
 2452SOL     OW18988   2.255   4.282   7.404 -0.0693 -0.1870  0.1027
 2452SOL    HW118989   2.272   4.203   7.456 -2.4284  0.3436  1.6817
 2452SOL    HW218990   2.247   4.228   7.325 -1.3612 -0.2871  0.2961
 2453SOL     OW18991   1.124   1.309   6.790 -0.0853  0.0114 -0.2142
 2453SOL    HW118992   1.041   1.273   6.758 -0.0502  0.3226 -0.6539
 2453SOL    HW218993   1.173   1.262   6.723 -0.7166 -2.1751  0.8538
 2454SOL     OW18994   4.272   1.085  12.704 -0.0233 -0.1499  0.2557
 2454SOL    HW118995   4.362   1.060  12.725 -0.0504 -0.6231 -0.1822
 2454SOL    HW218996   4.279   1.175  12.737  2.6799 -0.9362  1.8373
 2455SOL     OW18997   4.571   2.445  12.096  0.7152  0.0699 -0.1128
 2455SOL    HW118998   4.577   2.362  12.143 -0.5212  0.4057  0.6239
 2455SOL    HW218999   4.522   2.489  12.166 -0.3740 -1.1056 -0.1412
 2456SOL     OW19000   3.929   3.065   1.221 -0.0751  0.3356 -0.1681
 2456SOL    HW119001   3.913   3.004   1.294 -0.2733 -0.8807 -1.2335
 2456SOL    HW219002   4.022   3.078   1.236 -0.1362 -1.8404  2.1980
 2457SOL     OW19003   1.394   2.861   7.772  0.4442 -0.4685  0.4228
 2457SOL    HW119004   1.398   2.934   7.711 -1.7876 -0.1820  0.6060
 2457SOL    HW219005   1.322   2.885   7.830  0.0832 -2.8144  0.9608
 2458SOL     OW19006   3.670   1.019   3.731  0.2937 -0.4805  0.3799
 2458SOL    HW119007   3.609   0.972   3.788 -1.0836  1.5561  0.5843
 2458SOL    HW219008   3.643   0.999   3.642 -1.3942 -2.0825  1.2620
 2459SOL     OW19009   0.048   3.035  13.538 -0.2345  0.4088  0.6383
 2459SOL    HW119010   0.108   2.999  13.472  0.8571  0.5405  1.5597
 2459SOL    HW219011   0.069   2.979  13.613 -1.5397  0.4604  1.0330
 2460SOL     OW19012   1.729   0.468   7.906 -0.3282 -0.0071 -0.0920
 2460SOL    HW119013   1.716   0.374   7.894  1.1650 -0.0662 -1.3224
 2460SOL    HW219014   1.710   0.502   7.818  0.5481 -2.1070 -1.0971
 2461SOL     OW19015   2.416   0.052   5.143  0.1378  0.3533 -0.6133
 2461SOL    HW119016   2.417   0.123   5.208  1.8713 -1.3401  1.1967
 2461SOL    HW219017   2.384   0.102   5.069 -0.9986  0.3427 -0.1271
 2462SOL     OW19018   3.292   0.224   5.344 -0.4391  0.6779  0.1595
 2462SOL    HW119019   3.317   0.315   5.358 -0.8029  0.8496 -0.3440
 2462SOL    HW219020   3.368   0.195   5.293 -0.0202 -1.4843  1.9789
 2463SOL     OW19021   2.898   3.187   8.046 -0.5882 -0.0655  0.4048
 2463SOL    HW119022   2.975   3.238   8.019  0.7962 -1.9004  0.9201
 2463SOL    HW219023   2.930   3.154   8.129 -1.3802 -1.4931  0.1356
 2464SOL     OW19024   1.217   2.487  12.622  0.0797 -0.0017 -0.0279
 2464SOL    HW119025   1.305   2.450  12.620  0.1039 -0.0100  1.1014
 2464SOL    HW219026   1.172   2.409  12.653 -0.4243 -0.1174 -1.0681
 2465SOL     OW19027   4.555   4.512   6.700  0.0283 -0.0540 -0.4092
 2465SOL    HW119028   4.602   4.562   6.633  1.9211 -2.0082 -0.5220
 2465SOL    HW219029   4.628   4.453   6.719 -0.1686  0.7638  2.8547
 2466SOL     OW19030   0.577   2.549  11.537  0.2712  0.0358  0.1276
 2466SOL    HW119031   0.522   2.623  11.511  1.2842  0.4193 -0.9026
 2466SOL    HW219032   0.528   2.513  11.611  1.0250  1.3865  1.2686
 2467SOL     OW19033   3.375   3.780   5.560  0.4277 -0.3920 -0.4788
 2467SOL    HW119034   3.337   3.767   5.647  0.6050  2.1647 -0.0288
 2467SOL    HW219035   3.315   3.746   5.494 -0.4265 -0.4326  0.3141
 2468SOL     OW19036   1.322   0.764   7.659 -0.4768  0.2444  0.0834
 2468SOL    HW119037   1.264   0.714   7.716  1.1512  0.0002  1.5372
 2468SOL    HW219038   1.367   0.686   7.627  1.5788  1.5251 -0.1824
 2469SOL     OW19039   0.153   4.573  16.857 -0.2807 -0.1777 -0.3013
 2469SOL    HW119040   0.165   4.605  16.946 -0.5384 -0.3410 -0.2074
 2469SOL    HW219041   0.059   4.559  16.861 -0.2628 -0.5048 -1.0235
 2470SOL     OW19042   4.179   0.206   3.637 -0.2409  0.2987 -0.0195
 2470SOL    HW119043   4.187   0.163   3.553  0.0406 -0.9046  0.6285
 2470SOL    HW219044   4.089   0.239   3.639  0.1295  1.3057  0.0867
 2471SOL     OW19045   1.696   3.244   7.705  0.0373 -0.4389 -0.5289
 2471SOL    HW119046   1.657   3.173   7.757  2.2715 -0.3788  1.2310
 2471SOL    HW219047   1.775   3.267   7.753 -1.8725  2.3963  1.2159
 2472SOL     OW19048   0.269   1.092  10.506  0.0161 -0.2529 -0.0598
 2472SOL    HW119049   0.301   1.173  10.467  0.2816 -0.4442 -0.2444
 2472SOL    HW219050   0.178   1.106  10.531  0.0557  0.0005 -0.0610
 2473SOL     OW19051   1.460   1.919   5.077  0.2257  0.1350 -0.6686
 2473SOL    HW119052   1.371   1.884   5.080  0.0293  0.6564 -0.4682
 2473SOL    HW219053   1.502   1.873   5.004  1.5981 -2.1954  1.5942
 2474SOL     OW19054   0.551   0.859   3.693 -0.1685 -0.2223 -0.4703
 2474SOL    HW119055   0.621   0.891   3.637  0.0769 -1.5670 -0.9401
 2474SOL    HW219056   0.582   0.777   3.732  1.1089 -0.7552 -2.6205
 2475SOL     OW19057   3.062   0.909   7.665  0.0115  0.0546 -0.1323
 2475SOL    HW119058   3.037   0.947   7.749 -0.9952 -0.8626 -0.0111
 2475SOL    HW219059   2.978   0.865   7.654  0.7222 -1.8304  1.9108
 2476SOL     OW19060   1.659   4.539  12.594  0.2004  0.2286 -0.2619
 2476SOL    HW119061   1.582   4.561  12.647 -1.7900 -0.2781 -2.9380
 2476SOL    HW219062   1.709   4.487  12.656  0.8109  1.2918  0.1459
 2477SOL     OW19063   2.657   1.789  17.368  0.1953 -0.4587 -0.0206
 2477SOL    HW119064   2.609   1.739  17.434 -0.8538  1.9197  0.9962
 2477SOL    HW219065   2.746   1.761  17.388  0.2774  0.4183  0.8186
 2478SOL     OW19066   2.914   1.297   0.183 -0.3898  0.5397  0.7580
 2478SOL    HW119067   2.890   1.207   0.204  2.9150 -0.3699  0.5527
 2478SOL    HW219068   2.896   1.345   0.264  3.2679 -0.1290  1.9563
 2479SOL     OW19069   3.537   0.218  13.967 -0.7143 -0.3101  0.1873
 2479SOL    HW119070   3.579   0.206  14.052  1.1010 -1.8321 -0.9317
 2479SOL    HW219071   3.473   0.281  14.000 -0.0958  0.7571 -0.6392
 2480SOL     OW19072   2.602   2.534   7.885  0.1114  0.3488 -0.1369
 2480SOL    HW119073   2.592   2.568   7.796 -0.1598  0.5205 -0.0390
 2480SOL    HW219074   2.514   2.531   7.921 -0.0036  3.9955 -0.1565
 2481SOL     OW19075   1.536   4.126   0.126 -0.3760  0.5959 -0.4713
 2481SOL    HW119076   1.502   4.036   0.135 -0.2983  0.4349 -1.7407
 2481SOL    HW219077   1.603   4.124   0.194 -2.6280 -1.7404  1.6948
 2482SOL     OW19078   3.040   1.542   9.247  0.1321 -0.5224  0.0031
 2482SOL    HW119079   3.051   1.464   9.192  1.5240  0.3548 -0.9592
 2482SOL    HW219080   3.132   1.567   9.246  0.2283 -1.0284 -2.3686
 2483SOL     OW19081   1.918   4.407  15.959 -0.0619 -0.2228 -0.5407
 2483SOL    HW119082   2.010   4.415  15.935 -0.2762  2.7407 -0.4183
 2483SOL    HW219083   1.917   4.314  15.979 -0.6756 -0.2804 -0.8446
 2484SOL     OW19084   0.168   2.399   7.276 -0.2570 -0.0077  0.4686
 2484SOL    HW119085   0.105   2.466   7.303  0.3395  0.7058  0.0552
 2484SOL    HW219086   0.121   2.352   7.207  1.8153 -1.0912 -0.1898
 2485SOL     OW19087   4.672   2.483   5.914 -0.2548 -0.4761 -0.0380
 2485SOL    HW119088   4.672   2.397   5.956  1.0043 -0.6122 -0.3140
 2485SOL    HW219089   4.579   2.505   5.916 -0.5555 -1.6590 -0.6574
 2486SOL     OW19090   3.891   1.186   3.974  0.0556 -0.0635  0.1584
 2486SOL    HW119091   3.813   1.133   3.958 -0.4523  0.3675  1.1659
 2486SOL    HW219092   3.960   1.124   3.995  0.9552  0.8756  0.0069
 2487SOL     OW19093   0.415   3.868   7.670 -0.6511  0.4120 -0.4334
 2487SOL    HW119094   0.422   3.935   7.739  1.7070  0.6651 -0.8966
 2487SOL    HW219095   0.321   3.850   7.673 -1.0199  2.4674  0.1877
 2488SOL     OW19096   4.152   1.785  13.685  0.2566  0.3260  0.3418
 2488SOL    HW119097   4.143   1.874  13.717  0.4729 -0.3473  2.2659
 2488SOL    HW219098   4.090   1.736  13.739 -0.7855  0.5864 -0.6238
 2489SOL     OW19099   2.392   2.753  13.291  0.2387  0.0990  0.6720
 2489SOL    HW119100   2.319   2.802  13.330 -1.6457 -0.0506 -2.6331
 2489SOL    HW219101   2.459   2.819  13.273  0.9194 -0.7029  0.3125
 2490SOL     OW19102   3.606   3.730   8.794 -0.2253 -0.0902  0.0420
 2490SOL    HW119103   3.674   3.725   8.727  0.4628  0.3572  0.7184
 2490SOL    HW219104   3.531   3.756   8.740 -0.6931  0.5657  1.0120
 2491SOL     OW19105   1.482   3.285  12.782  0.5501  0.2486 -0.2886
 2491SOL    HW119106   1.452   3.343  12.712  1.3979  0.2730 -0.6248
 2491SOL    HW219107   1.488   3.341  12.859  1.1504  1.4372 -1.1961
 2492SOL     OW19108   4.618   0.482   7.314  0.8444  0.0281  0.2269
 2492SOL    HW119109   4.659   0.555   7.359  2.0696 -0.0371 -0.7891
 2492SOL    HW219110   4.641   0.410   7.373  0.6097  0.0120  0.2970
 2493SOL     OW19111   4.582   3.937   8.981 -0.0552 -0.4634 -0.3854
 2493SOL    HW119112   4.625   3.944   8.896 -0.5090 -0.6253 -0.6251
 2493SOL    HW219113   4.488   3.948   8.967 -0.3397 -3.1287 -0.6103
 2494SOL     OW19114   0.941   0.426   4.628 -0.5279 -0.2367 -0.4412
 2494SOL    HW119115   0.930   0.497   4.564  0.5274  1.3122  1.0832
 2494SOL    HW219116   0.992   0.475   4.693 -0.8410  0.5164 -0.7544
 2495SOL     OW19117   4.327   4.307   7.206 -0.1118 -0.9283  0.2105
 2495SOL    HW119118   4.309   4.388   7.158 -0.3301 -1.5195 -0.7066
 2495SOL    HW219119   4.251   4.303   7.264  0.1916  0.7853  0.7221
 2496SOL     OW19120   3.478   3.441  14.166 -0.0621  0.3712 -0.3072
 2496SOL    HW119121   3.405   3.498  14.191  0.1392 -1.2624  4.0561
 2496SOL    HW219122   3.485   3.465  14.074  1.6291 -0.5900 -0.4128
 2497SOL     OW19123   4.552   1.183   8.260 -0.0300 -0.1127  0.2604
 2497SOL    HW119124   4.514   1.220   8.340  1.8889 -0.2273  1.2204
 2497SOL    HW219125   4.528   1.091   8.263 -0.7121  0.1216  1.7765
 2498SOL     OW19126   4.464   1.983   4.806 -0.3240 -0.7464 -0.1950
 2498SOL    HW119127   4.399   1.972   4.736  0.2259 -1.0397 -0.6611
 2498SOL    HW219128   4.402   2.006   4.874 -2.1625  0.4500 -2.2783
 2499SOL     OW19129   0.820   2.424   8.125 -0.2801  0.8332  0.0235
 2499SOL    HW119130   0.872   2.473   8.061  1.1404 -0.6327  0.0574
 2499SOL    HW219131   0.745   2.396   8.074  0.6609 -1.1713 -0.2478
 2500SOL     OW19132   2.773   3.481   1.878 -0.6310  0.4780  0.1060
 2500SOL    HW119133   2.762   3.452   1.969  1.8516 -0.4948  0.0957
 2500SOL    HW219134   2.694   3.535   1.870  0.2290  1.4981 -1.4575
 2501SOL     OW19135   2.513   0.659  17.712  0.6178  0.5907  0.2077
 2501SOL    HW119136   2.487   0.646  17.621 -0.5554 -1.1060  0.7808
 2501SOL    HW219137   2.447   0.727  17.731 -2.9662 -2.2956 -1.8998
 2502SOL     OW19138   2.935   4.456   4.077  0.1096  0.0551 -0.1377
 2502SOL    HW119139   2.980   4.410   4.006 -0.4772  2.7666 -2.2240
 2502SOL    HW219140   2.874   4.511   4.029 -0.9426  0.0465  1.1864
 2503SOL     OW19141   2.964   1.351   4.387 -0.3014 -0.2156 -0.9562
 2503SOL    HW119142   2.906   1.284   4.422 -0.8618  0.7712 -0.0055
 2503SOL    HW219143   3.039   1.296   4.363 -0.1245 -0.0832 -0.7164
 2504SOL     OW19144   2.025   3.598  15.941  0.5349 -0.3779 -0.4238
 2504SOL    HW119145   2.040   3.690  15.919 -0.3804  0.0540  0.7982
 2504SOL    HW219146   2.108   3.580  15.987 -0.1940  0.0276  1.0425
 2505SOL     OW19147   1.792   2.650   3.442  0.5964  0.4879  0.4962
 2505SOL    HW119148   1.733   2.724   3.427  1.2519  0.8746 -0.2206
 2505SOL    HW219149   1.799   2.618   3.352 -2.7191 -2.5815  1.3703
 2506SOL     OW19150   2.277   1.713   1.876 -0.1349 -0.0537 -0.6964
 2506SOL    HW119151   2.278   1.807   1.857 -0.9890 -0.0122 -0.5331
 2506SOL    HW219152   2.255   1.715   1.969 -0.5135 -0.5403 -0.7754
 2507SOL     OW19153   4.359   3.015   4.834 -0.3955  0.2035 -0.3976
 2507SOL    HW119154   4.323   3.064   4.908  0.4674 -0.0230  0.1690
 2507SOL    HW219155   4.382   3.088   4.777  2.7417  0.4849  1.2169
 2508SOL     OW19156   0.319   3.477   9.836 -0.5187  0.2099 -0.1569
 2508SOL    HW119157   0.316   3.474   9.740  1.8636 -1.0546 -0.1799
 2508SOL    HW219158   0.302   3.568   9.861 -1.1843 -0.5836  2.3244
 2509SOL     OW19159   2.423   3.003   2.317 -0.7340  0.0772 -0.1194
 2509SOL    HW119160   2.506   3.022   2.274 -1.5615  1.1921 -1.1898
 2509SOL    HW219161   2.410   2.910   2.296 -0.5718  0.3254 -1.2872
 2510SOL     OW19162   1.520   3.783   3.213 -0.3713 -0.3926 -0.4502
 2510SOL    HW119163   1.476   3.782   3.298 -1.0162  1.3891 -0.7546
 2510SOL    HW219164   1.460   3.832   3.156  1.5600  2.4492 -0.0300
 2511SOL     OW19165   3.225   1.910  13.722  0.8819  0.0190  0.0997
 2511SOL    HW119166   3.245   1.988  13.670 -0.9042  0.5436  0.1971
 2511SOL    HW219167   3.277   1.844  13.675  0.1281 -0.8105  0.4314
 2512SOL     OW19168   2.908   4.535   4.424  0.1036 -0.6731 -0.3853
 2512SOL    HW119169   2.813   4.532   4.424 -0.0494  2.8869  1.4595
 2512SOL    HW219170   2.920   4.616   4.475  0.4053  1.2242 -3.4555
 2513SOL     OW19171   4.388   0.145   2.893  0.6734  0.1428 -0.0366
 2513SOL    HW119172   4.343   0.060   2.894  1.2918 -0.1839  0.8492
 2513SOL    HW219173   4.336   0.200   2.834 -0.6053 -0.7143  0.3002
 2514SOL     OW19174   1.845   2.657   1.385  0.2664 -0.1342  0.1652
 2514SOL    HW119175   1.812   2.623   1.302  0.5811 -0.2427  0.0836
 2514SOL    HW219176   1.938   2.672   1.371  0.4287 -1.8606 -0.5358
 2515SOL     OW19177   3.615   4.563   6.249 -0.2840 -0.1935 -0.1449
 2515SOL    HW119178   3.708   4.568   6.230  0.4439 -0.7120  3.2625
 2515SOL    HW219179   3.633   4.562   6.343  2.4555  2.5496 -0.6410
 2516SOL     OW19180   1.158   1.973   6.621 -0.1441 -0.2811  0.1544
 2516SOL    HW119181   1.123   2.020   6.545  0.7533  0.0625 -0.0406
 2516SOL    HW219182   1.221   2.040   6.646 -0.6161  1.1873 -2.5435
 2517SOL     OW19183   2.706   4.421   7.318  0.0593  0.1706 -0.2002
 2517SOL    HW119184   2.627   4.398   7.366  0.9502 -1.1617  0.5991
 2517SOL    HW219185   2.664   4.454   7.239  1.0974 -2.4276 -1.8449
 2518SOL     OW19186   4.592   0.169   1.856  0.7652 -0.6046  0.0776
 2518SOL    HW119187   4.682   0.179   1.886  0.9892 -2.2334 -0.0292
 2518SOL    HW219188   4.550   0.233   1.913  1.8541 -0.4709  0.7327
 2519SOL     OW19189   3.855   2.273   6.099 -0.2956 -0.0332  0.4446
 2519SOL    HW119190   3.787   2.276   6.032  0.5270 -2.8852 -0.5044
 2519SOL    HW219191   3.933   2.289   6.045 -0.4080  1.4324  0.7087
 2520SOL     OW19192   2.540   0.621  11.440 -0.0873  0.1948  0.0927
 2520SOL    HW119193   2.490   0.632  11.521 -1.9380  2.3594 -1.3168
 2520SOL    HW219194   2.590   0.702  11.447 -0.5380  0.4428  0.4653
 2521SOL     OW19195   2.393   4.347   4.530  0.3475 -0.5315 -0.1812
 2521SOL    HW119196   2.362   4.384   4.447  0.9639 -0.4066 -0.3625
 2521SOL    HW219197   2.478   4.392   4.538  0.0577 -0.1279  0.6130
 2522SOL     OW19198   0.174   4.294   8.823 -0.0944  0.2312  0.2481
 2522SOL    HW119199   0.162   4.208   8.863  0.7327  0.1109  0.2520
 2522SOL    HW219200   0.096   4.290   8.768  0.6644 -2.0020 -0.6796
 2523SOL     OW19201   3.222   1.894   6.308  0.5628 -0.0442 -0.1902
 2523SOL    HW119202   3.127   1.900   6.315  0.6846 -1.0194  2.3040
 2523SOL    HW219203   3.247   1.803   6.325 -0.9929 -0.4371 -0.0123
 2524SOL     OW19204   4.516   3.999   1.247  0.1457 -0.1244 -0.2294
 2524SOL    HW119205   4.592   4.045   1.283 -0.7718  0.9864  0.2701
 2524SOL    HW219206   4.566   3.940   1.191  0.4297  0.5791 -0.7167
 2525SOL     OW19207   4.727   3.927  14.761 -0.0171  0.4728  0.2117
 2525SOL    HW119208   4.674   3.995  14.719 -1.7631 -1.0300 -0.0299
 2525SOL    HW219209   0.075   3.937  14.716  0.0117 -3.0447 -0.5207
 2526SOL     OW19210   1.985   2.791   5.526  0.1000  0.0309 -0.1637
 2526SOL    HW119211   2.023   2.870   5.487  1.0144 -0.9037 -1.1573
 2526SOL    HW219212   1.919   2.760   5.464  0.1500 -3.2713  1.4472
 2527SOL     OW19213   0.360   0.395   3.198 -0.0934 -0.3877 -0.0356
 2527SOL    HW119214   0.278   0.363   3.235 -0.4182  0.1032 -0.3334
 2527SOL    HW219215   0.374   0.481   3.239 -4.4521  0.3605 -0.1300
 2528SOL     OW19216   2.183   4.025   8.983 -0.1419 -0.3448 -0.1207
 2528SOL    HW119217   2.270   3.988   8.996 -1.0135 -2.4575 -0.2818
 2528SOL    HW219218   2.186   4.071   8.899  0.7996 -2.3345 -1.1802
 2529SOL     OW19219   3.422   2.904   4.028 -0.2024  0.0404  0.0829
 2529SOL    HW119220   3.404   2.819   4.068 -0.6665  0.2844  0.3928
 2529SOL    HW219221   3.467   2.955   4.096 -1.0245  2.7169 -1.3698
 2530SOL     OW19222   0.452   2.170  15.673 -0.8694 -1.0562 -0.3652
 2530SOL    HW119223   0.374   2.226  15.667 -1.7303 -2.2294 -0.1590
 2530SOL    HW219224   0.418   2.081  15.658 -0.7435 -1.1999  0.2048
 2531SOL     OW19225   1.084   1.669  14.706  0.0073 -0.0931 -0.7978
 2531SOL    HW119226   1.175   1.648  14.683 -0.7805 -2.1678 -2.0226
 2531SOL    HW219227   1.086   1.641  14.798  1.0129  0.7604 -0.5577
 2532SOL     OW19228   1.429   2.638   2.986 -0.8803 -0.0127  0.1122
 2532SOL    HW119229   1.513   2.616   2.947 -0.7189  1.2518 -0.2760
 2532SOL    HW219230   1.382   2.556   2.974  0.6552 -0.9166  0.3783
 2533SOL     OW19231   0.095   4.566   3.113  0.2594 -0.5708 -0.1243
 2533SOL    HW119232   0.039   4.638   3.143  2.3277  0.7902  0.4964
 2533SOL    HW219233   0.056   4.530   3.033 -1.3073  1.3568 -0.2410
 2534SOL     OW19234   3.686   0.517   2.716  0.0314 -0.1217 -0.2147
 2534SOL    HW119235   3.683   0.584   2.648 -0.0051 -0.8351 -0.9241
 2534SOL    HW219236   3.780   0.502   2.725  0.2078 -0.1266 -2.1196
 2535SOL     OW19237   3.455   1.722  10.120 -0.1069  0.1692 -0.3469
 2535SOL    HW119238   3.543   1.756  10.108  0.1458 -0.5769 -0.5970
 2535SOL    HW219239   3.399   1.796  10.095 -0.6697  0.0609  0.5992
 2536SOL     OW19240   3.593   1.440   8.203  0.0256  0.2453  0.4020
 2536SOL    HW119241   3.654   1.455   8.275 -1.0392  2.2642  0.8830
 2536SOL    HW219242   3.594   1.522   8.154 -1.5789 -2.2287 -3.8130
 2537SOL     OW19243   0.959   2.755   8.796 -0.3782 -0.3339 -0.2989
 2537SOL    HW119244   0.909   2.731   8.874 -0.9635  1.5186 -0.1053
 2537SOL    HW219245   0.979   2.669   8.758 -0.7706 -0.3680 -0.4294
 2538SOL     OW19246   2.553   3.647   7.535 -0.0843 -0.0906  0.6808
 2538SOL    HW119247   2.542   3.681   7.446 -0.8518  1.7581  1.4930
 2538SOL    HW219248   2.645   3.624   7.550  0.1094  0.3486  0.1854
 2539SOL     OW19249   1.015   1.104   5.672  0.2380 -0.7470 -0.3762
 2539SOL    HW119250   1.100   1.061   5.663 -0.3456 -1.8535 -0.6342
 2539SOL    HW219251   1.052   1.188   5.699  0.5249 -1.3945  1.2224
 2540SOL     OW19252   3.250   3.670   8.341 -0.4378 -0.4671  0.0001
 2540SOL    HW119253   3.304   3.740   8.306 -2.4457  0.7963 -0.6128
 2540SOL    HW219254   3.164   3.710   8.325 -0.0486  0.7290  0.9588
 2541SOL     OW19255   3.780   2.154   4.452  0.1066  0.0063  0.3722
 2541SOL    HW119256   3.794   2.195   4.537 -0.8343 -0.3146  0.6853
 2541SOL    HW219257   3.747   2.069   4.481 -1.0915  0.0356 -0.9681
 2542SOL     OW19258   1.588   2.789  14.622 -0.1509  0.0574 -0.2582
 2542SOL    HW119259   1.602   2.794  14.528  3.2835  0.3275  0.2777
 2542SOL    HW219260   1.493   2.800  14.629  0.0063  0.2718  1.4479
 2543SOL     OW19261   2.873   4.550   8.069 -0.0818 -0.2438 -0.0112
 2543SOL    HW119262   2.864   4.516   8.158  1.1164 -0.8500 -0.1219
 2543SOL    HW219263   2.853   4.642   8.085  0.7034 -0.0873  0.0501
 2544SOL     OW19264   2.788   4.021  15.342 -0.1943  0.8760 -0.0738
 2544SOL    HW119265   2.783   3.928  15.319  1.7782  1.1128 -1.4361
 2544SOL    HW219266   2.871   4.017  15.389 -1.2036  1.2966  1.7359
 2545SOL     OW19267   2.046   0.197   3.666  0.3307  0.4255 -0.1451
 2545SOL    HW119268   1.977   0.207   3.600 -0.2034  0.4442  0.4122
 2545SOL    HW219269   1.995   0.148   3.730  2.1147  0.7238  1.4856
 2546SOL     OW19270   3.204   0.555   3.282 -0.1242  0.0485  0.5967
 2546SOL    HW119271   3.153   0.620   3.331 -1.4600  0.9984 -2.0575
 2546SOL    HW219272   3.279   0.612   3.265 -0.5115  0.1297 -0.8755
 2547SOL     OW19273   4.153   2.958  13.669  0.1625  0.6330  0.0294
 2547SOL    HW119274   4.174   2.867  13.650 -0.6691 -0.0466  2.4431
 2547SOL    HW219275   4.189   2.960  13.757  0.4299  0.7102 -0.0819
 2548SOL     OW19276   1.594   3.577  12.822 -0.0967  0.8181 -0.2393
 2548SOL    HW119277   1.521   3.548  12.876  0.1310 -1.4097 -1.1472
 2548SOL    HW219278   1.671   3.540  12.865  0.7838 -0.5136 -2.9737
 2549SOL     OW19279   4.352   0.864   5.480  0.0825 -0.1418  0.2028
 2549SOL    HW119280   4.323   0.945   5.438  1.2281 -0.6164 -1.4657
 2549SOL    HW219281   4.296   0.801   5.435 -1.5496 -0.9001  3.2240
 2550SOL     OW19282   1.763   0.296   3.597 -0.3681  0.1931 -0.3433
 2550SOL    HW119283   1.749   0.388   3.622  0.1204  0.2968 -0.4497
 2550SOL    HW219284   1.675   0.273   3.570  0.5384 -1.7974 -1.5666
 2551SOL     OW19285   1.142   4.352   6.010 -0.7239  0.3402 -0.1125
 2551SOL    HW119286   1.138   4.427   5.951 -1.8864  0.8358  0.5903
 2551SOL    HW219287   1.047   4.341   6.006 -0.6496 -0.4285  0.3202
 2552SOL     OW19288   2.282   4.584   5.302  0.0977  0.3085 -0.6223
 2552SOL    HW119289   2.324   4.648   5.245  1.5474 -0.1094 -0.0290
 2552SOL    HW219290   2.190   4.612   5.305 -0.6980 -2.2739 -0.9359
 2553SOL     OW19291   3.278   1.570   2.241  0.5688  0.4003 -0.4328
 2553SOL    HW119292   3.298   1.504   2.307  1.1772  1.2838  0.2604
 2553SOL    HW219293   3.192   1.599   2.271  0.6201  0.7069 -0.5849
 2554SOL     OW19294   3.569   2.817   2.676  0.1295 -0.2311  0.5651
 2554SOL    HW119295   3.541   2.893   2.625  2.7218 -0.9726 -1.9382
 2554SOL    HW219296   3.665   2.816   2.675  0.1545  0.2657  1.8141
 2555SOL     OW19297   3.715   3.880   9.553 -0.3744  0.1579 -0.1809
 2555SOL    HW119298   3.736   3.973   9.558  3.4391 -0.7000 -0.0026
 2555SOL    HW219299   3.750   3.861   9.466 -0.3935  1.3952 -0.4501
 2556SOL     OW19300   4.184   0.414  11.186  0.0436  0.4995 -0.1130
 2556SOL    HW119301   4.165   0.325  11.216  2.1203  0.2428  0.4709
 2556SOL    HW219302   4.144   0.458  11.261 -1.4681 -1.4465  0.2234
 2557SOL     OW19303   2.428   2.959   1.958 -0.7469  0.4652 -0.2580
 2557SOL    HW119304   2.364   2.949   1.887 -0.6009  0.2842 -0.3640
 2557SOL    HW219305   2.379   2.912   2.025  0.5863 -1.4626 -0.6496
 2558SOL     OW19306   4.422   3.846   5.812 -0.8867  0.3854  0.0136
 2558SOL    HW119307   4.489   3.914   5.803 -0.4366 -0.1023 -0.3289
 2558SOL    HW219308   4.342   3.897   5.821 -0.0885  1.7614 -0.7621
 2559SOL     OW19309   0.876   2.362   7.406  0.0644  0.9567  0.3857
 2559SOL    HW119310   0.830   2.288   7.444 -0.4460  1.3287  0.4901
 2559SOL    HW219311   0.968   2.336   7.395 -0.4651 -0.9648  0.6584
 2560SOL     OW19312   1.720   1.600   3.698 -0.3664 -0.3807 -0.2419
 2560SOL    HW119313   1.796   1.642   3.738  0.7429 -2.7953  0.1888
 2560SOL    HW219314   1.704   1.532   3.763 -0.2409  1.7484  2.0003
 2561SOL     OW19315   3.982   3.501   9.070  0.2514  0.1128  0.2192
 2561SOL    HW119316   3.990   3.464   8.982 -0.7471  2.0938 -0.7074
 2561SOL    HW219317   4.075   3.510   9.092  0.0735  0.4740  0.8053
 2562SOL     OW19318   1.005   3.008   2.909  0.4265  0.0928 -0.0366
 2562SOL    HW119319   1.085   3.057   2.930  1.0409 -0.5981 -0.7483
 2562SOL    HW219320   1.045   2.924   2.887  1.0669 -0.2237  2.2736
 2563SOL     OW19321   0.544   1.347   7.786 -0.1376  0.0233  0.0267
 2563SOL    HW119322   0.527   1.394   7.868 -3.3140 -1.0633 -0.0336
 2563SOL    HW219323   0.454   1.339   7.753 -0.0712 -1.2754  0.1609
 2564SOL     OW19324   1.957   2.479   0.520 -0.3548  0.3495 -0.3223
 2564SOL    HW119325   1.964   2.505   0.612  0.8017  3.3890 -1.2803
 2564SOL    HW219326   1.970   2.565   0.480 -0.6200  0.5258 -0.0355
 2565SOL     OW19327   3.566   3.151   8.516 -0.2044  0.4516 -0.6095
 2565SOL    HW119328   3.648   3.125   8.557 -0.7431  0.4463  0.4475
 2565SOL    HW219329   3.582   3.240   8.484 -0.1106  0.3935 -0.7225
 2566SOL     OW19330   4.531   3.339   6.289 -0.1349 -0.5253 -0.0466
 2566SOL    HW119331   4.436   3.345   6.299  0.0275  1.0556  0.5677
 2566SOL    HW219332   4.539   3.311   6.198  0.0116 -0.9586  0.1001
 2567SOL     OW19333   0.008   3.706   2.465 -0.1418 -0.2981  0.3395
 2567SOL    HW119334   0.100   3.704   2.438 -0.2982  1.2189 -0.2944
 2567SOL    HW219335   4.696   3.702   2.382 -0.1268  0.2061  0.3065
 2568SOL     OW19336   1.437   1.119  11.166 -0.4737  0.0927  0.0787
 2568SOL    HW119337   1.428   1.040  11.218 -0.1130 -0.2798 -0.4241
 2568SOL    HW219338   1.532   1.131  11.168 -0.3224 -0.9129 -0.9176
 2569SOL     OW19339   1.509   2.332   7.288  0.0861  0.1807 -0.3536
 2569SOL    HW119340   1.591   2.382   7.293  0.3393 -0.2311 -0.3794
 2569SOL    HW219341   1.553   2.248   7.296 -1.1266 -0.5927 -1.9047
 2570SOL     OW19342   2.280   4.117  16.407  0.7705  0.2759  0.1943
 2570SOL    HW119343   2.271   4.193  16.464 -1.5585 -0.9174  1.4367
 2570SOL    HW219344   2.303   4.051  16.473  0.9022 -0.6618 -0.7885
 2571SOL     OW19345   0.248   4.301  16.192  0.1166  0.2761  0.0985
 2571SOL    HW119346   0.207   4.385  16.210 -1.1807 -0.1348 -0.9495
 2571SOL    HW219347   0.255   4.259  16.277  1.1494 -1.6865 -0.9582
 2572SOL     OW19348   4.576   1.618   7.532  0.0702 -0.1592 -0.0665
 2572SOL    HW119349   4.624   1.694   7.564  1.0393 -1.5630  1.8002
 2572SOL    HW219350   4.616   1.550   7.586 -1.1135 -1.7591 -1.2084
 2573SOL     OW19351   3.884   0.097   6.349  0.4042 -0.1055  0.4710
 2573SOL    HW119352   3.847   0.183   6.331  0.4253 -0.1594  0.1643
 2573SOL    HW219353   3.972   0.107   6.312 -0.1402 -0.2050 -0.8750
 2574SOL     OW19354   1.350   0.851   5.753 -0.6974 -0.2105  0.2035
 2574SOL    HW119355   1.385   0.868   5.840 -0.1062 -2.3556  0.3942
 2574SOL    HW219356   1.338   0.942   5.725  1.1141 -0.0597 -0.1056
 2575SOL     OW19357   2.779   1.907   2.840 -0.7496 -0.6030  0.0920
 2575SOL    HW119358   2.699   1.953   2.866 -2.7866 -4.0852  0.0392
 2575SOL    HW219359   2.810   1.977   2.782 -0.5303 -0.1458  0.7629
 2576SOL     OW19360   1.956   3.256   8.735 -0.1908  0.1628  0.2455
 2576SOL    HW119361   1.953   3.299   8.821 -1.4269  2.3997 -0.9154
 2576SOL    HW219362   1.876   3.300   8.706  0.1298  1.3088  1.0655
 2577SOL     OW19363   1.575   2.972   5.754  0.0596  0.1805 -0.4217
 2577SOL    HW119364   1.493   3.019   5.737 -0.0054  1.0495  2.2836
 2577SOL    HW219365   1.535   2.894   5.794  1.7499 -0.4157  0.0860
 2578SOL     OW19366   0.958   2.109  16.036 -0.3635  0.2653  0.2100
 2578SOL    HW119367   1.046   2.117  16.000 -0.7279 -0.5998 -0.8586
 2578SOL    HW219368   0.902   2.131  15.962  0.3195  1.8375  0.1641
 2579SOL     OW19369   4.060   4.020   8.090  0.1558  0.6517  0.1359
 2579SOL    HW119370   4.040   3.973   8.009  1.4605  1.1124 -0.4714
 2579SOL    HW219371   4.025   3.961   8.157  0.5432  1.4482  1.0381
 2580SOL     OW19372   2.938   2.546   2.144 -0.4982 -0.7741 -0.4026
 2580SOL    HW119373   2.902   2.630   2.117  0.0812 -1.0029 -1.8328
 2580SOL    HW219374   2.864   2.493   2.175 -0.6055 -0.4648 -0.1330
 2581SOL     OW19375   3.312   1.349  16.597  0.2234 -0.5691 -0.6047
 2581SOL    HW119376   3.290   1.263  16.633  2.2159 -0.8331 -0.0201
 2581SOL    HW219377   3.378   1.318  16.535 -0.2511  0.2798 -1.5295
 2582SOL     OW19378   0.469   0.049   2.411  0.2363  0.2090  0.2357
 2582SOL    HW119379   0.562   0.028   2.411 -0.0599 -1.0274 -1.1764
 2582SOL    HW219380   0.443   0.056   2.503  0.8373 -0.2367  0.4378
 2583SOL     OW19381   4.688   3.809   3.668 -0.7010  0.2895  0.3439
 2583SOL    HW119382   4.661   3.897   3.693 -0.4521  0.6261 -0.5536
 2583SOL    HW219383   0.032   3.817   3.613  0.3819 -1.5009  1.6218
 2584SOL     OW19384   2.910   4.511   7.806  0.3066  0.2799 -0.2343
 2584SOL    HW119385   2.901   4.509   7.901  2.3653 -1.8260 -0.1044
 2584SOL    HW219386   2.864   4.432   7.777 -0.1526  0.1798  0.7777
 2585SOL     OW19387   4.239   3.211   6.181 -0.5302  0.3994 -0.0477
 2585SOL    HW119388   4.304   3.251   6.123 -1.1005 -1.1065 -1.7291
 2585SOL    HW219389   4.164   3.199   6.123 -1.9218  0.4587  1.7313
 2586SOL     OW19390   0.536   3.864  13.897  0.0742 -0.4344  0.1099
 2586SOL    HW119391   0.458   3.819  13.864  0.1476 -0.5895  0.1486
 2586SOL    HW219392   0.496   3.930  13.953 -1.9019 -0.8690 -0.7972
 2587SOL     OW19393   0.164   1.151   4.057 -0.1647  0.5423 -0.2623
 2587SOL    HW119394   0.234   1.214   4.039  0.0039  0.2995 -0.4523
 2587SOL    HW219395   0.153   1.108   3.973  0.7203  0.5616 -0.3841
 2588SOL     OW19396   1.623   4.382  11.279  0.6816  0.0007  0.1026
 2588SOL    HW119397   1.717   4.384  11.259  0.4089 -0.7881 -1.3204
 2588SOL    HW219398   1.607   4.306  11.335 -2.9621  0.0911 -0.8327
 2589SOL     OW19399   2.952   3.316  12.426 -0.4396  0.0265 -0.5639
 2589SOL    HW119400   3.036   3.335  12.385 -1.1041  1.2801 -1.3368
 2589SOL    HW219401   2.917   3.396  12.465  1.0960 -0.3995  1.7221
 2590SOL     OW19402   3.474   4.497   7.815 -0.2681 -0.1197  0.2355
 2590SOL    HW119403   3.392   4.532   7.781 -1.1099 -1.6248  0.7273
 2590SOL    HW219404   3.525   4.491   7.734  1.6736  2.5031  1.2816
 2591SOL     OW19405   3.437   2.900   6.083 -0.3128 -0.1509 -0.0152
 2591SOL    HW119406   3.399   2.900   5.995 -1.6635 -2.0605  0.5668
 2591SOL    HW219407   3.466   2.991   6.084  0.9307 -0.5053 -2.6449
 2592SOL     OW19408   0.040   4.486   6.395 -0.2293 -0.0143  0.2278
 2592SOL    HW119409   0.069   4.492   6.304 -0.9577 -0.5841 -0.0420
 2592SOL    HW219410   4.723   4.564   6.414  2.9370  2.3707 -0.8640
 2593SOL     OW19411   0.686   3.150   1.490 -0.1892  0.4229  0.2143
 2593SOL    HW119412   0.760   3.173   1.434 -0.1819  1.3009  0.5803
 2593SOL    HW219413   0.628   3.219   1.457 -0.5201 -0.6572 -1.4636
 2594SOL     OW19414   0.168   2.697   7.661  0.0587 -0.1989  0.1435
 2594SOL    HW119415   0.136   2.754   7.731 -2.0148 -0.6054 -0.4820
 2594SOL    HW219416   0.220   2.629   7.705  1.1827  1.7710  1.8296
 2595SOL     OW19417   4.172   0.896  13.370  0.2597 -0.8970  0.0192
 2595SOL    HW119418   4.147   0.817  13.323 -1.0530  0.7089 -2.0001
 2595SOL    HW219419   4.124   0.962  13.321 -0.0282 -0.4696  0.8717
 2596SOL     OW19420   0.434   2.905   3.872  0.1807 -0.1155  0.2030
 2596SOL    HW119421   0.479   2.896   3.956  0.5430 -0.2707 -0.0049
 2596SOL    HW219422   0.429   2.999   3.858  0.6907  0.0586  1.2257
 2597SOL     OW19423   3.909   1.617  15.789  0.4563 -0.2200 -0.2151
 2597SOL    HW119424   3.903   1.524  15.770 -0.2023 -0.1436 -0.3941
 2597SOL    HW219425   3.889   1.610  15.882  0.8813 -0.7565 -0.1646
 2598SOL     OW19426   1.426   0.979   3.411  0.4872 -0.2208 -0.0733
 2598SOL    HW119427   1.342   1.022   3.395  1.3048  0.5166 -2.3879
 2598SOL    HW219428   1.449   0.930   3.332  0.3822 -2.5364  1.3455
 2599SOL     OW19429   4.169   3.904   4.773 -0.6742 -0.0437  0.0694
 2599SOL    HW119430   4.229   3.951   4.715  1.5164 -0.4558  1.9945
 2599SOL    HW219431   4.088   3.940   4.736  0.9369  0.2688 -3.1664
 2600SOL     OW19432   2.243   4.350   9.056  0.5014 -0.3999 -0.4059
 2600SOL    HW119433   2.275   4.436   9.031  2.3596  0.4559  5.0704
 2600SOL    HW219434   2.326   4.302   9.054  1.3767  1.0748  1.3647
 2601SOL     OW19435   4.417   2.294   4.759 -0.3218  0.0221 -0.1872
 2601SOL    HW119436   4.355   2.222   4.757 -0.5585  0.1657  2.3191
 2601SOL    HW219437   4.502   2.256   4.737  0.6731  0.9152  2.1587
 2602SOL     OW19438   1.555   4.248   3.855 -0.6977  0.5798 -0.0681
 2602SOL    HW119439   1.624   4.311   3.877 -0.1876 -0.4339  1.1524
 2602SOL    HW219440   1.574   4.175   3.913 -0.0564  1.7474  1.1966
 2603SOL     OW19441   1.644   1.454   2.742  0.3612 -0.4655  0.3067
 2603SOL    HW119442   1.692   1.400   2.805 -0.7795  0.3051  1.8232
 2603SOL    HW219443   1.578   1.490   2.801  0.8346  0.4174  0.3092
 2604SOL     OW19444   1.430   3.910   4.272  0.0965  0.0059 -0.0970
 2604SOL    HW119445   1.420   3.829   4.322 -1.5484  0.7932  0.8636
 2604SOL    HW219446   1.459   3.969   4.342 -1.5075 -0.7303  1.1910
 2605SOL     OW19447   4.365   2.996   3.865  0.4959 -0.0512  0.0400
 2605SOL    HW119448   4.316   3.074   3.840 -0.7546 -0.2750  1.7785
 2605SOL    HW219449   4.387   3.023   3.955  0.5281 -0.4428  0.1513
 2606SOL     OW19450   3.502   0.911   2.363 -0.4897  0.1092  0.2538
 2606SOL    HW119451   3.591   0.935   2.388  0.2582 -1.8497 -0.4765
 2606SOL    HW219452   3.461   0.997   2.364 -1.0344 -0.1413 -0.6018
 2607SOL     OW19453   0.209   3.018   4.610  0.0277 -0.1945  0.2055
 2607SOL    HW119454   0.128   3.056   4.644 -0.2570 -0.1984 -0.4719
 2607SOL    HW219455   0.279   3.061   4.660  0.2693 -1.6182  1.1190
 2608SOL     OW19456   4.618   0.781   3.717 -0.2303 -0.1300 -0.0945
 2608SOL    HW119457   4.626   0.699   3.765  1.2962  0.4939  0.7113
 2608SOL    HW219458   4.530   0.756   3.687 -0.5437  0.7580  0.0843
 2609SOL     OW19459   2.290   3.834  17.116  0.5178 -0.4324  0.0761
 2609SOL    HW119460   2.335   3.792  17.043 -1.7093  0.9864 -2.1276
 2609SOL    HW219461   2.348   3.820  17.190  0.2063  0.8091  0.5608
 2610SOL     OW19462   0.180   0.508   1.971 -0.4029  0.2671  0.1419
 2610SOL    HW119463   0.201   0.577   2.034 -0.8159  0.8543 -0.3504
 2610SOL    HW219464   0.141   0.564   1.903 -2.0077 -1.0830 -0.0629
 2611SOL     OW19465   4.367   1.709   3.242 -0.0319  0.3187 -0.1675
 2611SOL    HW119466   4.415   1.763   3.180  1.9560 -0.5378  0.6220
 2611SOL    HW219467   4.436   1.674   3.298  0.6912  0.8221 -0.7486
 2612SOL     OW19468   0.727   2.166   4.629 -0.1121 -0.0384  0.0379
 2612SOL    HW119469   0.762   2.077   4.628  0.5952  0.2373 -0.0825
 2612SOL    HW219470   0.638   2.157   4.663 -0.5660  1.4987 -0.7623
 2613SOL     OW19471   3.951   1.243   0.719 -0.5888 -0.1410 -0.2623
 2613SOL    HW119472   3.860   1.234   0.691 -0.5608 -0.2928 -0.3030
 2613SOL    HW219473   3.966   1.157   0.758 -0.4897  0.2243  0.5207
 2614SOL     OW19474   0.449   2.484  11.761  0.2387  0.0110  0.4547
 2614SOL    HW119475   0.381   2.550  11.775  0.1780  0.2072 -0.7433
 2614SOL    HW219476   0.421   2.431  11.836  0.2519 -0.3279  0.2199
 2615SOL     OW19477   3.662   0.073   8.737  0.4130 -0.0112  0.0241
 2615SOL    HW119478   3.719   0.046   8.666  2.1699  3.2670  0.1598
 2615SOL    HW219479   3.607   0.138   8.693 -1.5791 -0.7790  1.3642
 2616SOL     OW19480   3.648   2.905   3.834  0.2981 -0.3591 -0.0718
 2616SOL    HW119481   3.555   2.897   3.811  0.6747  1.2282 -2.1440
 2616SOL    HW219482   3.650   2.988   3.882  0.1863  0.1369 -0.9392
 2617SOL     OW19483   4.611   1.090   3.270 -0.0472  0.9536  0.1042
 2617SOL    HW119484   4.623   1.001   3.304 -0.0897  1.0616  0.4045
 2617SOL    HW219485   4.677   1.140   3.318  2.3682  0.8109 -3.1038
 2618SOL     OW19486   4.715   0.687   8.235  0.4678 -0.0954 -0.5402
 2618SOL    HW119487   0.065   0.657   8.268  0.6376  0.3698 -0.5575
 2618SOL    HW219488   4.665   0.667   8.314  2.5810 -0.6004  0.6773
 2619SOL     OW19489   1.458   0.650   8.767  0.1180  0.1842  0.1699
 2619SOL    HW119490   1.378   0.676   8.813 -0.0797 -0.2037  0.0385
 2619SOL    HW219491   1.531   0.641   8.828  2.4565 -0.3839 -2.6960
 2620SOL     OW19492   4.693   2.443  15.807 -0.1166 -0.6214 -0.1290
 2620SOL    HW119493   4.612   2.469  15.762  1.0530  3.2265 -0.0431
 2620SOL    HW219494   4.721   2.527  15.844 -2.1890  0.1892 -0.3752
 2621SOL     OW19495   1.498   4.570  12.087 -0.1995  0.3589 -0.6706
 2621SOL    HW119496   1.414   4.589  12.046  0.5158  2.1976 -1.2643
 2621SOL    HW219497   1.528   4.651  12.128  0.0426  0.4196 -0.9629
 2622SOL     OW19498   2.667   0.454  13.721  0.9667 -0.3838 -0.1863
 2622SOL    HW119499   2.738   0.518  13.707  2.2850 -1.8736 -0.3231
 2622SOL    HW219500   2.602   0.520  13.745  1.3285  0.2172 -0.8463
 2623SOL     OW19501   0.622   3.078   3.229 -0.2835 -0.2639  0.0654
 2623SOL    HW119502   0.624   2.985   3.206  2.0287 -0.5629  1.4347
 2623SOL    HW219503   0.702   3.101   3.184 -0.8478  1.4749 -0.0546
 2624SOL     OW19504   3.851   0.077   9.714  1.0542  0.1935 -0.5962
 2624SOL    HW119505   3.853   0.052   9.622 -2.4606  0.6691 -0.7956
 2624SOL    HW219506   3.926   0.036   9.757  1.9017 -1.5674 -3.7899
 2625SOL     OW19507   0.544   2.873   1.287 -0.2772 -0.0703  0.3734
 2625SOL    HW119508   0.602   2.914   1.222  1.2667 -3.2874 -0.3023
 2625SOL    HW219509   0.600   2.852   1.362  0.6851 -1.6368 -0.7672
 2626SOL     OW19510   4.463   2.544   6.539 -0.0218  0.3658  0.0383
 2626SOL    HW119511   4.462   2.639   6.555  0.4813  0.1470  1.4033
 2626SOL    HW219512   4.442   2.544   6.446 -1.0600  0.0368  0.2789
 2627SOL     OW19513   2.110   1.889   5.159  0.2514  0.4772  0.2697
 2627SOL    HW119514   2.125   1.876   5.252  1.4046 -1.1005 -0.1252
 2627SOL    HW219515   2.081   1.803   5.128  0.8790  0.9104 -1.5182
 2628SOL     OW19516   2.435   2.295   5.005 -0.1764 -0.4786  0.2653
 2628SOL    HW119517   2.378   2.267   4.932 -2.2781  3.2366  0.4736
 2628SOL    HW219518   2.466   2.381   4.979  1.6942 -0.7180  1.7211
 2629SOL     OW19519   4.191   2.609   6.675 -0.0034 -0.5186 -0.2383
 2629SOL    HW119520   4.160   2.544   6.612 -2.3391 -1.4525  1.8916
 2629SOL    HW219521   4.284   2.606   6.654 -0.2879  0.0371 -1.6136
 2630SOL     OW19522   1.470   2.000  14.997  0.1197 -0.1855 -0.4054
 2630SOL    HW119523   1.410   2.045  14.938 -1.1469  2.9568  3.2950
 2630SOL    HW219524   1.512   2.076  15.036  0.6914 -0.5817 -0.2421
 2631SOL     OW19525   2.748   3.815   6.233  0.3460  0.4405 -0.3772
 2631SOL    HW119526   2.740   3.785   6.142  0.2592 -1.4007  0.2418
 2631SOL    HW219527   2.809   3.887   6.218  0.9721  0.1158  0.6264
 2632SOL     OW19528   1.269   4.386  15.588 -0.5899  1.0919  0.0118
 2632SOL    HW119529   1.248   4.364  15.497 -0.4086  1.2181 -0.0612
 2632SOL    HW219530   1.195   4.444  15.608 -1.7866 -0.3261 -0.3483
 2633SOL     OW19531   4.020   3.026   5.275  0.3827 -0.6231  0.3374
 2633SOL    HW119532   4.021   2.930   5.267 -0.0895 -0.7236  1.6358
 2633SOL    HW219533   3.940   3.047   5.226  1.8421 -0.6202 -2.0858
 2634SOL     OW19534   0.656   2.312   3.768  0.1758 -1.3384  0.3329
 2634SOL    HW119535   0.717   2.261   3.714 -0.3872 -0.5061 -1.1001
 2634SOL    HW219536   0.680   2.399   3.735  3.7689 -3.0681 -1.6529
 2635SOL     OW19537   4.617   1.139   6.042 -0.0919  0.4748 -0.2520
 2635SOL    HW119538   4.624   1.178   6.129 -3.9930  1.2947 -0.3093
 2635SOL    HW219539   4.549   1.197   6.007 -0.9067  1.1675  2.4274
 2636SOL     OW19540   3.850   4.266   3.918  0.1695  0.0037 -0.0355
 2636SOL    HW119541   3.857   4.358   3.893 -0.7108  0.6334  2.0667
 2636SOL    HW219542   3.754   4.260   3.922  0.3880 -1.5187  2.7086
 2637SOL     OW19543   2.549   2.022  16.931  0.2880 -0.1069  0.0467
 2637SOL    HW119544   2.570   1.945  16.984  0.8675 -0.0258 -0.0670
 2637SOL    HW219545   2.470   2.050  16.978  0.4455 -1.1005  0.9017
 2638SOL     OW19546   0.244   2.094   6.793 -0.1418 -0.3036 -0.7941
 2638SOL    HW119547   0.252   2.180   6.750  2.0061  0.4253  1.0111
 2638SOL    HW219548   0.249   2.040   6.715  1.9383  0.5765 -1.2697
 2639SOL     OW19549   3.629   0.542  12.237  0.6063  0.2398 -0.2224
 2639SOL    HW119550   3.536   0.523  12.246  0.6768  0.2928  0.6506
 2639SOL    HW219551   3.652   0.457  12.200  1.4220  0.5906 -0.5215
 2640SOL     OW19552   4.576   1.651   4.608  0.4932  0.2842 -0.2644
 2640SOL    HW119553   4.643   1.696   4.659  1.8138 -1.5411 -0.3894
 2640SOL    HW219554   4.549   1.719   4.546  1.8310  0.5661 -0.5406
 2641SOL     OW19555   3.654   3.434   4.638  0.0299 -0.4182 -0.2418
 2641SOL    HW119556   3.627   3.430   4.546 -0.1798 -1.5624 -0.1324
 2641SOL    HW219557   3.595   3.502   4.669  0.7839 -0.0483  0.3828
 2642SOL     OW19558   4.068   4.288   2.731 -0.1733  0.1839  0.3545
 2642SOL    HW119559   4.095   4.293   2.639 -0.4519  0.6344  0.2962
 2642SOL    HW219560   4.108   4.369   2.763  1.2314 -1.2110  2.1158
 2643SOL     OW19561   2.973   2.099   9.774  0.6228 -0.0445 -0.9819
 2643SOL    HW119562   2.948   2.163   9.708  3.6458  0.7233 -1.3832
 2643SOL    HW219563   3.059   2.134   9.800 -0.0547 -0.8729  2.3711
 2644SOL     OW19564   2.983   0.749  15.799  0.1215  0.2719  0.1398
 2644SOL    HW119565   2.931   0.697  15.738  1.7353  0.5685 -1.4546
 2644SOL    HW219566   2.958   0.836  15.766 -0.8634  0.4459  1.3019
 2645SOL     OW19567   1.746   4.104  14.373  0.0442  0.2998 -0.5812
 2645SOL    HW119568   1.745   4.166  14.300  0.5496  0.7569 -0.2030
 2645SOL    HW219569   1.828   4.115  14.421  0.1168 -2.1000 -0.1589
 2646SOL     OW19570   2.339   1.517   4.698 -0.1617 -0.1703 -0.0147
 2646SOL    HW119571   2.424   1.473   4.706 -0.6517 -1.1153  0.0084
 2646SOL    HW219572   2.337   1.529   4.603  0.6369 -0.9094 -0.1276
 2647SOL     OW19573   1.963   1.120  14.690 -0.3092  0.6108 -0.2320
 2647SOL    HW119574   1.997   1.139  14.777 -2.4489  1.1274  0.4875
 2647SOL    HW219575   1.998   1.193  14.638 -1.2574 -0.2864 -2.1565
 2648SOL     OW19576   1.861   0.805   7.415 -0.4593  0.3408 -0.2539
 2648SOL    HW119577   1.940   0.782   7.463  0.2058  1.7790 -0.6450
 2648SOL    HW219578   1.858   0.901   7.416  0.7632  0.3863 -0.6251
 2649SOL     OW19579   1.475   3.256   9.594  0.5232  0.2330 -0.3183
 2649SOL    HW119580   1.405   3.212   9.641  0.3436  0.3582 -0.4667
 2649SOL    HW219581   1.432   3.329   9.549  1.5049  1.2797  0.4329
 2650SOL     OW19582   2.682   4.647   1.734  0.2710 -0.3188  0.0050
 2650SOL    HW119583   2.719   4.670   1.819  0.1113 -2.5609  0.6812
 2650SOL    HW219584   2.647   4.561   1.756  1.8447 -1.2964 -1.3084
 2651SOL     OW19585   3.266   1.918  11.068  0.3357  0.2325 -0.7933
 2651SOL    HW119586   3.359   1.913  11.088 -0.2755 -0.4774  1.8358
 2651SOL    HW219587   3.260   1.835  11.020  0.0182 -0.8481  1.0946
 2652SOL     OW19588   2.384   2.346  15.426 -0.2245 -0.2386 -0.0113
 2652SOL    HW119589   2.339   2.426  15.397  0.9506  0.5765  0.3817
 2652SOL    HW219590   2.391   2.300  15.343 -0.7365 -0.4175  0.0423
 2653SOL     OW19591   2.225   4.283   3.940  0.3213 -1.0304  0.2583
 2653SOL    HW119592   2.132   4.266   3.953 -0.1240  1.4146  0.1520
 2653SOL    HW219593   2.269   4.229   4.006  2.1559  0.6153  0.3800
 2654SOL     OW19594   3.803   2.298   1.961 -0.2202 -0.2719 -0.4472
 2654SOL    HW119595   3.881   2.242   1.961  0.6438  0.9249 -1.6680
 2654SOL    HW219596   3.764   2.267   2.042  1.1104  3.2183  1.5107
 2655SOL     OW19597   3.122   3.698   7.000 -0.3736 -0.2366 -0.2718
 2655SOL    HW119598   3.072   3.724   6.923 -1.8847  0.6147  0.9867
 2655SOL    HW219599   3.148   3.784   7.032 -2.9574  0.8793 -1.1332
 2656SOL     OW19600   0.976   3.743   0.570  0.2152 -0.1384 -0.3729
 2656SOL    HW119601   1.070   3.727   0.585  0.8986  2.7086 -1.6537
 2656SOL    HW219602   0.983   3.813   0.506 -0.2644  0.9513  0.7740
 2657SOL     OW19603   2.486   0.797   9.768 -0.2992  0.1592  0.8268
 2657SOL    HW119604   2.467   0.851   9.845  2.7264  2.3600  0.0170
 2657SOL    HW219605   2.436   0.835   9.695 -2.2467  0.7625  2.4558
 2658SOL     OW19606   1.962   3.338   8.026  0.2629 -0.0176  0.3727
 2658SOL    HW119607   1.945   3.259   7.975 -1.2304 -1.7066  3.4308
 2658SOL    HW219608   2.038   3.370   7.977  0.2083  0.3749  0.5427
 2659SOL     OW19609   1.819   3.329   3.813 -0.1473  0.3704  0.6224
 2659SOL    HW119610   1.730   3.357   3.836 -1.2435 -1.8452 -0.8447
 2659SOL    HW219611   1.803   3.305   3.722  0.5533  0.7174  0.4133
 2660SOL     OW19612   3.076   1.661   3.281  0.2296  0.7618  1.0158
 2660SOL    HW119613   3.052   1.738   3.334 -0.0560  2.1192 -1.0852
 2660SOL    HW219614   3.031   1.685   3.200  1.1299  0.3831  0.4113
 2661SOL     OW19615   1.711   0.107   7.445  0.4875 -0.1730 -0.1981
 2661SOL    HW119616   1.623   0.071   7.433  0.3847 -0.0463  0.1425
 2661SOL    HW219617   1.735   0.163   7.372  0.6567 -0.6907 -0.5351
 2662SOL     OW19618   2.597   0.400   7.759 -0.1303 -0.2112 -0.6247
 2662SOL    HW119619   2.600   0.349   7.678  0.5173  0.7563 -1.2109
 2662SOL    HW219620   2.577   0.489   7.730  0.4978  0.0272 -0.3334
 2663SOL     OW19621   2.942   0.614   7.318 -0.1755  0.2796  0.1770
 2663SOL    HW119622   3.009   0.584   7.380  0.0437  0.5987  0.0952
 2663SOL    HW219623   2.856   0.607   7.359  0.4601  2.3704  1.9364
 2664SOL     OW19624   2.441   1.731   9.082 -0.0744 -0.2909  0.2814
 2664SOL    HW119625   2.532   1.742   9.052 -0.4846  1.3759 -0.3637
 2664SOL    HW219626   2.448   1.655   9.140 -0.7781  1.3198  2.4806
 2665SOL     OW19627   1.400   0.302  14.554  0.2261  0.0800  0.3033
 2665SOL    HW119628   1.343   0.362  14.507  0.2858 -0.7309 -0.7984
 2665SOL    HW219629   1.482   0.317  14.507 -0.5304  0.9069 -0.7351
 2666SOL     OW19630   0.865   2.950   6.153  0.3876 -0.0819  0.4218
 2666SOL    HW119631   0.910   2.995   6.224  0.9952  0.2875 -0.1996
 2666SOL    HW219632   0.862   3.018   6.086  1.7276  1.1030  1.5905
 2667SOL     OW19633   3.235   2.668   1.511 -0.4727 -0.4551  0.1061
 2667SOL    HW119634   3.285   2.696   1.588  1.4419 -2.1900 -0.5110
 2667SOL    HW219635   3.263   2.578   1.498  0.8296  0.1143 -0.9669
 2668SOL     OW19636   3.668   2.007   2.501  0.5109 -0.0622 -0.1443
 2668SOL    HW119637   3.719   1.945   2.449  1.1307  0.5052 -0.2219
 2668SOL    HW219638   3.652   1.960   2.583 -0.9429 -1.8361 -1.4689
 2669SOL     OW19639   0.150   0.203   7.686 -0.2216  0.5511  0.1232
 2669SOL    HW119640   0.070   0.199   7.739  0.1088  2.0117  0.7449
 2669SOL    HW219641   0.119   0.164   7.604  0.1757 -1.5758  0.9835
 2670SOL     OW19642   0.518   3.328   8.922  0.1681  0.0972  0.3551
 2670SOL    HW119643   0.571   3.329   8.843 -1.5298 -1.2427 -0.8052
 2670SOL    HW219644   0.531   3.241   8.960 -0.7376 -0.4040 -0.4689
 2671SOL     OW19645   4.492   4.452  11.611 -0.8575  0.2861 -0.5341
 2671SOL    HW119646   4.492   4.370  11.562 -0.4947 -0.0714  0.0653
 2671SOL    HW219647   4.585   4.463  11.630 -1.7320  3.8002  1.7706
 2672SOL     OW19648   4.353   0.359   8.837 -0.4841 -0.1354  0.2787
 2672SOL    HW119649   4.309   0.296   8.894  0.4346  1.4159  2.6841
 2672SOL    HW219650   4.276   0.416   8.834 -0.7269 -0.4195  1.4265
 2673SOL     OW19651   1.338   1.601  14.682  0.0980 -0.2239 -0.3975
 2673SOL    HW119652   1.360   1.538  14.750 -0.3528  1.5531  1.3949
 2673SOL    HW219653   1.357   1.544  14.608 -1.3314  0.4993 -1.3301
 2674SOL     OW19654   0.529   2.677  12.348 -0.2361 -0.8910 -0.6318
 2674SOL    HW119655   0.506   2.735  12.276  0.2076  0.5800  0.4101
 2674SOL    HW219656   0.548   2.731  12.425  0.2982 -1.4214 -0.4012
 2675SOL     OW19657   4.714   0.584  15.515 -0.4233  0.1473  0.4850
 2675SOL    HW119658   4.716   0.557  15.607 -0.5271  1.7049  0.9547
 2675SOL    HW219659   4.650   0.522  15.481 -0.1910  1.3055 -2.0194
 2676SOL     OW19660   3.949   2.145   8.292 -0.3608 -0.0940 -0.0061
 2676SOL    HW119661   3.918   2.081   8.355 -0.0266 -0.5921 -0.3468
 2676SOL    HW219662   3.915   2.114   8.208 -1.8564  0.2675  0.4703
 2677SOL     OW19663   3.399   1.885   8.786 -0.0736  0.2793 -0.2266
 2677SOL    HW119664   3.405   1.964   8.732  2.8834 -0.2323 -0.6329
 2677SOL    HW219665   3.493   1.872   8.799 -0.4347 -1.6569  0.5104
 2678SOL     OW19666   1.587   1.246  16.327  0.2558  0.0539  0.0092
 2678SOL    HW119667   1.592   1.325  16.274 -3.9620 -0.4476 -1.0906
 2678SOL    HW219668   1.679   1.224  16.347  0.3030  0.0536 -0.2159
 2679SOL     OW19669   2.274   2.733   8.242  0.0888 -0.2513 -0.0052
 2679SOL    HW119670   2.237   2.679   8.312 -1.9286 -0.4639 -1.2250
 2679SOL    HW219671   2.368   2.721   8.254  0.1734  1.3440  1.0058
 2680SOL     OW19672   2.325   1.255   6.187  0.0270 -0.1240 -0.2234
 2680SOL    HW119673   2.255   1.203   6.147 -0.2410  0.0539  0.0117
 2680SOL    HW219674   2.292   1.345   6.181 -0.7278 -0.2118  2.5999
 2681SOL     OW19675   2.930   1.715   2.360  0.0634 -0.5494  0.0154
 2681SOL    HW119676   2.938   1.663   2.280  0.0436 -1.3677  0.5419
 2681SOL    HW219677   2.860   1.670   2.408 -1.7862  2.0044 -0.2929
 2682SOL     OW19678   1.308   3.316   4.044  0.2521 -0.3371 -0.1699
 2682SOL    HW119679   1.215   3.320   4.069 -0.1602 -2.9983 -1.2876
 2682SOL    HW219680   1.339   3.312   4.135  0.2647  3.2155 -0.0150
 2683SOL     OW19681   2.407   3.521  14.764 -0.4382  0.2691 -0.6368
 2683SOL    HW119682   2.364   3.468  14.696 -0.0788  0.3917 -0.9598
 2683SOL    HW219683   2.356   3.602  14.761 -0.8980  0.0191  0.5786
 2684SOL     OW19684   4.171   2.940   6.599  0.3168 -0.4447  0.1783
 2684SOL    HW119685   4.093   2.884   6.601 -0.4505  0.5956 -0.4432
 2684SOL    HW219686   4.152   3.000   6.671 -1.5858 -1.3425  0.4315
 2685SOL     OW19687   1.134   0.726   3.702  0.2719 -0.7622 -0.1020
 2685SOL    HW119688   1.094   0.707   3.787  1.2895  1.2901  0.8270
 2685SOL    HW219689   1.064   0.699   3.641  0.5105  1.5659 -1.4188
 2686SOL     OW19690   0.673   0.638   5.699 -0.4818 -0.1485 -0.7102
 2686SOL    HW119691   0.717   0.723   5.706  0.1362 -0.4339 -1.1408
 2686SOL    HW219692   0.685   0.603   5.787  3.0120 -0.1703 -1.2130
 2687SOL     OW19693   4.138   3.372   2.144  0.5016 -0.2238  0.1736
 2687SOL    HW119694   4.207   3.310   2.122  0.0227 -1.5536  2.4916
 2687SOL    HW219695   4.070   3.305   2.149  0.3502 -0.0466  0.5314
 2688SOL     OW19696   3.423   2.477   9.339 -0.1929 -0.7314  0.4976
 2688SOL    HW119697   3.499   2.463   9.283 -0.2946  1.1680 -0.1222
 2688SOL    HW219698   3.352   2.450   9.281  2.2900 -1.7302 -2.0904
 2689SOL     OW19699   3.067   0.763   9.783  0.1598  0.2255 -0.3599
 2689SOL    HW119700   2.972   0.759   9.792  0.3593  0.1362  1.8947
 2689SOL    HW219701   3.070   0.825   9.711 -0.1096  0.2284 -0.3690
 2690SOL     OW19702   3.502   0.819   8.984 -0.2973  0.4870 -0.0980
 2690SOL    HW119703   3.522   0.787   9.072 -1.4019  0.6892  0.2302
 2690SOL    HW219704   3.407   0.822   8.993 -0.4048  1.1363 -1.3773
 2691SOL     OW19705   3.191   3.607   9.132  0.1101  0.6656 -0.4834
 2691SOL    HW119706   3.164   3.654   9.053 -1.5407 -0.5143 -0.6112
 2691SOL    HW219707   3.281   3.638   9.139  0.1034  0.6938 -0.5233
 2692SOL     OW19708   2.777   0.876   8.747  0.2942  0.3997 -0.4963
 2692SOL    HW119709   2.781   0.968   8.774  1.0260 -0.0298  0.8417
 2692SOL    HW219710   2.828   0.881   8.666 -1.3946  1.8531 -1.4912
 2693SOL     OW19711   4.518   1.154   5.130  0.6956  0.2322  0.6272
 2693SOL    HW119712   4.547   1.072   5.169 -1.0081 -0.1030  1.2037
 2693SOL    HW219713   4.466   1.111   5.062  1.3972 -1.5485  1.2229
 2694SOL     OW19714   4.317   4.429   5.696  0.1204 -0.1737  0.1659
 2694SOL    HW119715   4.332   4.335   5.706 -1.6157 -0.4904 -0.1709
 2694SOL    HW219716   4.314   4.458   5.787  0.8708 -1.0312  0.4671
 2695SOL     OW19717   0.343   0.479  12.626 -0.0726 -0.2835 -0.2600
 2695SOL    HW119718   0.351   0.564  12.582  1.6484 -0.0301  0.5801
 2695SOL    HW219719   0.403   0.486  12.700 -0.3854  1.0189 -0.1278
 2696SOL     OW19720   4.214   4.622   9.121  0.5030  0.1892  0.1889
 2696SOL    HW119721   4.260   4.580   9.049  0.8920 -1.5040  1.4296
 2696SOL    HW219722   4.279   4.603   9.189  0.4403 -0.2365  0.1255
 2697SOL     OW19723   0.626   4.016   2.341 -0.3048  0.5142 -0.6305
 2697SOL    HW119724   0.692   4.067   2.295 -1.7175  2.3566 -0.5820
 2697SOL    HW219725   0.558   4.001   2.275 -1.2746 -1.5177  0.8327
 2698SOL     OW19726   3.467   4.275   1.761 -0.4274  0.1756  0.4422
 2698SOL    HW119727   3.453   4.191   1.716  1.7771  0.3190 -0.4825
 2698SOL    HW219728   3.530   4.318   1.705 -0.9485 -1.1222 -1.1454
 2699SOL     OW19729   2.800   2.355  13.858  0.1918  0.7939 -0.5040
 2699SOL    HW119730   2.818   2.411  13.783 -0.5104  1.6090 -0.0721
 2699SOL    HW219731   2.790   2.415  13.932 -1.7884  0.2537 -0.3258
 2700SOL     OW19732   1.368   3.353   6.427 -0.3494  0.0903  0.2986
 2700SOL    HW119733   1.307   3.350   6.501 -0.5356  1.0215  0.1755
 2700SOL    HW219734   1.410   3.436   6.450 -0.7506 -0.4013  2.8641
 2701SOL     OW19735   3.261   0.097   4.185 -0.3668  0.1271 -0.1797
 2701SOL    HW119736   3.348   0.093   4.224 -0.4118  0.5669 -0.0379
 2701SOL    HW219737   3.219   0.012   4.201  0.8351 -0.3216  0.6519
 2702SOL     OW19738   1.347   3.432   5.512 -0.2943  0.3195  0.2384
 2702SOL    HW119739   1.421   3.419   5.572  0.6319 -0.2224 -1.0238
 2702SOL    HW219740   1.272   3.411   5.567  0.9308 -2.1388  0.9767
 2703SOL     OW19741   3.237   0.100  15.738  0.1045  0.2626  0.1527
 2703SOL    HW119742   3.194   0.018  15.761 -1.4154  0.4096 -2.1566
 2703SOL    HW219743   3.168   0.118  15.674  0.1928  0.8342  0.2111
 2704SOL     OW19744   3.124   4.581   7.020 -0.1151 -0.4080 -0.1915
 2704SOL    HW119745   3.200   4.639   7.022  0.3698 -1.0986  1.8210
 2704SOL    HW219746   3.073   4.635   7.080  1.5282 -0.5426  1.3365
 2705SOL     OW19747   2.464   1.315  14.152 -0.7435  0.2293  0.1271
 2705SOL    HW119748   2.411   1.363  14.088 -2.0887  0.0155  1.0771
 2705SOL    HW219749   2.403   1.254  14.194 -0.6119  1.1702  1.6699
 2706SOL     OW19750   3.148   3.973   9.145 -0.0749  0.0617 -0.4764
 2706SOL    HW119751   3.196   3.911   9.200  0.7430  0.6064 -0.5824
 2706SOL    HW219752   3.218   4.019   9.100 -0.8234  2.7716  1.0951
 2707SOL     OW19753   4.432   2.802  16.830 -0.0919 -0.2822  0.5454
 2707SOL    HW119754   4.430   2.865  16.902  2.0989 -0.1218  0.4799
 2707SOL    HW219755   4.374   2.847  16.768 -0.6955 -0.7224  0.7883
 2708SOL     OW19756   2.750   1.443   3.239 -0.0849 -0.4484 -0.7351
 2708SOL    HW119757   2.846   1.446   3.229  0.2469 -1.3288  2.1631
 2708SOL    HW219758   2.726   1.519   3.186 -0.7055 -0.0955  0.0643
 2709SOL     OW19759   3.550   4.316   2.732 -0.5348  0.1908 -0.0892
 2709SOL    HW119760   3.590   4.278   2.810 -0.1398  0.5156 -0.1340
 2709SOL    HW219761   3.532   4.401   2.773  2.3322  0.7563  0.0059
 2710SOL     OW19762   2.383   3.454  11.990  0.3175  0.2683 -0.0246
 2710SOL    HW119763   2.310   3.473  12.050 -0.5349  0.2896 -1.0769
 2710SOL    HW219764   2.397   3.539  11.948 -1.3539  0.7591  0.3944
 2711SOL     OW19765   2.025   0.178   5.365 -0.3123  0.1353 -0.5236
 2711SOL    HW119766   1.955   0.195   5.428  0.7912  1.8351  0.2228
 2711SOL    HW219767   2.028   0.082   5.359  1.2030  0.1610 -0.0549
 2712SOL     OW19768   1.163   0.530   9.914 -0.7675 -0.1632 -0.0959
 2712SOL    HW119769   1.214   0.599   9.873 -1.4040  1.0916  1.2597
 2712SOL    HW219770   1.082   0.581   9.915  0.4066  1.6956  0.2533
 2713SOL     OW19771   0.379   0.871  11.701 -0.1982 -0.1165 -0.0753
 2713SOL    HW119772   0.287   0.852  11.683 -0.5359 -0.0334  1.5207
 2713SOL    HW219773   0.382   0.849  11.794  0.7767  2.5663  0.5316
 2714SOL     OW19774   2.407   1.198  11.766 -0.0961  0.3639 -0.3399
 2714SOL    HW119775   2.319   1.179  11.799 -1.2594  0.8744 -3.1430
 2714SOL    HW219776   2.434   1.250  11.842 -0.6928 -1.4835  1.1553
 2715SOL     OW19777   1.404   4.707   8.097  0.2905  0.1736  0.5516
 2715SOL    HW119778   1.332   0.034   8.083  0.1174 -0.0598  0.4033
 2715SOL    HW219779   1.475   0.015   8.050 -0.7463  0.0965 -1.0670
 2716SOL     OW19780   1.610   3.711   9.108 -0.8152 -0.4720  0.0366
 2716SOL    HW119781   1.617   3.646   9.038 -1.1800 -0.4013 -0.0614
 2716SOL    HW219782   1.644   3.790   9.067 -2.3912  0.0473 -0.2571
 2717SOL     OW19783   1.385   4.577  10.872 -0.2021 -0.1757  0.5404
 2717SOL    HW119784   1.445   4.505  10.852  0.8971  1.3669 -1.6117
 2717SOL    HW219785   1.444   4.633  10.923 -0.1499 -0.0594  0.3502
 2718SOL     OW19786   1.344   2.313   1.827 -0.5671 -0.0810  0.3428
 2718SOL    HW119787   1.375   2.375   1.894  0.5618 -1.3425  0.9789
 2718SOL    HW219788   1.389   2.346   1.749  0.9558  0.2011  1.3371
 2719SOL     OW19789   3.364   2.063   6.613 -0.2953  0.1135  0.1985
 2719SOL    HW119790   3.279   2.048   6.655 -0.5398  0.2388 -0.2557
 2719SOL    HW219791   3.406   1.979   6.631  0.7166  0.4787 -0.4353
 2720SOL     OW19792   4.342   4.669   4.046 -0.2317  0.4237  0.2125
 2720SOL    HW119793   4.390   4.659   4.128 -0.1775  1.0016  0.2508
 2720SOL    HW219794   4.278   0.002   4.066  0.6446  1.6430 -1.1656
 2721SOL     OW19795   0.810   2.172  12.700 -0.0931 -0.0746  0.3817
 2721SOL    HW119796   0.899   2.209  12.698 -0.9841  2.1334  1.1220
 2721SOL    HW219797   0.810   2.102  12.635 -1.7282 -0.1260  0.4433
 2722SOL     OW19798   2.505   3.623   7.209  0.9749  0.1500 -0.2400
 2722SOL    HW119799   2.528   3.708   7.247  0.4962  0.9659 -1.7852
 2722SOL    HW219800   2.551   3.630   7.126  1.2259 -0.1348 -0.1236
 2723SOL     OW19801   3.163   2.567   5.657  0.2383  0.5877  0.1803
 2723SOL    HW119802   3.076   2.604   5.649 -0.4664 -0.9634  0.6129
 2723SOL    HW219803   3.157   2.482   5.701 -1.2541 -0.1992 -1.5565
 2724SOL     OW19804   2.464   0.891  10.697  0.1568  0.3425  0.0272
 2724SOL    HW119805   2.523   0.899  10.622  0.8179 -1.0167  0.4016
 2724SOL    HW219806   2.387   0.943  10.676 -1.2627 -2.3153 -1.4362
 2725SOL     OW19807   1.370   2.613  14.724  0.2135  0.2028 -0.1153
 2725SOL    HW119808   1.337   2.536  14.771 -3.7182  1.8939 -0.0479
 2725SOL    HW219809   1.429   2.581  14.657 -0.3514 -1.9145  0.3973
 2726SOL     OW19810   2.017   1.325   8.929  0.6070 -0.3144 -0.3058
 2726SOL    HW119811   2.100   1.374   8.924  1.0791 -1.0199  0.6856
 2726SOL    HW219812   2.029   1.266   8.855 -2.0776 -0.8869 -0.2649
 2727SOL     OW19813   4.361   2.942  15.423 -0.9862  0.0331  0.9792
 2727SOL    HW119814   4.395   2.969  15.508 -0.2924 -0.8204  0.9730
 2727SOL    HW219815   4.389   2.850  15.414 -0.4317  0.2126  0.8651
 2728SOL     OW19816   0.386   3.749   5.045 -0.4878 -0.4203  0.4516
 2728SOL    HW119817   0.359   3.664   5.080  0.4740 -1.2072 -0.7321
 2728SOL    HW219818   0.312   3.762   4.986  1.5900  0.1445 -2.0103
 2729SOL     OW19819   2.587   3.327   4.591 -0.3326  0.1219  0.2984
 2729SOL    HW119820   2.673   3.366   4.606 -0.8669  0.9331  1.2433
 2729SOL    HW219821   2.538   3.409   4.585  0.9831  0.7865 -1.3194
 2730SOL     OW19822   3.400   0.552   6.739 -0.3560  0.0116  0.2586
 2730SOL    HW119823   3.391   0.646   6.720 -0.8338 -0.2825 -0.9732
 2730SOL    HW219824   3.410   0.550   6.834  0.9402 -1.8945  0.0634
 2731SOL     OW19825   0.465   3.661   1.875 -0.0795 -0.9796 -0.2693
 2731SOL    HW119826   0.393   3.608   1.841 -0.7129  0.0403 -0.5098
 2731SOL    HW219827   0.453   3.745   1.830  1.8923 -0.8179 -0.4804
 2732SOL     OW19828   0.800   2.665  14.320  0.4255  0.2837  0.2205
 2732SOL    HW119829   0.886   2.689  14.354 -0.8617  1.3992  2.6621
 2732SOL    HW219830   0.747   2.690  14.395  0.6498 -1.9182  1.1155
 2733SOL     OW19831   3.897   4.077   8.989  0.1817 -0.4724  0.0345
 2733SOL    HW119832   3.889   4.165   8.953 -1.8647  0.1105  1.9139
 2733SOL    HW219833   3.814   4.070   9.036 -0.2170  2.0500 -0.2748
 2734SOL     OW19834   2.848   0.766   5.093  0.3406 -0.2183 -0.0071
 2734SOL    HW119835   2.851   0.671   5.105  1.8491 -0.1278  0.2846
 2734SOL    HW219836   2.797   0.796   5.168 -0.5217  1.5010 -1.2933
 2735SOL     OW19837   0.415   4.281  17.396  0.0632  0.1508 -0.1178
 2735SOL    HW119838   0.459   4.281  17.311 -0.9544 -0.2587 -0.6506
 2735SOL    HW219839   0.405   4.186  17.399 -1.6422  0.4089  1.9911
 2736SOL     OW19840   3.164   3.160  14.657 -1.0742  0.3303 -0.1312
 2736SOL    HW119841   3.076   3.185  14.686  0.0959  3.0582  0.9919
 2736SOL    HW219842   3.180   3.225  14.589 -0.3561  1.1619  0.8426
 2737SOL     OW19843   0.105   1.417   2.899  0.5195  0.2738 -0.5060
 2737SOL    HW119844   0.136   1.482   2.962 -2.2508  2.5519 -1.4844
 2737SOL    HW219845   0.010   1.433   2.896  0.0124 -2.3511  2.2209
 2738SOL     OW19846   4.057   2.767   5.190  0.5880  0.1738 -0.0051
 2738SOL    HW119847   4.075   2.773   5.096 -0.2775 -1.6144 -0.2873
 2738SOL    HW219848   4.102   2.686   5.213  0.1682  0.1124  0.6129
 2739SOL     OW19849   2.792   2.101   2.631  0.2004 -0.3120  0.1078
 2739SOL    HW119850   2.790   2.042   2.556 -0.0280  1.8905 -1.6047
 2739SOL    HW219851   2.748   2.177   2.593 -0.1414 -0.6314 -0.1436
 2740SOL     OW19852   0.699   0.191   0.448  0.9276 -0.6840  0.0845
 2740SOL    HW119853   0.760   0.255   0.485 -0.8204  2.2184 -2.0831
 2740SOL    HW219854   0.717   0.211   0.356 -0.3324  0.5882  0.1322
 2741SOL     OW19855   0.732   0.500   2.356 -0.7060 -0.5954  0.3852
 2741SOL    HW119856   0.735   0.539   2.443  0.2076  0.7417 -0.2343
 2741SOL    HW219857   0.691   0.414   2.364  1.7017 -2.0876 -3.0708
 2742SOL     OW19858   0.415   0.135   5.887  0.1183 -0.7385  0.1324
 2742SOL    HW119859   0.492   0.187   5.864 -0.7052  0.7192  0.6661
 2742SOL    HW219860   0.405   0.166   5.977  0.4335 -0.3734  0.0412
 2743SOL     OW19861   2.057   2.039   2.358  0.3286 -0.0129 -0.9951
 2743SOL    HW119862   2.073   1.993   2.276  3.1318 -2.9724  1.1683
 2743SOL    HW219863   2.094   1.973   2.417 -1.1258 -0.2543 -0.3564
 2744SOL     OW19864   0.331   4.055  14.960  0.2619 -0.0201 -0.2651
 2744SOL    HW119865   0.282   4.126  14.917  0.0320  0.0906  0.1755
 2744SOL    HW219866   0.411   4.100  14.987  0.8394 -0.4887 -1.2010
 2745SOL     OW19867   2.546   4.157   0.536 -0.2464  0.0088 -0.0040
 2745SOL    HW119868   2.493   4.194   0.465  1.4228 -0.0774 -1.2851
 2745SOL    HW219869   2.471   4.120   0.583  1.1952 -2.1362  0.5579
 2746SOL     OW19870   0.976   2.700   0.881  0.1728 -0.6686  0.9628
 2746SOL    HW119871   0.969   2.651   0.799 -0.5320  0.7657  0.1715
 2746SOL    HW219872   1.070   2.717   0.890  0.2048  0.1918 -0.9018
 2747SOL     OW19873   2.115   2.966  12.568  0.3353  0.2144  0.1765
 2747SOL    HW119874   2.166   2.887  12.585 -0.5127 -0.9879 -2.8512
 2747SOL    HW219875   2.045   2.952  12.632  1.5914  1.0782  1.7442
 2748SOL     OW19876   4.236   2.572   5.199  0.7630 -0.0469  0.6422
 2748SOL    HW119877   4.176   2.511   5.157  0.5597 -0.3096  1.3116
 2748SOL    HW219878   4.294   2.589   5.125 -1.1444  0.8888 -0.6470
 2749SOL     OW19879   0.364   1.364  10.461  0.0571 -0.3089  0.1354
 2749SOL    HW119880   0.322   1.440  10.419  3.0017 -0.1927 -2.6096
 2749SOL    HW219881   0.390   1.390  10.549 -0.2067 -0.9502  0.4056
 2750SOL     OW19882   0.557   4.019   4.549 -0.3570 -0.9205  0.1382
 2750SOL    HW119883   0.499   3.986   4.617 -2.1983  0.1565 -0.9184
 2750SOL    HW219884   0.640   3.984   4.581  0.5829  0.8196 -0.4020
 2751SOL     OW19885   4.208   2.931   2.062 -0.1179  0.1179 -0.2588
 2751SOL    HW119886   4.155   2.857   2.033  0.6804 -1.1141  1.4747
 2751SOL    HW219887   4.212   2.908   2.155  0.6442 -0.9108 -0.5577
 2752SOL     OW19888   1.835   0.815  15.343 -0.1496 -0.1008  0.0604
 2752SOL    HW119889   1.866   0.769  15.265  1.4460 -2.6633  2.2134
 2752SOL    HW219890   1.760   0.859  15.301  0.4214 -0.1469 -1.0068
 2753SOL     OW19891   1.881   2.680   9.659  0.3002  0.2330 -0.0558
 2753SOL    HW119892   1.973   2.669   9.634  0.2676  0.8141 -0.4357
 2753SOL    HW219893   1.845   2.597   9.630  1.2647  0.1728 -1.1218
 2754SOL     OW19894   3.969   2.539   3.818  0.1606  0.0857  0.5394
 2754SOL    HW119895   3.937   2.622   3.852 -0.1693  0.2824 -0.2489
 2754SOL    HW219896   3.929   2.481   3.884 -0.3365 -0.0088  0.1542
 2755SOL     OW19897   2.879   2.257   2.922 -0.5508  0.7929 -0.3331
 2755SOL    HW119898   2.810   2.310   2.961 -1.4459 -1.8746  1.7776
 2755SOL    HW219899   2.864   2.278   2.830  0.9247 -1.7499 -1.1710
 2756SOL     OW19900   2.747   4.028   3.150  0.2388  0.3127  0.0157
 2756SOL    HW119901   2.786   3.945   3.177 -0.8033  0.2875  1.4624
 2756SOL    HW219902   2.773   4.026   3.058 -2.1536 -1.1811 -0.6355
 2757SOL     OW19903   2.827   0.566   9.631  0.2054  0.2568  0.3523
 2757SOL    HW119904   2.793   0.623   9.700 -0.9718 -1.3526  1.0906
 2757SOL    HW219905   2.817   0.480   9.670  0.5827 -0.5187 -1.2484
 2758SOL     OW19906   1.886   0.612   4.533  0.5632 -0.1949  0.4888
 2758SOL    HW119907   1.930   0.697   4.524 -1.1413  0.5621 -0.6383
 2758SOL    HW219908   1.805   0.628   4.580  0.3114 -0.5703  0.1868
 2759SOL     OW19909   0.042   2.977   1.612  0.2543 -0.1618 -0.1076
 2759SOL    HW119910   4.683   2.989   1.625  0.4858  1.1297  0.3585
 2759SOL    HW219911   0.073   2.962   1.702 -0.6130  1.6200  0.4794
 2760SOL     OW19912   1.349   4.183   6.673 -1.0060 -0.3995  0.0768
 2760SOL    HW119913   1.279   4.238   6.638  0.4401 -0.1577 -2.4408
 2760SOL    HW219914   1.405   4.180   6.595 -0.9085 -0.6320  0.1568
 2761SOL     OW19915   1.523   0.418   4.705  0.5116  0.2371  0.1178
 2761SOL    HW119916   1.587   0.369   4.757  1.9081 -1.0032 -2.7601
 2761SOL    HW219917   1.506   0.495   4.759 -3.5786 -0.6088  0.0433
 2762SOL     OW19918   2.825   3.716   9.312 -0.3989 -0.0047 -0.2177
 2762SOL    HW119919   2.880   3.637   9.309  1.0238  0.9992 -0.8412
 2762SOL    HW219920   2.756   3.694   9.373 -0.5897  1.9133  0.2444
 2763SOL     OW19921   2.449   0.613   6.660  0.1151 -0.1854  0.3505
 2763SOL    HW119922   2.450   0.675   6.587 -1.0063  0.5769  0.9615
 2763SOL    HW219923   2.496   0.670   6.721 -0.7382  0.0841  0.7634
 2764SOL     OW19924   3.360   0.488   5.950  0.4348 -0.1768 -0.4414
 2764SOL    HW119925   3.348   0.510   6.042 -0.0380 -0.9413 -0.3237
 2764SOL    HW219926   3.270   0.468   5.923  0.0069  1.0423  0.0593
 2765SOL     OW19927   0.882   1.009   5.167  0.1042 -0.0344  0.4168
 2765SOL    HW119928   0.818   0.952   5.210  0.1115 -1.2963 -1.2465
 2765SOL    HW219929   0.877   0.987   5.074 -1.7436 -1.3030  0.8145
 2766SOL     OW19930   0.914   3.660   3.010  0.0704 -0.9400 -0.3404
 2766SOL    HW119931   0.913   3.752   2.984  0.4106 -1.5471 -2.4874
 2766SOL    HW219932   0.873   3.669   3.096  0.4608 -1.4395 -0.1000
 2767SOL     OW19933   3.204   1.558   4.483  0.7377  0.2605 -0.1931
 2767SOL    HW119934   3.132   1.612   4.450  1.3792  1.0263 -0.3381
 2767SOL    HW219935   3.195   1.560   4.578 -0.1406 -0.1739 -0.2584
 2768SOL     OW19936   4.182   0.806   6.998  0.0405  0.2348 -0.0596
 2768SOL    HW119937   4.261   0.770   7.038  0.1454  2.4721  1.7276
 2768SOL    HW219938   4.158   0.854   7.077  1.9199  1.5535 -0.2855
 2769SOL     OW19939   1.556   0.458   5.100 -0.5212 -0.1486  0.0326
 2769SOL    HW119940   1.611   0.466   5.178  0.4023 -1.1347 -0.5108
 2769SOL    HW219941   1.478   0.409   5.125  0.6565 -1.7554  0.5080
 2770SOL     OW19942   0.014   2.161   4.864  0.1485  0.8446  0.5826
 2770SOL    HW119943   4.684   2.119   4.920 -0.3841 -0.4606 -1.0215
 2770SOL    HW219944   4.705   2.157   4.779 -0.5822  2.4404  0.9042
 2771SOL     OW19945   1.034   0.069  11.682  0.2388 -0.6506 -0.0652
 2771SOL    HW119946   0.975   4.732  11.703 -0.2323 -0.2886 -0.1249
 2771SOL    HW219947   1.004   0.095  11.594  2.6066  0.0838 -0.6510
 2772SOL     OW19948   4.516   4.068   8.609 -0.5859  0.2050 -0.0852
 2772SOL    HW119949   4.524   3.973   8.614 -0.9556  0.2526  1.2634
 2772SOL    HW219950   4.475   4.088   8.693  3.3590  1.6313  1.4998
 2773SOL     OW19951   0.848   3.950   7.999 -0.2312  0.7081  0.0705
 2773SOL    HW119952   0.928   3.930   8.047  0.7923  0.4329 -1.7649
 2773SOL    HW219953   0.862   3.908   7.914 -0.6214  0.2114  0.2522
 2774SOL     OW19954   3.537   4.286  13.326  0.3357  0.2656  0.5949
 2774SOL    HW119955   3.459   4.327  13.365 -1.0862 -1.2679 -0.6452
 2774SOL    HW219956   3.585   4.368  13.309  0.8149  0.0386  0.8684
 2775SOL     OW19957   0.884   0.300   2.830 -0.6717  0.5054 -0.8081
 2775SOL    HW119958   0.844   0.246   2.763  0.1428 -0.5851 -0.4109
 2775SOL    HW219959   0.816   0.324   2.893  0.1141  2.6454 -0.7788
 2776SOL     OW19960   2.126   4.600   3.773  0.2159  0.0815  0.1101
 2776SOL    HW119961   2.050   4.586   3.716 -0.5632  0.6395  1.0034
 2776SOL    HW219962   2.199   4.552   3.736 -0.9838 -3.1971  2.0405
 2777SOL     OW19963   3.061   0.398   4.020 -0.8365 -0.2553  0.7054
 2777SOL    HW119964   3.150   0.365   4.023 -1.4500 -1.9549  0.0227
 2777SOL    HW219965   3.020   0.312   4.010 -2.1569  0.4780 -0.2848
 2778SOL     OW19966   1.809   2.902   8.804  0.2976  0.3195  0.6315
 2778SOL    HW119967   1.789   2.952   8.884  0.0126 -1.2613  1.5449
 2778SOL    HW219968   1.832   2.970   8.740  3.0571 -1.3214 -0.0936
 2779SOL     OW19969   4.257   0.643   2.837  0.2273 -0.2794 -0.4686
 2779SOL    HW119970   4.320   0.695   2.886 -0.2924 -0.6563  0.6199
 2779SOL    HW219971   4.242   0.568   2.895  0.1528  0.3415  0.3189
 2780SOL     OW19972   2.646   4.677   9.594  0.2008 -0.1413 -1.1871
 2780SOL    HW119973   2.681   4.599   9.638 -0.7913  0.9174  1.4817
 2780SOL    HW219974   2.583   4.692   9.664 -0.5192  0.2227 -1.9228
 2781SOL     OW19975   3.742   4.646   4.883 -0.3133 -0.4531  0.0489
 2781SOL    HW119976   3.724   4.563   4.927 -2.4871 -0.9731 -1.8087
 2781SOL    HW219977   3.677   4.699   4.929  0.7368  0.0711  0.9362
 2782SOL     OW19978   2.422   1.710  16.936  0.0477 -0.1083 -0.0174
 2782SOL    HW119979   2.508   1.729  16.973  0.1165  2.8275 -1.7034
 2782SOL    HW219980   2.392   1.647  17.001 -0.0168 -0.1789 -0.1148
 2783SOL     OW19981   4.472   2.497   2.045 -0.3255 -0.0001 -0.3292
 2783SOL    HW119982   4.510   2.530   1.963  0.1001  0.2777 -0.0199
 2783SOL    HW219983   4.398   2.442   2.019 -0.1213  0.2902 -1.5536
 2784SOL     OW19984   1.771   2.053   5.299  0.6605  0.0763  0.1338
 2784SOL    HW119985   1.759   1.964   5.266 -2.4711 -0.1416  1.7917
 2784SOL    HW219986   1.711   2.095   5.237 -2.5703 -2.1027  1.7829
 2785SOL     OW19987   4.163   0.061   6.242  0.5271 -0.7198  0.2516
 2785SOL    HW119988   4.142   0.043   6.150  0.5389  1.9090 -0.2615
 2785SOL    HW219989   4.214   0.141   6.231 -0.9143  0.3372  1.2803
 2786SOL     OW19990   1.026   4.463  15.292 -0.0234 -0.2077  0.1892
 2786SOL    HW119991   0.947   4.422  15.257  0.4104 -0.3391 -0.6434
 2786SOL    HW219992   1.088   4.390  15.289  0.9690  0.6969 -1.8837
 2787SOL     OW19993   0.106   2.487   9.902 -0.3912  0.3668  0.4662
 2787SOL    HW119994   0.041   2.448   9.960 -0.7399  0.3494  0.0579
 2787SOL    HW219995   0.187   2.450   9.938  0.1063 -1.3691 -2.4509
 2788SOL     OW19996   3.414   1.411   4.366 -0.3718 -0.5092 -0.0855
 2788SOL    HW119997   3.402   1.434   4.274  0.3627 -1.0547 -0.3132
 2788SOL    HW219998   3.338   1.456   4.402  0.1350  0.5919 -0.4032
 2789SOL     OW19999   0.228   0.652   8.345 -0.0983  0.3360 -0.3624
 2789SOL    HW120000   0.297   0.609   8.295 -2.0062 -0.8975 -1.9319
 2789SOL    HW220001   0.260   0.731   8.389  1.8195 -0.4873 -0.3075
 2790SOL     OW20002   3.810   1.246   5.630 -0.3158 -0.2479  0.5324
 2790SOL    HW120003   3.812   1.188   5.706 -2.3703 -1.2552 -0.1936
 2790SOL    HW220004   3.823   1.331   5.673  0.7033  0.0893 -0.4233
 2791SOL     OW20005   1.727   0.383   3.899 -0.4045  0.8538 -0.2712
 2791SOL    HW120006   1.633   0.373   3.884 -0.5005 -0.8547  1.4787
 2791SOL    HW220007   1.750   0.307   3.846  0.5117  0.2235  1.0405
 2792SOL     OW20008   4.587   4.023   3.830  0.0121  0.3924 -0.4881
 2792SOL    HW120009   4.496   4.020   3.800  0.1739  0.3319 -0.9685
 2792SOL    HW220010   4.595   4.117   3.844  0.5846  0.2756 -0.0110
 2793SOL     OW20011   1.079   4.279   2.568 -0.2509 -0.0540 -0.5130
 2793SOL    HW120012   1.171   4.305   2.571 -0.3126  0.2515 -1.2899
 2793SOL    HW220013   1.078   4.211   2.501 -0.4660  1.1731 -1.7386
 2794SOL     OW20014   0.693   3.910  13.547 -0.5288 -0.3156  0.2454
 2794SOL    HW120015   0.656   3.987  13.591  1.7249  0.4843  0.7298
 2794SOL    HW220016   0.742   3.870  13.619  0.0614 -1.2730 -0.7002
 2795SOL     OW20017   0.828   3.694   4.961 -0.2242  0.2855  0.4381
 2795SOL    HW120018   0.791   3.609   4.985  1.7319  0.1920  3.0558
 2795SOL    HW220019   0.756   3.752   4.984  0.6749  1.0932  1.1490
 2796SOL     OW20020   2.169   3.085   4.961  0.2806 -0.3389 -0.0730
 2796SOL    HW120021   2.147   3.075   4.868 -1.7159  1.3606  0.2415
 2796SOL    HW220022   2.198   3.175   4.971  0.4497 -0.0682 -2.8746
 2797SOL     OW20023   4.558   4.469   6.128  0.2534  0.1235 -0.5488
 2797SOL    HW120024   4.585   4.385   6.165  1.5629  1.6874  2.0143
 2797SOL    HW220025   4.488   4.495   6.187  2.0202  1.2905  1.0096
 2798SOL     OW20026   0.445   2.840  12.140  0.8095  0.3450  0.0213
 2798SOL    HW120027   0.350   2.827  12.136  1.0870 -1.5922 -0.7414
 2798SOL    HW220028   0.471   2.925  12.104  0.8451  1.1545  1.9610
 2799SOL     OW20029   0.546   4.621  11.975 -0.4206 -0.2744  0.1826
 2799SOL    HW120030   0.500   4.606  11.892  1.4066  2.3298 -1.2953
 2799SOL    HW220031   0.479   4.592  12.037  0.1019  0.5720  1.1492
 2800SOL     OW20032   2.028   3.265  11.647  0.2543  0.4343  0.8990
 2800SOL    HW120033   2.057   3.313  11.725 -1.2341  2.2159  0.3757
 2800SOL    HW220034   2.091   3.271  11.576  0.1108  0.9196  0.8086
 2801SOL     OW20035   1.010   3.106   4.002 -0.2841 -0.4854 -0.2649
 2801SOL    HW120036   1.015   3.173   3.934  2.6896  0.0770  0.5344
 2801SOL    HW220037   0.943   3.056   3.955 -2.2491  2.7621 -0.9055
 2802SOL     OW20038   3.053   0.313   8.333 -0.3142 -0.0608 -0.1307
 2802SOL    HW120039   3.052   0.254   8.408 -0.4195 -0.5988 -0.5549
 2802SOL    HW220040   2.963   0.346   8.333 -0.6085 -0.8861  0.5972
 2803SOL     OW20041   3.342   4.272   2.004  0.4297 -0.8153  0.1637
 2803SOL    HW120042   3.351   4.178   2.016 -0.0710 -1.1722 -2.2553
 2803SOL    HW220043   3.362   4.276   1.910  1.3667 -3.1704  0.2665
 2804SOL     OW20044   1.697   1.887   1.127  0.4858 -0.0480 -0.2636
 2804SOL    HW120045   1.648   1.870   1.046  0.3037 -2.6384  0.3782
 2804SOL    HW220046   1.752   1.810   1.144  0.4973  0.4325  1.8342
 2805SOL     OW20047   0.776   2.116   6.949  0.7166  0.8951  0.2757
 2805SOL    HW120048   0.744   2.036   6.905 -2.2534  1.9517  0.4983
 2805SOL    HW220049   0.866   2.122   6.917  1.0107  0.0691  0.9576
 2806SOL     OW20050   3.095   1.197  11.171 -0.4984  0.0959 -0.0945
 2806SOL    HW120051   3.109   1.107  11.141 -1.1335 -0.0182 -0.0468
 2806SOL    HW220052   3.163   1.193  11.238  1.0284 -1.2566 -1.7189
 2807SOL     OW20053   2.896   0.472   9.949 -0.2556  0.5711  0.4843
 2807SOL    HW120054   2.858   0.559   9.962  1.9673  1.6251  0.0319
 2807SOL    HW220055   2.835   0.428   9.890  0.5034 -1.3952  1.1622
 2808SOL     OW20056   2.561   0.687   7.634 -0.0610 -0.0558  0.4616
 2808SOL    HW120057   2.483   0.721   7.678  1.4700  1.0568  2.2651
 2808SOL    HW220058   2.579   0.759   7.574  0.4858 -0.8182 -0.2861
 2809SOL     OW20059   3.955   2.936  14.424  0.2406  0.9992 -0.2827
 2809SOL    HW120060   3.892   2.965  14.491 -0.0733  0.0679 -0.1749
 2809SOL    HW220061   3.940   2.997  14.352 -1.8073 -0.3034 -0.9692
 2810SOL     OW20062   3.784   4.184   4.201 -0.7896  0.4185 -0.3656
 2810SOL    HW120063   3.790   4.156   4.109 -3.4196  1.6591 -0.9308
 2810SOL    HW220064   3.766   4.278   4.202  1.0219  0.7748 -0.7531
 2811SOL     OW20065   2.306   0.883   0.050  0.2765  0.3208 -0.1227
 2811SOL    HW120066   2.281   0.974   0.067  0.6339  0.5964 -1.0929
 2811SOL    HW220067   2.269   0.872  17.702  1.3158 -1.7567 -0.3049
 2812SOL     OW20068   4.492   2.658   9.317 -0.1350  0.2591 -0.5227
 2812SOL    HW120069   4.517   2.727   9.256  1.4035  0.0904 -0.0872
 2812SOL    HW220070   4.424   2.610   9.270  0.2576 -0.8096 -0.0289
 2813SOL     OW20071   1.104   0.472   3.145 -0.3029 -0.4928 -0.5976
 2813SOL    HW120072   1.009   0.482   3.150 -0.1437 -0.5831  2.5895
 2813SOL    HW220073   1.127   0.515   3.063 -2.2208  1.8676  0.0874
 2814SOL     OW20074   4.226   3.634   2.219  0.9157  0.4464  0.2334
 2814SOL    HW120075   4.209   3.547   2.183 -0.7911  0.9262 -0.1055
 2814SOL    HW220076   4.198   3.686   2.143  0.0525 -0.3630 -0.0016
 2815SOL     OW20077   4.549   0.860  12.177 -0.0850  0.1400 -0.3715
 2815SOL    HW120078   4.508   0.946  12.192  1.3069  0.8166 -0.4998
 2815SOL    HW220079   4.469   0.808  12.173 -0.6497  1.1322 -1.9414
 2816SOL     OW20080   2.896   0.221   7.825  0.0170 -0.7564  0.0280
 2816SOL    HW120081   2.805   0.251   7.829  0.8319  1.4769  1.9779
 2816SOL    HW220082   2.880   0.139   7.779  2.2489 -1.7884  1.0910
 2817SOL     OW20083   3.075   0.473   3.651 -0.4885 -0.2866 -0.3954
 2817SOL    HW120084   2.997   0.426   3.623 -0.0765 -1.5532  0.5692
 2817SOL    HW220085   3.036   0.532   3.715 -2.1740  0.2291 -1.8891
 2818SOL     OW20086   0.559   4.632   1.844 -0.0596 -0.0821 -0.2591
 2818SOL    HW120087   0.617   4.607   1.917  1.0532  0.8948 -0.8015
 2818SOL    HW220088   0.480   4.661   1.889 -0.8054 -2.0108 -0.3271
 2819SOL     OW20089   4.709   4.550   0.982 -0.3569 -0.3880 -0.0338
 2819SOL    HW120090   0.034   4.541   0.909 -0.5943 -1.8869 -0.0442
 2819SOL    HW220091   0.027   4.619   1.020  0.3922 -0.6482 -0.6219
 2820SOL     OW20092   3.915   4.190   2.334  0.3758  0.2306 -0.3820
 2820SOL    HW120093   3.963   4.181   2.416 -0.1524  1.9888  0.1202
 2820SOL    HW220094   3.824   4.186   2.361  0.5464 -1.0675 -0.0097
 2821SOL     OW20095   4.058   2.099   5.336 -0.1267 -0.4015  0.3989
 2821SOL    HW120096   4.051   2.023   5.278  0.2879  2.1795 -3.0255
 2821SOL    HW220097   3.967   2.097   5.364  0.6662  0.1163  3.0707
 2822SOL     OW20098   0.696   0.193   9.925 -0.0769  0.0015 -0.1559
 2822SOL    HW120099   0.677   0.278   9.963  0.4476 -0.8413  1.9679
 2822SOL    HW220100   0.784   0.169   9.954  0.0432  1.6101  0.7700
 2823SOL     OW20101   2.189   1.643   6.812 -0.5339 -0.0679  0.1485
 2823SOL    HW120102   2.272   1.666   6.855 -1.4513  1.8286  0.9252
 2823SOL    HW220103   2.173   1.555   6.845  0.7119  0.1128  1.2363
 2824SOL     OW20104   4.391   2.673   8.311 -0.2736  0.5173  0.2284
 2824SOL    HW120105   4.399   2.650   8.404 -0.0147 -0.0861  0.0543
 2824SOL    HW220106   4.416   2.591   8.269 -0.1747  0.7435 -0.1509
 2825SOL     OW20107   2.563   2.102  16.470  0.1742  0.6079  0.0815
 2825SOL    HW120108   2.597   2.047  16.541  3.0352 -0.0644 -1.8366
 2825SOL    HW220109   2.644   2.139  16.435 -0.6846  1.6622 -0.7955
 2826SOL     OW20110   2.550   2.758   8.326 -0.2569 -0.4441 -0.6743
 2826SOL    HW120111   2.610   2.684   8.316 -0.1947 -0.0451 -3.1944
 2826SOL    HW220112   2.525   2.739   8.417 -0.6129 -0.7913 -0.8432
 2827SOL     OW20113   2.754   4.521   5.527  0.1937  0.0829  0.1457
 2827SOL    HW120114   2.678   4.465   5.516  0.1682  0.2993 -0.7922
 2827SOL    HW220115   2.810   4.454   5.566 -0.5166 -0.0485  0.9406
 2828SOL     OW20116   2.494   4.270   5.798  0.3980 -0.2541  0.7820
 2828SOL    HW120117   2.403   4.260   5.770  0.4244  1.4960  0.0816
 2828SOL    HW220118   2.498   4.212   5.874 -2.2424 -0.7556  0.5520
 2829SOL     OW20119   0.289   0.767   0.869  0.3255 -0.6192  0.1236
 2829SOL    HW120120   0.321   0.681   0.898 -3.5463 -2.3321 -0.5643
 2829SOL    HW220121   0.350   0.834   0.897  0.7652 -0.8825 -0.2005
 2830SOL     OW20122   0.354   0.482   6.500  0.2856 -0.2530  0.6735
 2830SOL    HW120123   0.307   0.510   6.421 -1.3317 -1.7614  1.1018
 2830SOL    HW220124   0.410   0.549   6.539  1.9533 -0.8665 -0.6708
 2831SOL     OW20125   4.244   3.344   9.050  0.0812  0.4472 -0.6025
 2831SOL    HW120126   4.315   3.293   9.088 -0.7766 -0.9875 -0.9182
 2831SOL    HW220127   4.171   3.293   9.085  0.8944  0.7865  1.6247
 2832SOL     OW20128   4.625   2.019   4.136  0.2339  0.2210  0.2888
 2832SOL    HW120129   4.695   2.080   4.114  1.2513 -0.9632  0.2181
 2832SOL    HW220130   4.626   1.947   4.073  1.8558  1.2504 -0.8753
 2833SOL     OW20131   3.560   3.449  11.886  0.4736  0.0271 -0.8248
 2833SOL    HW120132   3.549   3.509  11.812  0.0273  0.3752 -0.4831
 2833SOL    HW220133   3.503   3.493  11.950  1.2341  0.4846 -0.4540
 2834SOL     OW20134   0.839   0.304  11.786  0.2721  0.2263  0.1382
 2834SOL    HW120135   0.823   0.224  11.836  2.3912 -0.4720 -0.2954
 2834SOL    HW220136   0.795   0.286  11.703  1.4628  0.3456 -0.5248
 2835SOL     OW20137   3.300   0.930   7.250 -0.3679 -0.0972  0.1817
 2835SOL    HW120138   3.308   0.923   7.154 -2.3487 -1.5018  0.1086
 2835SOL    HW220139   3.295   0.838   7.275  0.6967  0.3764  2.0479
 2836SOL     OW20140   2.556   4.529   8.828 -0.0323  0.2536 -0.2008
 2836SOL    HW120141   2.524   4.604   8.878 -0.6201  0.4082 -0.8128
 2836SOL    HW220142   2.575   4.461   8.893 -0.5929 -0.8825 -1.2055
 2837SOL     OW20143   0.582   1.804   9.988  0.2419  0.4646 -0.8472
 2837SOL    HW120144   0.624   1.753  10.057  3.4786  2.3947 -1.3901
 2837SOL    HW220145   0.638   1.772   9.917  0.9059 -0.3118  0.0119
 2838SOL     OW20146   4.422   0.729  14.835 -0.2304  0.4133 -0.3219
 2838SOL    HW120147   4.399   0.776  14.755  1.1881 -1.2443 -1.7213
 2838SOL    HW220148   4.440   0.802  14.894  0.9607  1.4323 -1.9362
 2839SOL     OW20149   0.915   0.144  11.441 -0.1019  0.1112 -0.3708
 2839SOL    HW120150   0.918   0.065  11.387  1.7787  1.0609 -1.6536
 2839SOL    HW220151   0.834   0.127  11.490  0.5857  0.6739  0.9435
 2840SOL     OW20152   2.211   2.965   1.769  0.0051 -0.2696 -0.6571
 2840SOL    HW120153   2.152   2.924   1.706  0.5200 -0.7566 -0.8276
 2840SOL    HW220154   2.213   2.906   1.844  2.0437  2.4067  1.3627
 2841SOL     OW20155   1.214   4.610   9.146 -0.3048 -0.5032  0.2797
 2841SOL    HW120156   1.279   4.623   9.215  0.1989 -1.4486 -0.0131
 2841SOL    HW220157   1.202   4.516   9.164 -1.0871 -0.4572  0.0036
 2842SOL     OW20158   2.202   3.929   1.228 -0.0197 -0.4762 -0.1269
 2842SOL    HW120159   2.298   3.925   1.230 -0.0738 -1.7794 -0.3852
 2842SOL    HW220160   2.181   3.853   1.175  0.1320 -0.8374  0.3338
 2843SOL     OW20161   4.733   2.732  16.925 -0.3774  0.3883  0.0081
 2843SOL    HW120162   4.685   2.658  16.961  0.4289 -0.2425 -0.2026
 2843SOL    HW220163   4.669   2.799  16.947 -0.8621  0.5339 -1.8603
 2844SOL     OW20164   3.431   1.161   2.158  0.0497 -0.2271 -0.0130
 2844SOL    HW120165   3.384   1.201   2.231 -1.1962 -0.5705 -0.6370
 2844SOL    HW220166   3.371   1.088   2.147  1.1088 -0.8923 -1.3403
 2845SOL     OW20167   3.394   3.302   3.765  0.2139 -0.3953 -0.0947
 2845SOL    HW120168   3.324   3.238   3.780 -0.3786  0.0137 -1.1307
 2845SOL    HW220169   3.345   3.378   3.733 -0.6167 -0.1571  1.7321
 2846SOL     OW20170   1.443   1.683   6.019 -0.5950 -0.2455  0.4854
 2846SOL    HW120171   1.537   1.667   6.021 -0.4862  0.2461 -1.0062
 2846SOL    HW220172   1.408   1.688   6.108  1.0687 -2.8905  1.2870
 2847SOL     OW20173   2.975   0.755  10.899  0.3428 -0.2429 -0.0716
 2847SOL    HW120174   3.065   0.785  10.908  0.4066 -0.5215  0.2364
 2847SOL    HW220175   2.974   0.677  10.844  4.0791 -0.6329  0.4430
 2848SOL     OW20176   1.833   2.370  10.454 -0.6197  0.4395 -0.2272
 2848SOL    HW120177   1.887   2.450  10.457 -2.3809  1.5861  0.9269
 2848SOL    HW220178   1.886   2.311  10.400 -1.4769  0.3829 -0.9901
 2849SOL     OW20179   4.641   3.308  14.351 -0.1174 -0.6589  0.3331
 2849SOL    HW120180   4.629   3.401  14.371  2.0479 -0.1720 -0.6700
 2849SOL    HW220181   4.573   3.261  14.400 -0.4916  0.2998  0.7327
 2850SOL     OW20182   1.478   1.332   7.999  0.3029  0.3521 -0.4155
 2850SOL    HW120183   1.499   1.416   7.959 -1.6524  2.1545  2.2811
 2850SOL    HW220184   1.559   1.325   8.050 -0.6778 -0.7586  1.0180
 2851SOL     OW20185   1.280   1.639   8.639  0.2461  0.0786  0.3203
 2851SOL    HW120186   1.333   1.566   8.668  1.2311  0.4220 -0.6031
 2851SOL    HW220187   1.332   1.680   8.570  1.8474  0.7444  1.9125
 2852SOL     OW20188   1.044   0.269   1.619 -0.3364  0.2240  0.2403
 2852SOL    HW120189   1.068   0.308   1.702 -0.5987  1.5319 -0.2915
 2852SOL    HW220190   0.948   0.268   1.629 -0.4593  0.0193 -0.9456
 2853SOL     OW20191   4.349   2.428  13.420 -0.3593  0.2403  0.0184
 2853SOL    HW120192   4.417   2.443  13.355 -1.5617  0.1933 -1.2634
 2853SOL    HW220193   4.394   2.375  13.485 -0.5668  0.0530  0.0092
 2854SOL     OW20194   0.129   3.606   9.061 -0.1401 -0.1141 -0.0740
 2854SOL    HW120195   0.041   3.633   9.089 -0.3630 -0.6232 -0.2885
 2854SOL    HW220196   0.180   3.618   9.141 -0.9608 -3.8896  1.0005
 2855SOL     OW20197   3.554   0.065   9.410 -0.1197  0.2929 -0.3638
 2855SOL    HW120198   3.548   4.734   9.341  2.2789  2.3176 -2.5217
 2855SOL    HW220199   3.519   0.146   9.373 -0.6826  1.1432  1.9821
 2856SOL     OW20200   0.035   4.179   3.409  0.2938 -0.4904 -0.1202
 2856SOL    HW120201   4.724   4.242   3.464 -0.2545 -1.2835  0.3346
 2856SOL    HW220202   0.003   4.205   3.322  0.2632 -2.0525 -0.5833
 2857SOL     OW20203   4.616   2.034   8.079  0.0657 -0.2108  0.3031
 2857SOL    HW120204   4.560   2.106   8.108  1.1739  1.4140 -1.6283
 2857SOL    HW220205   4.630   2.047   7.986  0.0105  0.2586  0.3612
 2858SOL     OW20206   1.364   3.386  13.872  0.3839  0.1485  0.0407
 2858SOL    HW120207   1.444   3.361  13.919  1.0068 -1.7213 -2.0125
 2858SOL    HW220208   1.299   3.420  13.933  0.9903 -0.3153  0.9381
 2859SOL     OW20209   2.077   2.615   3.500 -0.1476  0.2443  0.2939
 2859SOL    HW120210   2.113   2.526   3.506 -1.3035 -0.2148  0.4447
 2859SOL    HW220211   1.984   2.593   3.498  0.1165 -0.7069 -1.5157
 2860SOL     OW20212   1.845   1.076   7.391  0.0244 -0.4484 -0.0393
 2860SOL    HW120213   1.756   1.111   7.381 -0.0767 -0.0280  2.1379
 2860SOL    HW220214   1.874   1.131   7.464  5.0504 -3.0874 -0.0726
 2861SOL     OW20215   1.359   3.988   5.419 -0.0627  0.4574  0.0158
 2861SOL    HW120216   1.391   3.948   5.500 -3.1524 -1.4520  0.3117
 2861SOL    HW220217   1.296   3.918   5.401  2.6372 -2.5202  2.0636
 2862SOL     OW20218   2.826   2.680   6.646  0.0725  0.8239  0.2342
 2862SOL    HW120219   2.775   2.605   6.676 -0.0172  0.3397 -1.1519
 2862SOL    HW220220   2.794   2.740   6.713  2.1210 -0.3227  2.2495
 2863SOL     OW20221   0.954   2.850   5.158  0.2399 -0.0676 -0.6154
 2863SOL    HW120222   1.033   2.857   5.105  0.8889 -3.0153 -0.0494
 2863SOL    HW220223   0.993   2.891   5.235 -1.1693  1.0396 -0.4880
 2864SOL     OW20224   0.085   0.952  17.604  0.4215  0.4712 -0.2108
 2864SOL    HW120225   0.066   0.916  17.518  1.0203 -1.8406  0.6444
 2864SOL    HW220226   0.107   0.871  17.649 -1.1080 -0.0048 -0.3285
 2865SOL     OW20227   1.517   3.274  14.759  0.2211  0.3030 -0.5968
 2865SOL    HW120228   1.423   3.291  14.753 -0.3604 -1.8327  2.0339
 2865SOL    HW220229   1.563   3.327  14.694 -0.5374  2.3635  0.5441
 2866SOL     OW20230   4.715   0.278   8.096 -0.3213 -0.4506  0.5907
 2866SOL    HW120231   0.062   0.326   8.110 -0.6897  0.1759  0.6028
 2866SOL    HW220232   4.692   0.249   8.185  0.9243 -1.2470  0.6450
 2867SOL     OW20233   2.437   1.005   9.440 -0.0443  0.2884  0.0501
 2867SOL    HW120234   2.494   0.929   9.437 -0.9491 -0.4364  1.6593
 2867SOL    HW220235   2.374   0.984   9.508 -0.9549 -2.6779 -1.7256
 2868SOL     OW20236   1.300   2.806  11.175  0.0442 -0.1871  0.4392
 2868SOL    HW120237   1.347   2.761  11.104 -0.8912 -0.1452 -0.2178
 2868SOL    HW220238   1.224   2.820  11.119  1.3334 -0.8919 -1.5138
 2869SOL     OW20239   0.260   2.314   6.648  0.7001  0.6392  0.0215
 2869SOL    HW120240   0.182   2.294   6.596 -0.4961  0.1186  1.9812
 2869SOL    HW220241   0.244   2.399   6.690 -0.0668 -1.1807  3.4621
 2870SOL     OW20242   3.669   4.170   8.340 -0.6687 -0.4848 -0.3404
 2870SOL    HW120243   3.622   4.132   8.414 -2.6439  0.3811 -1.1394
 2870SOL    HW220244   3.726   4.229   8.389 -2.8906  0.3901  1.1909
 2871SOL     OW20245   2.122   1.912   2.139  0.0497 -0.0823  0.2233
 2871SOL    HW120246   2.213   1.886   2.125  0.7409  2.6854 -0.5349
 2871SOL    HW220247   2.062   1.850   2.098 -0.5482 -0.2090  1.2834
 2872SOL     OW20248   0.731   2.829   8.970 -0.6406 -0.2185  0.0546
 2872SOL    HW120249   0.705   2.872   8.889  1.8713 -0.3182 -0.8162
 2872SOL    HW220250   0.700   2.743   8.941  1.8951 -0.8089 -0.9007
 2873SOL     OW20251   4.295   3.765  11.021  0.1486 -0.5573 -0.0253
 2873SOL    HW120252   4.292   3.771  10.926  2.2751  3.6929  0.1970
 2873SOL    HW220253   4.339   3.847  11.042 -3.6719  1.6189 -0.5690
 2874SOL     OW20254   0.525   3.947  17.581  0.4373 -0.4710  0.1408
 2874SOL    HW120255   0.610   3.988  17.592 -0.1298  0.5158  0.7918
 2874SOL    HW220256   0.527   3.870  17.638 -0.3861 -0.4679  0.1735
 2875SOL     OW20257   3.618   0.715  11.068  0.2150 -0.2903  0.0121
 2875SOL    HW120258   3.698   0.694  11.117 -0.2661 -1.5113  0.2530
 2875SOL    HW220259   3.642   0.681  10.982  0.3299 -1.0352  0.3453
 2876SOL     OW20260   1.391   2.572   2.006 -0.6830 -0.2841 -0.4801
 2876SOL    HW120261   1.467   2.631   2.009 -0.2194 -0.9157  0.3716
 2876SOL    HW220262   1.319   2.620   1.965  0.3790 -0.3296 -2.4193
 2877SOL     OW20263   0.857   4.639   7.022  0.1382  0.5687  0.2598
 2877SOL    HW120264   0.884   4.726   6.993  1.3417  1.0757  2.8821
 2877SOL    HW220265   0.919   4.580   6.980 -2.0726 -1.6594  0.0965
 2878SOL     OW20266   0.535   3.198   5.900  0.0088 -0.4904 -0.2160
 2878SOL    HW120267   0.560   3.192   5.992  1.5382 -0.4701 -0.6436
 2878SOL    HW220268   0.604   3.148   5.857 -0.4907 -0.0292 -1.5361
 2879SOL     OW20269   3.317   0.308   4.002 -0.4298  0.2184 -0.3745
 2879SOL    HW120270   3.307   0.221   4.040  0.8730 -0.0349 -0.5967
 2879SOL    HW220271   3.400   0.294   3.955  0.3136 -0.6903  1.2289
 2880SOL     OW20272   2.946   3.306   6.316 -0.6733  0.1453  0.2437
 2880SOL    HW120273   2.979   3.296   6.227  0.7604 -1.3275  0.9278
 2880SOL    HW220274   2.853   3.322   6.300 -0.8098 -0.8083  0.1174
 2881SOL     OW20275   2.923   0.620  11.224  0.6557 -0.0834  0.5560
 2881SOL    HW120276   2.863   0.690  11.196  1.7859  1.5692  2.3293
 2881SOL    HW220277   2.944   0.648  11.313  0.0373  0.3932  0.5533
 2882SOL     OW20278   3.485   0.089   5.803 -0.0064 -0.7171 -0.1023
 2882SOL    HW120279   3.484   0.084   5.899 -0.6506  0.1268 -0.0611
 2882SOL    HW220280   3.576   0.073   5.778  0.2523  1.6751 -0.7686
 2883SOL     OW20281   1.090   3.197   2.488  0.6267 -0.3029  0.2568
 2883SOL    HW120282   1.049   3.132   2.430  0.0981 -0.3379  0.6690
 2883SOL    HW220283   1.183   3.177   2.488  1.1916  2.2361  1.0418
 2884SOL     OW20284   2.238   1.598   3.535  0.2644  0.0886 -0.1749
 2884SOL    HW120285   2.329   1.577   3.518  0.1123  0.4256 -1.3956
 2884SOL    HW220286   2.241   1.653   3.613  0.2199  0.8714 -0.7229
 2885SOL     OW20287   4.490   3.281   5.202  0.4818 -0.2823  0.3060
 2885SOL    HW120288   4.473   3.371   5.231 -1.1882 -0.5551  0.1774
 2885SOL    HW220289   4.556   3.252   5.265 -1.0444 -0.5373  1.8174
 2886SOL     OW20290   2.821   0.854  11.761  0.0331  0.5766 -0.4794
 2886SOL    HW120291   2.757   0.877  11.829 -0.1621 -0.3311 -0.3552
 2886SOL    HW220292   2.876   0.795  11.813 -2.4950 -0.7376  0.7062
 2887SOL     OW20293   0.764   0.326   6.922  0.0630 -0.3173  0.1282
 2887SOL    HW120294   0.778   0.303   7.014 -2.3434 -1.2106  0.2623
 2887SOL    HW220295   0.720   0.249   6.886 -1.3313  0.1956  0.7253
 2888SOL     OW20296   2.905   3.032   3.627 -0.5509 -0.3940  0.4252
 2888SOL    HW120297   2.952   3.111   3.600  0.7107 -1.5688 -0.8076
 2888SOL    HW220298   2.842   3.069   3.689  0.7859  0.7587  1.0975
 2889SOL     OW20299   3.741   1.650   5.385  0.3621  0.3236  0.0679
 2889SOL    HW120300   3.763   1.562   5.416  0.9139 -0.4862 -2.6164
 2889SOL    HW220301   3.714   1.634   5.294 -0.5678  0.3582  0.3403
 2890SOL     OW20302   3.533   0.061  13.712 -0.2846  0.1099 -0.3233
 2890SOL    HW120303   3.513   4.716  13.759  0.1303  0.2294  0.0599
 2890SOL    HW220304   3.534   0.129  13.779  1.7174 -0.3480  0.1029
 2891SOL     OW20305   3.287   4.734   7.966 -0.0686  0.0079  0.6122
 2891SOL    HW120306   3.229   0.075   7.961 -1.0926 -0.5976  3.0867
 2891SOL    HW220307   3.247   4.665   7.913  1.1902  0.9052 -1.4829
 2892SOL     OW20308   3.770   3.724   4.558  0.2828 -0.5418  0.3961
 2892SOL    HW120309   3.717   3.803   4.555  2.2283  0.7186 -0.8480
 2892SOL    HW220310   3.711   3.648   4.556 -0.3898 -0.0674  2.5219
 2893SOL     OW20311   4.523   0.862   6.038  0.0709  0.0161 -0.0039
 2893SOL    HW120312   4.582   0.932   6.009  0.0450  0.1831  0.3562
 2893SOL    HW220313   4.439   0.907   6.029  0.0519 -0.1946 -0.9052
 2894SOL     OW20314   0.054   0.266   2.042 -0.2537 -0.1089 -0.2436
 2894SOL    HW120315   0.107   0.336   2.004 -0.3915 -0.6713 -1.4687
 2894SOL    HW220316   4.735   0.322   2.097  1.8009  0.1283  1.5666
 2895SOL     OW20317   3.291   0.660   7.320 -0.3133  0.0169  0.1856
 2895SOL    HW120318   3.207   0.627   7.353 -0.3072  0.4698  0.6492
 2895SOL    HW220319   3.345   0.584   7.298  2.4774  1.8273  0.7821
 2896SOL     OW20320   1.569   1.826   7.793 -1.1051 -0.4662 -0.0919
 2896SOL    HW120321   1.656   1.812   7.829 -1.3046  1.4996  1.1262
 2896SOL    HW220322   1.580   1.919   7.774 -1.0475 -0.1290  1.5659
 2897SOL     OW20323   1.285   3.149  13.595 -0.6557  0.0061  0.4517
 2897SOL    HW120324   1.354   3.110  13.648  0.1345 -0.3834 -0.8673
 2897SOL    HW220325   1.348   3.202  13.546 -1.7162 -0.2123 -1.1644
 2898SOL     OW20326   3.360   2.309  17.158  0.0277  0.0102  0.1802
 2898SOL    HW120327   3.391   2.364  17.231  2.7701 -2.1866  0.6793
 2898SOL    HW220328   3.336   2.375  17.093  0.3838  1.5698  1.6151
 2899SOL     OW20329   1.388   3.188   3.285 -0.3545 -0.4110 -0.4291
 2899SOL    HW120330   1.465   3.230   3.247 -0.1842  0.9248  1.3757
 2899SOL    HW220331   1.359   3.249   3.353  4.0938  1.7653 -0.4879
 2900SOL     OW20332   2.091   0.844   5.153  0.3107 -0.0047 -0.3548
 2900SOL    HW120333   2.065   0.895   5.076  1.7307 -0.9384 -1.4419
 2900SOL    HW220334   2.177   0.817   5.122 -0.8435 -1.0624 -2.6013
 2901SOL     OW20335   0.611   3.840   8.194  0.4826  0.1753 -0.4901
 2901SOL    HW120336   0.567   3.777   8.137 -0.9785  0.2422  0.5402
 2901SOL    HW220337   0.674   3.875   8.131 -0.7236  0.9895 -1.2392
 2902SOL     OW20338   4.235   0.592   8.125  0.1344 -0.6136 -0.2505
 2902SOL    HW120339   4.183   0.599   8.045 -0.1042  1.0164  0.0497
 2902SOL    HW220340   4.298   0.525   8.098  0.1148  0.3371 -2.6533
 2903SOL     OW20341   2.911   3.331   7.056 -0.1716 -0.0889  0.3197
 2903SOL    HW120342   2.923   3.257   7.115  1.2911 -0.1285 -0.0194
 2903SOL    HW220343   2.877   3.400   7.113 -0.6547  0.2072 -0.3277
 2904SOL     OW20344   4.467   4.354   0.730  0.4792 -0.7473 -0.1195
 2904SOL    HW120345   4.473   4.328   0.822  0.9641 -0.6546 -0.1260
 2904SOL    HW220346   4.433   4.274   0.689  0.3369 -1.0845  0.6394
 2905SOL     OW20347   3.596   3.198  14.274  0.3201  0.6247  0.1183
 2905SOL    HW120348   3.644   3.245  14.343 -0.5968  0.3948  0.9045
 2905SOL    HW220349   3.550   3.274  14.238  1.8255  1.8895  0.8742
 2906SOL     OW20350   2.274   4.217   1.540  0.2506  0.2812  0.0559
 2906SOL    HW120351   2.319   4.273   1.477  2.5095 -1.0652  0.5046
 2906SOL    HW220352   2.231   4.285   1.593 -0.4793 -0.4236  0.3724
 2907SOL     OW20353   0.151   2.354   5.001 -0.2958  0.3494  0.2431
 2907SOL    HW120354   0.104   2.273   4.984  0.5637  0.3501 -2.2094
 2907SOL    HW220355   0.188   2.377   4.915  0.1069 -0.0546  0.3097
 2908SOL     OW20356   3.362   2.024   0.048 -0.4031 -0.5065 -0.4736
 2908SOL    HW120357   3.378   2.017   0.142 -0.2151 -1.3076 -0.5635
 2908SOL    HW220358   3.268   2.007   0.051 -0.2621 -1.1082  0.7644
 2909SOL     OW20359   4.321   0.028  10.768  0.0564  0.0001  0.5545
 2909SOL    HW120360   4.232   0.003  10.793  0.5699 -2.0190  0.3818
 2909SOL    HW220361   4.365   4.678  10.756  0.7206  0.6237 -1.5480
 2910SOL     OW20362   3.827   0.790   1.953 -0.0243 -0.8494 -0.0799
 2910SOL    HW120363   3.895   0.777   1.886 -0.4142  1.9252 -1.0098
 2910SOL    HW220364   3.803   0.881   1.942  1.8751 -0.4067 -0.5782
 2911SOL     OW20365   3.564   2.078   1.322 -0.1027  0.2378 -0.2080
 2911SOL    HW120366   3.599   2.138   1.389  2.1916  0.5897 -1.7010
 2911SOL    HW220367   3.552   1.997   1.371 -0.6547  1.8362  2.2812
 2912SOL     OW20368   2.510   3.252  11.892 -1.1806  0.4950  0.3061
 2912SOL    HW120369   2.464   3.336  11.900 -2.2634  0.1768 -2.4986
 2912SOL    HW220370   2.580   3.271  11.830  0.2619 -1.9225  1.2050
 2913SOL     OW20371   0.758   4.575   7.826 -0.3426 -0.8116 -0.1701
 2913SOL    HW120372   0.841   4.584   7.874 -1.0165 -0.4150  0.9165
 2913SOL    HW220373   0.719   4.658   7.852  0.5675 -0.7091  0.8661
 2914SOL     OW20374   1.409   0.658   3.681  0.0995 -0.0324  0.4665
 2914SOL    HW120375   1.321   0.695   3.676 -0.5270 -1.5340  0.2453
 2914SOL    HW220376   1.388   0.583   3.625 -5.8164  2.1659 -0.2605
 2915SOL     OW20377   2.080   3.340   3.892 -0.1559 -0.2047  0.2052
 2915SOL    HW120378   1.985   3.336   3.884 -0.1012 -0.3770 -0.3645
 2915SOL    HW220379   2.110   3.296   3.813 -1.8230  0.4956 -0.8251
 2916SOL     OW20380   1.599   2.815   9.272 -0.5397  1.3156  0.3872
 2916SOL    HW120381   1.537   2.753   9.235  0.3561  0.3306  0.5476
 2916SOL    HW220382   1.576   2.894   9.224 -2.4345 -0.3646 -1.4216
 2917SOL     OW20383   0.966   1.038   8.259 -1.3749 -0.6777  0.0309
 2917SOL    HW120384   0.887   1.084   8.289 -0.1204  3.5017 -3.1056
 2917SOL    HW220385   0.935   0.998   8.179  1.3696 -2.1916 -0.2719
 2918SOL     OW20386   2.142   1.869  13.432 -0.1852  0.2245  1.2580
 2918SOL    HW120387   2.103   1.902  13.513 -1.5008  2.6895 -0.3866
 2918SOL    HW220388   2.215   1.927  13.414  1.1554 -1.3490  1.5628
 2919SOL     OW20389   3.698   4.615   3.414 -0.3293 -0.5791 -0.5827
 2919SOL    HW120390   3.618   4.588   3.459  0.6030 -1.3730  0.5733
 2919SOL    HW220391   3.661   4.701   3.394 -0.2490  0.2092  2.6855
 2920SOL     OW20392   4.158   2.028  13.797 -0.1333 -0.4605  0.0223
 2920SOL    HW120393   4.180   2.101  13.855 -1.0881 -0.6995  0.6964
 2920SOL    HW220394   4.097   2.068  13.735  0.4184 -0.7406 -0.6893
 2921SOL     OW20395   3.010   1.180   7.844  0.5425  0.0589  0.4015
 2921SOL    HW120396   2.945   1.118   7.879  0.1514  0.7707  0.9279
 2921SOL    HW220397   3.085   1.164   7.902 -0.8169  0.3965  2.2487
 2922SOL     OW20398   3.749   4.304   9.116  0.0067  0.2873  0.0261
 2922SOL    HW120399   3.800   4.264   9.187 -0.7014 -1.9350 -0.7384
 2922SOL    HW220400   3.668   4.332   9.159  0.0861  1.5026 -0.6129
 2923SOL     OW20401   0.406   3.611   7.428  0.2952 -0.1586 -0.5481
 2923SOL    HW120402   0.457   3.530   7.421 -0.8786 -0.8425 -1.0521
 2923SOL    HW220403   0.473   3.676   7.450  0.1670 -0.9550  2.1311
 2924SOL     OW20404   3.558   3.398   5.906  0.2087 -0.9010 -0.4403
 2924SOL    HW120405   3.651   3.418   5.902 -0.3177  1.4306 -1.2049
 2924SOL    HW220406   3.528   3.488   5.893  0.0645 -0.8359  0.3096
 2925SOL     OW20407   3.522   3.346  13.154 -0.9700 -0.6558 -0.1531
 2925SOL    HW120408   3.615   3.323  13.160 -0.2606  2.4068  0.3767
 2925SOL    HW220409   3.534   3.434  13.118 -1.8061 -0.7134 -0.5700
 2926SOL     OW20410   4.267   0.258   8.159 -0.3221  0.0140 -0.0139
 2926SOL    HW120411   4.327   0.229   8.228 -0.4417 -1.7900 -0.6660
 2926SOL    HW220412   4.191   0.208   8.188  0.0943 -0.6009  0.0369
 2927SOL     OW20413   0.680   0.947   8.861 -0.0932 -0.1736  0.6537
 2927SOL    HW120414   0.774   0.940   8.878  0.1278 -0.5765 -0.7714
 2927SOL    HW220415   0.672   1.021   8.801  2.0353 -1.1040 -0.7687
 2928SOL     OW20416   3.322   0.638   3.714  0.6618  0.0666 -0.4567
 2928SOL    HW120417   3.287   0.652   3.802 -0.8161  1.9795 -1.3499
 2928SOL    HW220418   3.259   0.571   3.686  0.7466  0.1855 -0.9319
 2929SOL     OW20419   0.235   3.600   8.823  0.1167  0.1794  0.3932
 2929SOL    HW120420   0.192   3.674   8.779  3.0928  1.8494  0.2841
 2929SOL    HW220421   0.194   3.597   8.910 -1.7979  0.1304 -0.5166
 2930SOL     OW20422   2.176   3.482   4.098 -0.6079  0.2921  0.1113
 2930SOL    HW120423   2.209   3.414   4.155 -0.8161  0.0174 -0.0953
 2930SOL    HW220424   2.118   3.430   4.042 -0.5877  0.9582 -0.5410
 2931SOL     OW20425   4.647   3.617   2.229  0.0216  0.4145  0.0138
 2931SOL    HW120426   4.731   3.576   2.209 -1.0279 -0.7418 -2.0527
 2931SOL    HW220427   4.639   3.675   2.153 -0.0981 -0.6371 -0.7772
 2932SOL     OW20428   3.741   2.191   5.217 -0.1603 -0.7521 -0.0781
 2932SOL    HW120429   3.699   2.163   5.298 -1.0645  2.0128  0.4128
 2932SOL    HW220430   3.696   2.133   5.155 -1.0227  2.8893 -2.8880
 2933SOL     OW20431   4.428   1.450   9.233 -0.2363 -0.4622 -0.2303
 2933SOL    HW120432   4.338   1.475   9.252 -0.0679  1.1321 -1.5586
 2933SOL    HW220433   4.426   1.360   9.266 -1.7177 -0.7622 -1.1460
 2934SOL     OW20434   1.599   3.567   5.359 -0.0610  0.1330 -0.3298
 2934SOL    HW120435   1.580   3.476   5.335  3.2878 -0.5280 -0.4811
 2934SOL    HW220436   1.516   3.609   5.337 -0.7276 -1.2147 -0.4467
 2935SOL     OW20437   0.223   3.724   1.129  0.0279  0.1531  0.5528
 2935SOL    HW120438   0.133   3.738   1.157 -0.6068 -0.5465 -1.1593
 2935SOL    HW220439   0.231   3.630   1.113 -3.1045 -0.1694  0.9983
 2936SOL     OW20440   3.128   0.257   2.659 -0.1851  0.2022  0.1131
 2936SOL    HW120441   3.195   0.194   2.632 -1.4075 -1.2791  0.5658
 2936SOL    HW220442   3.060   0.193   2.677  1.5998 -1.2879  1.5717
 2937SOL     OW20443   1.646   2.348   8.505  0.0279  0.5756  0.1181
 2937SOL    HW120444   1.597   2.276   8.546  1.1872 -0.2110  0.0999
 2937SOL    HW220445   1.719   2.371   8.561  1.3185 -4.3805  0.4260
 2938SOL     OW20446   0.165   2.935   3.655  0.1053 -0.0651 -0.6767
 2938SOL    HW120447   0.176   3.019   3.700 -2.0003  1.4562 -3.0263
 2938SOL    HW220448   0.103   2.956   3.585 -2.8124 -0.0378  1.9102
 2939SOL     OW20449   3.852   3.359   9.259 -0.4165  0.0594 -0.3067
 2939SOL    HW120450   3.893   3.403   9.184  2.7783  1.2097  2.1187
 2939SOL    HW220451   3.800   3.430   9.296  1.2505  0.4514  1.2891
 2940SOL     OW20452   4.008   3.141   6.044  0.1965 -0.6488  0.5811
 2940SOL    HW120453   4.024   3.179   5.958 -0.8065  1.1241  1.1648
 2940SOL    HW220454   3.912   3.138   6.041  0.0560  5.3633 -2.2258
 2941SOL     OW20455   3.766   1.426   7.081 -0.4347  0.5491 -0.9485
 2941SOL    HW120456   3.752   1.487   7.009 -0.4947  1.4551 -0.1677
 2941SOL    HW220457   3.817   1.362   7.032 -0.6473 -0.3045 -0.0433
 2942SOL     OW20458   2.944   4.576   8.952 -0.5022  0.6767 -0.2907
 2942SOL    HW120459   2.962   4.667   8.929  0.9297  0.2974 -0.6170
 2942SOL    HW220460   3.032   4.543   8.938  0.2349  1.4072  2.6533
 2943SOL     OW20461   0.099   1.671  16.106  0.6887  0.4839  0.0427
 2943SOL    HW120462   0.089   1.765  16.085 -0.8848  0.5353  1.0286
 2943SOL    HW220463   0.166   1.668  16.173 -0.1478  0.3825  0.8715
 2944SOL     OW20464   3.660   1.621   4.634 -0.1373  0.1099  0.1964
 2944SOL    HW120465   3.593   1.642   4.569  0.0776  2.0865  0.6121
 2944SOL    HW220466   3.706   1.548   4.592  0.0996  0.0336  0.5887
 2945SOL     OW20467   4.181   1.722  10.550  0.0208 -0.1205  0.2268
 2945SOL    HW120468   4.268   1.686  10.564 -0.8809 -1.1999  2.9064
 2945SOL    HW220469   4.136   1.704  10.633 -0.1430  0.1864  0.2044
 2946SOL     OW20470   3.382   1.283   5.330  0.2123  0.0402 -0.1580
 2946SOL    HW120471   3.287   1.277   5.343  0.1512  0.5333 -0.3809
 2946SOL    HW220472   3.430   1.224   5.388 -0.8013 -0.5045  0.1350
 2947SOL     OW20473   2.259   1.257   6.639 -0.1350 -0.2636  0.5212
 2947SOL    HW120474   2.354   1.245   6.633  0.0030 -1.2883  5.0117
 2947SOL    HW220475   2.245   1.322   6.570  1.7520  1.1281  1.4647
 2948SOL     OW20476   3.868   2.950   9.144 -0.5827 -0.0888  0.3355
 2948SOL    HW120477   3.794   2.978   9.197 -2.6635 -4.5633 -0.1303
 2948SOL    HW220478   3.851   2.856   9.154 -3.1258  0.2774 -0.5972
 2949SOL     OW20479   3.007   4.007   5.972  0.1109  0.9518  0.0906
 2949SOL    HW120480   2.972   4.056   6.046  2.2674  0.9334  1.1299
 2949SOL    HW220481   3.094   4.048   5.972 -0.1948  1.6078  0.2921
 2950SOL     OW20482   2.549   3.159   7.183  0.0515 -0.0957 -0.3015
 2950SOL    HW120483   2.597   3.209   7.249 -1.4784 -0.5535  1.1579
 2950SOL    HW220484   2.465   3.163   7.230 -0.2993 -0.6098 -0.8816
 2951SOL     OW20485   1.540   1.307   6.207 -0.1319  0.3514 -0.5161
 2951SOL    HW120486   1.451   1.274   6.212 -0.2818  0.7145 -0.7771
 2951SOL    HW220487   1.540   1.390   6.160  0.0352  0.7581  0.2004
 2952SOL     OW20488   2.994   2.415   6.909 -0.4239 -0.6947  0.1364
 2952SOL    HW120489   2.907   2.450   6.929 -0.5673  0.2218 -2.0899
 2952SOL    HW220490   3.008   2.337   6.962 -1.9051 -1.1375 -0.1511
 2953SOL     OW20491   4.181   0.143   6.987 -0.1683  0.7547  0.3233
 2953SOL    HW120492   4.197   0.227   7.031  0.2454  0.3841  0.8768
 2953SOL    HW220493   4.211   0.162   6.899  0.5205 -0.4035  0.3235
 2954SOL     OW20494   0.140   3.243  11.448  0.2925  0.2929 -0.5508
 2954SOL    HW120495   0.153   3.193  11.368  1.0545  0.4824 -0.5400
 2954SOL    HW220496   0.143   3.166  11.505  0.3073  1.6422  1.2940
 2955SOL     OW20497   1.210   0.211   1.394  0.3327  0.3404 -0.5707
 2955SOL    HW120498   1.283   0.174   1.444 -0.1472  0.9727  0.5925
 2955SOL    HW220499   1.161   0.257   1.462 -0.3757 -0.9407 -0.2041
 2956SOL     OW20500   3.263   0.809   4.258 -0.0951  0.1413  0.0046
 2956SOL    HW120501   3.318   0.795   4.335  1.1085 -1.9153 -1.2628
 2956SOL    HW220502   3.209   0.731   4.274  0.0778  0.0895  0.3400
 2957SOL     OW20503   1.357   1.702   9.071  0.3575 -0.1763 -0.3057
 2957SOL    HW120504   1.302   1.762   9.021 -0.4420 -0.9223 -0.3109
 2957SOL    HW220505   1.425   1.679   9.007 -0.3866  1.6328 -1.7376
 2958SOL     OW20506   3.933   0.356   5.103 -0.4752 -0.3032  0.1796
 2958SOL    HW120507   3.952   0.331   5.194 -0.9031  1.5535  0.7831
 2958SOL    HW220508   3.998   0.312   5.048 -1.0474 -0.4125 -0.4067
 2959SOL     OW20509   0.792   1.114   2.563 -0.3363  0.0615  0.0415
 2959SOL    HW120510   0.767   1.056   2.635 -0.1140 -0.3662 -0.2237
 2959SOL    HW220511   0.883   1.133   2.585 -1.3987  4.2724  0.8296
 2960SOL     OW20512   3.765   3.531  10.443 -0.2851  0.4081  0.3043
 2960SOL    HW120513   3.688   3.572  10.405 -1.1791  0.5264  2.2042
 2960SOL    HW220514   3.743   3.440  10.465  2.9398 -0.5599 -0.4641
 2961SOL     OW20515   1.479   1.737   4.307  0.0870 -0.1004  0.6871
 2961SOL    HW120516   1.450   1.684   4.381 -0.0825  0.1153  0.7783
 2961SOL    HW220517   1.404   1.794   4.289  0.5948  0.7432  1.1861
 2962SOL     OW20518   2.423   4.695   2.601  0.0793 -0.0628  0.9692
 2962SOL    HW120519   2.432   4.605   2.569 -0.4137  0.3887 -0.4764
 2962SOL    HW220520   2.340   4.682   2.647 -0.4820 -1.2220 -0.3642
 2963SOL     OW20521   1.935   3.968   0.409  0.3579 -0.1377  0.2228
 2963SOL    HW120522   1.990   4.028   0.359  0.1301  0.8155  1.1192
 2963SOL    HW220523   1.972   3.963   0.497  2.3185  1.0286 -0.5260
 2964SOL     OW20524   2.180   2.112  16.624  0.0407  0.1482 -0.7140
 2964SOL    HW120525   2.127   2.111  16.704  1.4319 -0.0957  0.2029
 2964SOL    HW220526   2.209   2.021  16.632  0.5259  0.4033  0.3277
 2965SOL     OW20527   4.325   2.712  17.639 -0.3835 -0.3365  0.0338
 2965SOL    HW120528   4.272   2.754  17.708 -0.4707 -0.1491 -0.1494
 2965SOL    HW220529   4.410   2.746  17.669 -0.4462  0.5938 -0.8567
 2966SOL     OW20530   1.730   3.409   6.432 -0.1931  0.1969 -0.5225
 2966SOL    HW120531   1.730   3.315   6.452  0.0662  0.1757 -0.6198
 2966SOL    HW220532   1.737   3.443   6.522 -0.7734 -0.2650 -0.2990
 2967SOL     OW20533   4.610   1.878   5.987 -0.0135  0.7981  0.3317
 2967SOL    HW120534   4.563   1.943   5.935 -1.1044  0.3757  0.7969
 2967SOL    HW220535   4.539   1.861   6.049  0.9257 -0.4583  1.0465
 2968SOL     OW20536   2.400   3.490   6.826  0.1052  0.3322 -0.2101
 2968SOL    HW120537   2.350   3.443   6.760  0.0100  0.2686 -0.0920
 2968SOL    HW220538   2.482   3.441   6.832  0.7262  1.4268  0.2882
 2969SOL     OW20539   3.981   1.673   5.661  0.3754 -0.2058  0.2587
 2969SOL    HW120540   4.020   1.732   5.597  0.1013  0.5343  0.7675
 2969SOL    HW220541   3.888   1.695   5.663  0.5310  0.4472  0.2868
 2970SOL     OW20542   4.014   4.422   8.425  0.6464 -0.6898  0.1916
 2970SOL    HW120543   3.943   4.367   8.460  1.1491 -1.1029  0.5661
 2970SOL    HW220544   4.058   4.352   8.377  0.2576 -2.0709  1.8507
 2971SOL     OW20545   1.906   3.980   8.003 -0.2637  0.3594  0.0274
 2971SOL    HW120546   1.831   3.927   8.030 -1.2183  0.6035 -2.0952
 2971SOL    HW220547   1.859   4.059   7.977 -1.3021 -0.1130  0.4573
 2972SOL     OW20548   1.773   4.279   7.467  0.4103  0.4831 -0.1370
 2972SOL    HW120549   1.824   4.318   7.538 -2.2839  0.5999  1.7040
 2972SOL    HW220550   1.821   4.196   7.466  0.4406  0.4813  1.0997
 2973SOL     OW20551   0.081   1.020  16.665  0.0374 -0.1741  0.2004
 2973SOL    HW120552   0.149   0.966  16.624 -0.3777 -0.2258 -0.4155
 2973SOL    HW220553   0.035   1.055  16.590  1.7780  2.9799  0.6104
 2974SOL     OW20554   2.550   2.683   0.575 -0.5310 -0.0855  0.1961
 2974SOL    HW120555   2.612   2.640   0.515 -1.1277  0.8484 -1.0981
 2974SOL    HW220556   2.613   2.699   0.644  0.5513  0.5735 -0.9619
 2975SOL     OW20557   1.289   0.032  11.730  0.0849 -0.2091  0.2932
 2975SOL    HW120558   1.205   0.055  11.690  0.0797 -0.5272  0.1110
 2975SOL    HW220559   1.281   4.672  11.719 -1.5258 -0.1530  0.9722
 2976SOL     OW20560   2.598   2.179   4.243 -0.2280  0.2271  0.6335
 2976SOL    HW120561   2.517   2.133   4.263 -0.2079  0.1000  0.4260
 2976SOL    HW220562   2.575   2.262   4.284  0.0249  0.1283  0.9750
 2977SOL     OW20563   0.119   3.838   7.705 -0.1241  0.2405 -0.0107
 2977SOL    HW120564   0.083   3.830   7.793  0.8310  1.7748  0.5318
 2977SOL    HW220565   0.068   3.911   7.670  0.9838  0.4714 -1.1533
 2978SOL     OW20566   0.493   2.998  17.132 -0.2339  0.2872  0.1775
 2978SOL    HW120567   0.475   3.091  17.142 -3.2372 -0.2158 -0.6661
 2978SOL    HW220568   0.407   2.960  17.114 -1.0755  0.8727  2.9586
 2979SOL     OW20569   2.269   4.632  12.433  0.0054 -0.3596  0.1901
 2979SOL    HW120570   2.241   4.588  12.513  2.6747  1.3090  2.0662
 2979SOL    HW220571   2.360   4.640  12.463 -0.6427  3.3762  1.1667
 2980SOL     OW20572   2.364   3.617   2.698  0.1203  0.1499 -0.0710
 2980SOL    HW120573   2.429   3.643   2.633 -0.9732  1.0926 -0.7969
 2980SOL    HW220574   2.362   3.691   2.759 -0.7950  1.5586 -1.8089
 2981SOL     OW20575   3.485   3.601   4.722  0.5538  0.3632  0.5680
 2981SOL    HW120576   3.508   3.676   4.777 -1.7014  0.4208  1.4468
 2981SOL    HW220577   3.399   3.586   4.762  1.5051 -0.9046  2.1182
 2982SOL     OW20578   0.844   3.935   5.867 -0.3481  0.3338 -0.4711
 2982SOL    HW120579   0.802   3.902   5.947 -0.2728  2.3783  0.4213
 2982SOL    HW220580   0.937   3.921   5.888 -0.8177  0.4330  1.7008
 2983SOL     OW20581   3.282   2.267   2.792  0.4839  0.3875 -0.2132
 2983SOL    HW120582   3.306   2.330   2.725 -0.4791  1.8936  0.8742
 2983SOL    HW220583   3.298   2.189   2.739  0.8578 -0.7845  1.5925
 2984SOL     OW20584   3.533   1.098  13.644 -0.3790  0.4748  0.1002
 2984SOL    HW120585   3.581   1.180  13.634  0.4558 -0.1015 -0.6455
 2984SOL    HW220586   3.494   1.110  13.731 -2.1889  1.2625 -0.8278
 2985SOL     OW20587   3.227   0.494   2.490 -0.0437 -0.1357 -0.1776
 2985SOL    HW120588   3.259   0.433   2.556 -0.0169 -0.7785 -0.7808
 2985SOL    HW220589   3.296   0.561   2.495 -1.2546  1.1408 -0.4397
 2986SOL     OW20590   3.740   2.738   9.346  0.2573 -0.0802  0.5974
 2986SOL    HW120591   3.707   2.703   9.263  0.0512 -0.1700  0.7167
 2986SOL    HW220592   3.681   2.812   9.355  1.4581  1.1488 -1.5716
 2987SOL     OW20593   3.247   3.082   2.828  0.6641  0.2084 -0.9447
 2987SOL    HW120594   3.299   3.002   2.832  0.6690  0.3134  0.8661
 2987SOL    HW220595   3.220   3.098   2.918 -1.6602  0.6454 -1.7155
 2988SOL     OW20596   2.838   0.705   7.717 -0.0277  0.4777  0.3938
 2988SOL    HW120597   2.865   0.615   7.737 -0.6022  0.2540  0.1695
 2988SOL    HW220598   2.768   0.685   7.656 -1.0171  0.1368  1.6335
 2989SOL     OW20599   1.572   1.917  12.009  0.2038 -0.1897 -0.2207
 2989SOL    HW120600   1.599   1.900  11.919 -0.4646 -0.2387 -0.4119
 2989SOL    HW220601   1.630   1.850  12.046 -0.0893  0.5861  1.6617
 2990SOL     OW20602   4.018   1.417   6.415 -0.3526  0.2291 -0.5283
 2990SOL    HW120603   3.975   1.404   6.330 -1.5024  0.1122  0.0744
 2990SOL    HW220604   3.986   1.340   6.462  1.2158  0.6589  1.2269
 2991SOL     OW20605   2.106   3.357  16.189  0.4084 -0.0692  0.0311
 2991SOL    HW120606   2.164   3.396  16.123  1.0251 -3.3320 -1.3508
 2991SOL    HW220607   2.101   3.432  16.249  0.5198 -0.4638  0.5346
 2992SOL     OW20608   2.486   1.590  14.267  0.3913  0.5343 -0.1964
 2992SOL    HW120609   2.565   1.637  14.297  0.7306  0.7147 -1.3671
 2992SOL    HW220610   2.515   1.511  14.223  0.3162  0.1144  0.5031
 2993SOL     OW20611   1.921   1.806  15.471  0.3321 -0.5195  0.3490
 2993SOL    HW120612   1.932   1.784  15.563  1.9079  2.1528  0.8128
 2993SOL    HW220613   1.980   1.879  15.451  0.0765 -0.1770  0.8558
 2994SOL     OW20614   0.225   3.452   2.907  0.1083 -0.0524  0.4146
 2994SOL    HW120615   0.257   3.474   2.819  1.8809  0.8255  1.2899
 2994SOL    HW220616   0.140   3.428   2.869 -0.7928  0.4557  2.0866
 2995SOL     OW20617   1.595   1.825  10.051  0.2174  0.4469  0.1996
 2995SOL    HW120618   1.508   1.841  10.087  0.2428  0.7817  0.1141
 2995SOL    HW220619   1.646   1.883  10.108  1.9465 -0.5646 -0.3135
 2996SOL     OW20620   1.978   3.757   2.774  0.1178  0.3994  0.2182
 2996SOL    HW120621   1.900   3.734   2.824 -0.1953 -1.0246 -0.9458
 2996SOL    HW220622   1.929   3.789   2.699  4.4244 -1.3800 -3.3766
 2997SOL     OW20623   3.810   3.147   8.650  0.6983  0.8709  0.3442
 2997SOL    HW120624   3.840   3.088   8.719 -0.0513 -2.2248 -1.9758
 2997SOL    HW220625   3.816   3.235   8.687 -2.8332 -0.3999  3.8277
 2998SOL     OW20626   4.529   0.557   4.849  0.3977  0.1722 -0.2623
 2998SOL    HW120627   4.481   0.615   4.908  1.6883 -0.5435  1.4750
 2998SOL    HW220628   4.611   0.548   4.895  1.0801  2.3391 -1.0565
 2999SOL     OW20629   3.192   0.623  11.050 -0.1090  0.1061  0.4332
 2999SOL    HW120630   3.267   0.578  11.011 -0.4058  0.0100 -0.0204
 2999SOL    HW220631   3.128   0.555  11.030 -1.2051  1.0497  0.7412
 3000SOL     OW20632   3.167   2.750   7.678 -0.2447  0.1054 -0.5099
 3000SOL    HW120633   3.176   2.818   7.744 -0.1190 -0.1677 -0.2427
 3000SOL    HW220634   3.248   2.702   7.698 -0.1850  0.0098 -0.9758
 3001SOL     OW20635   0.953   0.881  17.620 -0.8487  0.2762 -0.2622
 3001SOL    HW120636   0.986   0.870  17.530 -2.2041  0.3094 -0.7638
 3001SOL    HW220637   0.879   0.821  17.621  0.1039 -0.9033  0.0280
 3002SOL     OW20638   4.177   3.287   4.110 -0.0307  0.0457  1.0139
 3002SOL    HW120639   4.174   3.293   4.015 -1.2602  0.5834  1.0788
 3002SOL    HW220640   4.270   3.264   4.114  0.3133  1.4504  1.3731
 3003SOL     OW20641   2.954   3.713   4.569  0.1427 -0.3320  0.2791
 3003SOL    HW120642   2.977   3.702   4.661 -0.7870  1.3934  0.7328
 3003SOL    HW220643   3.009   3.787   4.541 -0.6312  0.2032  0.1511
 3004SOL     OW20644   2.940   3.091   7.205  0.3670  0.4089  0.2468
 3004SOL    HW120645   3.015   3.036   7.180 -0.2408 -1.1412  1.7984
 3004SOL    HW220646   2.891   3.024   7.252  0.3805 -0.0193 -0.3476
 3005SOL     OW20647   4.538   2.106   7.774 -0.7658  0.2800  0.2649
 3005SOL    HW120648   4.486   2.088   7.696  0.2310 -2.5766  0.2278
 3005SOL    HW220649   4.593   2.027   7.773 -0.6968  0.3525 -1.3162
 3006SOL     OW20650   1.405   4.260   4.205  0.4461 -0.4933  0.0724
 3006SOL    HW120651   1.454   4.204   4.145 -0.9335 -0.5385 -1.0222
 3006SOL    HW220652   1.479   4.276   4.264  0.2454 -3.0762  1.0374
 3007SOL     OW20653   1.214   1.235  11.077  0.3136  0.6913  0.9996
 3007SOL    HW120654   1.250   1.292  11.009 -0.3720 -1.3336 -1.0603
 3007SOL    HW220655   1.296   1.205  11.117 -0.5487 -0.9235  1.5430
 3008SOL     OW20656   3.237   1.961   2.491  0.4017 -0.2836  0.0613
 3008SOL    HW120657   3.191   2.019   2.552  0.5061  1.3016 -1.3611
 3008SOL    HW220658   3.323   1.949   2.530  0.9099  2.0793 -0.2910
 3009SOL     OW20659   4.498   3.411   9.453  0.0866  0.0662  0.1224
 3009SOL    HW120660   4.517   3.422   9.360  1.8262 -2.0909  0.2273
 3009SOL    HW220661   4.556   3.480   9.484  0.5895 -1.5723  2.8287
 3010SOL     OW20662   3.484   0.506  17.255  0.0319  0.6275  0.3077
 3010SOL    HW120663   3.420   0.435  17.250  1.1232 -0.4041  1.4497
 3010SOL    HW220664   3.452   0.559  17.328 -1.6078 -1.0644  0.8149
 3011SOL     OW20665   0.568   4.389   6.128  0.8705 -0.4216 -0.5049
 3011SOL    HW120666   0.655   4.409   6.164  0.6398 -1.4972  0.6288
 3011SOL    HW220667   0.556   4.463   6.068 -2.3741  1.5110  2.5098
 3012SOL     OW20668   1.050   1.058  17.266  0.2069  0.2678 -0.3467
 3012SOL    HW120669   0.995   1.121  17.312  2.1312  1.2290  0.6517
 3012SOL    HW220670   1.055   1.104  17.182 -0.1277 -1.0014 -1.0606
 3013SOL     OW20671   1.753   4.265   1.471 -0.3247  0.3193  0.1225
 3013SOL    HW120672   1.785   4.199   1.409  2.7734  0.5407  1.4857
 3013SOL    HW220673   1.764   4.227   1.558  1.3008  2.3080  0.8109
 3014SOL     OW20674   2.271   0.632   2.716  0.8224 -0.3436 -0.2328
 3014SOL    HW120675   2.262   0.566   2.785  0.7909 -1.3396 -1.1772
 3014SOL    HW220676   2.251   0.579   2.638  0.5460 -0.1427 -0.2979
 3015SOL     OW20677   4.418   1.547   6.775  0.5820 -0.0720  0.3726
 3015SOL    HW120678   4.512   1.528   6.778  0.9008  1.3231 -1.0954
 3015SOL    HW220679   4.391   1.530   6.865  2.5235  2.2882  1.4193
 3016SOL     OW20680   1.521   2.149   2.489  0.0738 -0.2522 -0.1047
 3016SOL    HW120681   1.441   2.129   2.538  0.5484  0.2780  0.8646
 3016SOL    HW220682   1.522   2.244   2.489  2.2191 -0.2844  0.9183
 3017SOL     OW20683   1.238   1.756   5.840 -0.3429  0.3190  0.0681
 3017SOL    HW120684   1.276   1.734   5.925 -0.6548  0.4201  0.2352
 3017SOL    HW220685   1.251   1.850   5.844  1.0556  0.0060  2.8158
 3018SOL     OW20686   1.842   3.162   8.269 -0.0281  0.1467 -0.0382
 3018SOL    HW120687   1.809   3.248   8.295 -1.8750  0.6515 -4.0003
 3018SOL    HW220688   1.847   3.180   8.175  0.2233 -3.1497 -0.6561
 3019SOL     OW20689   0.475   0.343   6.148  0.4869 -0.0158  0.2790
 3019SOL    HW120690   0.560   0.316   6.183  1.0376  1.4783  0.0911
 3019SOL    HW220691   0.418   0.298   6.211 -2.5471  0.7076 -1.9664
 3020SOL     OW20692   2.735   0.046   9.111  0.2430 -0.2184  0.5661
 3020SOL    HW120693   2.759   4.699   9.067  1.4439  0.6693 -0.4072
 3020SOL    HW220694   2.818   0.085   9.137 -0.5807  2.5574 -1.0546
 3021SOL     OW20695   0.757   1.634   7.056  0.3095  0.2758 -0.5362
 3021SOL    HW120696   0.717   1.547   7.049  0.6250  0.1741 -1.0641
 3021SOL    HW220697   0.735   1.651   7.148  0.2885 -2.2866 -0.0540
 3022SOL     OW20698   2.749   2.556   0.462 -0.1855  0.7349 -0.3595
 3022SOL    HW120699   2.843   2.550   0.479 -0.4200 -0.7934  0.4242
 3022SOL    HW220700   2.739   2.501   0.384  0.2116  0.7246 -0.4027
 3023SOL     OW20701   1.018   3.262   3.773 -0.2187 -0.4231  0.6657
 3023SOL    HW120702   1.096   3.318   3.782 -2.9138  3.5815 -1.1375
 3023SOL    HW220703   0.960   3.306   3.712  1.1535  0.7678  0.2082
 3024SOL     OW20704   2.521   3.204   5.622  0.7441  0.2442  0.4559
 3024SOL    HW120705   2.572   3.231   5.546  0.6952  0.4013  0.4790
 3024SOL    HW220706   2.453   3.147   5.588  2.0923 -0.9027 -0.2782
 3025SOL     OW20707   3.467   3.929  12.485  0.2070  0.4358 -0.7945
 3025SOL    HW120708   3.442   3.997  12.548 -0.5861  0.1640 -0.8206
 3025SOL    HW220709   3.562   3.936  12.482  0.3607 -0.2371  2.1507
 3026SOL     OW20710   2.187   4.004   2.428 -0.0627 -0.9464  0.0833
 3026SOL    HW120711   2.102   4.036   2.398 -0.5434 -1.6027  0.7406
 3026SOL    HW220712   2.248   4.078   2.420 -0.2587 -0.8395 -0.4164
 3027SOL     OW20713   0.212   2.013   7.657 -0.2044 -0.1139  0.9866
 3027SOL    HW120714   0.295   1.964   7.663 -2.2373 -4.0738 -3.1284
 3027SOL    HW220715   0.205   2.045   7.568  2.3738  0.2842  0.9142
 3028SOL     OW20716   3.755   2.979   1.023 -0.5135 -0.5335  0.1764
 3028SOL    HW120717   3.759   2.884   1.016 -0.9328 -0.7554  3.0266
 3028SOL    HW220718   3.832   2.996   1.078 -0.2028  1.6350 -0.9414
 3029SOL     OW20719   2.065   2.611   7.785  0.3615 -0.0983  0.5816
 3029SOL    HW120720   2.024   2.527   7.805  0.7691 -0.7679 -1.3965
 3029SOL    HW220721   2.066   2.650   7.872  0.6969  1.1549  0.0086
 3030SOL     OW20722   4.453   3.483  14.554  0.5331 -0.1685  0.0960
 3030SOL    HW120723   4.436   3.440  14.637  1.6318 -1.8619 -0.5671
 3030SOL    HW220724   4.523   3.546  14.572  1.0066 -0.9295  0.9119
 3031SOL     OW20725   3.918   1.547  12.797  0.1622  0.2120 -0.2819
 3031SOL    HW120726   3.988   1.581  12.742 -0.6725  0.3169 -1.2989
 3031SOL    HW220727   3.943   1.458  12.820  0.0916  0.2769  0.0439
 3032SOL     OW20728   1.827   0.778   9.300  0.6809  0.2104  0.0980
 3032SOL    HW120729   1.882   0.776   9.221  1.5140 -3.0224  0.7768
 3032SOL    HW220730   1.822   0.874   9.304 -0.7183  0.1028  0.8048
 3033SOL     OW20731   0.123   2.762   5.371  0.5713  0.2625 -0.2389
 3033SOL    HW120732   0.088   2.787   5.456 -1.0770  0.9638 -1.1330
 3033SOL    HW220733   0.113   2.668   5.383 -1.3818  0.4991 -0.0314
 3034SOL     OW20734   1.156   3.816   5.393  0.0518 -0.1633 -0.4068
 3034SOL    HW120735   1.104   3.791   5.317  0.1487 -3.8301  0.7339
 3034SOL    HW220736   1.090   3.834   5.460  0.9819 -1.8259  0.9527
 3035SOL     OW20737   2.047   3.141   7.800  0.1559 -0.2855 -0.0609
 3035SOL    HW120738   2.020   3.167   7.712  1.4947  1.4130  0.0261
 3035SOL    HW220739   2.129   3.097   7.777  0.9397  0.0433  2.0589
 3036SOL     OW20740   0.919   4.147  12.725  0.5353  0.0419 -0.1061
 3036SOL    HW120741   0.939   4.154  12.818 -2.5010 -0.3595  0.6008
 3036SOL    HW220742   1.003   4.141  12.680 -0.1378 -0.4761 -1.2960
 3037SOL     OW20743   0.894   3.233   7.865 -0.3382  0.2733  0.7234
 3037SOL    HW120744   0.806   3.261   7.839 -0.1505  2.3288  2.2837
 3037SOL    HW220745   0.924   3.209   7.777  0.5396 -2.5394  1.7909
 3038SOL     OW20746   2.630   4.370   1.781 -0.6539 -0.2860 -0.8569
 3038SOL    HW120747   2.685   4.318   1.840 -1.2612  1.1568  0.9554
 3038SOL    HW220748   2.674   4.335   1.703  1.6649 -0.3008  0.4490
 3039SOL     OW20749   4.529   4.531  14.154 -0.0561  0.1165  0.1096
 3039SOL    HW120750   4.563   4.605  14.104  4.9831 -3.0571 -1.1563
 3039SOL    HW220751   4.435   4.552  14.157  0.0833  0.8970 -1.2425
 3040SOL     OW20752   2.864   0.476   5.056  0.0309  0.1834 -0.3603
 3040SOL    HW120753   2.871   0.500   5.148  0.6246 -1.4220  0.0075
 3040SOL    HW220754   2.771   0.455   5.061  0.1784 -0.0143  1.5720
 3041SOL     OW20755   2.450   2.326   8.439  0.1907  0.7199 -0.2397
 3041SOL    HW120756   2.460   2.420   8.451  3.2795  0.3336  0.2459
 3041SOL    HW220757   2.501   2.305   8.361 -0.7021  0.8757 -0.8700
 3042SOL     OW20758   4.402   1.872  12.156 -0.1240 -0.0551  0.0929
 3042SOL    HW120759   4.319   1.910  12.126  0.5059  2.3885  1.5229
 3042SOL    HW220760   4.448   1.907  12.080 -1.4819  0.7006 -0.3822
 3043SOL     OW20761   0.103   2.102   6.257 -0.1686  0.3125  0.0558
 3043SOL    HW120762   0.194   2.129   6.249  0.0129 -0.8070 -1.7527
 3043SOL    HW220763   0.108   2.014   6.219 -0.5204  0.5445 -0.5344
 3044SOL     OW20764   2.551   1.688  14.581  0.0244  0.5780 -0.2670
 3044SOL    HW120765   2.466   1.714  14.547  1.1410  1.1586 -2.6023
 3044SOL    HW220766   2.604   1.733  14.515  0.7465  0.6218  0.3533
 3045SOL     OW20767   0.928   0.680   9.881  0.4363 -0.7063  0.4200
 3045SOL    HW120768   0.924   0.639   9.795 -1.4924  1.2956 -0.4294
 3045SOL    HW220769   0.849   0.733   9.877  2.1141  1.6142 -1.6509
 3046SOL     OW20770   0.565   1.493   1.236  0.4955 -0.1107  0.0659
 3046SOL    HW120771   0.562   1.494   1.140  0.8816  2.3359  0.0794
 3046SOL    HW220772   0.581   1.585   1.259  1.8143 -0.2129 -0.4431
 3047SOL     OW20773   2.721   1.646   5.015 -0.2924  0.3160 -0.7436
 3047SOL    HW120774   2.783   1.589   4.970  1.6358  0.2473  1.9745
 3047SOL    HW220775   2.739   1.597   5.095 -0.4177 -1.6377 -1.8984
 3048SOL     OW20776   3.789   1.825   6.923  0.1230 -0.1370  0.0501
 3048SOL    HW120777   3.746   1.740   6.912 -0.0705 -0.2864  1.9882
 3048SOL    HW220778   3.820   1.832   6.833 -2.3861  1.9116 -0.6452
 3049SOL     OW20779   3.188   2.325   9.239  0.4437 -0.1296 -0.1917
 3049SOL    HW120780   3.217   2.337   9.149  0.0066  0.3447 -0.2717
 3049SOL    HW220781   3.146   2.240   9.231 -1.4196  0.7226  0.4699
 3050SOL     OW20782   0.896   2.488   6.831 -0.1577 -0.4292 -0.0226
 3050SOL    HW120783   0.901   2.581   6.855 -3.4081 -0.1499 -0.4390
 3050SOL    HW220784   0.809   2.490   6.791 -0.4556  0.8470  0.6675
 3051SOL     OW20785   2.378   1.792   7.323  0.2022 -0.1892 -0.3904
 3051SOL    HW120786   2.442   1.776   7.393  0.9300  0.3418 -0.9291
 3051SOL    HW220787   2.353   1.884   7.334 -0.3681 -0.5242  1.1913
 3052SOL     OW20788   0.187   4.075   5.885  0.4268  0.3251 -0.6031
 3052SOL    HW120789   0.145   4.066   5.800 -2.6562 -1.9658  1.1744
 3052SOL    HW220790   0.222   3.987   5.899 -0.2796  0.4654  1.9902
 3053SOL     OW20791   4.729   2.497   5.435 -0.3679 -0.3277  1.2433
 3053SOL    HW120792   0.026   2.419   5.480  0.4650 -1.2207 -0.9161
 3053SOL    HW220793   4.725   2.470   5.343 -0.3833  0.6658  0.9483
 3054SOL     OW20794   4.353   2.817  16.424 -0.3009 -0.4917  0.7270
 3054SOL    HW120795   4.320   2.866  16.500 -1.2912  1.2845 -0.8390
 3054SOL    HW220796   4.443   2.848  16.434 -1.0255  2.0874 -0.6767
 3055SOL     OW20797   2.719   1.566   7.800  0.1713  0.1173 -0.3274
 3055SOL    HW120798   2.747   1.475   7.812  1.3549  0.2437 -2.0946
 3055SOL    HW220799   2.789   1.621   7.834 -1.4288  1.7189  0.3872
 3056SOL     OW20800   3.091   0.311  11.241  0.1651 -0.9306  0.0393
 3056SOL    HW120801   3.135   0.236  11.281  3.3311  1.4378  1.0432
 3056SOL    HW220802   3.168   0.358  11.208  1.0069 -2.0063  0.4742
 3057SOL     OW20803   1.326   1.060   7.401 -0.2050  0.0056 -0.8087
 3057SOL    HW120804   1.263   1.046   7.330  0.5989  0.9922 -1.7154
 3057SOL    HW220805   1.264   1.090   7.467  1.2159  2.1422 -0.4577
 3058SOL     OW20806   2.636   0.273  12.416  0.5162 -0.1079 -0.0821
 3058SOL    HW120807   2.579   0.203  12.385  2.3356 -1.3779 -0.5781
 3058SOL    HW220808   2.657   0.236  12.502 -3.8200 -1.0398  0.5763
 3059SOL     OW20809   0.130   3.064   5.210  0.5387 -0.2885  0.0944
 3059SOL    HW120810   0.198   3.051   5.276  0.3872  0.5274  0.4106
 3059SOL    HW220811   0.147   3.153   5.177  3.7958 -0.1394  2.1586
 3060SOL     OW20812   1.607   4.289   4.385  0.1609  0.1987 -0.2196
 3060SOL    HW120813   1.576   4.296   4.475  1.5019  2.4396  0.0659
 3060SOL    HW220814   1.699   4.274   4.406 -0.9340 -2.4600  2.6278
 3061SOL     OW20815   2.439   0.932   2.987  0.4554  0.0684 -0.2006
 3061SOL    HW120816   2.491   1.005   2.952  2.7910 -1.1681  0.6895
 3061SOL    HW220817   2.499   0.901   3.055  0.0331 -0.3720 -0.0302
 3062SOL     OW20818   3.165   4.349  14.103  0.2497  0.2517  0.2609
 3062SOL    HW120819   3.245   4.381  14.063 -0.4628  0.2591 -1.1674
 3062SOL    HW220820   3.145   4.269  14.054  2.1618 -0.0004 -0.0913
 3063SOL     OW20821   4.266   4.439   3.469  0.2327 -0.3501  0.2738
 3063SOL    HW120822   4.234   4.382   3.540 -2.5860  1.6425  0.5824
 3063SOL    HW220823   4.346   4.475   3.505 -0.3190  0.9368  0.1895
 3064SOL     OW20824   3.564   1.946   5.041 -0.4137  0.2689  0.2389
 3064SOL    HW120825   3.480   1.905   5.062 -1.3346  0.8145 -2.3810
 3064SOL    HW220826   3.572   1.936   4.947 -0.1572  0.8977  0.1902
 3065SOL     OW20827   1.997   0.357   3.412  0.2472 -0.0280 -0.1542
 3065SOL    HW120828   2.011   0.388   3.323 -3.2348  0.4109 -0.5354
 3065SOL    HW220829   1.905   0.330   3.412 -0.0727  0.9927  1.9742
 3066SOL     OW20830   2.242   3.252  13.999  0.1443  0.3540  0.3575
 3066SOL    HW120831   2.321   3.230  14.048 -0.2668 -0.9220  0.4366
 3066SOL    HW220832   2.270   3.335  13.961  0.3020  0.5160  0.8233
 3067SOL     OW20833   3.016   3.023   2.664 -0.2375 -0.3451  0.3481
 3067SOL    HW120834   3.002   2.998   2.572  1.3802  3.2320 -0.8477
 3067SOL    HW220835   3.110   3.016   2.678  0.0791  0.1510 -1.5139
 3068SOL     OW20836   1.894   1.544   4.459 -0.2413 -0.2560  0.2296
 3068SOL    HW120837   1.859   1.460   4.430  2.5357 -2.0928  2.2183
 3068SOL    HW220838   1.825   1.562   4.522 -0.6930  2.7571 -1.1235
 3069SOL     OW20839   4.488   2.380  13.815  0.0763  0.0195  0.3433
 3069SOL    HW120840   4.511   2.468  13.787  1.8817 -0.6213 -0.2248
 3069SOL    HW220841   4.502   2.335  13.732 -0.8502 -1.3011  0.9024
 3070SOL     OW20842   1.434   0.255  11.704 -0.4282 -0.3426 -0.1974
 3070SOL    HW120843   1.393   0.170  11.720  1.1597 -0.9667  0.5846
 3070SOL    HW220844   1.519   0.221  11.676 -0.8070 -0.1294 -1.6054
 3071SOL     OW20845   2.739   0.780  11.520  0.3126 -0.2426 -0.7846
 3071SOL    HW120846   2.748   0.775  11.615  0.6772  2.4912 -0.6737
 3071SOL    HW220847   2.827   0.800  11.487  1.4091 -2.2579  0.9771
 3072SOL     OW20848   1.015   4.108  11.097  0.4499 -0.0232  0.1526
 3072SOL    HW120849   1.060   4.191  11.082  0.3346  0.4884  2.5931
 3072SOL    HW220850   1.091   4.067  11.137  1.3968  0.2186 -1.4058
 3073SOL     OW20851   1.927   0.968  16.592  0.0053 -0.1622  0.5423
 3073SOL    HW120852   1.877   1.028  16.537  3.5083  1.7801 -0.5196
 3073SOL    HW220853   1.940   1.024  16.670  0.9583 -0.0889  0.3364
 3074SOL     OW20854   4.725   0.355  15.238 -0.3663  0.0153 -0.1254
 3074SOL    HW120855   4.637   0.319  15.229 -0.3134 -0.2000  0.2176
 3074SOL    HW220856   4.709   0.426  15.176 -0.2544 -0.9207 -1.2528
 3075SOL     OW20857   1.451   1.769   8.462  0.0995 -0.1884  0.4015
 3075SOL    HW120858   1.469   1.854   8.502  1.4018 -1.5286  2.6288
 3075SOL    HW220859   1.425   1.800   8.375  0.3932  1.1004  0.7702
 3076SOL     OW20860   1.597   3.405  14.991 -0.0394  0.2761  0.3874
 3076SOL    HW120861   1.681   3.451  14.987 -0.0652  0.2268 -0.7636
 3076SOL    HW220862   1.588   3.364  14.905  0.0943  0.4473  0.2912
 3077SOL     OW20863   4.234   3.340   5.529  0.3449 -0.5604  0.2934
 3077SOL    HW120864   4.226   3.257   5.578 -0.1857  0.0242  1.2114
 3077SOL    HW220865   4.325   3.369   5.523  0.6563 -1.0135  2.7006
 3078SOL     OW20866   2.935   3.711   2.890 -0.2852 -0.4266 -0.2766
 3078SOL    HW120867   2.982   3.674   2.815  2.4048 -1.7453  2.0582
 3078SOL    HW220868   2.970   3.659   2.963  0.2646  1.9091  1.0949
 3079SOL     OW20869   1.061   3.811   5.039  0.2514  0.1603 -0.7513
 3079SOL    HW120870   1.035   3.758   5.114  2.8737  1.1814  0.8391
 3079SOL    HW220871   0.983   3.795   4.985  0.0562 -0.1151 -0.3898
 3080SOL     OW20872   3.416   0.433   7.292  0.7139  0.4456 -0.0734
 3080SOL    HW120873   3.498   0.422   7.244  1.5861  1.1044  1.2759
 3080SOL    HW220874   3.372   0.354   7.261  0.6566  0.7605 -0.8083
 3081SOL     OW20875   0.103   3.094  10.933 -0.5364 -0.8695  0.0176
 3081SOL    HW120876   0.194   3.118  10.918 -0.4271 -0.8867  0.6308
 3081SOL    HW220877   0.064   3.168  10.887 -0.3753 -0.8177 -0.0368
 3082SOL     OW20878   0.804   4.369   4.187  0.0539 -0.0715  0.6473
 3082SOL    HW120879   0.762   4.455   4.181  1.9868  0.7413 -1.1389
 3082SOL    HW220880   0.761   4.341   4.268  0.9916  0.0336  1.1857
 3083SOL     OW20881   1.358   1.497   1.180 -0.0450  0.0512 -0.0945
 3083SOL    HW120882   1.289   1.466   1.122  0.0597 -1.6851  0.6968
 3083SOL    HW220883   1.447   1.477   1.151 -0.0498 -1.1162  0.6628
 3084SOL     OW20884   1.961   1.692   2.126  0.2329 -0.4969  0.4842
 3084SOL    HW120885   1.885   1.741   2.157 -2.7902 -3.8552 -1.6350
 3084SOL    HW220886   1.922   1.606   2.112  2.4550 -1.6687  1.4770
 3085SOL     OW20887   1.778   2.104   1.285 -0.1394  0.2807 -0.0282
 3085SOL    HW120888   1.766   2.016   1.248  0.1732  0.2025  0.0530
 3085SOL    HW220889   1.712   2.102   1.353 -0.9555 -0.6593 -0.8433
 3086SOL     OW20890   4.437   2.941   7.246 -0.3631  0.6330  0.3233
 3086SOL    HW120891   4.396   2.895   7.173  2.2604 -0.8147 -0.2271
 3086SOL    HW220892   4.484   3.004   7.191 -0.7099  1.1280  0.5850
 3087SOL     OW20893   4.070   0.187  11.299 -0.0034  0.5639  1.0778
 3087SOL    HW120894   4.036   0.134  11.370 -0.4305 -1.9695 -1.0177
 3087SOL    HW220895   3.987   0.230  11.280 -1.0994 -1.8333  0.3962
 3088SOL     OW20896   4.041   3.169   9.136 -0.4670  0.1120 -0.3466
 3088SOL    HW120897   3.977   3.229   9.174 -3.8128 -3.3536 -0.6041
 3088SOL    HW220898   3.990   3.088   9.139 -0.4800  0.0572 -2.1608
 3089SOL     OW20899   2.083   3.572  17.236 -0.4186 -0.4241 -0.2798
 3089SOL    HW120900   2.067   3.609  17.322 -0.0621 -1.3483  0.1830
 3089SOL    HW220901   2.040   3.638  17.181  1.8979 -0.6006 -2.3375
 3090SOL     OW20902   2.622   2.184  13.749 -0.0732  0.3518 -0.2958
 3090SOL    HW120903   2.679   2.204  13.823  0.9336 -2.5475 -0.3322
 3090SOL    HW220904   2.642   2.261  13.696 -1.9843 -0.3264 -1.9902
 3091SOL     OW20905   1.001   4.346   8.868  0.1155  0.3869  0.2559
 3091SOL    HW120906   0.914   4.319   8.899  0.6749 -2.2352 -0.4068
 3091SOL    HW220907   1.055   4.279   8.911  2.7420  2.0935 -0.3577
 3092SOL     OW20908   3.055   2.861   8.910  0.0492 -0.1960  0.4924
 3092SOL    HW120909   3.073   2.892   8.999 -0.1456  0.7919  0.1841
 3092SOL    HW220910   2.968   2.900   8.904  0.2237 -0.3244 -2.5891
 3093SOL     OW20911   4.074   3.816   4.996 -0.8699  0.1076 -0.1446
 3093SOL    HW120912   4.010   3.880   5.028  1.2113 -0.0302  4.1644
 3093SOL    HW220913   4.095   3.862   4.915  2.2934 -2.9458 -1.0544
 3094SOL     OW20914   3.519   4.721  14.253  0.3283  0.1592  0.0676
 3094SOL    HW120915   3.569   0.067  14.245  1.3568 -0.5272 -0.4783
 3094SOL    HW220916   3.444   4.732  14.194  1.7076 -0.0900 -1.7242
 3095SOL     OW20917   3.331   4.075   6.919  0.5318 -0.1901 -0.6963
 3095SOL    HW120918   3.318   4.168   6.901  0.0247  0.0365  0.8401
 3095SOL    HW220919   3.417   4.063   6.879  0.5914 -1.3389 -0.2186
 3096SOL     OW20920   4.497   2.600   5.595 -0.3562 -0.0447  0.6670
 3096SOL    HW120921   4.473   2.513   5.625  0.4085 -0.2383  0.7195
 3096SOL    HW220922   4.584   2.573   5.564  1.5680  4.9807  1.5076
 3097SOL     OW20923   2.705   1.904  14.723  0.6157 -0.6129 -0.0401
 3097SOL    HW120924   2.669   1.947  14.645 -0.0847  0.8851  1.1110
 3097SOL    HW220925   2.622   1.882  14.765  0.2400 -0.5491 -0.7336
 3098SOL     OW20926   4.509   3.904   4.629  0.1224 -0.0318  0.1015
 3098SOL    HW120927   4.433   3.948   4.590  0.6528  2.1635  1.5309
 3098SOL    HW220928   4.581   3.962   4.605 -0.1387  0.0155 -0.5943
 3099SOL     OW20929   1.633   2.217  12.748 -0.0473  0.9176  0.0896
 3099SOL    HW120930   1.697   2.260  12.805  1.0905 -1.8847  0.9178
 3099SOL    HW220931   1.680   2.136  12.728 -0.7204  0.5140  0.1419
 3100SOL     OW20932   2.892   3.850   7.696 -0.5048 -0.2570 -0.0283
 3100SOL    HW120933   2.936   3.825   7.777 -0.8586  0.3976  0.3618
 3100SOL    HW220934   2.854   3.934   7.720  1.6426  0.2069  1.7066
 3101SOL     OW20935   4.471   2.801   4.435 -0.1434 -0.3547 -0.7232
 3101SOL    HW120936   4.429   2.834   4.356  0.9342  0.3345 -1.0167
 3101SOL    HW220937   4.552   2.852   4.437 -0.5600  0.2700  0.7497
 3102SOL     OW20938   1.275   3.074   5.436 -0.5182 -0.3339 -0.1922
 3102SOL    HW120939   1.370   3.064   5.435 -0.6389 -1.4593 -0.7340
 3102SOL    HW220940   1.264   3.166   5.413 -2.1627 -0.8099 -1.2833
 3103SOL     OW20941   0.023   0.516  10.934 -0.1302  0.2066 -0.6193
 3103SOL    HW120942   4.668   0.497  10.959  0.2808  0.6601  1.2636
 3103SOL    HW220943   0.027   0.608  10.961 -0.1867  0.1249 -0.3312
 3104SOL     OW20944   4.120   0.872   2.456  0.1360  0.0318 -0.2024
 3104SOL    HW120945   4.029   0.847   2.473 -0.0936 -0.1533 -1.7190
 3104SOL    HW220946   4.137   0.836   2.369 -0.4912  0.1089 -0.3547
 3105SOL     OW20947   2.007   2.252   0.292  0.3772 -0.4719 -0.0683
 3105SOL    HW120948   2.044   2.319   0.233 -1.2271 -0.2958 -0.8801
 3105SOL    HW220949   1.971   2.317   0.353  2.0818  1.0395 -0.6447
 3106SOL     OW20950   1.606   3.960   2.289  0.1320 -0.0483 -0.5232
 3106SOL    HW120951   1.667   3.984   2.219  0.0283  1.3837 -0.1185
 3106SOL    HW220952   1.530   4.013   2.265  0.6811 -0.0270 -2.2451
 3107SOL     OW20953   2.141   2.291   3.074 -0.3683 -0.6742  0.0981
 3107SOL    HW120954   2.167   2.240   2.998 -1.9317 -0.2999 -0.7048
 3107SOL    HW220955   2.222   2.338   3.094 -0.3334 -0.3024 -0.8794
 3108SOL     OW20956   3.940   2.751   7.636 -0.0758 -0.4562  0.3291
 3108SOL    HW120957   3.941   2.762   7.541  4.3524 -0.2528  0.4129
 3108SOL    HW220958   4.023   2.705   7.648 -0.2915 -0.4786  1.7348
 3109SOL     OW20959   0.711   1.457   1.000  0.1864 -0.1620  0.0788
 3109SOL    HW120960   0.727   1.537   0.949 -0.7047 -0.1636 -0.1979
 3109SOL    HW220961   0.780   1.404   0.959  0.4024  0.7233 -0.7033
 3110SOL     OW20962   4.221   3.787   1.984 -0.0937 -0.5028  0.4427
 3110SOL    HW120963   4.219   3.855   2.053 -1.9102 -0.7308  0.5979
 3110SOL    HW220964   4.137   3.774   1.940  0.0986  0.2290 -0.1444
 3111SOL     OW20965   1.256   1.914   3.942  0.0282  0.2158  0.0739
 3111SOL    HW120966   1.175   1.868   3.918 -0.0784 -0.3916  1.6265
 3111SOL    HW220967   1.238   2.008   3.939  1.7609  0.5260 -0.6411
 3112SOL     OW20968   0.108   1.816   8.077 -0.1121 -0.3683 -0.1622
 3112SOL    HW120969   0.068   1.895   8.042  1.0913  0.7430  1.0022
 3112SOL    HW220970   0.040   1.773   8.129  1.5848 -0.2325  2.1319
 3113SOL     OW20971   3.975   0.370   0.430 -0.6077 -0.4875  0.9131
 3113SOL    HW120972   4.037   0.300   0.407 -0.4497 -0.0958  0.1425
 3113SOL    HW220973   4.027   0.448   0.413 -0.4634 -0.9657 -0.8699
 3114SOL     OW20974   4.673   2.660   0.620 -0.2591  0.0347 -0.3348
 3114SOL    HW120975   4.701   2.688   0.707 -0.7757 -0.9903  0.1556
 3114SOL    HW220976   4.640   2.575   0.650  1.6062 -0.3837  0.5789
 3115SOL     OW20977   1.960   1.483   6.659 -0.2776  0.2198  0.0583
 3115SOL    HW120978   1.876   1.458   6.698  0.2349 -0.0739  0.9699
 3115SOL    HW220979   1.969   1.573   6.691  0.5689 -0.5670  2.0170
 3116SOL     OW20980   2.831   0.304   4.227  0.2943  0.1862  0.3617
 3116SOL    HW120981   2.785   0.226   4.258 -2.3607  0.8168 -2.0184
 3116SOL    HW220982   2.903   0.266   4.175 -0.9600  0.1085 -1.3060
 3117SOL     OW20983   2.340   0.680  12.981  0.2632  0.7463 -0.2516
 3117SOL    HW120984   2.335   0.771  13.010  1.1698  0.5429  0.5105
 3117SOL    HW220985   2.335   0.631  13.063  0.4166  0.3476 -0.4834
 3118SOL     OW20986   4.330   3.562  14.337 -0.2326  0.0083  0.0453
 3118SOL    HW120987   4.253   3.508  14.316  0.1418  0.5039 -2.6548
 3118SOL    HW220988   4.373   3.518  14.410 -1.1649 -0.0301  0.5757
 3119SOL     OW20989   3.535   3.237   4.792 -0.0734 -0.0336 -0.3075
 3119SOL    HW120990   3.578   3.322   4.786  0.4132 -0.1651  1.3582
 3119SOL    HW220991   3.471   3.250   4.722  0.5622  1.0025 -0.6906
 3120SOL     OW20992   3.370   3.734   1.149  0.2244  0.1586  0.2750
 3120SOL    HW120993   3.319   3.740   1.068  1.7003 -1.4133 -0.7728
 3120SOL    HW220994   3.450   3.698   1.110 -0.2570 -1.6084  0.9116
 3121SOL     OW20995   0.296   4.295   0.869 -0.5761  0.4108 -0.3646
 3121SOL    HW120996   0.271   4.203   0.879  0.8690  0.3640  2.7311
 3121SOL    HW220997   0.387   4.288   0.839 -0.0740  1.0094  1.0369
 3122SOL     OW20998   2.798   1.921   9.923  0.4712 -0.0396 -0.1261
 3122SOL    HW120999   2.846   1.981   9.866 -1.7655  0.1627 -1.8036
 3122SOL    HW221000   2.724   1.976   9.946  0.3268  0.0908 -0.9334
 3123SOL     OW21001   1.941   4.108  15.516  0.1522 -0.3442  0.1227
 3123SOL    HW121002   1.970   4.037  15.573  1.2819  0.3945  0.4681
 3123SOL    HW221003   1.856   4.071  15.492  1.0102 -1.3744 -1.3109
 3124SOL     OW21004   1.197   0.301   6.738 -0.2142 -0.1566  0.1149
 3124SOL    HW121005   1.287   0.320   6.766 -0.0521 -1.9638  0.8494
 3124SOL    HW221006   1.152   0.342   6.811 -0.3386 -0.1106  0.0113
 3125SOL     OW21007   2.728   3.001  11.412 -0.3997 -0.3386 -0.3343
 3125SOL    HW121008   2.815   2.966  11.432  0.0852 -0.3468 -2.4894
 3125SOL    HW221009   2.744   3.091  11.382 -0.0605 -0.7063 -1.2502
 3126SOL     OW21010   0.802   1.365   4.605  0.3100  0.0045  0.6764
 3126SOL    HW121011   0.741   1.293   4.585 -1.1257  0.5432  3.2128
 3126SOL    HW221012   0.812   1.412   4.522  3.4104  0.4574  1.3081
 3127SOL     OW21013   0.928   0.215   7.777 -0.5509  0.0177  0.0436
 3127SOL    HW121014   0.883   0.235   7.695 -0.9306 -1.0467  0.0027
 3127SOL    HW221015   0.944   0.121   7.770  1.2668  0.1447  2.5852
 3128SOL     OW21016   1.608   0.785  17.183  0.0455  0.3611 -0.5508
 3128SOL    HW121017   1.514   0.801  17.186 -0.1787 -1.1289  0.3620
 3128SOL    HW221018   1.611   0.704  17.134  1.1986 -0.5605  1.0231
 3129SOL     OW21019   3.313   3.495   0.961  0.4216 -0.4738 -0.2581
 3129SOL    HW121020   3.359   3.538   0.890  0.1665 -0.4602 -0.4155
 3129SOL    HW221021   3.242   3.558   0.975  0.9517 -0.3192  1.7743
 3130SOL     OW21022   1.391   0.310   5.422  0.2407  0.6655  0.5319
 3130SOL    HW121023   1.395   0.229   5.473  1.4174  0.6749  0.4613
 3130SOL    HW221024   1.450   0.281   5.353 -0.9953 -1.7997  0.5123
 3131SOL     OW21025   0.350   2.092  14.222  0.0215  0.3193  0.4774
 3131SOL    HW121026   0.437   2.066  14.189  0.4428 -1.1181  2.7581
 3131SOL    HW221027   0.318   2.158  14.160  0.5978  0.1890  0.0295
 3132SOL     OW21028   3.247   4.184   5.985  0.2429  0.5399 -0.8099
 3132SOL    HW121029   3.275   4.265   5.943  2.0605 -0.2707 -1.1418
 3132SOL    HW221030   3.282   4.116   5.928  0.6244 -1.2024  1.5211
 3133SOL     OW21031   3.603   0.993  10.687  0.1090  0.7688  0.4466
 3133SOL    HW121032   3.587   1.018  10.596 -0.9319  0.8516  0.6512
 3133SOL    HW221033   3.573   0.902  10.693 -0.4440  0.9353  0.3019
 3134SOL     OW21034   1.922   0.408  11.745  0.3195  0.1377 -0.0895
 3134SOL    HW121035   1.868   0.451  11.812 -0.3563 -0.2553 -0.3761
 3134SOL    HW221036   1.851   0.421  11.682  0.2080 -1.9044 -0.4013
 3135SOL     OW21037   4.308   0.565  12.635 -0.2753  0.1785  0.0640
 3135SOL    HW121038   4.253   0.643  12.631 -1.4489 -0.7441 -2.2314
 3135SOL    HW221039   4.251   0.513  12.578 -1.7745 -0.1808  1.8811
 3136SOL     OW21040   2.911   3.145  11.955  0.1382 -0.0505  0.1344
 3136SOL    HW121041   2.939   3.081  12.021 -0.6670 -0.2742  0.2640
 3136SOL    HW221042   2.816   3.149  11.970  0.1997  0.7876  0.3180
 3137SOL     OW21043   0.730   0.382   3.044  0.3078  0.0169  0.5001
 3137SOL    HW121044   0.767   0.457   3.092 -0.4416  1.2155 -0.7848
 3137SOL    HW221045   0.649   0.418   3.009  0.0838 -0.5206  0.4802
 3138SOL     OW21046   4.470   2.306  17.043  0.2332  0.1294  0.1919
 3138SOL    HW121047   4.445   2.215  17.060  2.1790  0.1477  3.1613
 3138SOL    HW221048   4.453   2.344  17.129 -1.6946  0.5274 -0.3571
 3139SOL     OW21049   2.765   2.616   5.451  0.2536 -0.8486 -0.0428
 3139SOL    HW121050   2.721   2.591   5.532  1.7755  1.7672  1.5799
 3139SOL    HW221051   2.694   2.621   5.387 -0.3770 -1.1232  0.6290
 3140SOL     OW21052   3.212   0.533   4.754  0.0033 -0.1588 -0.0935
 3140SOL    HW121053   3.130   0.492   4.783 -0.7821  0.7990 -0.9629
 3140SOL    HW221054   3.178   0.623   4.754  3.0519  0.9978 -0.4934
 3141SOL     OW21055   2.218   1.192   9.493 -0.3679  0.2455  0.4349
 3141SOL    HW121056   2.221   1.154   9.405  2.3995  4.1423 -1.1338
 3141SOL    HW221057   2.282   1.261   9.477  0.1520 -0.6472 -1.3393
 3142SOL     OW21058   2.366   4.341   1.817 -0.1484  0.2783 -0.0233
 3142SOL    HW121059   2.323   4.426   1.827 -2.8566 -1.2323  1.3025
 3142SOL    HW221060   2.457   4.365   1.802  0.0484  0.7678  1.8922
 3143SOL     OW21061   4.561   4.161   8.162 -0.2535  0.0228 -0.4234
 3143SOL    HW121062   4.479   4.115   8.143 -1.4640  0.4403  3.7751
 3143SOL    HW221063   4.563   4.213   8.082  1.4432 -1.2087 -1.1790
 3144SOL     OW21064   3.037   1.526  12.433 -0.4966  0.2374 -0.3810
 3144SOL    HW121065   2.993   1.444  12.412 -0.5058  0.3261 -0.7182
 3144SOL    HW221066   2.974   1.596  12.412 -0.2323  0.6128  0.0767
 3145SOL     OW21067   3.755   2.178   7.352 -0.5597  0.1223  0.7232
 3145SOL    HW121068   3.674   2.135   7.323 -1.0752  2.1394 -0.8550
 3145SOL    HW221069   3.807   2.147   7.278  0.2441 -0.0110  1.3453
 3146SOL     OW21070   4.717   0.991   2.565  0.7180 -0.1383 -0.3559
 3146SOL    HW121071   4.729   0.900   2.591 -0.9950  0.3801  2.2382
 3146SOL    HW221072   4.622   0.988   2.552  0.4975  3.0830  0.4713
 3147SOL     OW21073   0.260   0.265   8.204  0.2914 -0.1777 -0.0669
 3147SOL    HW121074   0.348   0.228   8.202 -0.2163 -1.4027  1.1427
 3147SOL    HW221075   0.253   0.274   8.109  3.7360 -0.7772 -0.3746
 3148SOL     OW21076   4.633   1.457   4.850  0.9265  0.5137 -0.0074
 3148SOL    HW121077   4.591   1.479   4.767 -0.8686  1.7601  1.2404
 3148SOL    HW221078   4.569   1.503   4.905  1.1017 -1.8283  2.1113
 3149SOL     OW21079   1.876   3.383   5.294 -0.2745  0.1594  0.2324
 3149SOL    HW121080   1.873   3.477   5.310 -0.2992  0.3349 -0.7954
 3149SOL    HW221081   1.889   3.384   5.199 -1.0365 -1.7046  0.1135
 3150SOL     OW21082   2.219   2.310   8.773  0.1328 -0.0753  0.1392
 3150SOL    HW121083   2.154   2.366   8.729 -0.0519  0.0720  0.6013
 3150SOL    HW221084   2.166   2.232   8.790 -1.3673  0.9637  0.3386
 3151SOL     OW21085   0.499   0.024  17.603  0.2250 -0.6603  0.0498
 3151SOL    HW121086   0.416   0.059  17.571  0.7746 -1.7210 -2.4895
 3151SOL    HW221087   0.463   4.706  17.674 -2.0374  0.0483 -0.5519
 3152SOL     OW21088   2.770   0.804  11.108  0.7555  0.5736 -0.2840
 3152SOL    HW121089   2.793   0.761  11.025  2.0088 -1.9837  1.3869
 3152SOL    HW221090   2.676   0.807  11.087  0.6197  1.2971  0.4295
 3153SOL     OW21091   3.741   2.665   5.742  0.4196  0.5330  0.0475
 3153SOL    HW121092   3.692   2.700   5.816  2.1005  1.0709  0.9148
 3153SOL    HW221093   3.689   2.590   5.715  1.0268  0.1675 -0.0932
 3154SOL     OW21094   2.925   0.346   5.541  0.4556 -1.1960 -0.7286
 3154SOL    HW121095   2.895   0.349   5.632  1.0405 -1.9069 -0.5111
 3154SOL    HW221096   2.917   0.256   5.510  0.8985 -1.0251 -1.3281
 3155SOL     OW21097   1.961   1.355  16.613  0.1265  0.3157  0.3811
 3155SOL    HW121098   2.046   1.309  16.613  0.9039  1.7346 -2.2338
 3155SOL    HW221099   1.979   1.434  16.561 -0.6499  0.1358 -0.1575
 3156SOL     OW21100   2.396   3.588  12.438  0.5513 -0.1214 -0.2023
 3156SOL    HW121101   2.305   3.619  12.446  0.2852 -0.4969 -1.8220
 3156SOL    HW221102   2.397   3.556  12.348  1.8865  1.1962 -0.6633
 3157SOL     OW21103   3.463   1.691   8.445 -0.1546  0.2471  0.0414
 3157SOL    HW121104   3.395   1.683   8.512 -2.3470  0.8090 -2.1276
 3157SOL    HW221105   3.539   1.693   8.503  1.5125 -2.2861 -2.0487
 3158SOL     OW21106   0.240   3.683  14.576  0.2725 -0.0203 -0.3825
 3158SOL    HW121107   0.255   3.661  14.484  0.9427 -0.0839 -0.2619
 3158SOL    HW221108   0.300   3.627  14.626  0.7948  1.0890  0.2249
 3159SOL     OW21109   3.042   1.092   3.162 -0.1083 -0.0699  0.5338
 3159SOL    HW121110   3.128   1.063   3.192  0.3390  0.1222 -0.5656
 3159SOL    HW221111   2.993   1.091   3.245 -1.0794 -0.5590 -0.0494
 3160SOL     OW21112   3.785   4.307   2.607  0.9025  0.3704  0.1363
 3160SOL    HW121113   3.824   4.324   2.693  0.3463 -1.5316  0.7669
 3160SOL    HW221114   3.696   4.289   2.637  0.5945 -0.6000 -1.3514
 3161SOL     OW21115   3.490   2.336   4.430  0.4046  0.0612  0.4986
 3161SOL    HW121116   3.543   2.261   4.402 -0.0393  0.6796 -2.0086
 3161SOL    HW221117   3.408   2.309   4.390  0.3442  2.0442 -0.7506
 3162SOL     OW21118   1.944   1.637   6.198  0.1238 -0.7600 -0.0318
 3162SOL    HW121119   2.000   1.564   6.223  0.6517 -0.7087 -1.0863
 3162SOL    HW221120   1.933   1.673   6.286  1.0168  1.1660 -0.6867
 3163SOL     OW21121   0.760   4.180  17.086 -0.3013  0.2122  0.5265
 3163SOL    HW121122   0.718   4.264  17.067 -0.1053 -0.0451 -1.0950
 3163SOL    HW221123   0.818   4.202  17.159  2.5921  1.1883 -2.0239
 3164SOL     OW21124   1.411   0.808   8.032 -0.9624  0.1186 -0.1912
 3164SOL    HW121125   1.399   0.716   8.009 -2.7702  0.5501 -0.9621
 3164SOL    HW221126   1.326   0.846   8.009 -0.4298  1.3805 -0.0965
 3165SOL     OW21127   1.729   1.213   6.629  0.0836 -0.2685 -0.2669
 3165SOL    HW121128   1.783   1.224   6.551 -0.0789  3.0697  0.0816
 3165SOL    HW221129   1.751   1.123   6.652  1.2625 -0.3216 -1.6201
 3166SOL     OW21130   3.571   2.667   3.052 -0.3414 -0.1403  0.1016
 3166SOL    HW121131   3.635   2.717   3.103 -1.2874 -0.9701  2.1071
 3166SOL    HW221132   3.625   2.617   2.991  1.7820  1.0419  1.0194
 3167SOL     OW21133   1.139   4.462   8.175 -0.0682 -0.3351  0.4943
 3167SOL    HW121134   1.090   4.520   8.117  2.3237 -1.4745 -2.6498
 3167SOL    HW221135   1.114   4.382   8.129  2.2468  0.0596 -1.4543
 3168SOL     OW21136   1.802   3.968  15.818  0.5660 -0.1468 -0.0213
 3168SOL    HW121137   1.839   4.026  15.752 -1.8412  0.2369 -1.0534
 3168SOL    HW221138   1.722   4.014  15.845 -0.0765 -1.1966 -0.1322
 3169SOL     OW21139   2.044   3.114   6.419  0.3256  0.0762  0.2202
 3169SOL    HW121140   2.088   3.189   6.378  1.0146 -0.3725  0.1411
 3169SOL    HW221141   2.099   3.038   6.398  1.1675  1.0252 -1.0309
 3170SOL     OW21142   0.964   0.363  16.301 -0.5384  0.5191 -0.7152
 3170SOL    HW121143   0.906   0.335  16.230  0.4929 -0.6949 -1.0868
 3170SOL    HW221144   1.037   0.395  16.249  0.1603 -0.7308 -0.5149
 3171SOL     OW21145   3.848   2.095   6.308 -0.6156 -0.2084  0.1896
 3171SOL    HW121146   3.874   2.147   6.384 -1.1324 -0.2378  0.3898
 3171SOL    HW221147   3.827   2.162   6.244 -3.1507 -0.7081  0.5038
 3172SOL     OW21148   4.430   4.557   9.302 -0.1743  0.6070  0.7701
 3172SOL    HW121149   4.503   4.603   9.344  0.0996  1.3709 -0.5616
 3172SOL    HW221150   4.472   4.498   9.240  1.1082  0.9026  1.3654
 3173SOL     OW21151   0.691   4.379  12.321 -0.1842 -0.2657 -0.2184
 3173SOL    HW121152   0.620   4.329  12.360 -1.4017  4.4304  3.5733
 3173SOL    HW221153   0.679   4.362  12.228 -0.2286 -1.1280 -0.0541
 3174SOL     OW21154   2.600   3.745  15.399 -0.1035  0.4814 -0.4851
 3174SOL    HW121155   2.517   3.763  15.443 -0.1742  1.8723 -1.1602
 3174SOL    HW221156   2.568   3.760  15.310 -0.0044  0.9515 -0.4416
 3175SOL     OW21157   0.367   2.934   9.546 -0.3514  0.9619  0.1902
 3175SOL    HW121158   0.297   2.896   9.493  1.2519  0.5359 -1.5824
 3175SOL    HW221159   0.351   3.028   9.537 -4.2775  0.4148  1.2616
 3176SOL     OW21160   1.656   2.854   8.502 -0.3457 -0.2465 -0.2061
 3176SOL    HW121161   1.604   2.847   8.422 -0.5657 -0.3996 -0.0473
 3176SOL    HW221162   1.651   2.948   8.517 -0.1991 -0.5497  1.7261
 3177SOL     OW21163   1.579   1.987   9.230  0.2690 -0.7810  0.0383
 3177SOL    HW121164   1.593   1.975   9.324  0.1062 -0.1196  0.1488
 3177SOL    HW221165   1.484   2.000   9.232  0.5933  1.9748 -1.4599
 3178SOL     OW21166   2.982   2.772   6.290  0.6116  0.1970 -0.1235
 3178SOL    HW121167   3.023   2.858   6.298 -0.3480  0.7402 -1.0132
 3178SOL    HW221168   2.960   2.774   6.197  0.3813 -0.9717 -0.0874
 3179SOL     OW21169   0.761   3.703  10.966 -0.1573 -0.1566 -0.3571
 3179SOL    HW121170   0.684   3.715  11.022 -0.7069  0.1568 -1.1915
 3179SOL    HW221171   0.774   3.790  10.930  0.8498 -0.8622 -1.7100
 3180SOL     OW21172   0.288   1.255   6.371 -0.4609 -0.2279  0.2823
 3180SOL    HW121173   0.353   1.319   6.342 -2.6681  2.2408  0.8489
 3180SOL    HW221174   0.225   1.298   6.428 -0.0506 -1.1197  1.4136
 3181SOL     OW21175   2.594   3.235   8.349 -0.0058  0.8447 -0.1799
 3181SOL    HW121176   2.677   3.282   8.336  0.7106 -0.9026 -1.9854
 3181SOL    HW221177   2.537   3.312   8.353 -0.3818  0.6044 -1.0212
 3182SOL     OW21178   4.158   1.034   9.614  0.0438  0.4360 -0.4629
 3182SOL    HW121179   4.217   0.962   9.639 -0.5990 -0.0383 -0.3111
 3182SOL    HW221180   4.187   1.040   9.523  2.6515  0.3884  0.3553
 3183SOL     OW21181   2.898   3.188   2.187 -0.0791  0.5491 -0.0307
 3183SOL    HW121182   2.951   3.165   2.263 -1.2759  0.1869  0.6834
 3183SOL    HW221183   2.876   3.103   2.149  1.3800  0.1380  0.0279
 3184SOL     OW21184   2.406   0.958  13.412 -0.2245 -0.4588  0.4943
 3184SOL    HW121185   2.470   0.902  13.457  0.1144 -1.3299 -1.0871
 3184SOL    HW221186   2.442   1.045  13.432  3.4819 -1.9709  0.4274
 3185SOL     OW21187   1.505   3.367   6.789 -0.2247 -0.1652  0.1044
 3185SOL    HW121188   1.495   3.283   6.833  0.7626 -0.3644 -0.0414
 3185SOL    HW221189   1.428   3.380   6.733  0.9012  2.0751 -0.9452
 3186SOL     OW21190   3.473   0.402  15.023 -0.1964 -0.3018 -0.0701
 3186SOL    HW121191   3.467   0.353  14.941  0.3026 -0.9143  0.2590
 3186SOL    HW221192   3.385   0.380  15.051 -0.3224  0.2612 -0.0375
 3187SOL     OW21193   2.372   2.063   4.319 -0.0391 -0.1957 -0.1694
 3187SOL    HW121194   2.326   2.094   4.397  2.9942 -0.0404  1.5550
 3187SOL    HW221195   2.296   2.050   4.261  0.5475 -1.1188 -0.7275
 3188SOL     OW21196   3.282   4.527  12.906 -0.3374  0.6776 -0.8855
 3188SOL    HW121197   3.310   4.498  12.819  0.0248 -3.5137  0.6395
 3188SOL    HW221198   3.192   4.498  12.896  0.3023 -0.8611 -2.2377
 3189SOL     OW21199   3.244   0.198   7.357  0.7233 -0.1845  0.3068
 3189SOL    HW121200   3.162   0.245   7.340  1.3506  1.4467  1.7827
 3189SOL    HW221201   3.220   0.163   7.443  0.0354 -1.4266 -0.3940
 3190SOL     OW21202   2.353   4.088  11.629 -0.0566  0.4339  0.4068
 3190SOL    HW121203   2.397   4.173  11.625  1.5624 -0.3655  1.2658
 3190SOL    HW221204   2.284   4.096  11.563  0.6563 -0.0516 -0.4048
 3191SOL     OW21205   2.344   3.289  11.621  0.3020 -0.0840  0.3274
 3191SOL    HW121206   2.295   3.298  11.539 -0.0087 -0.9040  0.4278
 3191SOL    HW221207   2.297   3.227  11.677  1.3996  0.7628  2.1665
 3192SOL     OW21208   3.694   1.646   3.213  0.2818  0.2207 -0.4045
 3192SOL    HW121209   3.720   1.683   3.297 -1.3035  2.0789 -0.7259
 3192SOL    HW221210   3.775   1.612   3.174  0.0913 -1.2222  0.4816
 3193SOL     OW21211   2.213   0.923  11.630  0.1516 -0.2671  0.3940
 3193SOL    HW121212   2.177   0.887  11.711  0.7130 -0.0106  0.7597
 3193SOL    HW221213   2.302   0.892  11.615 -0.2081 -1.5987  0.9932
 3194SOL     OW21214   4.364   1.546   4.187  0.2096  0.1252 -0.3935
 3194SOL    HW121215   4.301   1.561   4.116  0.0607 -0.6717 -0.4274
 3194SOL    HW221216   4.339   1.609   4.255 -1.6532 -0.6416 -0.3820
 3195SOL     OW21217   3.302   1.496   8.014  0.7051 -0.0699 -0.2227
 3195SOL    HW121218   3.374   1.433   8.018  2.4440  1.8626 -1.3372
 3195SOL    HW221219   3.294   1.509   8.109 -1.2106 -1.4416 -0.1944
 3196SOL     OW21220   3.627   0.076   9.003  0.1569 -0.5876 -0.4916
 3196SOL    HW121221   3.637   0.083   8.908  0.7358  0.5818 -0.3421
 3196SOL    HW221222   3.576   0.150   9.035  0.1061  0.1738 -2.3550
 3197SOL     OW21223   1.559   1.576   7.901  0.6069 -0.6003 -0.7714
 3197SOL    HW121224   1.597   1.609   7.982  0.0311  0.2109 -0.8364
 3197SOL    HW221225   1.528   1.660   7.870 -0.6864 -1.5790 -2.1212
 3198SOL     OW21226   1.013   0.580   6.301 -0.8866  0.3650 -0.1135
 3198SOL    HW121227   1.101   0.545   6.288 -0.8407  0.8824 -1.2488
 3198SOL    HW221228   1.006   0.590   6.396  0.0741 -0.1525  0.0056
 3199SOL     OW21229   1.371   2.408  10.347  0.5327 -0.5318 -0.2869
 3199SOL    HW121230   1.317   2.487  10.335  1.7046  0.4387  0.8233
 3199SOL    HW221231   1.370   2.366  10.261 -0.4055 -1.4014  0.1462
 3200SOL     OW21232   2.349   3.499  12.700  0.0748  0.0517  0.1721
 3200SOL    HW121233   2.434   3.455  12.713  0.4173  1.6206  3.1642
 3200SOL    HW221234   2.365   3.559  12.627 -1.6409  1.5046  0.9856
 3201SOL     OW21235   2.329   2.574   7.950  0.3617 -0.0335  0.1362
 3201SOL    HW121236   2.253   2.580   7.892  0.2044  1.1203  0.4653
 3201SOL    HW221237   2.303   2.516   8.022  1.5774  0.2049  0.7543
 3202SOL     OW21238   1.610   0.077   2.713 -0.6546 -0.3085  0.5448
 3202SOL    HW121239   1.565   0.027   2.645 -1.7543  0.7307  0.4975
 3202SOL    HW221240   1.690   0.103   2.667 -0.8893  0.8676  0.8065
 3203SOL     OW21241   2.778   1.818   8.206 -0.0128  0.2432  0.3832
 3203SOL    HW121242   2.685   1.832   8.223 -0.7062 -2.6303 -1.1844
 3203SOL    HW221243   2.785   1.738   8.258 -1.7311  1.6632  2.8253
 3204SOL     OW21244   0.258   0.966   7.453 -0.1488  0.1230  0.4883
 3204SOL    HW121245   0.247   0.983   7.547 -1.4630  1.0375  0.1590
 3204SOL    HW221246   0.297   1.050   7.431 -0.0500  0.1220  0.6580
 3205SOL     OW21247   2.393   3.739   1.535 -0.0885  0.3363 -0.1848
 3205SOL    HW121248   2.483   3.756   1.560 -0.5567  1.2928  0.8535
 3205SOL    HW221249   2.391   3.751   1.440  2.1771  0.0271 -0.2619
 3206SOL     OW21250   0.068   1.065   5.384 -0.5451 -0.3879  0.7907
 3206SOL    HW121251   0.101   1.132   5.323  0.2469 -2.2548 -0.8245
 3206SOL    HW221252   0.129   1.078   5.457  0.8579 -1.4403 -0.1883
 3207SOL     OW21253   2.224   3.329  14.283 -0.3650  0.2618  0.6930
 3207SOL    HW121254   2.192   3.343  14.194 -2.3990 -0.4498  1.3273
 3207SOL    HW221255   2.188   3.242  14.301 -1.4854  0.6733  0.4204
 3208SOL     OW21256   3.366   0.754   8.086 -0.6152 -0.3405  0.6977
 3208SOL    HW121257   3.394   0.794   8.003 -0.2342 -1.0443  0.4825
 3208SOL    HW221258   3.450   0.726   8.122 -0.5085  2.3774  2.5481
 3209SOL     OW21259   2.445   3.409   2.290  0.7657 -0.1521  0.1339
 3209SOL    HW121260   2.453   3.327   2.242  2.9552 -1.1334  2.1512
 3209SOL    HW221261   2.387   3.390   2.364  0.4866  0.9887  0.2086
 3210SOL     OW21262   2.723   2.302   3.703 -0.7272 -0.6721  0.2026
 3210SOL    HW121263   2.686   2.386   3.730  0.2429  0.0725 -0.7907
 3210SOL    HW221264   2.808   2.334   3.673 -0.5134  1.1710  2.7753
 3211SOL     OW21265   1.124   0.037   7.411  0.2826  0.7439  0.5764
 3211SOL    HW121266   1.138   0.021   7.318  0.3085 -0.5439  0.8044
 3211SOL    HW221267   1.070   4.695   7.430 -1.1826  1.2572 -1.5062
 3212SOL     OW21268   1.176   4.541   5.713 -0.1038 -0.1516 -0.4557
 3212SOL    HW121269   1.266   4.508   5.723  0.4678  1.4422 -0.2622
 3212SOL    HW221270   1.182   4.599   5.789 -0.1793 -1.6007  0.6437
 3213SOL     OW21271   4.144   3.326   7.289  0.1087  0.3258 -0.0210
 3213SOL    HW121272   4.142   3.371   7.205  0.0291  3.3180  1.5883
 3213SOL    HW221273   4.236   3.301   7.294  0.0290 -0.4151 -2.3160
 3214SOL     OW21274   2.542   3.836   8.633  0.2492 -0.1190 -0.2259
 3214SOL    HW121275   2.497   3.788   8.703  2.0020  0.4219  1.2600
 3214SOL    HW221276   2.489   3.813   8.557 -0.8364 -0.9764  0.7779
 3215SOL     OW21277   1.761   0.495  14.194  0.0418  0.2556 -0.1721
 3215SOL    HW121278   1.829   0.509  14.128 -0.9197  2.4199 -0.6914
 3215SOL    HW221279   1.753   0.587  14.219  0.8271  0.4868 -0.7855
 3216SOL     OW21280   0.855   4.620   8.596  0.0623 -0.5208 -0.6426
 3216SOL    HW121281   0.877   4.663   8.514  3.4795 -1.0030  0.0400
 3216SOL    HW221282   0.914   4.664   8.657  0.8429 -0.2308 -1.6075
 3217SOL     OW21283   0.916   3.494   1.735  0.9679  0.4092 -0.5824
 3217SOL    HW121284   0.991   3.539   1.696  1.0540  0.8355  0.0703
 3217SOL    HW221285   0.858   3.533   1.669 -0.7121 -1.2458 -0.0642
 3218SOL     OW21286   3.611   0.710  15.100 -0.2879 -0.4319 -0.2370
 3218SOL    HW121287   3.550   0.671  15.163 -2.4445  2.6897 -0.3789
 3218SOL    HW221288   3.600   0.803  15.120  0.2519 -0.4738  0.2645
 3219SOL     OW21289   2.512   2.013  12.427  0.0940  0.3559 -0.2283
 3219SOL    HW121290   2.473   1.961  12.498  0.4463  0.8491  0.3235
 3219SOL    HW221291   2.534   2.098  12.465 -1.8554  1.6149 -1.9537
 3220SOL     OW21292   2.855   0.043  15.481 -0.2127 -0.4722 -0.8748
 3220SOL    HW121293   2.781   0.032  15.541 -0.2123 -2.0054 -1.1538
 3220SOL    HW221294   2.850   4.694  15.435  1.0767  0.2105 -2.2595
 3221SOL     OW21295   3.345   4.143  13.127 -0.1505  0.0261  0.2636
 3221SOL    HW121296   3.427   4.114  13.087 -1.0068 -1.6644 -0.2551
 3221SOL    HW221297   3.353   4.237  13.142 -2.2779  0.7731 -3.2435
 3222SOL     OW21298   1.402   1.519   9.264 -0.1323 -0.1867  0.2838
 3222SOL    HW121299   1.460   1.571   9.319 -1.4893  1.5328  0.1040
 3222SOL    HW221300   1.383   1.572   9.187 -0.6340 -1.0882 -0.2162
 3223SOL     OW21301   3.531   1.388   2.086  0.6531 -0.3069 -0.4829
 3223SOL    HW121302   3.516   1.298   2.114  0.9538 -0.5847 -1.2045
 3223SOL    HW221303   3.452   1.414   2.040 -0.1498 -1.6193  0.1599
 3224SOL     OW21304   0.816   2.276   2.085  0.4773  0.3317  0.0857
 3224SOL    HW121305   0.744   2.290   2.147 -0.0296  1.7178 -0.8046
 3224SOL    HW221306   0.821   2.365   2.051 -0.1026  0.7008  0.9454
 3225SOL     OW21307   0.225   2.750   3.850 -0.3378 -0.0135  0.1697
 3225SOL    HW121308   0.186   2.779   3.767  1.0965  3.6436  0.7713
 3225SOL    HW221309   0.311   2.791   3.840 -0.4176  0.2288  0.4696
 3226SOL     OW21310   3.229   1.899   7.293  0.2984  0.6668 -0.1575
 3226SOL    HW121311   3.168   1.826   7.279  1.6818 -0.6450  0.6670
 3226SOL    HW221312   3.170   1.958   7.339 -0.7262 -0.8343  0.4697
 3227SOL     OW21313   0.372   4.203   1.236 -0.0447 -0.4819  0.0224
 3227SOL    HW121314   0.422   4.185   1.157  2.0082  1.4774  0.8634
 3227SOL    HW221315   0.332   4.285   1.206 -1.5970 -1.1434  0.2778
 3228SOL     OW21316   3.063   0.042   6.686  0.0358  0.1746 -0.1749
 3228SOL    HW121317   3.023   4.691   6.684  2.5746 -1.0784  3.5944
 3228SOL    HW221318   2.988   0.102   6.683  1.3031  1.7410 -1.0133
 3229SOL     OW21319   1.425   0.854  16.478 -0.6126  0.2256  0.0302
 3229SOL    HW121320   1.403   0.942  16.508  0.7538  0.2054  1.1102
 3229SOL    HW221321   1.481   0.879  16.405 -0.1816 -0.1050  0.2443
 3230SOL     OW21322   1.115   3.854  15.953  0.2913 -0.6908 -0.4408
 3230SOL    HW121323   1.211   3.855  15.961  0.2842 -1.2558 -0.3248
 3230SOL    HW221324   1.086   3.813  16.034  0.4195 -0.4927 -0.2937
 3231SOL     OW21325   1.764   2.337   4.350 -0.0897 -0.4281 -0.1612
 3231SOL    HW121326   1.693   2.380   4.302  0.5047  1.7388  0.8684
 3231SOL    HW221327   1.798   2.281   4.281 -0.9841 -3.7816  2.1353
 3232SOL     OW21328   4.174   1.797   6.735  0.8198 -0.3648  0.5251
 3232SOL    HW121329   4.164   1.710   6.697  1.5574 -0.6511  0.9782
 3232SOL    HW221330   4.115   1.848   6.680  0.9228 -0.2207  0.5473
 3233SOL     OW21331   2.136   1.197   5.757  0.0058  0.1719 -0.6887
 3233SOL    HW121332   2.116   1.130   5.822 -0.7106 -0.0975 -1.1792
 3233SOL    HW221333   2.098   1.280   5.788  0.0929  0.2504 -0.7944
 3234SOL     OW21334   0.122   3.608   5.346  0.0228  0.3527 -0.3370
 3234SOL    HW121335   0.107   3.531   5.401 -0.3229  0.7590  0.1387
 3234SOL    HW221336   0.203   3.644   5.384 -1.3964  3.2935 -0.1131
 3235SOL     OW21337   1.582   1.526   3.173  0.1715  0.2051 -0.0483
 3235SOL    HW121338   1.672   1.530   3.143 -0.3536  0.8228 -1.5281
 3235SOL    HW221339   1.595   1.574   3.255 -0.8177  0.0090  0.2206
 3236SOL     OW21340   2.905   0.384   6.042 -0.7878 -0.8599 -0.5804
 3236SOL    HW121341   2.870   0.447   6.105  1.5835  1.4683 -1.5559
 3236SOL    HW221342   2.906   0.309   6.100 -4.2828  0.8815  1.7184
 3237SOL     OW21343   4.076   2.977  16.425 -0.2758  0.4799 -1.2405
 3237SOL    HW121344   4.146   2.912  16.433 -0.8565 -0.1148 -0.9360
 3237SOL    HW221345   4.040   2.970  16.514 -0.0239 -1.4551 -1.2809
 3238SOL     OW21346   4.212   3.904   8.475  0.0593  0.1725  0.2574
 3238SOL    HW121347   4.281   3.896   8.541 -0.9625  0.9054  1.4149
 3238SOL    HW221348   4.255   3.922   8.392 -0.3614  0.5566  0.1247
 3239SOL     OW21349   1.467   1.884   3.607 -0.4173  0.1857 -0.6790
 3239SOL    HW121350   1.442   1.803   3.652  0.3287 -0.0034 -0.5934
 3239SOL    HW221351   1.396   1.888   3.543 -0.1671 -0.3323 -0.9967
 3240SOL     OW21352   0.410   1.116   2.282 -0.3535 -0.2052  0.3024
 3240SOL    HW121353   0.408   1.112   2.186 -2.5282  0.6944  0.3219
 3240SOL    HW221354   0.322   1.082   2.299  0.2950 -1.8643  0.4076
 3241SOL     OW21355   1.207   0.012   5.298 -0.0465 -0.5671 -0.1949
 3241SOL    HW121356   1.161   4.663   5.292 -0.0337 -0.5321 -0.7658
 3241SOL    HW221357   1.152   0.069   5.244 -1.3168 -0.3555  1.3522
 3242SOL     OW21358   0.053   2.178  15.802 -0.0726 -0.3567  0.3059
 3242SOL    HW121359   0.058   2.273  15.814 -0.3615 -0.4412  1.0854
 3242SOL    HW221360   0.061   2.163  15.708  2.0382 -0.5568  0.5297
 3243SOL     OW21361   2.020   3.974  17.366 -0.0763  0.2742 -0.1049
 3243SOL    HW121362   2.037   3.907  17.300 -0.3463 -0.5690  0.6944
 3243SOL    HW221363   1.925   3.981  17.358  0.2103  2.8887 -1.2945
 3244SOL     OW21364   0.794   3.208   0.937  0.2193 -0.1483  0.1830
 3244SOL    HW121365   0.848   3.131   0.918 -1.1144 -0.6403 -1.5784
 3244SOL    HW221366   0.769   3.232   0.848  0.9028 -2.4435 -0.6379
 3245SOL     OW21367   3.362   4.109   2.815  0.5449  0.3929  0.0078
 3245SOL    HW121368   3.423   4.174   2.782  0.7773  0.2432  0.1473
 3245SOL    HW221369   3.324   4.160   2.887  0.6362 -0.0736  0.3879
 3246SOL     OW21370   1.677   1.059   4.412  0.4489 -0.4248 -0.0421
 3246SOL    HW121371   1.592   1.016   4.421 -0.1679  1.2405  2.2318
 3246SOL    HW221372   1.700   1.012   4.332  2.8525 -0.5308  0.6927
 3247SOL     OW21373   3.882   1.713   6.155  0.1965  0.1220 -0.5427
 3247SOL    HW121374   3.793   1.733   6.182  1.5686  2.4240  2.3123
 3247SOL    HW221375   3.933   1.744   6.230 -1.8917 -0.5351  1.1234
 3248SOL     OW21376   1.724   0.582   3.655  0.3403 -0.4320 -0.5606
 3248SOL    HW121377   1.724   0.611   3.564 -0.6530  2.8200  0.4911
 3248SOL    HW221378   1.636   0.611   3.680  1.0758  1.5976 -0.3313
 3249SOL     OW21379   1.238   3.700   0.782 -0.2381  0.3211 -0.0118
 3249SOL    HW121380   1.313   3.674   0.836 -0.5825  0.4472  0.5265
 3249SOL    HW221381   1.262   3.775   0.729 -1.2657 -1.3999 -2.9154
 3250SOL     OW21382   2.075   4.108  16.241 -0.1081  0.4003 -0.2986
 3250SOL    HW121383   2.081   4.012  16.243  0.0345  0.4187  0.2388
 3250SOL    HW221384   2.165   4.123  16.270  0.3222 -0.9970 -0.8733
 3251SOL     OW21385   2.870   1.983  14.261 -0.0247 -0.6671 -0.6336
 3251SOL    HW121386   2.950   1.988  14.313 -0.3359  1.3583 -0.3534
 3251SOL    HW221387   2.885   2.059  14.203  0.0594  0.2620  0.6066
 3252SOL     OW21388   0.999   2.407   4.865  0.3188  0.1927  0.4877
 3252SOL    HW121389   0.953   2.347   4.924 -0.0167  1.5284  1.5819
 3252SOL    HW221390   1.053   2.452   4.930 -0.4863 -0.9019  1.9022
 3253SOL     OW21391   4.527   3.495   7.152  0.1589 -0.1434  0.1951
 3253SOL    HW121392   4.562   3.583   7.136 -2.5617  0.8955 -0.0941
 3253SOL    HW221393   4.447   3.536   7.187  1.0385  1.1648  0.6872
 3254SOL     OW21394   2.721   0.522   6.273 -0.9562 -0.0039 -0.2322
 3254SOL    HW121395   2.733   0.446   6.330 -3.2076 -0.0705  0.1281
 3254SOL    HW221396   2.771   0.596   6.307  0.0212  0.2093 -2.0964
 3255SOL     OW21397   4.189   1.802   4.802  0.4464  0.2965 -0.6596
 3255SOL    HW121398   4.228   1.763   4.724  0.7432  1.3341 -1.0299
 3255SOL    HW221399   4.113   1.745   4.814  0.7616 -0.0919 -0.5051
 3256SOL     OW21400   4.537   2.978   8.041  0.2202  0.1296  0.1985
 3256SOL    HW121401   4.474   2.958   8.110  0.5770 -1.4007  0.0743
 3256SOL    HW221402   4.488   2.936   7.970 -0.9758  0.0419  1.0857
 3257SOL     OW21403   1.032   1.369   5.793  0.8372 -0.5994 -0.2360
 3257SOL    HW121404   1.006   1.460   5.778  1.0657 -0.5293 -0.2116
 3257SOL    HW221405   1.106   1.382   5.852  1.1140  1.9533 -1.1455
 3258SOL     OW21406   3.855   1.928   8.446 -0.0531 -0.6046 -0.0572
 3258SOL    HW121407   3.779   1.967   8.489 -0.5347 -2.6029  0.8823
 3258SOL    HW221408   3.815   1.860   8.392  0.7852 -2.3701  1.5488
 3259SOL     OW21409   0.227   3.686   0.464  0.2457  0.1570 -0.0680
 3259SOL    HW121410   0.141   3.649   0.484  0.4558  0.0260  0.5716
 3259SOL    HW221411   0.222   3.769   0.510 -1.6433  0.1310 -0.2481
 3260SOL     OW21412   0.646   3.706   7.098  0.2336 -0.6048 -0.0600
 3260SOL    HW121413   0.664   3.720   7.005 -0.3882  0.9644  0.0566
 3260SOL    HW221414   0.584   3.634   7.089  2.0442 -1.7396 -3.7129
 3261SOL     OW21415   2.807   4.511   0.258 -0.3315  0.0467 -0.3763
 3261SOL    HW121416   2.889   4.523   0.307 -1.0893 -0.2971  0.9580
 3261SOL    HW221417   2.755   4.581   0.297 -0.3827 -0.1620 -0.0684
 3262SOL     OW21418   0.925   2.683  16.798  0.7824 -0.5353  0.1131
 3262SOL    HW121419   0.854   2.734  16.838 -0.5987 -0.9305 -1.8430
 3262SOL    HW221420   0.874   2.624  16.743  0.5523 -0.0232 -0.2261
 3263SOL     OW21421   4.570   1.179   9.056 -0.0243 -0.1531  0.1503
 3263SOL    HW121422   4.559   1.208   9.147 -0.3603  1.1201 -0.2969
 3263SOL    HW221423   4.616   1.095   9.064 -0.6517 -0.4775  0.3493
 3264SOL     OW21424   0.763   4.498   2.014 -0.0364  0.0426  0.0056
 3264SOL    HW121425   0.827   4.431   1.990 -0.3169 -1.0570  2.4261
 3264SOL    HW221426   0.763   4.492   2.109  0.8225 -0.7628 -0.0471
 3265SOL     OW21427   0.363   0.343   0.730 -0.5432  0.1444 -0.2958
 3265SOL    HW121428   0.403   0.342   0.643  4.2404 -2.3059  1.9593
 3265SOL    HW221429   0.269   0.339   0.711 -0.7381  2.2246  0.2420
 3266SOL     OW21430   4.059   3.575  14.091 -0.5736 -0.2050 -0.2365
 3266SOL    HW121431   3.980   3.565  14.038 -1.0062 -0.4438  0.4692
 3266SOL    HW221432   4.035   3.640  14.156 -0.1374 -0.6656  0.3847
 3267SOL     OW21433   0.843   2.186   3.621 -0.0816  0.0559  1.1302
 3267SOL    HW121434   0.808   2.229   3.543  1.9981 -0.8835 -0.3108
 3267SOL    HW221435   0.938   2.198   3.615 -0.3178  2.2061  1.4074
 3268SOL     OW21436   2.891   4.432   2.214  0.1023  0.4397 -0.1371
 3268SOL    HW121437   2.951   4.384   2.271  2.2337  2.3511 -0.7632
 3268SOL    HW221438   2.816   4.448   2.273  0.8205 -0.6828  1.0699
 3269SOL     OW21439   3.921   0.205   8.973  0.7443 -0.5146  0.5533
 3269SOL    HW121440   3.883   0.275   8.919 -1.9932 -2.4175  0.0079
 3269SOL    HW221441   3.840   0.163   9.003  0.2460  0.1203  0.1044
 3270SOL     OW21442   1.358   3.667   3.771  0.4788 -0.1735  0.0683
 3270SOL    HW121443   1.442   3.647   3.731  0.5652 -0.5257  0.4310
 3270SOL    HW221444   1.378   3.754   3.806 -0.2422  0.1651 -0.3594
 3271SOL     OW21445   0.596   1.420   5.380  0.2334 -0.1580 -0.6226
 3271SOL    HW121446   0.588   1.341   5.433  1.0981 -1.0827 -1.8747
 3271SOL    HW221447   0.691   1.434   5.386  0.4610 -1.9634 -0.0839
 3272SOL     OW21448   4.123   4.090   6.871 -0.3951  0.3518  0.2069
 3272SOL    HW121449   4.085   4.019   6.921  0.4312 -0.9622 -1.0208
 3272SOL    HW221450   4.048   4.098   6.812 -1.9725 -1.6948  1.9694
 3273SOL     OW21451   0.131   1.813   5.931  0.1263 -0.2545  0.2660
 3273SOL    HW121452   0.038   1.834   5.940  0.4054  0.2455  2.1294
 3273SOL    HW221453   0.147   1.816   6.026 -3.2907 -0.2723  0.8274
 3274SOL     OW21454   3.149   1.153   9.115  0.0479 -0.1169  0.1243
 3274SOL    HW121455   3.125   1.230   9.065 -1.9298  0.3228  1.7213
 3274SOL    HW221456   3.088   1.087   9.081  0.2741  0.0093 -0.5105
 3275SOL     OW21457   2.254   3.744  11.948  0.4681 -0.2114 -0.1055
 3275SOL    HW121458   2.162   3.760  11.970  0.3754 -1.1529  0.1805
 3275SOL    HW221459   2.260   3.769  11.856  1.0449  1.6992  0.4440
 3276SOL     OW21460   4.281   3.808   8.796 -0.1260  0.1198  0.1866
 3276SOL    HW121461   4.314   3.892   8.828  3.2004 -0.2406 -2.3679
 3276SOL    HW221462   4.190   3.836   8.784  0.5879  2.9549  1.2521
 3277SOL     OW21463   1.145   2.867   3.695 -0.9168  0.2293  0.4513
 3277SOL    HW121464   1.074   2.813   3.659 -1.7728  1.4901  0.2477
 3277SOL    HW221465   1.119   2.956   3.672  0.2097  0.8892  1.7601
 3278SOL     OW21466   0.769   1.558   0.189  0.0670  0.2437  0.5111
 3278SOL    HW121467   0.697   1.510   0.230 -0.3311  0.0314 -0.4541
 3278SOL    HW221468   0.737   1.644   0.163  1.2596  0.1429 -1.2876
 3279SOL     OW21469   1.620   3.124   2.515  0.4655  0.0337 -0.9629
 3279SOL    HW121470   1.604   3.077   2.434 -0.7692 -0.9831 -0.1367
 3279SOL    HW221471   1.545   3.182   2.524 -0.9474 -2.2491  1.9245
 3280SOL     OW21472   3.503   3.303   2.203 -0.4425  0.2332  0.0038
 3280SOL    HW121473   3.587   3.346   2.223 -1.0413  2.2523 -1.7864
 3280SOL    HW221474   3.457   3.367   2.149 -0.9845 -1.3512 -1.4091
 3281SOL     OW21475   1.643   0.822   6.590 -0.3374 -0.2976  0.5607
 3281SOL    HW121476   1.658   0.902   6.641 -1.5244  0.5457 -0.4083
 3281SOL    HW221477   1.712   0.766   6.625  0.7342  0.4006 -0.4413
 3282SOL     OW21478   1.334   3.248   4.946  0.5114 -0.0233  0.2080
 3282SOL    HW121479   1.373   3.189   5.010  1.6340  0.6493  0.1438
 3282SOL    HW221480   1.249   3.275   4.981  0.4805  0.1608 -0.0090
 3283SOL     OW21481   1.558   3.195   4.555  0.2123  0.0407  0.1840
 3283SOL    HW121482   1.538   3.148   4.636  2.0043 -2.2806 -0.7098
 3283SOL    HW221483   1.528   3.135   4.487 -0.3341 -1.4344  1.7018
 3284SOL     OW21484   3.729   0.643   3.444  0.6290  0.3609 -0.1660
 3284SOL    HW121485   3.773   0.645   3.529 -0.3255  0.1507  0.3321
 3284SOL    HW221486   3.715   0.551   3.420  0.7947  0.2032  0.3216
 3285SOL     OW21487   4.653   3.681   1.971 -0.3213  0.4307  0.2244
 3285SOL    HW121488   4.693   3.646   1.892 -1.0853 -0.4047  0.2075
 3285SOL    HW221489   4.566   3.709   1.941 -0.7821 -0.7234  0.5050
 3286SOL     OW21490   3.491   2.039   3.055  0.4032 -0.6441 -0.0637
 3286SOL    HW121491   3.535   2.115   3.094  1.3697 -1.8035  1.1094
 3286SOL    HW221492   3.554   1.995   2.999 -0.8868 -0.6505 -1.5136
 3287SOL     OW21493   1.258   0.189   4.406 -0.2011 -0.7613  0.2971
 3287SOL    HW121494   1.296   0.177   4.492 -0.8346  2.1453  0.9908
 3287SOL    HW221495   1.165   0.196   4.426 -0.2514  0.4299 -0.2877
 3288SOL     OW21496   1.969   4.271  10.452 -0.8558  0.2602 -0.0224
 3288SOL    HW121497   1.989   4.365  10.459  1.3707 -0.1428 -0.7593
 3288SOL    HW221498   1.958   4.263  10.357 -1.2036  0.6943 -0.0219
 3289SOL     OW21499   2.402   2.467   9.509  0.0551  0.5564  0.4611
 3289SOL    HW121500   2.356   2.388   9.478 -1.1540  0.8022  1.6269
 3289SOL    HW221501   2.450   2.487   9.429  1.2433 -1.1097  0.7599
 3290SOL     OW21502   2.823   4.287   6.784  0.0615 -0.3463 -0.3896
 3290SOL    HW121503   2.731   4.290   6.757  0.4022 -2.1463 -1.6560
 3290SOL    HW221504   2.812   4.306   6.878  0.1857  0.3283 -0.5115
 3291SOL     OW21505   4.584   3.463   6.651 -0.3319 -0.5646  0.1539
 3291SOL    HW121506   4.569   3.455   6.746 -0.9136 -0.8742  0.0340
 3291SOL    HW221507   4.636   3.543   6.641 -0.4266 -0.5275 -0.0440
 3292SOL     OW21508   2.175   0.286   2.074 -0.1003  0.0035 -0.0903
 3292SOL    HW121509   2.086   0.316   2.094 -0.5002 -1.0673 -0.2860
 3292SOL    HW221510   2.179   0.312   1.982  4.9476  0.6080  0.2869
 3293SOL     OW21511   0.676   3.862   0.556  0.3844 -0.5604 -0.2303
 3293SOL    HW121512   0.606   3.881   0.494  0.0720 -0.7102  0.0784
 3293SOL    HW221513   0.642   3.806   0.626 -0.9620 -0.6352 -0.9584
 3294SOL     OW21514   1.760   0.332   1.861  0.4007 -0.1718  0.2648
 3294SOL    HW121515   1.714   0.248   1.864  0.9100 -0.5117 -1.4074
 3294SOL    HW221516   1.689   0.390   1.833  0.7574  0.7041  1.1741
 3295SOL     OW21517   0.581   3.866  13.304 -0.3184  0.3484  0.5461
 3295SOL    HW121518   0.605   3.773  13.296  0.7293  0.7498 -0.9216
 3295SOL    HW221519   0.634   3.878  13.382  0.3521 -1.3679  0.3626
 3296SOL     OW21520   0.061   2.270   5.564  0.1371  0.6682  0.5191
 3296SOL    HW121521   0.117   2.215   5.619  0.0428  0.3921  0.3394
 3296SOL    HW221522   4.712   2.225   5.573 -0.2111  1.1120 -0.4521
 3297SOL     OW21523   0.678   0.996   4.425  0.0952  0.1834  0.2449
 3297SOL    HW121524   0.633   1.029   4.503 -0.9506 -0.2289 -0.1938
 3297SOL    HW221525   0.634   1.052   4.361 -1.6061 -0.3466  0.9702
 3298SOL     OW21526   0.923   2.458  14.156  0.0378  0.6480 -0.7924
 3298SOL    HW121527   0.864   2.392  14.193 -2.0244  2.0296 -1.6431
 3298SOL    HW221528   0.885   2.533  14.201 -0.4011 -0.4248  0.6234
 3299SOL     OW21529   0.202   2.477   4.234 -0.3359  0.6063  0.2808
 3299SOL    HW121530   0.200   2.564   4.193 -1.2881  0.2537 -0.4087
 3299SOL    HW221531   0.224   2.430   4.153  3.1788  0.6016  1.2038
 3300SOL     OW21532   0.925   0.356   8.449 -0.2384 -0.3220  0.0177
 3300SOL    HW121533   0.868   0.283   8.471 -0.5648 -0.4557 -1.2939
 3300SOL    HW221534   1.004   0.318   8.487 -0.4298 -0.8355 -0.1062
 3301SOL     OW21535   2.444   0.395   8.285 -0.3283  0.1293  0.4558
 3301SOL    HW121536   2.400   0.329   8.339 -2.2517  1.3106  0.3709
 3301SOL    HW221537   2.371   0.455   8.268 -0.3088  0.8790  2.9257
 3302SOL     OW21538   1.080   0.389   2.336  0.1862  0.1144  0.4609
 3302SOL    HW121539   1.097   0.344   2.419 -0.4887  1.6816  1.4546
 3302SOL    HW221540   0.993   0.367   2.304  0.8102 -0.7976 -0.5970
 3303SOL     OW21541   2.694   2.696   2.784  0.3356 -0.4390  0.0014
 3303SOL    HW121542   2.665   2.733   2.701  0.1807  2.0881  1.1729
 3303SOL    HW221543   2.670   2.767   2.843  0.2811  0.2122 -0.8141
 3304SOL     OW21544   1.980   0.448   9.332  0.0726 -0.4937 -0.3065
 3304SOL    HW121545   1.919   0.483   9.267 -1.6678  1.4333  2.3614
 3304SOL    HW221546   2.018   0.372   9.288  0.4244 -1.7204  2.1094
 3305SOL     OW21547   1.714   3.419   9.935  0.3709  0.1598 -0.1162
 3305SOL    HW121548   1.736   3.338   9.889 -1.5203  0.2671 -1.2560
 3305SOL    HW221549   1.623   3.389   9.938  0.4077 -0.0651 -1.1524
 3306SOL     OW21550   0.362   3.224   3.268  0.0443 -0.2185  0.3628
 3306SOL    HW121551   0.354   3.147   3.211 -0.6445  2.1881 -2.7847
 3306SOL    HW221552   0.370   3.188   3.357  0.2120 -0.0829  0.4041
 3307SOL     OW21553   1.588   3.628   7.130 -0.7905  0.5954 -0.6773
 3307SOL    HW121554   1.642   3.588   7.199  0.0776  1.0763 -1.0747
 3307SOL    HW221555   1.649   3.586   7.069  0.6113 -0.5795  1.5224
 3308SOL     OW21556   3.228   3.461   4.803 -1.0373 -0.2277 -0.3530
 3308SOL    HW121557   3.207   3.544   4.845 -2.3798 -0.7303 -0.0456
 3308SOL    HW221558   3.152   3.412   4.833 -0.9588  1.4907  2.7016
 3309SOL     OW21559   4.144   3.382   4.404  0.0688  0.4304 -0.2000
 3309SOL    HW121560   4.106   3.468   4.422 -1.2888 -0.7633  2.6605
 3309SOL    HW221561   4.119   3.369   4.312  2.8945 -0.1063 -0.8935
 3310SOL     OW21562   0.753   2.105   6.495  0.4875 -0.0959 -0.0120
 3310SOL    HW121563   0.738   2.011   6.493  0.7825 -0.1592  0.9940
 3310SOL    HW221564   0.665   2.131   6.523  1.1729  0.9387  1.2090
 3311SOL     OW21565   4.641   2.768  16.683 -0.7958 -0.4407 -0.1022
 3311SOL    HW121566   4.555   2.774  16.722 -1.1595  0.1316 -0.9986
 3311SOL    HW221567   4.689   2.746  16.763  0.2259  1.5463 -0.1575
 3312SOL     OW21568   3.158   3.945   2.729 -1.1618 -0.0644  0.1662
 3312SOL    HW121569   3.210   4.015   2.768 -2.1084 -0.9083  2.9371
 3312SOL    HW221570   3.205   3.866   2.758 -0.7536  0.0752 -0.1101
 3313SOL     OW21571   1.741   1.469   2.460 -0.3689 -0.4603  0.5837
 3313SOL    HW121572   1.675   1.530   2.491 -0.6489 -0.0321 -0.8524
 3313SOL    HW221573   1.814   1.485   2.520  0.7267  2.6036 -1.5558
 3314SOL     OW21574   1.475   2.699   8.998 -0.1567 -0.0452 -0.0594
 3314SOL    HW121575   1.518   2.623   9.036  0.1924  0.3217  0.2880
 3314SOL    HW221576   1.408   2.661   8.942 -0.6121  0.9953 -0.2339
 3315SOL     OW21577   0.740   3.469  12.056  0.3745 -0.5239  0.2367
 3315SOL    HW121578   0.767   3.534  12.120 -2.1533  0.7094  0.0207
 3315SOL    HW221579   0.803   3.398  12.068 -0.5915 -1.4069  0.0869
 3316SOL     OW21580   3.893   3.263   7.104 -0.1056 -0.0422 -0.1999
 3316SOL    HW121581   3.892   3.358   7.115  1.3096 -0.0044 -0.5195
 3316SOL    HW221582   3.804   3.259   7.068 -0.4856  2.9434  0.3549
 3317SOL     OW21583   0.724   4.313   8.174  0.8257 -0.1601 -0.8088
 3317SOL    HW121584   0.754   4.394   8.214 -0.6257 -0.2904  0.5653
 3317SOL    HW221585   0.780   4.240   8.201 -0.6472 -0.5939  1.1417
 3318SOL     OW21586   0.997   0.031  14.044  0.3545 -0.6444 -0.3041
 3318SOL    HW121587   1.011   4.723  14.129  1.3223 -1.3083 -0.8034
 3318SOL    HW221588   1.068   0.003  13.986  1.7618  0.7870  0.7375
 3319SOL     OW21589   0.796   4.698   6.615  0.1076 -0.0148 -0.1243
 3319SOL    HW121590   0.892   4.702   6.614  0.0548  1.2246 -0.2479
 3319SOL    HW221591   0.789   4.602   6.614  1.1628 -0.1082  0.9503
 3320SOL     OW21592   4.219   0.801   4.320  0.2114 -0.9156 -0.0519
 3320SOL    HW121593   4.215   0.801   4.415 -1.6671 -0.7282 -0.1413
 3320SOL    HW221594   4.124   0.802   4.311  0.3335 -1.8025 -1.5752
 3321SOL     OW21595   3.226   0.025   9.708 -0.4767 -0.1230 -0.0938
 3321SOL    HW121596   3.320   0.037   9.700 -0.7779  3.0620  1.1887
 3321SOL    HW221597   3.209   0.057   9.796 -0.7556  0.8819 -0.5163
 3322SOL     OW21598   3.520   1.664   2.167  0.2139 -0.0388 -0.0819
 3322SOL    HW121599   3.542   1.578   2.132  2.6064  0.6849 -0.3319
 3322SOL    HW221600   3.432   1.648   2.201  0.4561  1.0845  1.0669
 3323SOL     OW21601   0.930   2.570   1.868  0.1470  0.0216 -0.2159
 3323SOL    HW121602   0.973   2.486   1.880 -1.3697 -0.5290  1.2650
 3323SOL    HW221603   0.858   2.566   1.930 -1.2398 -1.3975 -1.9407
 3324SOL     OW21604   0.761   3.747   1.386 -0.9654  0.0793 -0.1364
 3324SOL    HW121605   0.727   3.763   1.474 -0.5255 -0.4163  0.1285
 3324SOL    HW221606   0.754   3.830   1.339 -3.0943  0.8083  1.4791
 3325SOL     OW21607   2.958   2.599   9.669 -0.0420  0.1267  0.2868
 3325SOL    HW121608   3.036   2.561   9.627 -2.8330  0.5986 -5.2952
 3325SOL    HW221609   2.915   2.620   9.586 -0.4463  1.4171  0.8322
 3326SOL     OW21610   4.630   4.700   5.977  0.3724 -0.4790 -0.2162
 3326SOL    HW121611   4.623   4.610   6.008  0.6422 -0.1957  0.6713
 3326SOL    HW221612   4.600   0.012   6.055 -2.4268 -1.9448 -0.4384
 3327SOL     OW21613   3.501   3.235   4.159 -0.1858  0.0270  0.0608
 3327SOL    HW121614   3.427   3.295   4.156  0.6126  1.1160  1.9849
 3327SOL    HW221615   3.470   3.166   4.218  1.8825  0.5588  1.7713
 3328SOL     OW21616   0.118   4.432   3.836 -0.4338 -0.1963 -0.5408
 3328SOL    HW121617   0.091   4.380   3.912 -0.8433 -1.2699 -1.4175
 3328SOL    HW221618   0.120   4.524   3.863 -1.6316  0.1611 -1.7133
 3329SOL     OW21619   1.663   2.256   3.421  0.1271  0.5183 -0.4215
 3329SOL    HW121620   1.635   2.167   3.401 -1.8904  1.1455 -0.4163
 3329SOL    HW221621   1.756   2.252   3.401  0.2774 -0.7088  0.5573
 3330SOL     OW21622   0.351   3.908   5.268 -0.4888 -0.0039 -0.0819
 3330SOL    HW121623   0.271   3.954   5.243 -0.3187 -0.2233 -1.0351
 3330SOL    HW221624   0.370   3.862   5.186  0.3005 -0.3690  0.3021
 3331SOL     OW21625   4.075   3.877   2.495  0.2221  0.2821 -0.0248
 3331SOL    HW121626   4.055   3.878   2.588  0.4239 -0.6158  0.0339
 3331SOL    HW221627   3.989   3.885   2.455  0.4064 -1.6486 -0.8101
 3332SOL     OW21628   2.963   0.069   2.755 -0.3481  0.3558  0.4737
 3332SOL    HW121629   3.005   0.111   2.831  2.3816 -0.6926 -0.4444
 3332SOL    HW221630   2.926   4.718   2.773 -1.0838  0.6979  0.6005
 3333SOL     OW21631   3.229   3.505   3.646 -0.0563  0.0843 -0.0179
 3333SOL    HW121632   3.277   3.580   3.682 -1.4017  0.5927  0.7101
 3333SOL    HW221633   3.252   3.518   3.554  3.5470 -1.0354  0.7220
 3334SOL     OW21634   3.714   1.544   6.834 -0.9376 -0.0079  0.6142
 3334SOL    HW121635   3.809   1.553   6.844 -0.5916 -0.3541 -2.2055
 3334SOL    HW221636   3.713   1.468   6.776  0.1746  1.0551 -0.7878
 3335SOL     OW21637   4.643   2.645   3.799 -0.5636  0.2960  0.0757
 3335SOL    HW121638   4.674   2.706   3.866  4.5484 -0.2793 -1.7862
 3335SOL    HW221639   4.603   2.584   3.860  0.0355 -0.3740 -0.2030
 3336SOL     OW21640   2.943   0.719  11.949  0.3255  0.4792  0.3788
 3336SOL    HW121641   2.890   0.681  12.019  0.4164 -0.7695 -0.2244
 3336SOL    HW221642   3.010   0.656  11.921  1.8712  1.9963  0.6914
 3337SOL     OW21643   0.875   2.833   8.407  0.2671 -0.0301 -1.0942
 3337SOL    HW121644   0.805   2.825   8.342  0.3424 -0.1112 -1.1653
 3337SOL    HW221645   0.905   2.924   8.406 -1.6629  0.6112  1.3008
 3338SOL     OW21646   3.590   2.323  13.509  0.2632  0.3536  0.2291
 3338SOL    HW121647   3.564   2.336  13.601  2.4128 -1.1697  1.0566
 3338SOL    HW221648   3.607   2.229  13.504  1.7723  0.6934 -0.9206
 3339SOL     OW21649   0.109   1.083   4.842  0.1756 -0.4167 -0.3036
 3339SOL    HW121650   0.046   1.020   4.806 -1.1106  1.4009 -1.2867
 3339SOL    HW221651   0.053   1.156   4.870 -1.1735 -0.8054 -2.0028
 3340SOL     OW21652   3.505   2.502   9.609 -0.8048 -0.2198 -0.3035
 3340SOL    HW121653   3.466   2.507   9.522  0.7811  3.1296 -0.8186
 3340SOL    HW221654   3.538   2.414   9.596 -0.6533 -0.1679 -0.2643
 3341SOL     OW21655   3.297   2.482  13.967  0.0702  0.1646 -0.4794
 3341SOL    HW121656   3.263   2.424  14.036  0.2368  1.4082  0.6551
 3341SOL    HW221657   3.311   2.568  14.008 -1.1969 -0.8327  2.0800
 3342SOL     OW21658   3.715   2.071  12.071 -0.4634  0.2958  0.1684
 3342SOL    HW121659   3.687   2.057  12.162 -0.7062  1.1634  0.2216
 3342SOL    HW221660   3.793   2.015  12.077 -1.6140 -1.3447 -0.3467
 3343SOL     OW21661   1.339   3.469   4.785  0.2454 -0.1160  0.1535
 3343SOL    HW121662   1.334   3.533   4.856  0.4119 -0.1744  0.2170
 3343SOL    HW221663   1.336   3.389   4.838 -1.6331 -0.5899 -0.6766
 3344SOL     OW21664   0.739   0.815   5.277 -0.3063  0.9067  0.4970
 3344SOL    HW121665   0.767   0.800   5.367 -1.7297 -0.4347  0.7128
 3344SOL    HW221666   0.697   0.733   5.250  0.4498  0.5453  0.4309
 3345SOL     OW21667   2.499   2.535   3.763  0.3571 -0.1957 -0.5703
 3345SOL    HW121668   2.467   2.581   3.686  1.5859  0.5620 -0.6193
 3345SOL    HW221669   2.590   2.562   3.771  0.2559  0.6102 -2.2033
 3346SOL     OW21670   0.442   0.553  10.916 -0.0387 -0.2119 -0.4652
 3346SOL    HW121671   0.380   0.493  10.875 -0.7138  0.3609 -0.2982
 3346SOL    HW221672   0.493   0.586  10.842  1.9752 -1.5820  0.3259
 3347SOL     OW21673   0.930   0.964   4.309 -0.3287 -0.4594 -0.1373
 3347SOL    HW121674   0.849   0.985   4.357  0.7782 -0.3845  1.6814
 3347SOL    HW221675   0.990   1.030   4.343  1.7183 -3.3748  1.8819
 3348SOL     OW21676   3.149   1.841   7.558 -0.4085 -0.0311 -0.1896
 3348SOL    HW121677   3.168   1.752   7.529  2.1628  0.7045 -0.6876
 3348SOL    HW221678   3.066   1.818   7.600 -0.1632 -1.0828 -0.2845
 3349SOL     OW21679   0.022   1.545   1.664 -0.4247  0.0533  0.2997
 3349SOL    HW121680   0.103   1.558   1.713 -0.6841  0.9084  0.5090
 3349SOL    HW221681   0.023   1.624   1.610  0.6632 -0.3090 -0.1927
 3350SOL     OW21682   2.224   0.536  15.905  0.0522  0.1065  0.4860
 3350SOL    HW121683   2.155   0.594  15.874  1.0036  0.4418 -1.0488
 3350SOL    HW221684   2.292   0.576  15.850  1.2411 -1.0873  1.1038
 3351SOL     OW21685   3.467   4.577   0.031 -0.0431 -0.4173 -0.9909
 3351SOL    HW121686   3.438   4.521   0.103 -0.3856 -0.6143 -1.2814
 3351SOL    HW221687   3.557   4.595   0.059 -0.5310  0.1773  0.1853
 3352SOL     OW21688   0.889   1.324   9.989 -0.0610 -0.5507  0.1020
 3352SOL    HW121689   0.829   1.388   9.952 -1.4887 -0.7451  2.0697
 3352SOL    HW221690   0.852   1.304  10.075 -2.7638 -0.2123 -1.0050
 3353SOL     OW21691   4.053   3.255   5.788 -0.1004 -0.0752  0.0098
 3353SOL    HW121692   4.023   3.180   5.737  0.0996  0.5569 -1.0144
 3353SOL    HW221693   4.009   3.332   5.751 -0.3482 -0.4899 -0.5498
 3354SOL     OW21694   2.873   0.550   6.588  0.3200  0.1324 -0.6044
 3354SOL    HW121695   2.788   0.592   6.600  1.0157  0.8888  1.6621
 3354SOL    HW221696   2.850   0.459   6.570  1.2599  0.4912 -3.6755
 3355SOL     OW21697   4.070   2.365   5.715 -0.9388 -0.7956  0.0122
 3355SOL    HW121698   4.111   2.318   5.643 -2.6190 -0.3802 -1.2189
 3355SOL    HW221699   3.979   2.334   5.717 -0.1487 -3.0799  0.1194
 3356SOL     OW21700   2.936   4.507   9.929  0.4463 -0.3254 -0.2959
 3356SOL    HW121701   3.010   4.564   9.952  0.6332 -0.7559  0.1779
 3356SOL    HW221702   2.937   4.434   9.991  0.1404  1.7770  2.2161
 3357SOL     OW21703   1.794   1.499   5.150 -0.4055 -0.2583 -0.5672
 3357SOL    HW121704   1.838   1.454   5.222  0.4714  1.9077  0.2255
 3357SOL    HW221705   1.715   1.528   5.194 -0.5638 -1.8416  0.1962
 3358SOL     OW21706   1.158   0.298   6.094 -0.3201  0.3077 -0.2908
 3358SOL    HW121707   1.105   0.256   6.027  1.2101 -0.3320 -1.1114
 3358SOL    HW221708   1.238   0.251   6.070  0.5955  1.1322  1.1765
 3359SOL     OW21709   2.159   4.696   3.167 -0.2796 -0.3895  0.0415
 3359SOL    HW121710   2.090   4.638   3.135 -0.9608  0.3665  0.1468
 3359SOL    HW221711   2.174   4.662   3.255 -1.0031 -1.4312 -0.2328
 3360SOL     OW21712   1.387   4.072   7.862 -0.2066 -0.3610 -0.3746
 3360SOL    HW121713   1.377   3.987   7.905 -2.7918  0.5299  0.7537
 3360SOL    HW221714   1.377   4.138   7.930  0.0073 -1.1981  0.4616
 3361SOL     OW21715   3.001   0.349   8.786  0.0802  0.3811 -0.4332
 3361SOL    HW121716   3.063   0.393   8.728  0.9028 -1.3937 -0.9050
 3361SOL    HW221717   2.936   0.419   8.799 -1.6144 -1.5045  1.2016
 3362SOL     OW21718   4.265   1.535   1.554  0.1102  0.1445 -0.0929
 3362SOL    HW121719   4.275   1.440   1.551 -1.9864 -0.0039 -2.1873
 3362SOL    HW221720   4.176   1.566   1.570  0.7529  1.9540 -0.0202
 3363SOL     OW21721   2.879   1.638   6.635 -0.3321 -0.1990  0.2183
 3363SOL    HW121722   2.815   1.697   6.676 -0.8661  0.0092 -0.9083
 3363SOL    HW221723   2.915   1.689   6.562  0.5248  0.4725  1.1097
 3364SOL     OW21724   2.716   4.082   7.835  0.4032  0.7984  0.4067
 3364SOL    HW121725   2.684   4.018   7.899  0.9629 -2.1388 -2.2674
 3364SOL    HW221726   2.673   4.161   7.869 -1.7879  0.1314 -0.8366
 3365SOL     OW21727   1.089   0.959   4.772 -0.3358  0.2931 -0.2568
 3365SOL    HW121728   1.168   0.983   4.820 -1.4318 -2.7887  3.0053
 3365SOL    HW221729   1.061   1.042   4.733 -1.0981  0.0557 -0.2177
 3366SOL     OW21730   4.504   3.007   5.900 -0.7499  0.4436  0.0131
 3366SOL    HW121731   4.517   2.942   5.831 -0.7859  0.6910 -0.2269
 3366SOL    HW221732   4.554   3.083   5.871 -1.3130  0.4422 -0.9625
 3367SOL     OW21733   4.117   1.115   3.243  0.3500 -0.7192 -0.2977
 3367SOL    HW121734   4.077   1.194   3.207  0.2691 -1.1043 -1.0635
 3367SOL    HW221735   4.142   1.067   3.164  1.7081  0.8722 -0.8185
 3368SOL     OW21736   2.466   2.272  15.670  0.2661 -0.2496 -0.1184
 3368SOL    HW121737   2.557   2.260  15.644  0.2270 -1.7958  0.4318
 3368SOL    HW221738   2.444   2.320  15.591 -0.9422 -1.3611 -0.4446
 3369SOL     OW21739   1.888   4.581   9.057 -0.5688 -0.7560 -0.1055
 3369SOL    HW121740   1.885   4.496   9.099 -0.7782 -0.1470  1.1110
 3369SOL    HW221741   1.928   4.549   8.976  1.1778 -1.2586  0.9766
 3370SOL     OW21742   0.505   3.586   0.368  0.7881 -0.2546 -0.1878
 3370SOL    HW121743   0.431   3.567   0.427  0.8854 -1.7142 -0.5265
 3370SOL    HW221744   0.527   3.497   0.340  1.1408  0.3098 -1.6792
 3371SOL     OW21745   2.342   3.746   5.676  0.2891  0.2771  0.9777
 3371SOL    HW121746   2.335   3.665   5.726  1.0055 -0.0991  0.4598
 3371SOL    HW221747   2.261   3.741   5.625  1.2536  0.4428 -0.5627
 3372SOL     OW21748   0.157   2.176   4.032  0.1294  0.4767  0.1114
 3372SOL    HW121749   0.128   2.165   3.941 -2.2182  1.3707  0.7707
 3372SOL    HW221750   0.174   2.269   4.019 -2.6434  0.7197 -1.6605
 3373SOL     OW21751   1.737   2.759   4.344  0.0806 -0.1191  0.3799
 3373SOL    HW121752   1.660   2.778   4.398  0.5436 -0.0840  1.0240
 3373SOL    HW221753   1.695   2.710   4.272 -3.4423  1.5515  1.2843
 3374SOL     OW21754   1.919   4.453  14.161  0.3446 -0.3836 -0.4811
 3374SOL    HW121755   1.953   4.379  14.111  0.9284  1.2374 -2.4904
 3374SOL    HW221756   1.835   4.422  14.195  1.0563 -1.1061  0.6205
 3375SOL     OW21757   0.468   2.299   4.998 -0.2473  0.3254 -0.1532
 3375SOL    HW121758   0.480   2.359   5.071  1.1330  1.4139 -1.2674
 3375SOL    HW221759   0.423   2.230   5.047 -1.6240  0.2777 -1.4850
 3376SOL     OW21760   4.724   4.162   9.236  0.6099 -0.0847  0.2284
 3376SOL    HW121761   0.013   4.110   9.313 -0.3278  0.2799  0.7582
 3376SOL    HW221762   0.057   4.137   9.173  1.4282  1.7861  0.3814
 3377SOL     OW21763   2.950   4.003   2.202  0.0739  0.1974 -0.0364
 3377SOL    HW121764   3.024   3.993   2.261 -0.4463 -0.8993  0.4167
 3377SOL    HW221765   2.898   4.074   2.239 -0.0506  1.8379 -3.3074
 3378SOL     OW21766   2.385   2.358   4.602 -0.3015  0.3780  0.4453
 3378SOL    HW121767   2.308   2.302   4.589  0.0696 -0.0569  0.1140
 3378SOL    HW221768   2.449   2.294   4.634 -1.9792 -1.1620  0.7156
 3379SOL     OW21769   3.829   4.401   7.413 -0.1270 -0.2762  0.3597
 3379SOL    HW121770   3.835   4.369   7.503  0.9886  1.1742  0.8078
 3379SOL    HW221771   3.775   4.478   7.429 -0.1141 -0.1586 -0.1668
 3380SOL     OW21772   2.919   1.967   6.258  0.3779  0.2593 -0.1924
 3380SOL    HW121773   2.956   1.994   6.174 -1.2492  1.6427 -0.4660
 3380SOL    HW221774   2.830   2.002   6.253  0.0209 -0.5283  0.8348
 3381SOL     OW21775   0.501   4.634   7.602 -0.6345  0.0738  0.1645
 3381SOL    HW121776   0.415   4.651   7.640 -0.9954 -0.3215 -0.4658
 3381SOL    HW221777   0.468   4.577   7.532 -0.0956  0.7423 -0.6399
 3382SOL     OW21778   1.338   2.247   5.152  0.0821  0.0259  0.2962
 3382SOL    HW121779   1.303   2.291   5.074 -1.3407  1.6213  1.8352
 3382SOL    HW221780   1.264   2.197   5.186 -1.4413  0.5171 -2.3121
 3383SOL     OW21781   4.159   3.227   8.609 -0.3076  0.8163 -0.1625
 3383SOL    HW121782   4.106   3.297   8.571 -2.2153  0.1668  1.3324
 3383SOL    HW221783   4.235   3.273   8.644 -1.2686  3.2584 -1.2667
 3384SOL     OW21784   2.826   1.931   8.484  0.5128 -0.4574  0.2907
 3384SOL    HW121785   2.839   1.994   8.413  0.6789 -1.3765 -0.4942
 3384SOL    HW221786   2.733   1.911   8.479 -0.1277  2.6663 -0.4341
 3385SOL     OW21787   1.555   4.137   1.995  0.3620  1.0063 -0.2645
 3385SOL    HW121788   1.575   4.153   1.903  0.0987 -0.9210 -0.6490
 3385SOL    HW221789   1.491   4.068   1.980 -0.0498  1.8913 -2.5117
 3386SOL     OW21790   0.188   4.084   9.062  0.4265 -0.2902 -0.2589
 3386SOL    HW121791   0.140   4.019   9.010 -1.9746  0.8068  0.5618
 3386SOL    HW221792   0.227   4.032   9.132 -1.1086 -0.9919  0.0815
 3387SOL     OW21793   1.033   0.357  14.171  0.5706 -0.4957 -0.4053
 3387SOL    HW121794   1.116   0.323  14.137  1.0642 -1.0377  1.3375
 3387SOL    HW221795   1.020   0.289  14.238 -0.3982  0.1135  0.0221
 3388SOL     OW21796   0.931   0.729   6.061 -0.2916  0.3522  0.3429
 3388SOL    HW121797   0.958   0.705   6.150  1.0255  0.2910 -0.0808
 3388SOL    HW221798   0.980   0.668   6.006 -0.0182  0.2926  0.6516
 3389SOL     OW21799   2.022   0.419   4.376  0.3465 -0.0609 -0.0949
 3389SOL    HW121800   1.987   0.473   4.447  0.2188 -0.9808  0.5386
 3389SOL    HW221801   1.945   0.432   4.320 -0.1881  1.5067  1.0104
 3390SOL     OW21802   2.853   3.814  11.805  0.0426  0.2705  0.2626
 3390SOL    HW121803   2.869   3.722  11.828  2.3880  0.7116  0.4507
 3390SOL    HW221804   2.860   3.866  11.885  1.9581  0.5171 -0.0430
 3391SOL     OW21805   4.657   3.276   5.820  0.2930 -0.4427  0.2735
 3391SOL    HW121806   4.683   3.226   5.743  2.4696  1.9195 -0.5119
 3391SOL    HW221807   4.731   3.271   5.880  0.2143 -1.9419  0.2471
 3392SOL     OW21808   0.740   2.021  16.284  0.3864 -0.7586 -0.1574
 3392SOL    HW121809   0.818   2.035  16.231  0.7310  0.4181  0.6704
 3392SOL    HW221810   0.772   1.970  16.358  1.5400 -0.1160 -0.2238
 3393SOL     OW21811   1.068   2.204  12.621  0.4050 -0.0793 -0.1987
 3393SOL    HW121812   1.049   2.200  12.527  2.2389 -2.9067 -0.4515
 3393SOL    HW221813   1.134   2.135  12.628  0.7524  0.0628 -2.0273
 3394SOL     OW21814   3.500   2.055   7.344 -0.2785 -0.7586  0.2662
 3394SOL    HW121815   3.493   2.140   7.300  1.6705  0.0549  1.5473
 3394SOL    HW221816   3.471   2.006   7.266 -0.6885  1.5867 -1.0569
 3395SOL     OW21817   0.661   0.561  13.204  0.4082  0.2790  0.0940
 3395SOL    HW121818   0.649   0.656  13.194 -1.1408 -0.1314 -1.8986
 3395SOL    HW221819   0.607   0.537  13.280  1.0310  2.6868  1.3213
 3396SOL     OW21820   2.601   0.053   3.830 -0.0254  0.2959 -0.1328
 3396SOL    HW121821   2.513   0.044   3.866  1.0289 -2.7959  1.7009
 3396SOL    HW221822   2.592   0.040   3.736  1.2890 -1.2558 -0.0409
 3397SOL     OW21823   0.216   0.493  10.741 -0.1039  0.5762 -0.2390
 3397SOL    HW121824   0.140   0.510  10.797  1.2933  2.1863  1.1563
 3397SOL    HW221825   0.172   0.437  10.677 -0.8236  1.7207 -0.7511
 3398SOL     OW21826   0.785   4.698  13.926  0.4292 -0.5191  0.0376
 3398SOL    HW121827   0.748   0.044  13.891 -1.9510 -2.1292 -1.1604
 3398SOL    HW221828   0.859   0.000  13.973  1.9144 -1.1905 -1.8214
 3399SOL     OW21829   4.436   3.204   1.595  0.1536 -0.2218  0.1177
 3399SOL    HW121830   4.454   3.269   1.527 -0.2574  1.4399  1.5754
 3399SOL    HW221831   4.437   3.256   1.676  1.1974 -0.3305  0.1696
 3400SOL     OW21832   3.614   4.391  11.194  0.6635 -0.0022  0.5731
 3400SOL    HW121833   3.598   4.384  11.288  2.9756  0.1699  0.9806
 3400SOL    HW221834   3.632   4.484  11.185 -1.1712  0.0953 -1.8960
 3401SOL     OW21835   1.622   1.708   9.206 -0.1720  0.7403  0.0813
 3401SOL    HW121836   1.593   1.670   9.289 -1.2200  0.3916 -0.4459
 3401SOL    HW221837   1.613   1.800   9.233  1.1570  0.5767  1.0939
 3402SOL     OW21838   1.798   4.167   1.736 -0.0329 -0.0747 -0.0841
 3402SOL    HW121839   1.788   4.073   1.747  2.8065 -0.4076 -0.4246
 3402SOL    HW221840   1.889   4.169   1.763 -0.4349  0.1049  1.2494
 3403SOL     OW21841   3.867   4.519   2.441  0.0451 -0.7639  0.2232
 3403SOL    HW121842   3.828   4.451   2.496 -0.1671  0.2424  1.3018
 3403SOL    HW221843   3.815   4.491   2.365 -1.6309  1.9435  0.3601
 3404SOL     OW21844   0.893   1.213   1.797  0.1381 -0.0560  0.1941
 3404SOL    HW121845   0.912   1.240   1.887 -0.4519 -1.6465  0.8076
 3404SOL    HW221846   0.969   1.246   1.750 -1.7785  0.2601 -2.6858
 3405SOL     OW21847   1.574   2.079   9.825 -0.3501  0.0191  0.1379
 3405SOL    HW121848   1.604   2.170   9.822  0.5404 -0.3422 -1.6777
 3405SOL    HW221849   1.655   2.029   9.834 -0.7219 -0.6061  0.0525
 3406SOL     OW21850   2.612   1.865   4.367 -0.7525 -0.1530  0.7507
 3406SOL    HW121851   2.543   1.882   4.302 -0.1520 -0.3599  0.0542
 3406SOL    HW221852   2.566   1.844   4.448 -2.1520 -2.4229 -0.6311
 3407SOL     OW21853   3.432   0.887   5.110  0.3783  0.3292 -0.2045
 3407SOL    HW121854   3.339   0.905   5.124  0.0630  0.4881 -2.4665
 3407SOL    HW221855   3.418   0.821   5.042 -2.1298 -1.3177  1.8991
 3408SOL     OW21856   3.682   4.006   8.115 -0.0387  0.4033 -0.7772
 3408SOL    HW121857   3.700   4.057   8.194 -1.3232  1.1179 -0.9482
 3408SOL    HW221858   3.628   4.068   8.065  1.1183  2.7516  0.8833
 3409SOL     OW21859   2.187   2.923   9.435 -0.0119 -0.0004  0.4052
 3409SOL    HW121860   2.122   2.993   9.440 -0.0567  0.0775 -1.3270
 3409SOL    HW221861   2.162   2.866   9.507 -1.6845  1.4397  0.9497
 3410SOL     OW21862   3.839   2.367   5.400  0.7286  0.0442  0.7349
 3410SOL    HW121863   3.795   2.322   5.471 -0.8555  0.6894  0.1559
 3410SOL    HW221864   3.824   2.298   5.336  1.1607 -0.0215  0.7015
 3411SOL     OW21865   0.037   2.233   6.530 -0.7226 -0.0389 -0.2462
 3411SOL    HW121866   4.700   2.276   6.484 -0.0235  1.2198 -0.1683
 3411SOL    HW221867   0.079   2.189   6.457  1.1939  0.1982  0.7105
 3412SOL     OW21868   4.302   0.430   1.791 -0.6267 -0.6818  0.7490
 3412SOL    HW121869   4.232   0.371   1.821 -1.1597 -0.7739 -0.6652
 3412SOL    HW221870   4.254   0.468   1.718  0.7048  0.2439  0.3630
 3413SOL     OW21871   1.288   2.968   6.781 -0.7494  0.8945 -0.7971
 3413SOL    HW121872   1.288   2.986   6.687 -1.8469 -0.9972 -1.1347
 3413SOL    HW221873   1.352   3.034   6.811  0.6797 -0.1782 -1.5102
 3414SOL     OW21874   0.641   0.578   5.429 -0.4280  0.1680  0.2086
 3414SOL    HW121875   0.556   0.567   5.471 -0.3163 -1.2311  0.0811
 3414SOL    HW221876   0.690   0.603   5.507 -1.3645 -0.5272  1.0218
 3415SOL     OW21877   0.829   3.673  16.918  0.2828  0.5035  0.2812
 3415SOL    HW121878   0.837   3.726  16.997  1.4366 -0.1725  0.6289
 3415SOL    HW221879   0.790   3.736  16.857  1.1745  0.6894 -0.1133
 3416SOL     OW21880   2.546   0.710  13.746 -0.3103 -0.1082  0.3102
 3416SOL    HW121881   2.455   0.720  13.773 -0.5720  1.4050 -1.1800
 3416SOL    HW221882   2.595   0.749  13.819 -1.1181  1.3055  0.0817
 3417SOL     OW21883   1.825   1.932   9.815  0.1047  0.2107 -0.0193
 3417SOL    HW121884   1.883   1.969   9.882  0.0135  0.8138 -0.2720
 3417SOL    HW221885   1.808   1.839   9.832 -3.9855  1.1853  1.0703
 3418SOL     OW21886   3.035   0.868   1.342  0.4591 -1.2546 -0.0006
 3418SOL    HW121887   3.090   0.877   1.265  1.2429 -1.1753  0.5758
 3418SOL    HW221888   3.028   0.962   1.357 -1.9542 -1.6991  1.7295
 3419SOL     OW21889   0.680   1.502   5.042 -0.3428 -0.2986  0.0192
 3419SOL    HW121890   0.738   1.501   4.966  0.1592  2.4341  0.3645
 3419SOL    HW221891   0.598   1.463   5.013  0.2113  1.5170 -3.9489
 3420SOL     OW21892   4.649   2.740   6.283  0.1958  0.1978 -0.3414
 3420SOL    HW121893   4.679   2.719   6.371  1.3603 -0.8001 -0.9730
 3420SOL    HW221894   4.615   2.829   6.282  0.2939  0.2323 -0.8017
 3421SOL     OW21895   4.145   3.392   6.364  0.1097  0.3309  0.2129
 3421SOL    HW121896   4.178   3.467   6.315  0.3010 -0.5174 -0.9708
 3421SOL    HW221897   4.174   3.319   6.309 -0.1460  0.2795  0.1490
 3422SOL     OW21898   1.233   1.512   5.138  0.3345  0.0089 -0.6468
 3422SOL    HW121899   1.146   1.474   5.149  0.6782 -0.1346  1.4987
 3422SOL    HW221900   1.271   1.454   5.072  0.7610 -0.1267 -0.2766
 3423SOL     OW21901   0.874   4.169   6.163 -0.5567 -0.3523  0.0401
 3423SOL    HW121902   0.808   4.100   6.171 -1.4589  0.5142  0.0605
 3423SOL    HW221903   0.855   4.208   6.077 -1.3266 -0.5005  0.1459
 3424SOL     OW21904   1.339   0.955   2.784 -0.0697 -0.2380  0.1631
 3424SOL    HW121905   1.354   1.050   2.784  0.3499 -0.3127  2.0841
 3424SOL    HW221906   1.318   0.945   2.877  3.3249 -0.7120  0.8857
 3425SOL     OW21907   3.572   3.837  17.252 -0.0393  0.3972 -0.1611
 3425SOL    HW121908   3.543   3.748  17.274 -1.3613  1.3032  1.7408
 3425SOL    HW221909   3.573   3.869  17.342 -0.4463 -1.3707  0.4873
 3426SOL     OW21910   3.742   1.200   8.147  0.2679 -0.0968 -0.1986
 3426SOL    HW121911   3.728   1.193   8.242 -0.4685  1.1964 -0.2005
 3426SOL    HW221912   3.734   1.296   8.149  0.8399 -0.0252 -1.5204
 3427SOL     OW21913   1.546   3.693  11.921 -0.1980  0.0978  0.1440
 3427SOL    HW121914   1.614   3.723  11.981  0.4908  1.2082 -1.1953
 3427SOL    HW221915   1.576   3.725  11.836  0.4668 -0.8214  0.0337
 3428SOL     OW21916   4.526   2.854  10.753  0.2903 -0.4323 -0.4447
 3428SOL    HW121917   4.571   2.790  10.698  1.7176  0.9497 -0.8988
 3428SOL    HW221918   4.449   2.861  10.697 -1.0232 -0.3061  1.3636
 3429SOL     OW21919   3.373   2.338   6.549 -0.8888  0.2149  0.1703
 3429SOL    HW121920   3.379   2.253   6.593  0.9036 -0.3242 -1.1304
 3429SOL    HW221921   3.296   2.315   6.496 -0.1467 -1.5506 -0.1553
 3430SOL     OW21922   2.921   2.881   3.097 -0.4653 -0.0030 -0.5541
 3430SOL    HW121923   2.984   2.862   3.168 -2.0368  0.6136  1.0044
 3430SOL    HW221924   2.914   2.797   3.052  0.2846  0.1583 -0.9783
 3431SOL     OW21925   4.598   0.886   3.962 -0.3957 -0.4025 -0.6214
 3431SOL    HW121926   4.573   0.872   3.871  1.5444 -1.5208 -0.9890
 3431SOL    HW221927   4.522   0.856   4.012 -0.5011 -0.1309 -0.6192
 3432SOL     OW21928   2.241   3.770   2.903 -0.0641  0.7152 -0.0799
 3432SOL    HW121929   2.156   3.799   2.870 -1.8113 -4.1189  0.0855
 3432SOL    HW221930   2.225   3.707   2.973 -1.8892 -0.4604 -1.5470
 3433SOL     OW21931   1.395   2.998   3.521 -0.0583 -0.5149 -0.0510
 3433SOL    HW121932   1.301   3.013   3.517  0.3197  1.2739 -2.3212
 3433SOL    HW221933   1.435   3.083   3.538  1.1389 -1.2224  0.6923
 3434SOL     OW21934   3.199   1.128   6.764 -0.2175 -0.3215  0.5432
 3434SOL    HW121935   3.146   1.109   6.842  0.5372 -0.0446  1.1270
 3434SOL    HW221936   3.267   1.186   6.799 -0.9682  1.1226 -0.4283
 3435SOL     OW21937   1.200   3.820   2.821 -0.2777  0.6990  0.1516
 3435SOL    HW121938   1.188   3.833   2.915 -2.8761 -0.7713  0.0407
 3435SOL    HW221939   1.109   3.838   2.795 -0.6943 -1.5022  0.0755
 3436SOL     OW21940   4.096   2.716   0.859  0.1619  0.3218 -0.1862
 3436SOL    HW121941   4.113   2.673   0.775 -2.3265 -0.0974 -0.4763
 3436SOL    HW221942   4.011   2.681   0.885  0.7146 -0.7386  0.2410
 3437SOL     OW21943   4.399   0.865   7.128  0.5436  0.1588  0.1476
 3437SOL    HW121944   4.487   0.893   7.101  0.0063  0.6664 -1.0647
 3437SOL    HW221945   4.388   0.928   7.199 -2.8104 -1.7511  1.2902
 3438SOL     OW21946   1.710   4.537   3.423  0.2616 -0.1943 -0.2714
 3438SOL    HW121947   1.735   4.504   3.337 -0.7693  1.3839 -1.1685
 3438SOL    HW221948   1.646   4.601   3.391  1.0793  1.1056  0.6522
 3439SOL     OW21949   4.578   1.903  16.309  0.0195  0.3059 -0.1853
 3439SOL    HW121950   4.573   1.857  16.225 -1.4074  1.4464 -0.7094
 3439SOL    HW221951   4.625   1.980  16.277 -1.2338  1.6577  1.2379
 3440SOL     OW21952   4.153   2.175   1.433 -0.1239  0.4216 -0.0882
 3440SOL    HW121953   4.121   2.262   1.410 -1.6927  0.3736  1.8583
 3440SOL    HW221954   4.070   2.126   1.432 -1.1774  2.2658 -1.6352
 3441SOL     OW21955   0.973   2.925   6.469 -0.1348 -0.1226 -0.3876
 3441SOL    HW121956   0.981   2.855   6.534  0.7856  0.2732 -0.0696
 3441SOL    HW221957   1.012   2.878   6.396  1.0328  0.0783  0.1013
 3442SOL     OW21958   0.998   4.434   2.844  0.7034  0.4058  0.6143
 3442SOL    HW121959   1.025   4.474   2.761 -1.3556 -0.5742 -0.5230
 3442SOL    HW221960   0.915   4.477   2.864  0.5638  0.1408  0.6043
 3443SOL     OW21961   0.430   3.875   0.414 -0.3775 -0.2377 -0.5119
 3443SOL    HW121962   0.426   3.779   0.408 -1.4987 -0.3976  2.8978
 3443SOL    HW221963   0.343   3.889   0.451 -0.1658 -0.4512  0.0769
 3444SOL     OW21964   2.901   1.396   6.783 -0.4647 -0.2408  0.0177
 3444SOL    HW121965   2.870   1.470   6.731 -1.8696 -0.1194  1.0215
 3444SOL    HW221966   2.982   1.376   6.736 -1.9133 -0.9585 -2.1857
 3445SOL     OW21967   3.567   1.392   3.068  0.4781 -0.2487  0.2855
 3445SOL    HW121968   3.656   1.426   3.064  1.0798 -1.8585 -0.0885
 3445SOL    HW221969   3.592   1.304   3.098 -1.4943 -0.8873  0.0618
 3446SOL     OW21970   1.322   3.790   6.855 -0.4362  0.4640 -0.1675
 3446SOL    HW121971   1.352   3.735   6.928  2.9229  0.1856 -1.7751
 3446SOL    HW221972   1.407   3.819   6.824 -0.1698  2.2614  2.2439
 3447SOL     OW21973   4.683   2.397  14.036 -0.8228  0.6812  0.6653
 3447SOL    HW121974   4.628   2.380  13.959 -0.7894  1.3225  0.5041
 3447SOL    HW221975   4.615   2.413  14.101 -0.3445  2.4379  0.7191
 3448SOL     OW21976   1.655   0.348   2.440 -0.4407 -0.2772  0.2525
 3448SOL    HW121977   1.674   0.439   2.464  1.5656  0.2424 -3.4169
 3448SOL    HW221978   1.664   0.348   2.345 -1.2414  1.8674  0.1793
 3449SOL     OW21979   3.958   2.083   7.178 -0.3481 -0.0749  0.1281
 3449SOL    HW121980   4.024   2.151   7.163  1.6470 -1.6129  1.9050
 3449SOL    HW221981   3.996   2.007   7.135 -0.7966 -0.6793  0.7933
 3450SOL     OW21982   3.800   3.771   0.755 -0.4857  0.4168 -0.4719
 3450SOL    HW121983   3.870   3.708   0.739  0.6484  0.7342  3.2533
 3450SOL    HW221984   3.740   3.723   0.812  0.3905 -0.4447 -0.2706
 3451SOL     OW21985   1.149   0.195   8.465 -0.2621 -0.4277  0.0470
 3451SOL    HW121986   1.188   0.121   8.511  0.7426  1.4278  2.1939
 3451SOL    HW221987   1.167   0.263   8.530  2.7341 -1.8505  0.7209
 3452SOL     OW21988   3.558   2.949  11.817  0.3129  0.0453  0.2750
 3452SOL    HW121989   3.624   2.915  11.878 -0.1753  1.6178  1.6618
 3452SOL    HW221990   3.512   3.008  11.876 -0.0507 -0.8860  0.9319
 3453SOL     OW21991   0.812   3.222  14.617  0.1780  0.1300 -0.2379
 3453SOL    HW121992   0.882   3.160  14.593 -0.0017 -0.2228  0.1557
 3453SOL    HW221993   0.739   3.192  14.563 -0.8898  1.0144  0.7406
 3454SOL     OW21994   1.910   2.842   6.421  0.7271 -0.2958  0.4987
 3454SOL    HW121995   1.953   2.922   6.394  0.0111 -0.7095 -1.8460
 3454SOL    HW221996   1.946   2.834   6.510 -0.7311  0.3131  1.1446
 3455SOL     OW21997   2.849   1.166  13.931 -0.1822  0.8737  0.2230
 3455SOL    HW121998   2.815   1.190  14.017 -3.1373  1.0864 -1.0124
 3455SOL    HW221999   2.850   1.251  13.887  0.5661  1.0972  0.6782
 3456SOL     OW22000   3.399   2.110  13.616  0.0101  0.1305  0.4212
 3456SOL    HW122001   3.458   2.099  13.540  0.0062 -1.0058  0.5814
 3456SOL    HW222002   3.452   2.107  13.696  2.0495 -2.8915 -1.0366
 3457SOL     OW22003   4.132   3.562   6.161 -0.0830 -0.4035  0.2878
 3457SOL    HW122004   4.200   3.627   6.142 -1.4905  0.6566 -1.1087
 3457SOL    HW222005   4.080   3.577   6.083  0.9563 -0.9762 -0.5124
 3458SOL     OW22006   0.981   1.986   8.780 -0.1707  0.6559  0.2670
 3458SOL    HW122007   0.900   1.939   8.802  1.1528 -1.6639  0.2418
 3458SOL    HW222008   0.967   2.043   8.705 -1.1367  0.2955  0.1662
 3459SOL     OW22009   3.962   4.562   3.496 -0.5664  0.3142 -0.1519
 3459SOL    HW122010   3.870   4.556   3.470 -1.0590  0.5869  1.5292
 3459SOL    HW222011   3.980   4.479   3.541 -0.6963 -0.7288 -2.0326
 3460SOL     OW22012   1.826   1.960   6.317  0.0721 -0.1636  0.4547
 3460SOL    HW122013   1.885   2.035   6.308 -1.2840  0.8541  0.1478
 3460SOL    HW222014   1.786   1.967   6.230  0.0264 -2.0814  0.3286
 3461SOL     OW22015   4.550   4.524   8.065 -0.4552 -0.5543 -0.1578
 3461SOL    HW122016   4.490   4.583   8.020  0.5042  1.3323  1.0290
 3461SOL    HW222017   4.484   4.468   8.106  1.1876 -2.0600  0.4168
 3462SOL     OW22018   4.665   2.278   2.129 -0.1427  0.5837 -0.4261
 3462SOL    HW122019   0.019   2.312   2.129 -0.4616  1.4287 -1.4994
 3462SOL    HW222020   4.618   2.348   2.083  0.7869  0.4732 -1.5298
 3463SOL     OW22021   4.565   2.141  16.538 -0.1751  0.4164 -0.1451
 3463SOL    HW122022   4.558   2.063  16.593 -3.1812  1.6516  1.2435
 3463SOL    HW222023   4.659   2.150  16.522 -0.0827 -1.4739 -0.6153
 3464SOL     OW22024   2.081   4.202   3.116  0.6890 -0.2504 -0.5218
 3464SOL    HW122025   2.037   4.146   3.053  1.5359 -1.4875 -0.0045
 3464SOL    HW222026   2.045   4.167   3.197 -3.2616 -0.3735 -2.3247
 3465SOL     OW22027   2.562   0.587  13.277  0.1384  0.1712  0.0049
 3465SOL    HW122028   2.637   0.642  13.300  0.9537  0.0537 -2.3326
 3465SOL    HW222029   2.591   0.502  13.310 -0.1510 -0.6728 -1.9013
 3466SOL     OW22030   1.924   3.983   4.582  0.6374  0.1005  0.5547
 3466SOL    HW122031   1.912   4.037   4.504  1.9777  0.1328  0.3710
 3466SOL    HW222032   1.923   3.895   4.544  0.6806  0.0029  0.7759
 3467SOL     OW22033   2.916   0.316  12.314 -0.7001  0.1430 -0.5199
 3467SOL    HW122034   2.913   0.240  12.372  1.0633  1.0683  0.7701
 3467SOL    HW222035   2.834   0.367  12.320  0.5218  2.0828 -0.2826
 3468SOL     OW22036   4.346   0.159   7.486  0.0168  0.7309  0.1379
 3468SOL    HW122037   4.390   0.075   7.500  0.0400  0.6756 -0.2594
 3468SOL    HW222038   4.337   0.153   7.391 -1.5187  2.8934  0.1536
 3469SOL     OW22039   2.249   2.847  14.720  0.9189 -0.0295 -0.4694
 3469SOL    HW122040   2.269   2.841  14.627 -1.3396 -1.5196 -0.8372
 3469SOL    HW222041   2.303   2.778  14.758  2.9010  0.6391 -2.0801
 3470SOL     OW22042   0.301   0.548   9.722 -0.4482  0.5585 -0.2446
 3470SOL    HW122043   0.377   0.592   9.759 -0.4676  1.8508 -1.7457
 3470SOL    HW222044   0.312   0.463   9.764  0.8718 -0.4249 -2.5617
 3471SOL     OW22045   0.824   1.365  11.190 -0.0271 -0.0567 -0.1111
 3471SOL    HW122046   0.844   1.287  11.241 -1.6189  0.2570  0.9770
 3471SOL    HW222047   0.728   1.369  11.183  0.1407 -0.4554 -2.7099
 3472SOL     OW22048   4.352   1.421   8.162  0.7600  0.0841  0.0967
 3472SOL    HW122049   4.447   1.421   8.147  0.3827 -0.8736 -2.3655
 3472SOL    HW222050   4.328   1.329   8.162 -0.9412  0.5328  1.6187
 3473SOL     OW22051   4.292   3.729  14.051 -0.0971  0.0686  0.6248
 3473SOL    HW122052   4.222   3.666  14.067 -0.2235  0.4700  1.6683
 3473SOL    HW222053   4.261   3.807  14.099  0.1558 -0.9322  2.3940
 3474SOL     OW22054   0.420   1.588  17.178 -0.5769  0.0478  0.0759
 3474SOL    HW122055   0.479   1.546  17.241 -1.3807 -0.1325  0.7116
 3474SOL    HW222056   0.483   1.622  17.114 -1.2613 -0.9503 -1.1068
 3475SOL     OW22057   2.488   4.318  15.890 -0.2509 -0.0748 -0.3847
 3475SOL    HW122058   2.459   4.347  15.977 -1.2954 -0.0978 -0.7315
 3475SOL    HW222059   2.500   4.403  15.848  0.3421 -0.6129 -1.2938
 3476SOL     OW22060   2.325   4.199   8.002 -0.7429  0.3374  0.0516
 3476SOL    HW122061   2.321   4.105   8.016 -1.2626 -0.1587 -3.2225
 3476SOL    HW222062   2.251   4.209   7.941 -0.2748  0.2237 -0.5308
 3477SOL     OW22063   0.357   3.226   5.342  0.1509 -0.5156  0.3389
 3477SOL    HW122064   0.376   3.215   5.435  1.4238 -0.1620  0.1206
 3477SOL    HW222065   0.419   3.169   5.297  1.4388  2.2021 -1.3205
 3478SOL     OW22066   1.476   3.623   6.464 -0.2764  0.0819 -0.3189
 3478SOL    HW122067   1.520   3.656   6.385 -0.4550  0.3209 -0.3197
 3478SOL    HW222068   1.457   3.704   6.511 -1.1249  0.8391 -1.9461
 3479SOL     OW22069   0.514   1.101   2.541 -0.1962  0.5775 -0.2918
 3479SOL    HW122070   0.485   1.126   2.454 -1.6140 -0.7379 -0.2004
 3479SOL    HW222071   0.609   1.109   2.534 -0.1965 -0.5218 -1.4956
 3480SOL     OW22072   3.204   4.630  13.327 -0.2639 -0.6524  0.3615
 3480SOL    HW122073   3.150   4.575  13.270  0.4588 -1.9813  0.9698
 3480SOL    HW222074   3.264   4.672  13.265  1.3225 -0.5691  1.9504
 3481SOL     OW22075   1.308   0.445  13.034 -0.0717  0.3141 -0.9193
 3481SOL    HW122076   1.279   0.410  12.949  0.4229 -0.0596 -0.9324
 3481SOL    HW222077   1.265   0.530  13.045  2.2322  1.1912  1.1206
 3482SOL     OW22078   3.744   1.716   1.396  0.3491  0.0480 -0.1354
 3482SOL    HW122079   3.688   1.750   1.327 -1.5575 -0.5915  1.0968
 3482SOL    HW222080   3.801   1.653   1.352  1.8652  1.5207 -0.2503
 3483SOL     OW22081   0.629   2.710   7.372 -0.1754  0.3315 -0.4740
 3483SOL    HW122082   0.611   2.802   7.354 -0.8144  0.9389  3.1784
 3483SOL    HW222083   0.544   2.670   7.355 -1.0264  2.1443 -0.4779
 3484SOL     OW22084   0.513   0.145   3.999 -0.2726 -0.2238  0.1380
 3484SOL    HW122085   0.562   0.172   4.077  2.8798  2.8322 -2.8893
 3484SOL    HW222086   0.528   0.225   3.949  0.7673 -1.1365 -0.9916
 3485SOL     OW22087   4.600   1.142   1.764 -0.3630 -0.3385 -0.1886
 3485SOL    HW122088   4.587   1.237   1.767 -1.8444 -0.5398 -0.5735
 3485SOL    HW222089   4.694   1.155   1.779 -0.7333  0.3716  1.4787
 3486SOL     OW22090   1.498   4.685   5.733  0.1103 -0.6228  0.2997
 3486SOL    HW122091   1.464   4.706   5.646 -0.6597 -0.6167  0.5979
 3486SOL    HW222092   1.501   4.590   5.740 -1.7485 -0.8311 -1.5188
 3487SOL     OW22093   3.455   2.263   5.039 -0.6916  0.4314  0.0809
 3487SOL    HW122094   3.454   2.196   5.108 -0.5302  0.1823 -0.1604
 3487SOL    HW222095   3.511   2.332   5.076 -0.4793  0.7652 -0.8780
 3488SOL     OW22096   3.457   1.067   8.734  0.2312  0.2664 -0.3896
 3488SOL    HW122097   3.480   1.035   8.821 -0.9043  1.1595  0.2388
 3488SOL    HW222098   3.362   1.051   8.727  0.3975 -1.0178  0.2043
 3489SOL     OW22099   4.493   0.176   6.493  0.3386 -0.0493 -0.0357
 3489SOL    HW122100   4.539   0.206   6.571 -0.3189 -1.6309  0.9620
 3489SOL    HW222101   4.455   0.259   6.463 -0.8265 -0.0460  1.4375
 3490SOL     OW22102   0.342   0.349  11.825  0.2319  0.2686 -0.2282
 3490SOL    HW122103   0.356   0.372  11.733 -0.3417  2.7512  0.2906
 3490SOL    HW222104   0.407   0.404  11.868  0.7629  0.2054 -0.9601
 3491SOL     OW22105   2.494   0.844   8.841  0.0979 -0.1604 -0.2454
 3491SOL    HW122106   2.559   0.792   8.889  0.2605 -1.0296 -1.4090
 3491SOL    HW222107   2.496   0.786   8.765  0.1375 -0.6249  0.1077
 3492SOL     OW22108   3.140   3.476  12.285 -0.2913  0.0418  0.1462
 3492SOL    HW122109   3.171   3.559  12.249  0.0364 -0.3167 -0.4003
 3492SOL    HW222110   3.167   3.479  12.376 -0.0123 -1.4223  0.1091
 3493SOL     OW22111   0.052   3.488   3.563 -0.4828 -0.1842  0.5201
 3493SOL    HW122112   4.708   3.513   3.516 -1.1147 -0.9188  1.1989
 3493SOL    HW222113   0.115   3.472   3.492 -0.0739 -3.7062  1.6710
 3494SOL     OW22114   3.747   3.563   8.444  0.3450 -0.5032  0.0157
 3494SOL    HW122115   3.773   3.633   8.385  1.1838  0.9250  2.0777
 3494SOL    HW222116   3.655   3.561   8.418  0.5332  1.1296 -0.7530
 3495SOL     OW22117   3.995   4.690   7.408 -0.2871 -0.3463 -0.3892
 3495SOL    HW122118   3.951   4.654   7.485  1.4735 -2.6852 -0.4824
 3495SOL    HW222119   3.948   0.036   7.389  1.1281  0.4178 -0.6745
 3496SOL     OW22120   1.445   4.575   7.026 -0.1767  0.1483  0.5324
 3496SOL    HW122121   1.436   4.659   6.982  0.6200  1.1207  2.2334
 3496SOL    HW222122   1.532   4.573   7.067  0.7904 -0.4545 -1.5424
 3497SOL     OW22123   0.616   0.261   2.335 -0.3295  0.1608  0.4779
 3497SOL    HW122124   0.556   0.206   2.386 -1.9290  1.3545 -0.1178
 3497SOL    HW222125   0.546   0.297   2.281 -0.9198 -0.6841  0.6796
 3498SOL     OW22126   3.117   4.601  14.247  0.0261  0.5722 -0.1863
 3498SOL    HW122127   3.101   4.522  14.196 -1.0712  0.3851  0.4538
 3498SOL    HW222128   3.174   4.638  14.180  1.5860 -1.2666  0.1536
 3499SOL     OW22129   2.260   1.639   8.432  0.0622  0.2908 -0.1008
 3499SOL    HW122130   2.283   1.732   8.443 -0.0828  0.0273  2.3481
 3499SOL    HW222131   2.242   1.628   8.525  0.3826 -0.5191 -0.1347
 3500SOL     OW22132   2.831   1.647   2.651  0.1680 -0.4573  0.1097
 3500SOL    HW122133   2.850   1.714   2.717 -0.8423  0.4872 -0.5701
 3500SOL    HW222134   2.858   1.567   2.696  2.6957  0.1774 -0.2289
 3501SOL     OW22135   2.413   1.174   3.377  0.3313  0.0423  0.4535
 3501SOL    HW122136   2.400   1.080   3.360 -0.0839  0.2570 -0.4133
 3501SOL    HW222137   2.328   1.204   3.344  0.4990 -0.0855 -0.0914
 3502SOL     OW22138   0.001   3.581   0.549 -0.1766 -0.3937 -0.0874
 3502SOL    HW122139   0.002   3.490   0.576  2.5148 -0.1540  0.7077
 3502SOL    HW222140   4.715   3.620   0.634  0.3723 -1.7362  0.6618
 3503SOL     OW22141   3.793   1.349   0.385 -0.4758  0.5359 -0.2463
 3503SOL    HW122142   3.769   1.407   0.312  1.1514 -0.3462 -1.4937
 3503SOL    HW222143   3.856   1.295   0.336 -0.7370 -0.1876  0.2092
 3504SOL     OW22144   2.173   3.098  16.293 -0.0612  0.0913 -0.5302
 3504SOL    HW122145   2.144   3.166  16.233 -2.6759 -0.3085  0.2801
 3504SOL    HW222146   2.215   3.054  16.219 -0.9426  0.9740 -1.5434
 3505SOL     OW22147   4.476   3.847   4.884  0.5266  0.6540  0.1298
 3505SOL    HW122148   4.480   3.861   4.789  1.6723 -0.3713  0.0217
 3505SOL    HW222149   4.436   3.760   4.877 -1.1416  1.3718  0.9145
 3506SOL     OW22150   0.814   2.871   4.902 -0.6226  0.0342  0.4921
 3506SOL    HW122151   0.858   2.795   4.862  2.3226  3.5572 -2.9950
 3506SOL    HW222152   0.887   2.897   4.958 -0.6485  0.4921  0.3121
 3507SOL     OW22153   3.182   4.551   3.873 -0.1044 -0.0180  0.3635
 3507SOL    HW122154   3.102   4.587   3.835  0.3839  1.8448  1.1129
 3507SOL    HW222155   3.173   4.458   3.851  0.0429  0.1079 -0.2305
 3508SOL     OW22156   0.501   1.412   6.640  0.3747 -0.9631 -0.0585
 3508SOL    HW122157   0.523   1.319   6.641  1.5319 -0.7261 -2.3804
 3508SOL    HW222158   0.411   1.418   6.672  0.5441 -0.1136  0.2597
 3509SOL     OW22159   4.630   4.124   3.176 -0.6889 -0.1116  0.7874
 3509SOL    HW122160   4.589   4.038   3.164  0.7818 -0.4574 -1.7068
 3509SOL    HW222161   4.556   4.177   3.203 -0.9396  0.9912 -2.1057
 3510SOL     OW22162   0.381   1.157   5.756 -0.3030  0.2096  0.3237
 3510SOL    HW122163   0.432   1.089   5.799  1.0093  0.6975 -0.4669
 3510SOL    HW222164   0.453   1.217   5.736  1.7469 -2.3081  0.2193
 3511SOL     OW22165   2.859   1.819   4.671 -0.1669 -0.5065  0.3274
 3511SOL    HW122166   2.849   1.740   4.617 -0.2416 -0.4177  0.2129
 3511SOL    HW222167   2.795   1.814   4.742 -0.5658 -1.6602 -0.1088
 3512SOL     OW22168   1.574   2.851   9.544  0.1004 -0.3086 -0.7192
 3512SOL    HW122169   1.595   2.833   9.452  1.5466  0.9536 -0.6370
 3512SOL    HW222170   1.600   2.941   9.560  1.3692 -0.9209  0.7091
 3513SOL     OW22171   3.690   3.455   7.489  0.3558 -0.6379  0.2058
 3513SOL    HW122172   3.632   3.381   7.474 -0.2860 -0.7297  3.0767
 3513SOL    HW222173   3.764   3.420   7.539 -0.4324 -0.5444  1.4460
 3514SOL     OW22174   2.593   0.630  12.662  0.0595  0.0722 -0.0569
 3514SOL    HW122175   2.655   0.614  12.733  1.8879 -0.1193 -1.6753
 3514SOL    HW222176   2.522   0.570  12.688 -1.1914  0.5086 -2.4595
 3515SOL     OW22177   2.958   2.943   9.254 -0.4316  0.0733  0.1057
 3515SOL    HW122178   3.036   2.967   9.205 -0.7024 -1.0582 -0.8689
 3515SOL    HW222179   2.964   3.005   9.327 -1.1005  0.4524 -0.1546
 3516SOL     OW22180   0.192   3.571   4.067  0.4507 -0.3474 -0.0630
 3516SOL    HW122181   0.115   3.521   4.095  0.4684 -2.2926 -3.4023
 3516SOL    HW222182   0.163   3.607   3.983  2.4076  1.2790 -0.0300
 3517SOL     OW22183   2.083   4.154   1.766 -0.0177  0.0625  0.1047
 3517SOL    HW122184   2.177   4.164   1.781 -0.0299 -0.6508  0.6121
 3517SOL    HW222185   2.076   4.107   1.683  0.8135  0.8276 -0.4141
 3518SOL     OW22186   1.269   2.941   1.252  0.5439 -0.7143  0.0402
 3518SOL    HW122187   1.307   2.982   1.175  0.9655 -2.0672 -0.4560
 3518SOL    HW222188   1.344   2.908   1.301 -0.9054 -1.1895  1.9431
 3519SOL     OW22189   1.098   3.594   4.202  0.0375 -0.1793 -0.1213
 3519SOL    HW122190   1.043   3.589   4.280  0.3628 -2.1379 -0.0092
 3519SOL    HW222191   1.063   3.512   4.167 -1.8364  0.4433  0.3128
 3520SOL     OW22192   3.458   2.413  13.757 -0.3196 -0.2048 -0.3673
 3520SOL    HW122193   3.408   2.412  13.839  0.9445 -1.8924  0.3824
 3520SOL    HW222194   3.440   2.503  13.730  2.0310 -0.2163 -1.9908
 3521SOL     OW22195   2.774   2.056   2.368 -0.6737 -0.3948  0.1340
 3521SOL    HW122196   2.728   1.989   2.318  1.1469 -2.2933  0.9902
 3521SOL    HW222197   2.862   2.048   2.332 -0.7723 -0.9198  0.0070
 3522SOL     OW22198   2.185   3.040   1.381 -0.4200 -0.0367 -0.2925
 3522SOL    HW122199   2.098   3.050   1.421 -0.4733  1.1037 -0.6913
 3522SOL    HW222200   2.214   2.952   1.404 -0.7596  0.4283  1.9267
 3523SOL     OW22201   1.107   1.493   4.555 -0.0866 -1.2336  0.2067
 3523SOL    HW122202   1.021   1.452   4.547 -0.4591 -0.1861 -1.1319
 3523SOL    HW222203   1.073   1.580   4.575 -1.3148 -1.3839 -1.2705
 3524SOL     OW22204   3.387   3.562   3.973 -0.5041  0.2377 -0.1559
 3524SOL    HW122205   3.321   3.500   4.005 -0.9009  0.0771 -1.2763
 3524SOL    HW222206   3.458   3.500   3.959  0.2587  1.6167 -2.3941
 3525SOL     OW22207   0.684   3.378   4.666  0.1843  0.4371  0.1536
 3525SOL    HW122208   0.729   3.295   4.650 -1.5239 -1.1049  3.3628
 3525SOL    HW222209   0.690   3.385   4.761  0.0722  1.9698  0.0493
 3526SOL     OW22210   3.438   3.053   5.485 -0.6892 -0.0194  0.1592
 3526SOL    HW122211   3.361   3.080   5.435 -0.4839  0.1635 -0.0603
 3526SOL    HW222212   3.423   2.958   5.486 -0.3642 -0.0481  1.4340
 3527SOL     OW22213   0.841   2.935  15.778  0.3138  0.3250 -0.1194
 3527SOL    HW122214   0.899   2.859  15.790 -0.0264 -0.0590 -0.8649
 3527SOL    HW222215   0.879   3.000  15.837 -0.0142  1.6422 -1.3699
 3528SOL     OW22216   3.181   2.969   6.234 -0.4927  0.6245 -0.1903
 3528SOL    HW122217   3.232   2.952   6.313 -0.0682 -0.9650 -0.8072
 3528SOL    HW222218   3.232   2.914   6.176 -2.3043 -0.0867 -1.1046
 3529SOL     OW22219   2.512   0.434   4.394 -0.2520  0.3410  0.6969
 3529SOL    HW122220   2.457   0.472   4.325  2.4278  3.1738  0.1087
 3529SOL    HW222221   2.444   0.398   4.451 -0.6327  1.3585  0.8786
 3530SOL     OW22222   4.638   4.144   6.187 -0.2605 -0.2931  0.2649
 3530SOL    HW122223   4.618   4.061   6.143 -4.4349  0.8591  0.0267
 3530SOL    HW222224   4.574   4.137   6.258 -1.0320  0.0733 -0.3979
 3531SOL     OW22225   1.415   4.423   5.643 -0.3748 -0.2509  0.0660
 3531SOL    HW122226   1.477   4.410   5.571  0.8060  1.8639  0.7137
 3531SOL    HW222227   1.356   4.353   5.613  1.2662 -1.1094 -1.1738
 3532SOL     OW22228   2.984   2.502   5.301 -0.0629 -0.1777  0.1520
 3532SOL    HW122229   2.896   2.527   5.330  0.4142  1.3602  0.2452
 3532SOL    HW222230   3.007   2.438   5.368  1.2652  0.1970  0.0422
 3533SOL     OW22231   4.199   1.039   6.338  0.0367 -0.2007  0.2535
 3533SOL    HW122232   4.106   1.041   6.315  0.1694  0.1050 -0.2580
 3533SOL    HW222233   4.240   1.063   6.255 -1.2990 -1.3363 -0.7415
 3534SOL     OW22234   4.677   3.510   8.523  0.2326 -0.0945  0.0480
 3534SOL    HW122235   4.722   3.472   8.599 -2.0830 -0.7562  1.0986
 3534SOL    HW222236   4.632   3.431   8.494  0.5748  0.7905 -2.8953
 3535SOL     OW22237   2.196   1.361   6.897 -0.4502  0.0517  0.2988
 3535SOL    HW122238   2.112   1.315   6.905 -0.2577 -0.3250  0.1580
 3535SOL    HW222239   2.213   1.352   6.803 -1.8158 -0.4846  0.0985
 3536SOL     OW22240   3.832   2.778   2.717  0.2888 -0.4441 -0.1484
 3536SOL    HW122241   3.860   2.694   2.754 -0.6024 -0.4243  0.5750
 3536SOL    HW222242   3.897   2.838   2.752 -0.5167  0.1936  0.2500
 3537SOL     OW22243   3.977   3.141  13.790 -0.1621  0.2626  0.5785
 3537SOL    HW122244   4.023   3.087  13.726  0.2116  1.0833  0.1497
 3537SOL    HW222245   3.887   3.110  13.778 -0.7000  1.4859  1.3873
 3538SOL     OW22246   3.841   0.555   4.394  0.5816 -0.6423 -0.0149
 3538SOL    HW122247   3.772   0.544   4.459  0.1558 -2.4831 -0.7712
 3538SOL    HW222248   3.872   0.637   4.432 -1.0777  0.3191 -0.7038
 3539SOL     OW22249   0.608   2.610   9.981  0.0110 -0.6870  0.1934
 3539SOL    HW122250   0.586   2.522   9.951 -1.8905  0.1900 -0.9956
 3539SOL    HW222251   0.526   2.648   9.948  0.2557  0.3703  0.7848
 3540SOL     OW22252   0.844   4.048  14.798 -0.1977  0.2620  0.1454
 3540SOL    HW122253   0.922   4.019  14.844 -1.0222  0.4744  1.6648
 3540SOL    HW222254   0.817   4.122  14.852  1.1378  0.4700  0.5363
 3541SOL     OW22255   3.273   4.064   6.237  0.2103 -0.1189 -0.7243
 3541SOL    HW122256   3.273   4.096   6.146 -1.1939  2.3106  0.1342
 3541SOL    HW222257   3.227   3.980   6.233  0.1223 -0.1245  0.5803
 3542SOL     OW22258   3.574   2.079   5.677  0.4431 -0.2249  0.1323
 3542SOL    HW122259   3.508   2.026   5.721  1.9688 -0.9706  1.5345
 3542SOL    HW222260   3.529   2.160   5.654  1.2648 -0.0403 -0.8610
 3543SOL     OW22261   3.025   0.446  12.756  0.2046 -0.6607 -0.0063
 3543SOL    HW122262   3.086   0.488  12.816 -1.4008 -0.5887  1.5696
 3543SOL    HW222263   2.941   0.488  12.776  1.2612  1.1029  0.7163
 3544SOL     OW22264   3.625   4.676   1.520  0.6114 -0.0552  1.1127
 3544SOL    HW122265   3.584   4.718   1.595 -0.4782  3.3174 -1.3963
 3544SOL    HW222266   3.632   0.007   1.451  0.3114  0.3915  1.5152
 3545SOL     OW22267   1.620   3.596   3.660  0.5712  0.2553 -0.6018
 3545SOL    HW122268   1.638   3.545   3.581 -0.2580  1.2144 -1.4259
 3545SOL    HW222269   1.650   3.679   3.621  0.3439  1.6879  2.3212
 3546SOL     OW22270   2.430   4.103  15.410 -0.0253 -0.3405  0.2399
 3546SOL    HW122271   2.412   4.036  15.476  0.6322 -0.8745 -0.1141
 3546SOL    HW222272   2.484   4.166  15.458  1.2471 -2.9860  2.3028
 3547SOL     OW22273   2.210   4.044  10.251  0.1051  1.2735  0.0612
 3547SOL    HW122274   2.218   3.970  10.191  0.1763 -0.6545  2.4278
 3547SOL    HW222275   2.189   4.111  10.187 -1.7033  0.6668  0.0036
 3548SOL     OW22276   3.922   4.552  13.258 -0.2809 -0.0245 -0.0563
 3548SOL    HW122277   4.015   4.528  13.253  0.1568  1.5544  0.5263
 3548SOL    HW222278   3.904   4.535  13.351 -0.4657  1.1874  0.1290
 3549SOL     OW22279   0.609   1.213   6.118 -0.0396 -0.4216  0.1687
 3549SOL    HW122280   0.614   1.308   6.127  2.8060 -0.3238 -2.2557
 3549SOL    HW222281   0.631   1.211   6.024  0.5795  0.1517  0.3024
 3550SOL     OW22282   0.108   1.288   7.007  0.0847  0.0296  0.2491
 3550SOL    HW122283   0.041   1.259   6.944 -0.1579  0.1538  0.4520
 3550SOL    HW222284   0.184   1.292   6.948 -0.5276  0.9936 -0.4821
 3551SOL     OW22285   0.386   2.155   6.210 -0.2391  0.1687 -0.2041
 3551SOL    HW122286   0.422   2.238   6.241 -1.5148  0.4965  0.3907
 3551SOL    HW222287   0.367   2.190   6.123 -0.3916 -0.5402 -0.4548
 3552SOL     OW22288   1.616   1.992   3.391 -0.0777  0.2648  0.0347
 3552SOL    HW122289   1.565   1.965   3.468 -1.5938  0.2568 -0.9644
 3552SOL    HW222290   1.683   1.926   3.379 -1.2279 -0.5155 -2.0526
 3553SOL     OW22291   4.117   4.688   3.327  0.2088  0.4055  0.2851
 3553SOL    HW122292   4.049   4.643   3.377  1.0882  0.0666  1.1711
 3553SOL    HW222293   4.184   4.620   3.331 -0.9506 -0.7792 -0.5184
 3554SOL     OW22294   0.226   2.152   9.350 -0.0312  0.5337 -0.7295
 3554SOL    HW122295   0.257   2.173   9.438  1.3843  3.3241 -1.8745
 3554SOL    HW222296   0.246   2.239   9.314  0.7449  0.4560 -0.4823
 3555SOL     OW22297   3.122   0.271   2.317  0.5606  0.4349 -0.0179
 3555SOL    HW122298   3.153   0.193   2.363  0.2496  0.0898 -0.3990
 3555SOL    HW222299   3.131   0.338   2.385  0.8735  1.8876 -1.4892
 3556SOL     OW22300   4.337   3.423   3.682 -0.5074 -0.3268 -0.1446
 3556SOL    HW122301   4.368   3.396   3.595  0.2377 -2.5500  0.8101
 3556SOL    HW222302   4.318   3.513   3.658 -0.7018 -0.7279 -1.5243
 3557SOL     OW22303   4.732   2.643   6.550 -0.0140  0.2277 -0.2464
 3557SOL    HW122304   4.654   2.587   6.551 -2.6997  4.0028  0.6509
 3557SOL    HW222305   0.022   2.641   6.643  1.5781  0.0917 -0.6786
 3558SOL     OW22306   1.821   1.804   6.514 -0.3322  0.7062  0.0129
 3558SOL    HW122307   1.909   1.822   6.548 -1.4697 -0.2634  3.5138
 3558SOL    HW222308   1.824   1.865   6.440  2.2353  2.4058  1.5242
 3559SOL     OW22309   4.203   3.172  14.439 -0.3427 -0.4470 -0.1301
 3559SOL    HW122310   4.159   3.097  14.399 -0.2015 -1.2075  1.1452
 3559SOL    HW222311   4.206   3.249  14.382  0.5132  1.7914  2.9262
 3560SOL     OW22312   2.702   2.744  12.952 -0.3487 -0.5160 -0.3411
 3560SOL    HW122313   2.680   2.692  12.874 -0.1719  1.7454 -1.9061
 3560SOL    HW222314   2.615   2.783  12.959  0.3556  1.3842 -2.3426
 3561SOL     OW22315   0.105   2.695   6.100  0.0829  0.4230 -0.2524
 3561SOL    HW122316   0.051   2.628   6.058 -0.2095  1.7160 -1.9110
 3561SOL    HW222317   0.044   2.735   6.162  1.7773  1.5829  0.6424
 3562SOL     OW22318   3.875   3.438   3.721  1.2190  0.4515  0.1363
 3562SOL    HW122319   3.888   3.385   3.642 -3.3629  1.0990 -1.0243
 3562SOL    HW222320   3.819   3.378   3.769  3.1973 -0.7371  0.9706
 3563SOL     OW22321   1.558   3.121   5.453 -0.3524 -0.4842 -0.0644
 3563SOL    HW122322   1.568   3.119   5.548  3.2483 -0.4630 -0.4470
 3563SOL    HW222323   1.647   3.141   5.423  0.1513 -1.2789  0.9019
 3564SOL     OW22324   1.383   3.820  16.624  0.0277 -0.4155  0.7926
 3564SOL    HW122325   1.308   3.762  16.619  0.0924 -0.3865 -0.7058
 3564SOL    HW222326   1.415   3.804  16.713  1.8726  0.7289  0.3513
 3565SOL     OW22327   2.839   3.477   4.492  0.1318 -0.1370 -0.0845
 3565SOL    HW122328   2.882   3.414   4.549 -1.7342 -0.6468  0.7631
 3565SOL    HW222329   2.887   3.559   4.501 -1.0061  0.4612  0.5181
 3566SOL     OW22330   4.311   4.503   8.888  0.3624 -0.4943 -0.2190
 3566SOL    HW122331   4.276   4.490   8.800  1.6809  0.7239 -0.9105
 3566SOL    HW222332   4.403   4.491   8.867  0.4408 -0.7332  0.2661
 3567SOL     OW22333   3.354   0.169   1.951 -0.3540  0.4968  0.1790
 3567SOL    HW122334   3.344   0.141   1.860 -3.1280  0.4867  0.4720
 3567SOL    HW222335   3.278   0.227   1.953 -1.9840 -1.5583 -1.1737
 3568SOL     OW22336   1.537   0.295   8.774  0.1440 -0.2392 -0.1513
 3568SOL    HW122337   1.632   0.299   8.777  0.2543 -2.0471 -1.7615
 3568SOL    HW222338   1.514   0.328   8.861  0.1260 -0.8953  0.0874
 3569SOL     OW22339   0.996   2.567   5.632 -0.8115 -0.2240 -0.8070
 3569SOL    HW122340   1.041   2.650   5.645 -0.0509 -0.8056  0.2245
 3569SOL    HW222341   1.061   2.509   5.671 -3.9293 -0.8577  3.5711
 3570SOL     OW22342   2.594   0.243   7.527 -0.3872 -0.4894  0.6208
 3570SOL    HW122343   2.594   0.147   7.534  0.0112 -0.3481  2.5431
 3570SOL    HW222344   2.546   0.244   7.444  2.4816 -1.7160 -1.0645
 3571SOL     OW22345   4.301   4.433  13.485 -0.5335  1.3297  0.2926
 3571SOL    HW122346   4.295   4.519  13.526 -0.7633  1.1879  0.5556
 3571SOL    HW222347   4.376   4.449  13.427 -0.4087 -4.4141 -1.1319
 3572SOL     OW22348   3.107   3.768   6.375 -0.5763 -0.2975  0.3028
 3572SOL    HW122349   3.146   3.800   6.456 -1.2681  1.2454  0.0319
 3572SOL    HW222350   3.020   3.745   6.408 -0.7525  1.7934  1.2715
 3573SOL     OW22351   4.394   4.538   2.525 -0.1850  0.0874  0.2029
 3573SOL    HW122352   4.393   4.514   2.433 -2.3986  2.5439 -0.4247
 3573SOL    HW222353   4.462   4.605   2.531  0.1209 -0.3559  1.8651
 3574SOL     OW22354   0.204   4.054   0.827  0.3684  0.4920  0.4819
 3574SOL    HW122355   0.114   4.065   0.795  1.3538  2.5608 -1.5419
 3574SOL    HW222356   0.214   3.960   0.838 -1.8765  0.1526 -0.2158
 3575SOL     OW22357   0.033   0.649  17.630 -0.1900 -0.5010 -0.0810
 3575SOL    HW122358   0.005   0.687  17.713 -2.5721 -0.3440 -0.9229
 3575SOL    HW222359   0.020   0.555  17.641  1.2676 -0.6484  0.3550
 3576SOL     OW22360   0.647   1.843   6.428 -0.0749 -0.3328  0.4704
 3576SOL    HW122361   0.706   1.780   6.387  0.2271  0.3403 -0.1315
 3576SOL    HW222362   0.637   1.816   6.519  1.7603  0.0829  0.8001
 3577SOL     OW22363   1.069   1.943  14.765  0.9598  0.0777 -0.4429
 3577SOL    HW122364   0.975   1.928  14.753  1.0518  1.1185 -2.5245
 3577SOL    HW222365   1.105   1.865  14.724 -1.8642 -2.2034  1.3596
 3578SOL     OW22366   3.878   1.752  11.819  0.3419  0.2328 -0.5563
 3578SOL    HW122367   3.898   1.784  11.907  0.4238 -0.5354 -0.2904
 3578SOL    HW222368   3.807   1.694  11.845  1.4263 -0.7296  0.2800
 3579SOL     OW22369   3.094   0.365   5.186 -0.2641 -0.0900  0.1089
 3579SOL    HW122370   3.031   0.295   5.168 -1.4175  0.9426  0.1336
 3579SOL    HW222371   3.127   0.340   5.272 -1.6136  0.3502  0.7612
 3580SOL     OW22372   4.713   3.962   4.440  0.3275 -0.0485  0.2273
 3580SOL    HW122373   4.689   3.871   4.419 -2.3051  0.5812  0.4794
 3580SOL    HW222374   0.000   3.987   4.351 -2.3819 -1.0994 -0.7531
 3581SOL     OW22375   1.171   4.540   4.667 -0.0385 -0.9495 -0.5120
 3581SOL    HW122376   1.181   4.633   4.688  1.4764 -1.6093  1.6867
 3581SOL    HW222377   1.077   4.536   4.649 -0.0706 -0.7973 -0.3774
 3582SOL     OW22378   0.874   2.297   2.552 -0.3837 -0.1823 -0.3916
 3582SOL    HW122379   0.808   2.265   2.613  0.4806  0.0672  0.6830
 3582SOL    HW222380   0.815   2.358   2.508 -1.8814 -1.1138  0.3426
 3583SOL     OW22381   4.700   1.261   9.868 -0.3943  0.1984 -0.0932
 3583SOL    HW122382   0.019   1.194   9.911  2.0781  2.4183  0.2815
 3583SOL    HW222383   4.671   1.210   9.792  0.9049  0.6980 -0.9387
 3584SOL     OW22384   3.272   1.698   8.243 -0.1411 -0.0299 -0.0178
 3584SOL    HW122385   3.329   1.691   8.320 -0.1136 -1.9338 -0.2088
 3584SOL    HW222386   3.307   1.777   8.201 -0.2247  0.3012  0.5470
 3585SOL     OW22387   4.040   0.579   3.970 -0.4213 -0.2265 -0.2464
 3585SOL    HW122388   4.012   0.644   4.035 -0.9305 -0.8836  0.1756
 3585SOL    HW222389   3.957   0.535   3.951 -0.7009  0.3915 -0.4617
 3586SOL     OW22390   4.366   1.207   1.910 -0.2003  0.2891 -0.2186
 3586SOL    HW122391   4.354   1.298   1.936 -3.7274 -0.2552  0.0666
 3586SOL    HW222392   4.459   1.191   1.893 -0.0864  1.4864 -0.7207
 3587SOL     OW22393   4.685   2.453  12.964  0.1007  0.5855 -0.4182
 3587SOL    HW122394   0.033   2.501  12.964  1.3037 -1.5330  0.2166
 3587SOL    HW222395   4.711   2.368  12.999 -0.5043  0.3991 -0.4149
 3588SOL     OW22396   2.869   0.061   3.567  0.1091  0.0521  0.3146
 3588SOL    HW122397   2.952   0.034   3.528 -0.9512 -0.6788 -1.4715
 3588SOL    HW222398   2.866   0.156   3.550  2.6472  0.1461  0.4083
 3589SOL     OW22399   1.875   4.115  16.443 -0.3898 -0.0722 -0.3377
 3589SOL    HW122400   1.937   4.109  16.370  1.6333 -1.1596  1.4468
 3589SOL    HW222401   1.815   4.173  16.396  0.3778 -1.0799 -2.5722
 3590SOL     OW22402   2.977   0.693   1.532 -0.0473  0.5839 -0.3569
 3590SOL    HW122403   2.901   0.741   1.562  0.8583  1.1492  1.0554
 3590SOL    HW222404   3.005   0.750   1.461  1.0000  0.2550 -0.2099
 3591SOL     OW22405   1.675   3.079   9.659 -0.6197  0.0938  0.2127
 3591SOL    HW122406   1.754   3.122   9.626 -1.0283  0.0465 -0.8452
 3591SOL    HW222407   1.605   3.140   9.635  1.0211  2.0056  0.3080
 3592SOL     OW22408   1.161   0.746   8.206 -1.0047  0.0070  0.4968
 3592SOL    HW122409   1.189   0.671   8.258  0.2950  0.2325  0.1388
 3592SOL    HW222410   1.246   0.789   8.192 -0.4475 -0.9164  1.0280
 3593SOL     OW22411   1.316   2.147   8.596 -0.1600  0.0624 -0.3282
 3593SOL    HW122412   1.308   2.110   8.683  1.3655 -2.2929 -1.1745
 3593SOL    HW222413   1.383   2.090   8.558 -0.4738  0.1634 -1.0293
 3594SOL     OW22414   2.189   2.269   7.642 -0.3144 -0.0256 -0.1077
 3594SOL    HW122415   2.116   2.229   7.595 -0.0170 -1.7404  0.8688
 3594SOL    HW222416   2.136   2.301   7.716  0.6507  0.4569  0.3798
 3595SOL     OW22417   4.674   0.404  17.687  0.9949 -0.0601 -0.0568
 3595SOL    HW122418   4.724   0.367   0.021  0.8959  1.3415  0.7143
 3595SOL    HW222419   4.613   0.332  17.669  2.3609 -1.9679  2.9810
 3596SOL     OW22420   0.256   2.829   0.791 -0.2133 -0.4252 -0.1094
 3596SOL    HW122421   0.333   2.883   0.810 -0.8674  0.2765  0.5343
 3596SOL    HW222422   0.185   2.893   0.792 -0.4762 -0.7150 -0.3969
 3597SOL     OW22423   0.213   0.299   6.937  0.6830 -0.1247 -0.1547
 3597SOL    HW122424   0.281   0.364   6.960  0.1804  1.1421 -2.2964
 3597SOL    HW222425   0.168   0.345   6.867  2.9540 -1.2373 -2.3134
 3598SOL     OW22426   2.512   3.747  11.644 -0.4425  0.1728  0.0871
 3598SOL    HW122427   2.505   3.652  11.658  1.0855  0.1196  0.4732
 3598SOL    HW222428   2.606   3.764  11.645 -0.2807 -0.5671 -1.8423
 3599SOL     OW22429   0.294   0.661   4.585 -0.4962 -0.0781 -0.5726
 3599SOL    HW122430   0.212   0.635   4.626 -1.1199  2.0274 -0.4741
 3599SOL    HW222431   0.286   0.756   4.600  0.4712 -0.4077  2.1398
 3600SOL     OW22432   4.327   2.429  10.259 -0.2687 -0.0726 -0.1346
 3600SOL    HW122433   4.287   2.360  10.313  1.3331 -1.2368 -0.4466
 3600SOL    HW222434   4.372   2.472  10.332 -0.5662  0.1573 -0.0850
 3601SOL     OW22435   1.647   3.709   6.294 -0.3324  0.5403  0.0780
 3601SOL    HW122436   1.677   3.740   6.208 -0.3769  1.1534  0.2862
 3601SOL    HW222437   1.734   3.704   6.332 -0.3138 -0.2710 -0.0602
 3602SOL     OW22438   2.948   3.187   5.062 -0.1195 -0.0351 -0.0008
 3602SOL    HW122439   2.974   3.257   5.002  1.5605 -0.8011 -0.1681
 3602SOL    HW222440   3.026   3.169   5.114  0.1624  0.9987 -0.0690
 3603SOL     OW22441   1.287   1.130   2.424  0.0420 -0.0333  0.3236
 3603SOL    HW122442   1.352   1.197   2.402 -0.6010  0.2246 -0.7914
 3603SOL    HW222443   1.264   1.122   2.331 -1.0537 -2.8270  0.8385
 3604SOL     OW22444   0.458   1.888   7.750 -0.8931 -0.2514  0.1457
 3604SOL    HW122445   0.553   1.881   7.752 -0.8793 -0.4555 -1.1393
 3604SOL    HW222446   0.436   1.858   7.838  2.2556 -1.0718  0.6465
 3605SOL     OW22447   3.383   2.579  16.633 -0.3791 -0.2149  0.2224
 3605SOL    HW122448   3.442   2.505  16.618 -0.4712 -0.5548  1.5960
 3605SOL    HW222449   3.304   2.545  16.674 -1.0588  1.3355  0.1999
 3606SOL     OW22450   3.698   3.136   4.475  0.1942 -0.1723  0.3267
 3606SOL    HW122451   3.747   3.079   4.416  1.0478 -0.9328  1.7841
 3606SOL    HW222452   3.710   3.082   4.553  4.0103 -2.0984 -1.6202
 3607SOL     OW22453   4.412   1.751   1.583 -0.5069  0.1642 -0.2628
 3607SOL    HW122454   4.458   1.675   1.618 -0.2353  0.8797  0.9290
 3607SOL    HW222455   4.333   1.703   1.557 -0.0028 -0.7241 -0.1345
 3608SOL     OW22456   4.729   3.685   0.797 -0.7694  0.8289  0.5344
 3608SOL    HW122457   0.058   3.750   0.827 -2.5020  2.6182  0.3858
 3608SOL    HW222458   4.644   3.722   0.821  0.2343  3.0262  0.7070
 3609SOL     OW22459   3.452   4.181   0.048  0.2929 -0.4422  0.3389
 3609SOL    HW122460   3.408   4.212   0.127 -3.6503 -2.2660 -1.1337
 3609SOL    HW222461   3.479   4.097   0.085 -0.4137  0.1033  2.1024
 3610SOL     OW22462   2.010   3.807  11.584  0.1879 -0.2808 -0.3288
 3610SOL    HW122463   2.102   3.811  11.611 -0.4009 -0.2716  1.6557
 3610SOL    HW222464   2.011   3.872  11.513  1.0178  2.5034  2.2283
 3611SOL     OW22465   0.689   3.774   6.800 -0.0654 -0.0470  0.4151
 3611SOL    HW122466   0.681   3.693   6.750  0.6478 -0.0401  0.2872
 3611SOL    HW222467   0.646   3.827   6.732  0.3188  0.9354  0.9414
 3612SOL     OW22468   3.239   2.354   8.450  0.3201 -0.3349  0.2455
 3612SOL    HW122469   3.250   2.298   8.526 -1.9839 -1.4230 -0.2246
 3612SOL    HW222470   3.187   2.427   8.484 -2.5062 -2.1181 -0.2718
 3613SOL     OW22471   3.364   0.757  14.699  0.6188 -0.8103  0.1740
 3613SOL    HW122472   3.455   0.787  14.704  0.2879  0.2517 -0.1045
 3613SOL    HW222473   3.346   0.768  14.793  0.2236  0.1843 -0.0090
 3614SOL     OW22474   4.449   3.831   5.155 -0.1357  0.2056 -0.2108
 3614SOL    HW122475   4.536   3.870   5.161 -0.8665  1.8729 -0.5103
 3614SOL    HW222476   4.434   3.844   5.061  2.2044 -3.4079 -1.0684
 3615SOL     OW22477   1.967   1.150   5.543 -0.1739  0.3268 -0.1322
 3615SOL    HW122478   1.950   1.067   5.589 -3.1957  0.0854 -1.7180
 3615SOL    HW222479   2.037   1.179   5.603 -1.2279  0.1587  1.1820
 3616SOL     OW22480   1.988   2.826   8.462  0.2369 -0.2083  0.6402
 3616SOL    HW122481   1.943   2.901   8.502  3.1607  1.3612  0.9549
 3616SOL    HW222482   1.933   2.806   8.386  1.1740  1.1940 -0.3948
 3617SOL     OW22483   2.347   4.161  12.777 -0.5058 -0.1759  0.6821
 3617SOL    HW122484   2.382   4.078  12.744  1.1587  0.2852  1.3008
 3617SOL    HW222485   2.297   4.115  12.844  2.0643 -1.3665  1.7918
 3618SOL     OW22486   0.718   2.635   8.546  0.1001  0.8477 -0.0104
 3618SOL    HW122487   0.637   2.681   8.526  1.1838  1.9439 -1.8146
 3618SOL    HW222488   0.786   2.698   8.522  1.6201 -0.9959 -0.5930
 3619SOL     OW22489   3.960   1.968   5.650 -0.1250 -0.3847 -0.0435
 3619SOL    HW122490   4.055   1.977   5.654  0.0907 -2.5491 -0.2903
 3619SOL    HW222491   3.950   1.922   5.733  0.0823 -0.9122 -0.3080
 3620SOL     OW22492   3.593   4.230   5.893 -0.2224  0.0129  0.1820
 3620SOL    HW122493   3.544   4.296   5.845 -0.2695 -1.3290 -1.6195
 3620SOL    HW222494   3.681   4.234   5.854  0.6115 -4.2202  1.6783
 3621SOL     OW22495   3.406   3.793   4.137  0.1567  0.3439  0.1667
 3621SOL    HW122496   3.400   3.739   4.216  0.7886 -1.2730 -0.8886
 3621SOL    HW222497   3.408   3.724   4.071 -1.2962  1.9252 -1.5567
 3622SOL     OW22498   2.605   4.083   7.491 -0.6100 -0.5498  0.1514
 3622SOL    HW122499   2.523   4.095   7.540 -0.7962  1.3917 -0.6694
 3622SOL    HW222500   2.589   4.138   7.415 -2.0812 -0.7873  0.2834
 3623SOL     OW22501   0.046   2.433  15.015  0.0367 -0.2789  0.7058
 3623SOL    HW122502   4.716   2.363  15.014  0.3210 -0.5392  0.3156
 3623SOL    HW222503   0.023   2.463  15.103  1.0744 -1.7113  1.4516
 3624SOL     OW22504   0.456   2.429   8.365 -0.0666  0.0316  0.2221
 3624SOL    HW122505   0.451   2.352   8.309 -1.5868 -1.1513  1.9723
 3624SOL    HW222506   0.527   2.393   8.418 -0.7506  0.8352  1.7147
 3625SOL     OW22507   4.430   3.250   4.656 -0.5100 -0.2364 -0.4664
 3625SOL    HW122508   4.349   3.228   4.609 -0.8389 -2.9988  1.4090
 3625SOL    HW222509   4.415   3.342   4.677 -1.7352 -1.1302  2.5628
 3626SOL     OW22510   2.862   1.488   5.209  0.2689  0.0597 -0.2243
 3626SOL    HW122511   2.945   1.500   5.163  0.2163  0.0784 -0.3149
 3626SOL    HW222512   2.857   1.393   5.223  0.3141  0.1601  0.4530
 3627SOL     OW22513   2.409   0.833   5.035 -0.1361  0.1734 -0.1815
 3627SOL    HW122514   2.405   0.903   4.970 -0.9033  0.2015 -0.0954
 3627SOL    HW222515   2.414   0.894   5.108  2.3988  0.7230 -0.7971
 3628SOL     OW22516   2.250   4.581   1.842 -0.6943  0.2237 -0.3960
 3628SOL    HW122517   2.205   4.613   1.921 -0.0948 -1.7745  0.7515
 3628SOL    HW222518   2.270   4.665   1.800  0.4932 -0.6354 -1.5013
 3629SOL     OW22519   0.346   4.239   0.225 -0.1473  0.1312  0.3963
 3629SOL    HW122520   0.423   4.266   0.275 -1.4152 -0.7416  2.8053
 3629SOL    HW222521   0.371   4.271   0.138 -2.7378  0.9686 -0.0220
 3630SOL     OW22522   3.388   4.346   2.370  0.7912 -0.0443 -0.2299
 3630SOL    HW122523   3.391   4.407   2.297  0.4926  1.6624  1.1748
 3630SOL    HW222524   3.304   4.306   2.346  0.3416  0.9179 -0.2935
 3631SOL     OW22525   0.632   4.456   1.513  0.0197 -0.3060  0.2816
 3631SOL    HW122526   0.701   4.521   1.522  0.1005 -0.2990 -0.3949
 3631SOL    HW222527   0.604   4.481   1.425  2.2234  0.7378 -0.1178
 3632SOL     OW22528   2.412   0.464  13.551 -0.0773  0.2939 -0.7312
 3632SOL    HW122529   2.497   0.436  13.518 -1.1818 -1.0430 -2.4374
 3632SOL    HW222530   2.355   0.411  13.496 -0.9883 -1.6905  2.0847
 3633SOL     OW22531   4.201   2.250   9.583 -0.5861  0.7605  0.4933
 3633SOL    HW122532   4.288   2.245   9.623  1.7412 -0.3448 -4.8038
 3633SOL    HW222533   4.199   2.345   9.585 -1.3555  0.7016  3.8488
 3634SOL     OW22534   3.319   0.833   9.373  0.2034  0.0712 -0.0216
 3634SOL    HW122535   3.314   0.805   9.464 -0.4452  0.9105  0.2009
 3634SOL    HW222536   3.272   0.758   9.337  0.1644 -0.4204  1.0509
 3635SOL     OW22537   3.196   0.354   6.603 -0.2162 -0.1683 -0.1525
 3635SOL    HW122538   3.153   0.338   6.686 -1.7568 -0.7942 -1.0642
 3635SOL    HW222539   3.287   0.361   6.633 -1.3009 -0.1521  3.1185
 3636SOL     OW22540   0.189   2.323   3.132 -0.1473 -0.4712 -0.0928
 3636SOL    HW122541   0.213   2.415   3.131  2.3335 -1.1146 -0.9857
 3636SOL    HW222542   0.129   2.305   3.060  1.1263  0.6060 -1.4135
 3637SOL     OW22543   4.470   3.332   6.030 -0.1050  0.3682  0.2583
 3637SOL    HW122544   4.434   3.417   6.003 -0.9366  0.4315  1.5806
 3637SOL    HW222545   4.532   3.330   5.957 -1.1067  1.0521 -0.5973
 3638SOL     OW22546   2.379   3.227   9.226  0.2693 -0.6693 -0.3100
 3638SOL    HW122547   2.437   3.303   9.224 -1.5661  0.6149 -3.0552
 3638SOL    HW222548   2.442   3.155   9.240  0.2534 -0.6858 -0.3241
 3639SOL     OW22549   0.775   2.090  11.602  0.8784  0.1075 -0.0948
 3639SOL    HW122550   0.741   2.160  11.658  2.0621  0.6866 -0.1151
 3639SOL    HW222551   0.697   2.048  11.566  0.2865 -0.3868  1.7566
 3640SOL     OW22552   2.914   2.403   0.208 -0.1650  0.4417 -0.0391
 3640SOL    HW122553   2.964   2.425   0.130 -1.3695  0.1199 -0.8845
 3640SOL    HW222554   2.827   2.411   0.171 -0.2918  0.6025  0.2888
 3641SOL     OW22555   3.888   1.684   4.286 -0.2678  0.1743  0.5179
 3641SOL    HW122556   3.975   1.648   4.304 -0.1048  0.7767  0.9211
 3641SOL    HW222557   3.845   1.611   4.242 -2.1822  0.3956  2.0335
 3642SOL     OW22558   4.557   0.262  11.731  0.0214 -0.0372  0.4643
 3642SOL    HW122559   4.567   0.228  11.643  0.6048 -0.2238  0.6038
 3642SOL    HW222560   4.639   0.232  11.771  1.2778  0.1174 -1.9859
 3643SOL     OW22561   0.293   2.951   4.330 -0.9689 -0.0593  0.4012
 3643SOL    HW122562   0.291   3.043   4.356 -0.4733  0.0353  0.1029
 3643SOL    HW222563   0.274   2.908   4.413 -1.1120  1.0967  0.9707
 3644SOL     OW22564   0.319   1.670   8.867 -0.0624 -0.0876  0.2200
 3644SOL    HW122565   0.268   1.702   8.942  2.0186  1.3593  1.0421
 3644SOL    HW222566   0.368   1.747   8.838  1.0054 -1.1579 -0.7777
 3645SOL     OW22567   2.201   3.856  14.329  0.0481 -0.4192  0.3183
 3645SOL    HW122568   2.281   3.898  14.295  0.7096 -1.3567  0.7130
 3645SOL    HW222569   2.213   3.779  14.275  0.2892  0.7510 -1.3059
 3646SOL     OW22570   3.909   3.196   8.221 -0.0421  0.0157  0.2363
 3646SOL    HW122571   3.853   3.182   8.145  1.2078 -1.2646 -0.4570
 3646SOL    HW222572   3.996   3.195   8.182  0.1657  3.3382  0.6570
 3647SOL     OW22573   2.010   4.541   8.818 -0.1398  0.0344  0.1214
 3647SOL    HW122574   2.022   4.500   8.732  1.6250  0.6907  0.0655
 3647SOL    HW222575   2.090   4.592   8.824 -0.1556 -0.0303  0.8238
 3648SOL     OW22576   3.656   2.225   4.012  0.9207  0.4423  0.2743
 3648SOL    HW122577   3.604   2.247   3.935  1.3023  1.6972  0.3761
 3648SOL    HW222578   3.649   2.300   4.071  0.3735 -0.1468  0.9617
 3649SOL     OW22579   3.484   2.292   8.876 -0.8486  0.4015 -0.1356
 3649SOL    HW122580   3.521   2.379   8.867 -0.4591  0.3596  1.0190
 3649SOL    HW222581   3.570   2.248   8.877 -0.9088  0.3053  1.0983
 3650SOL     OW22582   0.867   1.706   6.328  0.5781  0.0253 -0.0633
 3650SOL    HW122583   0.921   1.753   6.264 -1.4520  1.3109 -0.8274
 3650SOL    HW222584   0.932   1.680   6.393 -0.1736  0.7319  0.9739
 3651SOL     OW22585   1.145   4.549   9.559 -0.3214 -0.0832  0.1534
 3651SOL    HW122586   1.198   4.602   9.500  0.5828 -1.1123  0.0575
 3651SOL    HW222587   1.201   4.547   9.636  0.4196 -0.4830 -0.4030
 3652SOL     OW22588   4.400   3.122   6.982  0.3110  0.2032 -0.1599
 3652SOL    HW122589   4.322   3.119   7.037 -0.3231 -0.9125 -1.1059
 3652SOL    HW222590   4.382   3.043   6.931  0.8167 -0.4173  0.6300
 3653SOL     OW22591   4.389   4.124   5.777  0.3272 -0.1129  0.5410
 3653SOL    HW122592   4.333   4.128   5.855  0.3286 -0.0059  0.5368
 3653SOL    HW222593   4.328   4.088   5.712  0.5909  0.1159  0.1680
 3654SOL     OW22594   0.960   3.976   4.148 -0.5596 -0.0164 -0.0724
 3654SOL    HW122595   1.032   4.034   4.175 -0.4025 -0.2952  0.1019
 3654SOL    HW222596   0.994   3.888   4.164 -1.3039 -0.1513  0.7778
 3655SOL     OW22597   1.812   0.978   8.489 -0.2387  0.3226  0.0318
 3655SOL    HW122598   1.814   1.009   8.579  0.8109  1.3571 -0.3556
 3655SOL    HW222599   1.717   0.976   8.476 -0.2856 -0.3401  0.4923
 3656SOL     OW22600   0.117   3.812   4.952 -0.4827  0.2747 -0.0479
 3656SOL    HW122601   0.061   3.747   4.911  1.7752 -0.4474 -2.0121
 3656SOL    HW222602   0.093   3.890   4.901  3.1995  1.7028  0.4090
 3657SOL     OW22603   1.506   3.506   3.322  0.0807  0.3917 -0.0594
 3657SOL    HW122604   1.600   3.488   3.323 -0.2897 -1.5259 -0.2953
 3657SOL    HW222605   1.529   3.579   3.265  1.8487 -0.5918 -0.6378
 3658SOL     OW22606   3.308   0.940  13.857  0.5739 -0.6170 -0.5143
 3658SOL    HW122607   3.356   0.860  13.835  0.5775 -0.7634  0.0247
 3658SOL    HW222608   3.371   1.001  13.896 -0.5323  0.6654 -0.7367
 3659SOL     OW22609   1.761   1.087   5.819 -0.4716  0.2621  0.1765
 3659SOL    HW122610   1.744   1.153   5.752 -2.7675 -0.6708 -0.1615
 3659SOL    HW222611   1.799   1.012   5.773  1.4101  0.9074  0.6554
 3660SOL     OW22612   1.532   3.038   4.320 -0.2699 -0.2036 -0.3038
 3660SOL    HW122613   1.604   3.023   4.259 -0.8201 -1.7818 -0.5708
 3660SOL    HW222614   1.500   2.950   4.340  0.7859 -0.6741 -0.6793
 3661SOL     OW22615   4.005   2.381   7.889 -0.2300  0.3293  0.1577
 3661SOL    HW122616   3.992   2.425   7.973  0.7290 -2.7072  1.9185
 3661SOL    HW222617   3.999   2.289   7.914 -1.8454  0.3179 -0.2626
 3662SOL     OW22618   2.193   1.484   4.061 -0.7261  0.4726 -0.1599
 3662SOL    HW122619   2.149   1.561   4.098 -0.5498 -0.0406  1.1143
 3662SOL    HW222620   2.179   1.415   4.126  1.0231 -0.0876 -0.3817
 3663SOL     OW22621   4.108   0.926   7.237 -0.3346  0.1692 -0.1886
 3663SOL    HW122622   4.114   1.018   7.264  2.0802 -0.3992  1.2527
 3663SOL    HW222623   4.174   0.893   7.299  0.0682 -0.8164 -1.1434
 3664SOL     OW22624   3.621   0.744   7.110 -0.2311  0.2703  1.0874
 3664SOL    HW122625   3.665   0.691   7.176 -1.8307 -0.9007  1.2242
 3664SOL    HW222626   3.570   0.675   7.068  0.4395  0.6642 -0.3563
 3665SOL     OW22627   2.349   2.024  13.841  0.3540 -0.2903  0.0788
 3665SOL    HW122628   2.431   1.992  13.877 -0.3303 -2.0991  0.0320
 3665SOL    HW222629   2.303   1.940  13.836 -1.6446  0.9331 -2.5298
 3666SOL     OW22630   3.260   1.901  10.091  0.1322  0.2701  0.2272
 3666SOL    HW122631   3.165   1.900  10.091  0.1348 -0.2772 -0.0517
 3666SOL    HW222632   3.275   1.939  10.178  0.4819 -2.7398  1.4925
 3667SOL     OW22633   2.912   3.230   5.920  0.5032 -0.2072  0.0125
 3667SOL    HW122634   2.961   3.227   6.003  1.4659  1.5314 -0.5063
 3667SOL    HW222635   2.927   3.320   5.893 -0.5558  0.1456  0.6143
 3668SOL     OW22636   2.936   1.335  17.657  0.3370  0.0837 -0.1328
 3668SOL    HW122637   2.938   1.428  17.681  0.8955  0.2750 -0.9084
 3668SOL    HW222638   2.931   1.300   0.006  0.8628  0.3142 -0.0089
 3669SOL     OW22639   0.555   3.546   6.138  0.6443 -0.5447 -0.2605
 3669SOL    HW122640   0.640   3.578   6.110  0.0604  2.4599  1.3682
 3669SOL    HW222641   0.515   3.518   6.056 -2.3493 -2.2701  1.7893
 3670SOL     OW22642   0.249   4.181  13.943  0.1792  0.3065 -0.5176
 3670SOL    HW122643   0.327   4.204  13.893  0.4441 -0.2702 -0.3676
 3670SOL    HW222644   0.217   4.265  13.977  2.4369  0.3498  1.4661
 3671SOL     OW22645   2.843   1.667   5.536 -0.2710 -0.0738  0.1834
 3671SOL    HW122646   2.756   1.644   5.503 -0.0548 -1.7052  0.7911
 3671SOL    HW222647   2.877   1.579   5.551  1.0207  0.2199 -1.1001
 3672SOL     OW22648   1.462   3.471  17.056  0.1272  0.4240  0.9552
 3672SOL    HW122649   1.541   3.492  17.106  1.5025  0.3118 -1.1825
 3672SOL    HW222650   1.498   3.401  17.002 -0.1641 -0.3434  1.7698
 3673SOL     OW22651   3.886   2.623   7.051  0.1473 -0.2411  0.2519
 3673SOL    HW122652   3.912   2.569   7.126  0.6442  0.0086  0.2630
 3673SOL    HW222653   3.824   2.565   7.007 -0.3147 -0.8661  1.7440
 3674SOL     OW22654   4.239   2.576  14.311  0.0820 -0.2450 -0.1253
 3674SOL    HW122655   4.306   2.621  14.362 -0.7943  2.0006 -0.9590
 3674SOL    HW222656   4.163   2.635  14.307  0.2795 -0.0889 -1.7992
 3675SOL     OW22657   1.071   2.152   5.166 -0.2936 -0.5118  0.4520
 3675SOL    HW122658   1.010   2.215   5.203 -1.7754 -3.2576  2.7351
 3675SOL    HW222659   1.019   2.114   5.096  0.5794  0.4454 -0.7047
 3676SOL     OW22660   3.943   0.033   5.652 -0.3933  0.1559  0.3075
 3676SOL    HW122661   4.021   0.035   5.597 -1.2906 -1.1755 -0.9984
 3676SOL    HW222662   3.926   0.124   5.677 -0.9129 -0.2176  1.3171
 3677SOL     OW22663   3.763   2.556  12.709 -0.1470 -0.1418 -0.2464
 3677SOL    HW122664   3.697   2.611  12.751 -1.4925 -1.3947 -0.6894
 3677SOL    HW222665   3.839   2.613  12.704 -0.9300  0.6108 -3.6110
 3678SOL     OW22666   1.250   0.186   6.483 -0.0721  0.2146  0.0411
 3678SOL    HW122667   1.170   0.204   6.433  0.6418 -0.1040 -1.2177
 3678SOL    HW222668   1.222   0.229   6.564 -0.9279 -0.6551  0.2071
 3679SOL     OW22669   2.243   4.468   4.330 -0.3365  0.2813 -0.2882
 3679SOL    HW122670   2.251   4.505   4.242  0.5500  2.5086  0.7406
 3679SOL    HW222671   2.194   4.538   4.372  1.2221  1.5910 -0.6711
 3680SOL     OW22672   2.740   3.955   0.635 -0.1262 -0.2663 -0.0357
 3680SOL    HW122673   2.710   3.915   0.554  0.6316 -1.4536  0.2613
 3680SOL    HW222674   2.815   4.008   0.608  0.6838 -1.6488 -0.4919
 3681SOL     OW22675   0.098   2.887  13.142  0.3379  0.5871  0.3814
 3681SOL    HW122676   0.083   2.801  13.181 -1.6627  1.4990  1.6201
 3681SOL    HW222677   0.134   2.937  13.214  0.4256 -0.9559  1.4073
 3682SOL     OW22678   0.808   0.605   8.540 -0.1760 -0.2751  0.1725
 3682SOL    HW122679   0.868   0.595   8.467 -1.9309 -0.3986 -1.2693
 3682SOL    HW222680   0.769   0.518   8.540 -1.8811  0.4658  1.8219
 3683SOL     OW22681   0.706   3.549   9.265  0.9982 -0.3938 -0.6868
 3683SOL    HW122682   0.662   3.465   9.256  2.6452 -1.2213 -0.8950
 3683SOL    HW222683   0.740   3.542   9.354 -0.1415 -0.1130 -0.2304
 3684SOL     OW22684   0.618   4.372   7.263 -0.2498  0.0776 -0.5520
 3684SOL    HW122685   0.648   4.318   7.336 -0.6609  0.5263 -0.0641
 3684SOL    HW222686   0.645   4.318   7.188  1.8037 -0.6025  0.6675
 3685SOL     OW22687   2.936   2.896   6.059 -0.4234 -0.0731 -0.0817
 3685SOL    HW122688   2.943   2.988   6.033  0.3126  0.1099  0.7789
 3685SOL    HW222689   2.957   2.848   5.979 -2.0382  1.2242 -1.2812
 3686SOL     OW22690   4.348   3.026  16.642  0.4898  0.0897  0.0381
 3686SOL    HW122691   4.426   3.077  16.663  1.3079 -0.6871 -1.0379
 3686SOL    HW222692   4.285   3.095  16.624  1.8379  1.3618  0.1736
 3687SOL     OW22693   3.368   1.687   5.853 -0.6761  0.2877  0.1783
 3687SOL    HW122694   3.314   1.710   5.778  0.2078  1.2154 -0.1754
 3687SOL    HW222695   3.331   1.727   5.932  1.4342  3.3643 -0.3858
 3688SOL     OW22696   2.429   0.139  12.263 -0.3761  0.9764 -0.0577
 3688SOL    HW122697   2.367   0.102  12.201  1.0344 -0.8645 -0.3823
 3688SOL    HW222698   2.492   0.066  12.268 -2.2587 -0.5833  1.1200
 3689SOL     OW22699   1.495   0.938   3.669 -0.3835  0.9332  0.0302
 3689SOL    HW122700   1.437   0.863   3.681  0.3903  0.3827  0.2752
 3689SOL    HW222701   1.480   0.952   3.575 -0.8046 -0.4492 -0.1008
 3690SOL     OW22702   0.496   0.787   7.058 -0.7523 -0.6629 -0.6405
 3690SOL    HW122703   0.508   0.756   7.148 -0.7059  1.3328  0.0280
 3690SOL    HW222704   0.561   0.733   7.012 -1.4348 -0.7166 -1.5401
 3691SOL     OW22705   0.585   4.071   1.750  0.0446 -0.1044  0.0564
 3691SOL    HW122706   0.602   4.162   1.727 -1.1135  0.3017  0.8225
 3691SOL    HW222707   0.621   4.076   1.839  0.7182 -2.3834 -0.0750
 3692SOL     OW22708   0.625   2.824   6.374 -0.2720 -0.2628 -0.0523
 3692SOL    HW122709   0.634   2.792   6.463  1.0212  0.0087 -0.0898
 3692SOL    HW222710   0.685   2.776   6.317  0.8860  0.8197  0.2351
 3693SOL     OW22711   1.368   2.351  14.850 -0.4767  0.1058 -0.1136
 3693SOL    HW122712   1.405   2.346  14.938 -0.3799 -1.0592 -0.2208
 3693SOL    HW222713   1.318   2.269  14.842 -0.6046  0.1703  0.0270
 3694SOL     OW22714   3.040   2.688   7.457  0.3008 -0.0908  0.4185
 3694SOL    HW122715   3.102   2.647   7.397  0.5781 -0.0897  0.7070
 3694SOL    HW222716   3.100   2.701   7.531 -1.0795 -2.7067  2.0165
 3695SOL     OW22717   2.314   1.455  13.965 -0.0680  0.2622  0.0499
 3695SOL    HW122718   2.391   1.494  13.923 -0.7104 -0.4941 -1.8091
 3695SOL    HW222719   2.252   1.443  13.893 -0.5651 -0.7970  0.6477
 3696SOL     OW22720   2.712   0.695   2.073  0.1115 -0.0146  0.0616
 3696SOL    HW122721   2.622   0.723   2.057  0.3144  0.6334  0.0288
 3696SOL    HW222722   2.723   0.655   1.986  0.3348 -0.9615  0.5304
 3697SOL     OW22723   0.264   2.507   8.003 -0.0623  0.0961 -0.1944
 3697SOL    HW122724   0.233   2.481   7.916  0.2646  2.6062 -1.0662
 3697SOL    HW222725   0.241   2.426   8.048  1.6847  0.3110  1.0850
 3698SOL     OW22726   0.448   2.529  10.977 -1.2361 -0.6407 -0.2115
 3698SOL    HW122727   0.383   2.586  10.936 -0.1825  2.5171  2.4822
 3698SOL    HW222728   0.505   2.514  10.901 -1.0827  2.2628 -0.6812
 3699SOL     OW22729   0.452   3.628   4.032  0.1772  0.5374 -0.3823
 3699SOL    HW122730   0.402   3.699   3.990  1.6136  1.1518 -1.0550
 3699SOL    HW222731   0.379   3.569   4.051  0.6357  0.1373  0.1177
 3700SOL     OW22732   4.057   1.633  10.793  0.1308  0.0074 -0.4213
 3700SOL    HW122733   3.994   1.562  10.802 -1.7214  1.4693 -1.8986
 3700SOL    HW222734   4.130   1.570  10.796  1.2230  1.2194 -1.5849
 3701SOL     OW22735   2.035   2.730   6.021  0.4984 -0.0622  0.0450
 3701SOL    HW122736   2.016   2.712   5.929  0.5547 -2.7204  0.5480
 3701SOL    HW222737   1.959   2.788   6.026  1.1021  0.7464 -0.2389
 3702SOL     OW22738   1.311   2.103   2.158 -0.1984 -0.1900  0.0956
 3702SOL    HW122739   1.360   2.184   2.141 -0.9544 -0.4617 -3.4923
 3702SOL    HW222740   1.222   2.137   2.154 -0.6473 -1.1518  1.9488
 3703SOL     OW22741   3.743   4.464   2.188 -0.0869 -0.4711  0.0303
 3703SOL    HW122742   3.648   4.472   2.186 -0.3198 -3.4067 -1.1101
 3703SOL    HW222743   3.764   4.388   2.134 -0.4105  0.8906 -2.0132
 3704SOL     OW22744   2.777   4.363  16.771  0.1637  0.3531 -0.2100
 3704SOL    HW122745   2.698   4.349  16.824 -0.1488 -0.2733 -0.8504
 3704SOL    HW222746   2.846   4.333  16.830  1.6721  0.4959 -1.9014
 3705SOL     OW22747   3.380   1.193  16.232 -0.3721  0.1391  0.5091
 3705SOL    HW122748   3.434   1.207  16.309 -0.2669 -0.4850  0.5496
 3705SOL    HW222749   3.301   1.239  16.261  0.0326  0.0333  1.7583
 3706SOL     OW22750   2.105   1.942   3.061 -0.2312  0.6802  0.5732
 3706SOL    HW122751   2.106   1.929   3.156 -1.2103 -1.2788  0.3069
 3706SOL    HW222752   2.102   2.037   3.059  1.1937  0.6949 -0.8846
 3707SOL     OW22753   0.156   0.490   1.066 -0.2579 -1.1558  0.5632
 3707SOL    HW122754   0.077   0.536   1.039 -0.7209 -2.6362 -0.6144
 3707SOL    HW222755   0.160   0.519   1.157 -4.0983  3.1793 -0.6961
 3708SOL     OW22756   2.242   4.021   4.467 -0.5335 -0.3747 -0.2551
 3708SOL    HW122757   2.200   3.957   4.410 -1.2573 -1.4154  1.4232
 3708SOL    HW222758   2.324   4.013   4.419 -0.8644  2.6735 -1.3097
 3709SOL     OW22759   1.429   1.931   6.319  0.4437 -0.0126  0.1235
 3709SOL    HW122760   1.524   1.936   6.320  0.5258 -1.2587 -0.9904
 3709SOL    HW222761   1.418   1.913   6.412 -0.6115 -2.4343 -0.4538
 3710SOL     OW22762   3.882   0.715   7.342  0.4249 -0.4786  0.0771
 3710SOL    HW122763   3.954   0.776   7.323 -0.2073 -0.0028 -0.7739
 3710SOL    HW222764   3.919   0.667   7.416  3.2410  1.0317 -0.3376
 3711SOL     OW22765   3.148   0.017   5.569  0.3029  0.2984 -0.1639
 3711SOL    HW122766   3.193   0.097   5.596 -1.1317  1.5894 -1.6628
 3711SOL    HW222767   3.059   0.050   5.574  0.6032  0.7694  1.9922
 3712SOL     OW22768   0.401   3.522   8.257  0.2101 -0.2115 -0.4307
 3712SOL    HW122769   0.324   3.543   8.309 -0.6226  0.7614 -2.0496
 3712SOL    HW222770   0.372   3.447   8.205  0.4560 -1.4731  1.2601
 3713SOL     OW22771   0.185   3.920  13.907 -0.3626  0.2442  0.4098
 3713SOL    HW122772   0.093   3.936  13.886  0.3818 -1.6961 -4.2709
 3713SOL    HW222773   0.210   4.013  13.911  0.1315  0.1697 -0.8418
 3714SOL     OW22774   2.893   0.079   4.956  0.3466 -0.7432 -0.1355
 3714SOL    HW122775   2.821   0.117   4.906  0.9256  0.2410 -0.1970
 3714SOL    HW222776   2.866   0.083   5.048 -2.1665 -0.5284 -0.8619
 3715SOL     OW22777   4.640   0.918   9.144  0.6314 -0.7088  0.1126
 3715SOL    HW122778   4.712   0.856   9.137  1.1835 -0.2583  1.7951
 3715SOL    HW222779   4.611   0.910   9.234  0.7921 -1.9217  0.0571
 3716SOL     OW22780   0.215   3.212   1.826  0.1866 -0.3410  0.8585
 3716SOL    HW122781   0.138   3.256   1.860  0.0882 -0.5145  0.8592
 3716SOL    HW222782   0.186   3.121   1.827 -0.7573 -0.0337  1.0372
 3717SOL     OW22783   3.747   0.274   3.122  0.0856  0.6041 -0.5959
 3717SOL    HW122784   3.690   0.336   3.077 -2.7554 -2.0733 -0.7300
 3717SOL    HW222785   3.826   0.286   3.069  0.9678 -2.2469  0.0819
 3718SOL     OW22786   3.716   3.670  13.825  0.1311  0.0168 -0.4828
 3718SOL    HW122787   3.722   3.718  13.742 -0.0724  0.0745 -0.4634
 3718SOL    HW222788   3.782   3.602  13.812  1.0163  0.7234  0.3145
 3719SOL     OW22789   4.545   2.482   7.272 -0.2847  0.2420  0.0872
 3719SOL    HW122790   4.615   2.524   7.322 -0.9997 -0.4473  1.6705
 3719SOL    HW222791   4.544   2.393   7.307  1.6429  0.1762 -0.0547
 3720SOL     OW22792   0.382   0.766   4.282 -0.4049 -0.1025 -0.0419
 3720SOL    HW122793   0.416   0.717   4.356 -1.6680 -0.6365  0.1830
 3720SOL    HW222794   0.303   0.716   4.261 -0.1445 -0.3079 -0.5394
 3721SOL     OW22795   1.733   0.995   0.150  0.4116  0.6148  0.0227
 3721SOL    HW122796   1.828   0.995   0.141  0.3087 -1.8992 -1.0963
 3721SOL    HW222797   1.714   0.937   0.223  0.7816 -1.4070 -1.4899
 3722SOL     OW22798   3.097   0.253  10.030  0.0837  0.0978  0.1987
 3722SOL    HW122799   3.087   0.264  10.125  0.0919 -1.4659  0.3804
 3722SOL    HW222800   3.050   0.329   9.996 -0.2285  0.2956  1.0738
 3723SOL     OW22801   1.874   2.438   8.598 -0.4210  0.2865 -0.6346
 3723SOL    HW122802   1.843   2.528   8.605 -0.2588  0.2539  0.4735
 3723SOL    HW222803   1.924   2.433   8.679 -1.5844  1.5976  0.1729
 3724SOL     OW22804   1.907   4.109   2.886  0.0389 -0.3676  0.7657
 3724SOL    HW122805   1.881   4.199   2.868  0.4359 -0.3297  0.3777
 3724SOL    HW222806   1.924   4.065   2.803 -0.6167  0.6275  0.1149
 3725SOL     OW22807   2.782   1.464   6.435 -0.4426  0.2292 -0.1202
 3725SOL    HW122808   2.806   1.510   6.516 -0.9451  1.6061 -0.7597
 3725SOL    HW222809   2.694   1.497   6.415 -0.2396  0.2357 -0.9836
 3726SOL     OW22810   1.026   2.536   7.961  0.1858  0.8167  0.5677
 3726SOL    HW122811   0.954   2.562   7.904 -0.1873  0.4424  0.8636
 3726SOL    HW222812   1.034   2.621   8.005  0.6510  2.6783 -3.1860
 3727SOL     OW22813   0.090   4.136   5.124  0.3640  0.3349  0.3258
 3727SOL    HW122814   0.005   4.104   5.093 -0.8261  3.2099  0.6330
 3727SOL    HW222815   0.131   4.166   5.043 -0.1114 -1.1854 -0.4751
 3728SOL     OW22816   3.650   4.561   7.166 -0.3478  0.2717  0.7472
 3728SOL    HW122817   3.559   4.586   7.182  0.3613  1.7595  2.5960
 3728SOL    HW222818   3.664   4.515   7.249  0.3884  0.1666  0.5654
 3729SOL     OW22819   0.511   0.492   4.512  0.6550  0.3159 -0.0742
 3729SOL    HW122820   0.423   0.513   4.544  0.0147  0.1988 -1.7781
 3729SOL    HW222821   0.540   0.576   4.475  1.0353 -0.2825 -1.1044
 3730SOL     OW22822   3.053   1.367   2.993 -0.1475 -0.2198 -0.5639
 3730SOL    HW122823   3.135   1.411   3.016 -0.7327 -0.6047  2.2415
 3730SOL    HW222824   3.057   1.298   3.060 -0.6529 -1.3820 -1.7278
 3731SOL     OW22825   4.149   0.527   6.142  0.4898 -0.3932 -0.2916
 3731SOL    HW122826   4.170   0.609   6.187  1.8144 -1.1620  0.4883
 3731SOL    HW222827   4.209   0.461   6.177 -2.1022 -1.7335  1.5995
 3732SOL     OW22828   1.046   0.296   7.450  0.0576 -0.2818 -0.7249
 3732SOL    HW122829   1.067   0.207   7.422 -1.9575  0.0941 -3.3883
 3732SOL    HW222830   0.959   0.277   7.484 -0.4392  0.1060 -1.7733
 3733SOL     OW22831   4.405   2.367   5.642  0.1720  1.0314 -0.0330
 3733SOL    HW122832   4.471   2.300   5.621  0.2761  1.6923 -1.8484
 3733SOL    HW222833   4.329   2.330   5.596 -0.3585  3.5282 -1.1828
 3734SOL     OW22834   2.297   2.923  12.084 -0.6102 -0.0070 -0.3394
 3734SOL    HW122835   2.308   3.003  12.136  1.3537 -1.9613  2.2520
 3734SOL    HW222836   2.204   2.931  12.065 -0.5184 -0.5490 -1.0159
 3735SOL     OW22837   2.506   4.235   6.438  0.1404 -0.3772 -0.6050
 3735SOL    HW122838   2.540   4.236   6.348 -3.2398  0.3099 -1.8824
 3735SOL    HW222839   2.433   4.176   6.419 -0.0063 -0.3610 -0.0801
 3736SOL     OW22840   2.775   2.939   8.907 -0.1902  1.0891  0.0631
 3736SOL    HW122841   2.754   2.895   8.989 -1.3127  0.1160 -0.7327
 3736SOL    HW222842   2.692   2.936   8.858 -0.2013  2.0219  0.0272
 3737SOL     OW22843   0.232   1.134   0.249 -0.2855 -0.3831  0.3347
 3737SOL    HW122844   0.138   1.131   0.234 -0.1627  0.6296 -0.7331
 3737SOL    HW222845   0.244   1.084   0.329 -0.6843  2.2662  2.0580
 3738SOL     OW22846   3.068   3.546   7.443  0.1188 -0.0901 -0.2260
 3738SOL    HW122847   3.107   3.475   7.392 -0.4505 -1.1925  0.8406
 3738SOL    HW222848   3.148   3.594   7.464  0.0506 -0.1025  0.0582
 3739SOL     OW22849   0.212   3.337   5.773 -0.1621  0.0456  0.3973
 3739SOL    HW122850   0.202   3.316   5.866 -0.3583 -1.9223 -0.0757
 3739SOL    HW222851   0.138   3.398   5.777 -0.1241  0.1599 -0.7165
 3740SOL     OW22852   4.612   1.090   2.963 -0.0327  0.2570 -0.1805
 3740SOL    HW122853   4.696   1.065   2.925 -0.1816  0.0221 -0.3571
 3740SOL    HW222854   4.607   1.089   3.059 -0.7212  1.6593 -0.2106
 3741SOL     OW22855   2.909   2.084   8.745 -0.2451 -0.7426 -0.2065
 3741SOL    HW122856   2.914   2.072   8.650 -0.4816  1.5987 -0.5169
 3741SOL    HW222857   2.844   2.152   8.761  0.0525  0.2345 -3.0927
 3742SOL     OW22858   0.782   0.248   7.534  0.2822  0.1314  0.6162
 3742SOL    HW122859   0.712   0.313   7.525  0.4492  0.6636  3.2183
 3742SOL    HW222860   0.749   0.181   7.474 -0.9659  0.2532  1.1697
 3743SOL     OW22861   1.470   4.616   4.511 -0.2136  0.3892  0.5039
 3743SOL    HW122862   1.510   4.697   4.543 -0.0045  1.7197 -3.1718
 3743SOL    HW222863   1.512   4.612   4.425  0.4385  2.9804  0.6925
 3744SOL     OW22864   3.358   4.624   1.139  0.1475  0.0955 -0.2932
 3744SOL    HW122865   3.447   4.659   1.131  1.1626 -2.3026  0.3055
 3744SOL    HW222866   3.371   4.566   1.064  0.7187  1.6099 -1.3587
 3745SOL     OW22867   2.605   3.346   6.681  0.3569 -0.1323 -0.2135
 3745SOL    HW122868   2.677   3.389   6.635  0.1078 -0.3950 -0.8498
 3745SOL    HW222869   2.651   3.281   6.734  1.2756  0.6231 -0.0778
 3746SOL     OW22870   3.582   0.132  13.259  0.2919 -0.5068 -0.3167
 3746SOL    HW122871   3.551   0.060  13.203  2.0739 -1.7424  0.2655
 3746SOL    HW222872   3.554   0.111  13.348 -2.7154 -0.3380 -1.2285
 3747SOL     OW22873   4.372   0.559   4.344 -0.4100 -0.0553 -0.2969
 3747SOL    HW122874   4.323   0.640   4.358  0.7625  0.8682 -1.3731
 3747SOL    HW222875   4.391   0.557   4.437 -2.3999 -1.1493  0.0655
 3748SOL     OW22876   1.140   0.193  16.054  0.1961  0.2880 -0.0854
 3748SOL    HW122877   1.046   0.185  16.072 -0.0973 -0.0297 -1.7463
 3748SOL    HW222878   1.159   0.112  16.007 -2.5055 -0.2000 -0.3230
 3749SOL     OW22879   4.082   2.661   9.202  0.1648 -0.2338  0.2539
 3749SOL    HW122880   4.154   2.601   9.181  0.0450 -0.9823  2.0184
 3749SOL    HW222881   4.048   2.629   9.285 -0.1076  0.4267  0.3948
 3750SOL     OW22882   0.158   3.495  14.354  0.0936 -0.6244 -0.2419
 3750SOL    HW122883   0.167   3.451  14.269 -0.5434  1.9924 -1.6576
 3750SOL    HW222884   0.227   3.452  14.405  0.4997 -0.1050 -0.3540
 3751SOL     OW22885   4.489   2.024   2.475  0.0646 -0.1154 -0.3894
 3751SOL    HW122886   4.432   2.003   2.549  0.6404 -2.0694 -0.4939
 3751SOL    HW222887   4.522   1.940   2.444  0.4499  0.3544 -1.2360
 3752SOL     OW22888   3.592   2.000   9.097  0.1591 -0.2745  0.1353
 3752SOL    HW122889   3.628   2.072   9.046  0.8986 -2.0311 -1.7987
 3752SOL    HW222890   3.665   1.991   9.158  1.1392 -0.0641 -1.0255
 3753SOL     OW22891   2.147   3.535   8.829  0.1424 -0.0245 -0.2421
 3753SOL    HW122892   2.192   3.453   8.848 -0.0305 -0.2115 -0.6247
 3753SOL    HW222893   2.073   3.537   8.889 -0.8089  2.8170 -1.4901
 3754SOL     OW22894   0.028   2.064   2.909 -0.0882 -0.4882  0.0334
 3754SOL    HW122895   4.673   2.093   2.892  0.3415  0.2895 -0.8918
 3754SOL    HW222896   0.062   2.152   2.925 -0.8069 -0.4694  1.4999
 3755SOL     OW22897   3.731   3.916   9.864 -0.4674  0.2936 -0.2048
 3755SOL    HW122898   3.754   3.837   9.815 -0.3922 -0.2411  0.6705
 3755SOL    HW222899   3.649   3.944   9.823 -0.6455 -0.6802 -0.5160
 3756SOL     OW22900   3.653   1.397   6.347  0.2018 -0.4675 -0.1309
 3756SOL    HW122901   3.600   1.317   6.355 -1.4824  0.6995  0.2009
 3756SOL    HW222902   3.744   1.369   6.334  0.5003  0.5603 -0.2520
 3757SOL     OW22903   3.874   1.876   6.669 -0.2065 -0.2003 -0.0457
 3757SOL    HW122904   3.824   1.957   6.663  2.1533  1.2260 -0.3538
 3757SOL    HW222905   3.829   1.823   6.603  0.8039 -0.3428 -0.6225
 3758SOL     OW22906   3.713   1.338   7.349  0.4845 -0.0082  0.4842
 3758SOL    HW122907   3.719   1.356   7.255  0.4573  1.6694  0.8057
 3758SOL    HW222908   3.806   1.345   7.372  0.4963  0.0789  0.4086
 3759SOL     OW22909   3.228   0.359   3.465 -0.3430  0.0728 -0.6837
 3759SOL    HW122910   3.214   0.434   3.407  0.2228  1.3651  0.8582
 3759SOL    HW222911   3.183   0.381   3.546  1.1452  1.6868 -0.2887
 3760SOL     OW22912   3.234   4.448   2.629 -0.4500  0.2249  0.0207
 3760SOL    HW122913   3.286   4.529   2.632 -1.1636  0.7223 -1.0408
 3760SOL    HW222914   3.299   4.401   2.578  0.7070  1.2314  0.5432
 3761SOL     OW22915   0.919   3.634   5.588 -0.3241  0.1178  0.2936
 3761SOL    HW122916   0.876   3.625   5.673 -0.7864  0.9703  0.1558
 3761SOL    HW222917   0.878   3.715   5.557  1.6278  1.0867  0.2894
 3762SOL     OW22918   2.999   2.108   6.029 -0.3526 -0.2156  0.8350
 3762SOL    HW122919   2.997   2.121   5.935  0.6129 -2.1498  0.5469
 3762SOL    HW222920   2.998   2.198   6.063  1.3339  0.3376 -0.5561
 3763SOL     OW22921   1.137   0.948  13.849 -0.1985  0.2249 -0.4867
 3763SOL    HW122922   1.179   1.034  13.845 -0.3743  0.2731 -1.2750
 3763SOL    HW222923   1.055   0.977  13.887 -0.1396  1.3004 -1.1859
 3764SOL     OW22924   3.883   0.609   5.221 -0.0899  0.8194 -0.3130
 3764SOL    HW122925   3.842   0.542   5.165 -0.9505  0.8749  0.2550
 3764SOL    HW222926   3.808   0.647   5.267 -0.0509 -1.9822  2.0853
 3765SOL     OW22927   0.722   0.202   3.805  0.1312  0.6830  0.0602
 3765SOL    HW122928   0.817   0.214   3.814  0.2013 -2.0764  3.2327
 3765SOL    HW222929   0.722   0.107   3.789  3.7876  0.9743 -1.8614
 3766SOL     OW22930   3.371   0.923   6.977 -0.6078  0.4052 -0.1756
 3766SOL    HW122931   3.390   0.916   6.884 -0.1403 -1.1526  0.0246
 3766SOL    HW222932   3.452   0.969   7.000 -0.9345  0.0271  1.7222
 3767SOL     OW22933   2.887   4.489   3.462  0.3960 -0.0717 -0.5277
 3767SOL    HW122934   2.828   4.475   3.388  1.1185 -2.3804 -0.6837
 3767SOL    HW222935   2.825   4.471   3.532 -1.0493 -3.0423 -2.5674
 3768SOL     OW22936   2.525   3.959  15.718  0.1412  0.1819  0.2865
 3768SOL    HW122937   2.460   3.901  15.679  0.5470 -0.8137  1.0863
 3768SOL    HW222938   2.474   4.018  15.774 -2.1504 -0.1869 -1.4174
 3769SOL     OW22939   3.694   1.170   3.178 -0.0543 -0.8748 -0.1176
 3769SOL    HW122940   3.751   1.099   3.148  0.7065  0.2303 -1.3342
 3769SOL    HW222941   3.665   1.138   3.263 -2.1108 -3.5380 -1.8250
 3770SOL     OW22942   3.073   2.959   9.789 -1.4088 -0.5572 -0.0854
 3770SOL    HW122943   3.037   2.881   9.832 -1.3991 -0.0729  0.7898
 3770SOL    HW222944   3.001   3.021   9.794  0.3748  1.6336 -1.4866
 3771SOL     OW22945   2.585   0.480   2.366 -0.4691 -0.4608  0.3424
 3771SOL    HW122946   2.536   0.485   2.284 -0.6968 -1.6548  0.3932
 3771SOL    HW222947   2.525   0.431   2.423 -0.8091  0.7015  0.9878
 3772SOL     OW22948   2.588   4.099   5.278  0.4588 -0.2578  0.4891
 3772SOL    HW122949   2.633   4.118   5.360 -0.0879 -0.1400  0.7612
 3772SOL    HW222950   2.662   4.129   5.225  0.7810 -2.3475 -0.2642
 3773SOL     OW22951   1.651   2.025  13.096 -0.3776  0.3546  0.1769
 3773SOL    HW122952   1.669   1.945  13.046 -0.6324  0.4895 -0.1329
 3773SOL    HW222953   1.586   2.004  13.164  2.0649 -0.2626  2.2953
 3774SOL     OW22954   3.629   4.505  16.445 -0.0377 -0.3881  0.3928
 3774SOL    HW122955   3.601   4.575  16.387  0.0957 -0.6531  0.0055
 3774SOL    HW222956   3.711   4.549  16.466  0.8228 -1.7313 -0.1397
 3775SOL     OW22957   1.840   4.083   1.276 -0.2478 -0.3109 -1.0521
 3775SOL    HW122958   1.909   4.083   1.343 -0.0267 -0.3158 -1.2835
 3775SOL    HW222959   1.867   4.018   1.211 -0.4059 -1.7438  0.3184
 3776SOL     OW22960   0.656   1.178   5.185  0.4524  0.7931  0.0106
 3776SOL    HW122961   0.746   1.152   5.207 -0.7601 -1.9058  1.7596
 3776SOL    HW222962   0.613   1.192   5.269 -2.3061  0.1384 -1.2809
 3777SOL     OW22963   1.650   2.788   2.621  0.2195 -0.4429  0.1384
 3777SOL    HW122964   1.736   2.773   2.582  0.1914 -1.4090  0.4480
 3777SOL    HW222965   1.632   2.878   2.593  1.3859 -0.0373  0.6938
 3778SOL     OW22966   3.535   3.082  10.690  0.1620 -0.5410  0.2477
 3778SOL    HW122967   3.591   3.064  10.765  0.5881  0.3220  0.1357
 3778SOL    HW222968   3.463   3.019  10.689 -0.2474 -0.0886  0.9997
 3779SOL     OW22969   2.362   3.213  13.631  0.1075 -0.2563  0.3573
 3779SOL    HW122970   2.341   3.159  13.707  2.8450 -1.7614  0.0113
 3779SOL    HW222971   2.425   3.271  13.674 -0.4508  1.5525 -1.2554
 3780SOL     OW22972   1.331   3.636  17.451  0.3996 -0.7981  0.2025
 3780SOL    HW122973   1.367   3.716  17.491 -3.5429  1.6665 -1.1364
 3780SOL    HW222974   1.415   3.593  17.432  1.2969  1.2024 -0.3890
 3781SOL     OW22975   4.535   3.197   5.518  0.4315 -0.2395 -0.5332
 3781SOL    HW122976   4.470   3.130   5.496 -1.7665  1.1825  1.6313
 3781SOL    HW222977   4.608   3.139   5.537  0.8745  0.6090  0.3947
 3782SOL     OW22978   1.869   2.776   9.235  0.0776 -0.1354  0.1861
 3782SOL    HW122979   1.775   2.781   9.251 -0.0128  0.4222 -0.4908
 3782SOL    HW222980   1.869   2.682   9.221  1.0301  0.0869 -1.3382
 3783SOL     OW22981   3.720   1.729   6.502  0.4310  0.4055 -0.6343
 3783SOL    HW122982   3.668   1.802   6.470 -0.6395  0.0710  0.3105
 3783SOL    HW222983   3.674   1.661   6.452 -2.8951  1.3126  1.1937
 3784SOL     OW22984   4.294   4.083   4.585 -0.0891 -0.6793 -0.3645
 3784SOL    HW122985   4.314   4.163   4.634  0.4865 -0.5091 -0.8682
 3784SOL    HW222986   4.218   4.100   4.529  0.1021  1.1777 -0.0846
 3785SOL     OW22987   2.171   2.378   6.188 -0.6735 -0.5577  0.1393
 3785SOL    HW122988   2.226   2.455   6.204  0.3187 -0.9492 -1.4286
 3785SOL    HW222989   2.228   2.334   6.126 -1.6316 -0.6146 -0.6981
 3786SOL     OW22990   1.469   0.131   2.419  0.2486  0.0320 -0.7047
 3786SOL    HW122991   1.415   0.186   2.364 -0.7602  0.9085  1.1693
 3786SOL    HW222992   1.534   0.196   2.448  0.2711  0.3150 -1.3942
 3787SOL     OW22993   0.634   0.052   1.631 -0.0754 -0.5646  0.3278
 3787SOL    HW122994   0.610   4.722   1.696  2.8599 -2.2891 -0.2846
 3787SOL    HW222995   0.606   0.126   1.684  2.7532 -0.1233  1.2076
 3788SOL     OW22996   1.295   3.943  10.668  0.1686 -0.2548 -0.0168
 3788SOL    HW122997   1.301   3.954  10.763  0.0857  1.1807 -0.1752
 3788SOL    HW222998   1.299   4.034  10.639 -1.7843 -0.0111  0.4226
 3789SOL     OW22999   3.481   3.361  10.308 -0.3692 -0.1716 -0.3831
 3789SOL    HW123000   3.510   3.275  10.341 -1.5021  0.1823  1.5694
 3789SOL    HW223001   3.561   3.395  10.268 -0.7607 -0.8170 -1.7138
 3790SOL     OW23002   1.294   0.353   5.119  0.2884  0.4488 -0.0223
 3790SOL    HW123003   1.261   0.424   5.064  1.6709  0.0043 -1.4218
 3790SOL    HW223004   1.216   0.303   5.143  0.1812  1.1154  1.0129
 3791SOL     OW23005   3.124   2.340   6.430 -0.2769 -0.5821  0.4511
 3791SOL    HW123006   3.048   2.294   6.465  1.0783 -3.2102 -0.0089
 3791SOL    HW223007   3.100   2.431   6.445 -0.6139 -0.8459  1.5262
 3792SOL     OW23008   0.269   2.029   9.092  0.2653 -0.4144  0.3041
 3792SOL    HW123009   0.344   2.074   9.054  0.1966 -1.7114 -1.3724
 3792SOL    HW223010   0.303   2.001   9.177 -0.8744  0.0161  0.9199
 3793SOL     OW23011   0.807   1.799   2.254  0.0448  0.2578 -0.5625
 3793SOL    HW123012   0.842   1.837   2.334 -0.0110 -2.1499  0.5963
 3793SOL    HW223013   0.813   1.882   2.207  0.3881  0.9245  0.6725
 3794SOL     OW23014   4.327   2.522   9.578 -0.1861  0.0864  0.1447
 3794SOL    HW123015   4.385   2.576   9.524 -0.2812 -1.7944 -1.8173
 3794SOL    HW223016   4.360   2.543   9.665 -0.1227 -2.1986  0.6834
 3795SOL     OW23017   4.082   0.675  13.221  0.0965 -0.1156 -0.2659
 3795SOL    HW123018   4.033   0.608  13.269  0.8072  0.9096  1.8714
 3795SOL    HW223019   4.148   0.618  13.183 -0.7339 -1.0915 -0.2523
 3796SOL     OW23020   0.947   4.588   7.478 -0.0896 -0.1704 -0.0412
 3796SOL    HW123021   0.933   4.513   7.535 -1.1834  0.4632  0.5219
 3796SOL    HW223022   0.866   4.592   7.427  0.0611  0.7814 -0.2159
 3797SOL     OW23023   2.921   0.784   4.434 -0.1561  0.0537  0.0442
 3797SOL    HW123024   2.902   0.693   4.455 -1.4505  0.2458 -0.2927
 3797SOL    HW223025   2.844   0.825   4.473 -0.6262 -0.8767  0.0854
 3798SOL     OW23026   2.518   3.559   1.898 -0.1645  0.3432  0.4011
 3798SOL    HW123027   2.477   3.591   1.817 -2.2579 -2.3281  0.4229
 3798SOL    HW223028   2.534   3.642   1.943 -1.4743  0.0537  1.3710
 3799SOL     OW23029   3.659   4.697   0.202 -0.2671  0.2293  0.0637
 3799SOL    HW123030   3.730   0.012   0.162  0.0485  1.5590  2.2814
 3799SOL    HW223031   3.593   0.031   0.210  0.5797  1.2664 -1.9215
 3800SOL     OW23032   4.219   0.917   7.784 -0.3792  0.3995  0.6581
 3800SOL    HW123033   4.226   0.923   7.879 -1.1774  0.0250  0.7453
 3800SOL    HW223034   4.298   0.868   7.765 -0.7533 -0.5871  1.6582
 3801SOL     OW23035   3.348   2.295   5.633  0.0219 -0.9311 -0.0466
 3801SOL    HW123036   3.286   2.276   5.563  0.0371  0.7952 -0.5255
 3801SOL    HW223037   3.301   2.251   5.705  1.2933 -0.8641  0.8352
 3802SOL     OW23038   2.081   0.209   9.243 -0.3223  0.1742 -0.2128
 3802SOL    HW123039   2.061   0.121   9.275 -2.0283  0.8328  0.5115
 3802SOL    HW223040   2.092   0.198   9.148 -2.1840 -2.6824 -0.1163
 3803SOL     OW23041   0.600   1.542   4.165 -0.1814 -0.0990 -0.2323
 3803SOL    HW123042   0.601   1.637   4.166  1.2987 -0.1246  0.8190
 3803SOL    HW223043   0.518   1.518   4.209  0.0169 -0.1757  0.0969
 3804SOL     OW23044   1.372   4.109   2.874  0.1953 -0.4493 -0.4562
 3804SOL    HW123045   1.437   4.155   2.819 -0.7527  0.6327 -0.6724
 3804SOL    HW223046   1.290   4.141   2.837  0.5862 -0.3846 -1.2776
 3805SOL     OW23047   3.955   4.462   5.561  0.4501  0.5817 -0.2322
 3805SOL    HW123048   3.950   4.382   5.614  0.1679  0.3816 -0.5564
 3805SOL    HW223049   3.944   4.526   5.630 -1.7454 -1.0159  0.9064
 3806SOL     OW23050   4.684   4.211   5.794  0.8378  0.5482 -0.1649
 3806SOL    HW123051   4.589   4.202   5.789  0.5817  0.0973  4.7012
 3806SOL    HW223052   4.712   4.173   5.878  3.8187  2.0493 -0.4694
 3807SOL     OW23053   4.634   2.878   5.281 -0.0884  0.4871  0.7047
 3807SOL    HW123054   4.690   2.815   5.327  0.6993  0.4131 -0.3668
 3807SOL    HW223055   4.688   2.957   5.278 -1.4656  1.4339  0.8378
 3808SOL     OW23056   0.587   3.176   9.489  0.4415  0.1886 -0.1790
 3808SOL    HW123057   0.593   3.083   9.508  0.4892  0.5964  1.8464
 3808SOL    HW223058   0.517   3.204   9.548 -0.0744  0.2387 -0.8127
 3809SOL     OW23059   3.653   1.482  12.970  0.2503  0.3259 -0.4336
 3809SOL    HW123060   3.724   1.529  12.926 -0.0265 -1.3431 -2.6175
 3809SOL    HW223061   3.614   1.552  13.024 -1.7681  0.0567 -1.5477
 3810SOL     OW23062   2.942   3.030  13.013 -0.2399 -0.7523 -0.2790
 3810SOL    HW123063   2.930   2.998  12.924  0.3357  0.4717 -0.7906
 3810SOL    HW223064   2.916   2.956  13.069  0.0328 -0.3937  0.3268
 3811SOL     OW23065   1.512   4.082   8.664 -0.0549  0.1594  0.2065
 3811SOL    HW123066   1.428   4.126   8.654  1.8266  3.1035 -2.7448
 3811SOL    HW223067   1.528   4.080   8.759  0.8732 -0.7865  0.0349
 3812SOL     OW23068   1.261   2.958   3.211  0.0889  0.0435  0.0416
 3812SOL    HW123069   1.330   2.896   3.186  1.1458  1.1713  0.1855
 3812SOL    HW223070   1.305   3.039   3.238  1.5384 -0.4303 -0.8734
 3813SOL     OW23071   2.950   0.976   6.426 -0.2561 -0.4350 -0.4306
 3813SOL    HW123072   3.014   1.047   6.426 -0.0879 -0.5830 -0.9251
 3813SOL    HW223073   2.868   1.020   6.450 -0.1590 -0.8210  0.5727
 3814SOL     OW23074   2.873   4.627  13.583  0.3000 -0.3987 -0.1810
 3814SOL    HW123075   2.821   4.650  13.505 -1.2004 -1.1620  0.6101
 3814SOL    HW223076   2.819   4.564  13.630  0.1701 -2.3846 -3.0058
 3815SOL     OW23077   2.462   2.883   6.432  0.1732 -0.3290  0.0668
 3815SOL    HW123078   2.533   2.828   6.397 -0.4439  0.4933 -2.4722
 3815SOL    HW223079   2.519   2.944   6.479 -0.0332 -0.0850  0.0003
 3816SOL     OW23080   2.797   3.955   2.493 -0.0863  0.8444  0.1353
 3816SOL    HW123081   2.760   3.926   2.576  1.6687 -0.4814  0.4492
 3816SOL    HW223082   2.716   3.986   2.452  0.3572 -0.6465 -1.8542
 3817SOL     OW23083   3.169   4.615   6.235 -0.0503 -0.3159  0.1345
 3817SOL    HW123084   3.128   4.541   6.190  0.3477 -0.9624  0.8256
 3817SOL    HW223085   3.195   4.588   6.323  1.8331  0.2572 -0.2445
 3818SOL     OW23086   3.197   2.703   0.622  0.4936 -0.1793 -0.6535
 3818SOL    HW123087   3.127   2.657   0.577  0.4524 -1.4039  0.6695
 3818SOL    HW223088   3.152   2.738   0.699 -1.9430 -0.0524 -2.1533
 3819SOL     OW23089   1.632   2.928   3.778 -0.2771 -0.3135  0.0369
 3819SOL    HW123090   1.563   2.991   3.796  0.3308  0.9119 -1.9421
 3819SOL    HW223091   1.584   2.866   3.724  0.6321 -2.5471  1.7669
 3820SOL     OW23092   1.022   2.227   6.891  0.3497  0.3193  0.5273
 3820SOL    HW123093   0.976   2.304   6.925  1.0090  0.4428  1.1661
 3820SOL    HW223094   1.021   2.257   6.800  0.9081 -1.6186 -0.1111
 3821SOL     OW23095   1.215   3.227  11.617 -0.0423  0.4083  0.8685
 3821SOL    HW123096   1.251   3.278  11.690  0.7552  0.1248  0.6784
 3821SOL    HW223097   1.295   3.190  11.578 -0.1605 -1.1386  2.0819
 3822SOL     OW23098   0.713   4.639  12.281  0.2424 -0.1797  0.6602
 3822SOL    HW123099   0.704   4.544  12.289  0.2384 -0.1058  1.5066
 3822SOL    HW223100   0.669   4.649  12.197 -0.0755  0.3578  0.8956
 3823SOL     OW23101   2.990   3.028   8.280 -0.2085  0.0751  0.2316
 3823SOL    HW123102   3.010   3.083   8.356 -0.6262  1.6168 -0.7720
 3823SOL    HW223103   2.908   2.985   8.303 -0.2362  0.5696  1.0459
 3824SOL     OW23104   1.420   1.328   8.323 -0.2268 -0.0133 -0.2311
 3824SOL    HW123105   1.377   1.389   8.263 -0.0402 -0.3055 -0.6642
 3824SOL    HW223106   1.394   1.244   8.287 -0.1097  0.1301 -0.6495
 3825SOL     OW23107   1.517   1.106  17.385  0.5009 -0.3622 -0.2171
 3825SOL    HW123108   1.571   1.075  17.457 -0.3525  0.6661  0.8580
 3825SOL    HW223109   1.433   1.067  17.409 -0.5732  1.0209 -1.6633
 3826SOL     OW23110   3.620   1.013  16.631  0.3892  0.1070 -0.6012
 3826SOL    HW123111   3.681   1.007  16.705  0.2987 -2.4732 -0.7247
 3826SOL    HW223112   3.618   0.925  16.594  1.6034  0.7745 -2.2535
 3827SOL     OW23113   2.091   0.581   4.136 -0.0126 -0.4374 -0.0462
 3827SOL    HW123114   2.076   0.508   4.196 -1.6006  0.2355  0.3629
 3827SOL    HW223115   2.049   0.542   4.060  0.3115  1.8746 -1.4166
 3828SOL     OW23116   3.860   2.283   6.511 -0.5204 -0.2491 -0.2356
 3828SOL    HW123117   3.779   2.313   6.470 -1.2233 -2.0711 -0.1889
 3828SOL    HW223118   3.846   2.313   6.600 -1.4955 -1.2814 -0.0382
 3829SOL     OW23119   0.932   1.639   8.126 -0.1043 -0.0812 -0.4333
 3829SOL    HW123120   1.023   1.626   8.153 -0.4274  0.7747  1.0043
 3829SOL    HW223121   0.936   1.663   8.033  2.1951 -0.0819 -0.3336
 3830SOL     OW23122   1.389   1.217   0.917 -0.0923  0.4476 -0.0189
 3830SOL    HW123123   1.306   1.235   0.961  0.4463  0.5092  0.9727
 3830SOL    HW223124   1.456   1.210   0.986  0.8183  0.5536 -0.8826
 3831SOL     OW23125   2.100   2.364   3.566 -0.1754  0.7065 -0.4823
 3831SOL    HW123126   2.169   2.363   3.632 -1.7466 -2.0417  1.0947
 3831SOL    HW223127   2.143   2.308   3.502  0.2547  1.4154 -0.8236
 3832SOL     OW23128   1.931   2.742   0.475 -0.2404  0.3568 -0.2781
 3832SOL    HW123129   1.998   2.792   0.429  2.2007 -2.7842 -0.1470
 3832SOL    HW223130   1.908   2.801   0.546  3.5432  2.1113 -0.5411
 3833SOL     OW23131   2.967   0.579   2.520 -0.1528 -0.2076 -0.5964
 3833SOL    HW123132   3.052   0.537   2.504 -0.2030 -0.2366 -0.7851
 3833SOL    HW223133   2.923   0.568   2.436  0.0599 -0.8666 -0.6235
 3834SOL     OW23134   1.995   4.073  14.578 -0.0052  0.1092  0.0486
 3834SOL    HW123135   1.911   4.107  14.609 -0.3820 -1.4946  0.7821
 3834SOL    HW223136   2.058   4.115  14.636  0.0938  0.0891 -0.0454
 3835SOL     OW23137   1.940   3.738   4.483  0.7197 -0.1697 -0.0489
 3835SOL    HW123138   1.964   3.705   4.397  2.0073 -0.1589  0.3022
 3835SOL    HW223139   1.907   3.655   4.519  0.6322  0.1209  0.5517
 3836SOL     OW23140   2.992   3.322   6.761 -0.8490  0.6318 -0.9125
 3836SOL    HW123141   2.966   3.307   6.852  1.5334 -1.8416 -0.6306
 3836SOL    HW223142   3.001   3.236   6.720 -0.7961 -0.3257  1.0686
 3837SOL     OW23143   0.439   1.868   2.893 -0.0209 -0.6840 -0.2330
 3837SOL    HW123144   0.401   1.891   2.809  0.3329  1.9715  0.3436
 3837SOL    HW223145   0.373   1.889   2.960 -0.0553  1.1975 -0.8548
 3838SOL     OW23146   4.251   3.964   5.323 -0.6795 -0.0761  0.2733
 3838SOL    HW123147   4.330   3.954   5.270  0.3905 -0.0417  1.8606
 3838SOL    HW223148   4.205   3.883   5.299 -2.2630  0.2677  2.0962
 3839SOL     OW23149   2.738   1.033   4.745 -0.0168 -0.0029 -0.5773
 3839SOL    HW123150   2.672   1.054   4.810 -0.6578  0.8318 -1.4914
 3839SOL    HW223151   2.792   0.963   4.782 -1.3836 -0.7689 -0.0410
 3840SOL     OW23152   2.225   2.993   3.226  0.4130 -0.1875  0.4316
 3840SOL    HW123153   2.144   2.947   3.208  0.0345  0.9814 -0.8943
 3840SOL    HW223154   2.268   3.005   3.141 -0.0849  0.9866  0.3508
 3841SOL     OW23155   3.873   0.255  10.992  0.2630 -0.5816  0.3948
 3841SOL    HW123156   3.958   0.261  10.949  0.3015 -1.3174  0.3814
 3841SOL    HW223157   3.891   0.281  11.083 -0.2605  0.3311  0.2397
 3842SOL     OW23158   2.544   3.779   3.223 -0.3450  0.1844 -0.2840
 3842SOL    HW123159   2.561   3.710   3.158 -0.1314  0.5078 -0.5722
 3842SOL    HW223160   2.538   3.857   3.168 -0.6360  0.8664  0.7240
 3843SOL     OW23161   1.356   1.354   7.658  0.4404  0.2497  0.8028
 3843SOL    HW123162   1.435   1.309   7.689  0.3977 -0.5800 -0.3129
 3843SOL    HW223163   1.292   1.286   7.637  0.1156  0.8082  0.0007
 3844SOL     OW23164   3.996   3.520  12.221 -0.1176  0.1373 -0.0887
 3844SOL    HW123165   3.962   3.508  12.133  0.9103  0.4028 -0.5183
 3844SOL    HW223166   4.084   3.548  12.196 -0.2852  0.7120 -0.0276
 3845SOL     OW23167   0.332   3.607   5.746  0.1781 -0.0856  0.3671
 3845SOL    HW123168   0.262   3.545   5.727  0.0755 -0.2524  1.3275
 3845SOL    HW223169   0.402   3.586   5.683 -0.4647  0.4703 -0.5297
 3846SOL     OW23170   0.450   2.782   8.002  0.2652  0.3217 -0.1700
 3846SOL    HW123171   0.397   2.861   7.995 -0.5530 -0.0410  1.7278
 3846SOL    HW223172   0.377   2.722   8.019  0.3661 -0.8431 -3.7913
 3847SOL     OW23173   0.800   2.372   7.107  0.1426 -0.8124 -0.1646
 3847SOL    HW123174   0.758   2.309   7.048 -0.8709  0.8557 -1.2449
 3847SOL    HW223175   0.748   2.354   7.185  2.7778  1.2990  2.0754
 3848SOL     OW23176   0.585   4.475   3.267  0.2274 -0.0954  0.2741
 3848SOL    HW123177   0.491   4.468   3.251  0.0474 -0.8846  1.6478
 3848SOL    HW223178   0.631   4.415   3.208 -0.5779  1.6254 -2.0945
 3849SOL     OW23179   1.533   4.319  12.821 -0.0469  0.0190 -0.3878
 3849SOL    HW123180   1.505   4.370  12.897  0.3381 -1.0119  0.4450
 3849SOL    HW223181   1.625   4.343  12.814 -0.2447  0.5078 -1.3273
 3850SOL     OW23182   4.171   1.664  14.919 -0.1589 -0.2619  0.1160
 3850SOL    HW123183   4.084   1.702  14.906  1.8818  4.1158 -0.9152
 3850SOL    HW223184   4.183   1.625  14.832  2.5496  0.8892 -0.0516
 3851SOL     OW23185   2.267   2.296   2.672 -0.0439  0.4950 -0.4759
 3851SOL    HW123186   2.251   2.276   2.580  1.4493  2.5523 -1.1778
 3851SOL    HW223187   2.345   2.348   2.656  0.9619 -1.1738 -0.9906
 3852SOL     OW23188   0.394   3.489   8.615  0.0514 -0.7480  0.3661
 3852SOL    HW123189   0.350   3.510   8.532  0.8171  1.0120  0.4084
 3852SOL    HW223190   0.349   3.555   8.667  1.9164  0.9732 -0.1988
 3853SOL     OW23191   3.138   4.600  13.616 -0.1676  0.0646 -0.0495
 3853SOL    HW123192   3.046   4.586  13.591 -0.4294  1.4805  0.1143
 3853SOL    HW223193   3.185   4.627  13.537 -0.3210 -0.9206 -0.4873
 3854SOL     OW23194   3.309   4.444   4.398 -0.0649 -0.2541  0.0470
 3854SOL    HW123195   3.269   4.520   4.356 -1.8680 -1.9721 -1.4135
 3854SOL    HW223196   3.274   4.374   4.342 -0.5152  2.0504 -2.5270
 3855SOL     OW23197   1.519   1.075  10.657 -0.2909 -0.8640 -0.4809
 3855SOL    HW123198   1.506   1.093  10.750  0.3363  2.7291 -1.0706
 3855SOL    HW223199   1.562   1.158  10.635  1.0245 -0.8950  1.9654
 3856SOL     OW23200   2.699   0.837  13.047 -0.2184 -0.1059 -0.0481
 3856SOL    HW123201   2.726   0.900  13.114  0.4623 -2.4675  1.9151
 3856SOL    HW223202   2.607   0.823  13.073  0.0490 -0.2019  0.8413
 3857SOL     OW23203   1.134   1.969   1.936 -0.1432 -0.0904 -0.4157
 3857SOL    HW123204   1.178   1.946   1.854  0.7727  0.1048  0.0212
 3857SOL    HW223205   1.199   1.932   1.996  0.2149 -0.9049 -1.3125
 3858SOL     OW23206   0.407   1.759  13.178  0.3119  0.0132 -0.3414
 3858SOL    HW123207   0.502   1.748  13.172  0.5146  0.3084  1.9901
 3858SOL    HW223208   0.404   1.854  13.163 -0.7866 -0.1965 -1.4368
 3859SOL     OW23209   0.261   1.549   6.237  0.4934  0.1824 -0.3543
 3859SOL    HW123210   0.318   1.564   6.162  1.8876  1.7266  1.0331
 3859SOL    HW223211   0.328   1.561   6.303 -1.4101 -0.6451  1.7304
 3860SOL     OW23212   3.692   1.600  16.380  0.6283 -0.7909  0.3564
 3860SOL    HW123213   3.606   1.624  16.414 -0.2947 -0.6665 -2.0670
 3860SOL    HW223214   3.734   1.685  16.391 -0.9330 -0.0119  0.3365
 3861SOL     OW23215   1.968   1.626   2.909 -0.0596 -0.0208  0.1129
 3861SOL    HW123216   1.947   1.579   2.828 -0.9595  1.3457 -0.4347
 3861SOL    HW223217   1.994   1.712   2.877  2.5142 -0.6420  0.5657
 3862SOL     OW23218   2.688   3.628   8.464 -0.1979  0.0547  0.1364
 3862SOL    HW123219   2.611   3.583   8.498 -0.9293  1.3067  0.1379
 3862SOL    HW223220   2.682   3.717   8.499  2.6512  0.9391 -1.6208
 3863SOL     OW23221   4.239   4.550   9.526  0.1771  0.0272  0.3565
 3863SOL    HW123222   4.249   4.626   9.583  0.0662 -0.4890  1.0654
 3863SOL    HW223223   4.294   4.586   9.456 -0.5865  2.3642  0.9659
 3864SOL     OW23224   1.399   0.418   9.951 -0.6738 -0.4227 -0.1618
 3864SOL    HW123225   1.414   0.358  10.024  0.4175 -1.1756 -1.0087
 3864SOL    HW223226   1.310   0.453   9.946 -0.8314 -0.7399  0.4861
 3865SOL     OW23227   1.387   3.932   1.907  0.0212 -0.0268 -0.1796
 3865SOL    HW123228   1.331   3.874   1.856 -1.3368 -0.5491  1.8778
 3865SOL    HW223229   1.453   3.864   1.922 -0.5050  0.0380  2.4611
 3866SOL     OW23230   2.722   4.377  17.613 -0.5000 -0.3111  0.1574
 3866SOL    HW123231   2.670   4.297  17.616 -2.0768  0.6856 -0.7503
 3866SOL    HW223232   2.809   4.338  17.624 -0.2777 -0.0088 -0.5452
 3867SOL     OW23233   3.723   0.359   6.028  0.4029 -0.1034  0.1615
 3867SOL    HW123234   3.672   0.279   6.044  1.6367 -0.7765  0.7117
 3867SOL    HW223235   3.763   0.367   6.115  1.2533  1.1310 -0.3545
 3868SOL     OW23236   4.508   4.337   7.404 -0.2956 -0.2715 -0.1115
 3868SOL    HW123237   4.490   4.429   7.387 -0.2574 -0.4978 -1.3523
 3868SOL    HW223238   4.451   4.293   7.342  1.3195 -1.0137 -1.0783
 3869SOL     OW23239   3.692   2.614  10.261 -0.1720  0.4993 -0.2239
 3869SOL    HW123240   3.765   2.676  10.261  1.2036 -1.1266  3.3066
 3869SOL    HW223241   3.629   2.660  10.206 -2.2308 -0.7393  1.1102
 3870SOL     OW23242   0.802   1.886   2.709 -0.7259  0.1563  0.0068
 3870SOL    HW123243   0.740   1.846   2.648 -1.0078 -1.6490  1.4970
 3870SOL    HW223244   0.878   1.838   2.676  0.8679  2.8621 -0.3283
 3871SOL     OW23245   4.127   1.421  15.874 -0.2322 -0.3919 -0.1158
 3871SOL    HW123246   4.136   1.516  15.862  1.1415 -0.7355 -1.7400
 3871SOL    HW223247   4.078   1.399  15.795 -0.1242  3.3533 -1.2585
 3872SOL     OW23248   4.663   1.869   3.323 -0.1447 -0.1755  0.6741
 3872SOL    HW123249   4.591   1.930   3.339 -1.5321 -1.6113 -0.1643
 3872SOL    HW223250   4.644   1.805   3.391  1.2025 -1.4362 -0.1410
 3873SOL     OW23251   3.385   0.330   0.412 -0.4053  0.0283 -0.3221
 3873SOL    HW123252   3.316   0.373   0.462  0.5956 -1.0927  1.9859
 3873SOL    HW223253   3.458   0.363   0.464 -0.8147 -1.0074  0.8944
 3874SOL     OW23254   0.485   3.613   8.902  0.2731 -0.1736 -0.3147
 3874SOL    HW123255   0.393   3.619   8.876 -0.3918  1.1774  2.3465
 3874SOL    HW223256   0.470   3.537   8.960  0.5913  0.6913  0.9023
 3875SOL     OW23257   3.834   4.000  13.798  0.5053  0.2715 -0.3466
 3875SOL    HW123258   3.788   3.979  13.717 -0.7098  1.5940  0.0178
 3875SOL    HW223259   3.919   3.996  13.755  1.1204  0.0507  0.8767
 3876SOL     OW23260   0.190   4.702   1.035 -0.0279 -0.2026  0.2208
 3876SOL    HW123261   0.162   0.056   1.057 -0.4419  0.1058 -1.5710
 3876SOL    HW223262   0.278   4.713   1.070  0.2409 -2.0951  0.1421
 3877SOL     OW23263   3.263   3.151  13.493 -0.1572 -0.4790 -0.0902
 3877SOL    HW123264   3.217   3.077  13.453 -0.6470  0.1524 -0.6849
 3877SOL    HW223265   3.262   3.214  13.421 -0.5110 -0.3735  0.0098
 3878SOL     OW23266   3.795   4.460  11.589  0.0160  0.1845 -0.1597
 3878SOL    HW123267   3.796   4.419  11.676  0.5041 -1.4345 -0.9314
 3878SOL    HW223268   3.821   4.382  11.541  0.6250  1.1095 -1.3297
 3879SOL     OW23269   2.925   3.301   2.651  0.0595 -0.0766  0.5173
 3879SOL    HW123270   2.997   3.346   2.694 -1.0482  1.0807  1.1496
 3879SOL    HW223271   2.950   3.208   2.654 -1.2709 -0.4328  0.6687
 3880SOL     OW23272   1.971   0.681   2.539  0.2933  0.5487 -0.1658
 3880SOL    HW123273   2.053   0.725   2.515  0.8164  0.4142  1.3738
 3880SOL    HW223274   1.969   0.703   2.633  0.2980 -2.2445  0.4671
 3881SOL     OW23275   2.698   3.710   8.204  0.8583 -0.2984  0.4946
 3881SOL    HW123276   2.691   3.684   8.296  0.4383  1.5829  1.0077
 3881SOL    HW223277   2.655   3.643   8.152  2.0907 -0.8909  0.2478
 3882SOL     OW23278   0.506   4.457   9.884  0.5225 -0.3680  0.7453
 3882SOL    HW123279   0.544   4.544   9.870 -0.5587 -0.0349 -0.1892
 3882SOL    HW223280   0.415   4.485   9.900  0.6920 -0.1148  1.2615
 3883SOL     OW23281   4.186   3.024   1.568  0.1548 -0.1118  0.0530
 3883SOL    HW123282   4.182   3.025   1.472 -1.0660  0.2404  0.1097
 3883SOL    HW223283   4.255   3.088   1.585  0.5798 -0.5763  0.0836
 3884SOL     OW23284   2.668   0.848   9.387 -0.2474  0.1197  0.7306
 3884SOL    HW123285   2.629   0.872   9.303 -0.1349 -1.4745  0.2302
 3884SOL    HW223286   2.656   0.753   9.387  0.7719 -0.0040 -0.7351
 3885SOL     OW23287   3.726   2.724   6.441  0.2044  0.4764  0.5232
 3885SOL    HW123288   3.767   2.771   6.369  2.0990  0.7804  1.8194
 3885SOL    HW223289   3.636   2.736   6.411  0.0978 -0.2355  0.5611
 3886SOL     OW23290   1.393   0.204   0.289 -0.1243  0.2239 -0.4006
 3886SOL    HW123291   1.464   0.173   0.345 -1.2030  2.8885  2.4060
 3886SOL    HW223292   1.333   0.242   0.352 -0.9885  0.4235 -1.3440
 3887SOL     OW23293   2.679   1.718  11.086 -0.8082 -0.2720 -0.0038
 3887SOL    HW123294   2.769   1.694  11.105 -0.9333 -0.9526 -0.2668
 3887SOL    HW223295   2.641   1.636  11.056 -0.4222 -1.7201  3.5101
 3888SOL     OW23296   1.498   2.940   2.324 -0.3062  0.0514  0.0472
 3888SOL    HW123297   1.410   2.966   2.296 -1.9728 -3.2243  2.1712
 3888SOL    HW223298   1.525   2.869   2.267 -3.3565 -1.0141 -0.0489
 3889SOL     OW23299   1.193   0.690   4.740  0.3009  0.0847  0.1260
 3889SOL    HW123300   1.126   0.747   4.777 -1.1190 -0.1006 -2.1314
 3889SOL    HW223301   1.193   0.612   4.795  2.1870  0.6329  0.9032
 3890SOL     OW23302   0.831   4.350  15.483 -0.5637 -0.0720  0.3703
 3890SOL    HW123303   0.916   4.393  15.492 -0.7840  0.7751 -1.6453
 3890SOL    HW223304   0.811   4.380  15.394 -1.0179 -1.2300  0.0760
 3891SOL     OW23305   2.363   0.213   4.910 -0.0098 -0.3871  0.1684
 3891SOL    HW123306   2.454   0.240   4.924  0.0702 -0.4105 -0.3074
 3891SOL    HW223307   2.347   0.257   4.827  0.8145 -1.2995 -0.4700
 3892SOL     OW23308   3.548   2.227   7.613  0.6357  0.1468  0.0450
 3892SOL    HW123309   3.479   2.180   7.565 -0.1049  0.3240  0.9479
 3892SOL    HW223310   3.621   2.168   7.594  0.7915 -0.7526  3.3669
 3893SOL     OW23311   0.498   3.960  15.252  0.4048 -0.0332  0.4339
 3893SOL    HW123312   0.444   4.039  15.258  0.8836  0.3673 -0.4460
 3893SOL    HW223313   0.498   3.937  15.345  0.9610 -1.1891  0.1543
 3894SOL     OW23314   2.293   1.403   8.240  0.1647 -0.7399  0.2191
 3894SOL    HW123315   2.383   1.407   8.272 -0.5134  1.6685  1.8723
 3894SOL    HW223316   2.247   1.459   8.302  0.8858  1.9878 -1.6688
 3895SOL     OW23317   0.172   4.138   4.829 -0.5388  0.6471  0.1427
 3895SOL    HW123318   0.160   4.077   4.756  1.9381  0.4959 -0.1546
 3895SOL    HW223319   0.129   4.211   4.785  0.4974  1.1859  0.0254
 3896SOL     OW23320   2.237   2.151  15.728  0.0975 -0.2727 -0.2978
 3896SOL    HW123321   2.254   2.087  15.659 -0.0710 -0.4092 -0.2141
 3896SOL    HW223322   2.323   2.193  15.730  1.5615 -3.2806  0.4789
 3897SOL     OW23323   2.336   0.032   2.951  0.0492 -0.1777  0.0121
 3897SOL    HW123324   2.294   4.718   3.022  0.0795 -3.0579 -1.9533
 3897SOL    HW223325   2.262   0.068   2.902  1.1593  0.7815 -0.9493
 3898SOL     OW23326   3.863   1.015  12.728 -0.4473 -0.0536  0.2689
 3898SOL    HW123327   3.848   1.107  12.750  2.4979  1.3366 -3.3713
 3898SOL    HW223328   3.772   0.990  12.714 -0.8863  4.1001 -4.3331
 3899SOL     OW23329   1.675   3.031  15.734 -0.0127  0.2180 -0.3615
 3899SOL    HW123330   1.630   2.972  15.674 -0.7084 -1.4250  1.7622
 3899SOL    HW223331   1.726   3.090  15.678  2.8737 -2.4960 -0.6294
 3900SOL     OW23332   4.706   0.228   6.690  0.3349 -0.1351  0.1126
 3900SOL    HW123333   0.039   0.162   6.701 -0.2805 -0.7278  0.3490
 3900SOL    HW223334   0.021   0.306   6.665  0.9463  0.2532  2.5832
 3901SOL     OW23335   3.336   0.065   1.697 -0.4538 -0.1038 -0.0581
 3901SOL    HW123336   3.330   0.139   1.636  0.7424  1.1889  1.3624
 3901SOL    HW223337   3.277   0.002   1.658 -1.5795  0.5023  0.6798
 3902SOL     OW23338   0.673   3.339  17.338  0.2652 -0.4560  0.0509
 3902SOL    HW123339   0.663   3.400  17.412 -0.2727 -2.1788  1.3912
 3902SOL    HW223340   0.708   3.388  17.264 -0.2997 -1.6833 -1.0179
 3903SOL     OW23341   0.412   2.745   9.848 -0.1071 -0.3754  0.0177
 3903SOL    HW123342   0.348   2.721   9.780  0.5718 -0.9897 -0.4063
 3903SOL    HW223343   0.406   2.840   9.857  2.1667 -0.2869  0.5966
 3904SOL     OW23344   1.674   1.761   2.963 -0.4043  0.0435  0.2356
 3904SOL    HW123345   1.764   1.756   2.993 -0.4236 -2.6326 -0.1306
 3904SOL    HW223346   1.636   1.818   3.030  0.1751 -0.4329  0.9696
 3905SOL     OW23347   1.569   0.563   6.459  0.0726 -0.1255  0.3736
 3905SOL    HW123348   1.602   0.641   6.503  1.6302  0.5707 -2.0207
 3905SOL    HW223349   1.610   0.568   6.373 -1.0219 -3.5470 -0.3441
 3906SOL     OW23350   2.994   3.860   3.765 -0.3312 -0.7426 -0.0858
 3906SOL    HW123351   2.936   3.936   3.753  1.8417  0.4612 -3.1078
 3906SOL    HW223352   3.016   3.851   3.672 -0.4560  0.2824 -0.2156
 3907SOL     OW23353   1.889   0.580  13.962  0.1129  0.0892  0.0513
 3907SOL    HW123354   1.867   0.537  13.879  0.5682 -1.4861  0.7490
 3907SOL    HW223355   1.940   0.656  13.933 -0.9934 -1.0458 -4.8759
 3908SOL     OW23356   1.070   4.694   8.744  0.4415 -0.0663 -0.3981
 3908SOL    HW123357   1.112   4.685   8.829 -0.3214 -0.0660 -0.0186
 3908SOL    HW223358   1.144   4.684   8.684  0.3667 -0.5899 -0.3993
 3909SOL     OW23359   1.699   2.668   2.873  0.1961 -0.2551  0.0659
 3909SOL    HW123360   1.694   2.706   2.785  1.5655 -0.3435 -0.0540
 3909SOL    HW223361   1.793   2.684   2.884 -0.0193  0.8699  0.3246
 3910SOL     OW23362   4.419   2.845   3.392  0.4236  0.3123  0.3344
 3910SOL    HW123363   4.427   2.885   3.479 -1.3204  1.1254  0.1322
 3910SOL    HW223364   4.397   2.753   3.406  0.0637  0.2502 -0.6732
 3911SOL     OW23365   2.502   3.593   3.949 -0.0265  0.1852  0.5350
 3911SOL    HW123366   2.538   3.639   3.873  0.4353 -0.8453  0.1293
 3911SOL    HW223367   2.426   3.651   3.954  0.4171  0.8189 -0.1805
 3912SOL     OW23368   3.837   3.570   2.062 -0.0264 -0.6790 -0.0303
 3912SOL    HW123369   3.857   3.659   2.091  1.0538 -0.7602 -0.5188
 3912SOL    HW223370   3.915   3.541   2.014  0.2673  1.0631 -0.6311
 3913SOL     OW23371   3.700   2.169   3.558 -0.2838  0.2568 -0.1678
 3913SOL    HW123372   3.710   2.238   3.492  0.6771  0.1196 -0.1574
 3913SOL    HW223373   3.606   2.153   3.545 -0.4264  1.6917 -0.9112
 3914SOL     OW23374   2.277   1.688   8.705  0.1605 -0.4321 -0.0004
 3914SOL    HW123375   2.221   1.671   8.780  0.9195  2.7585  1.3120
 3914SOL    HW223376   2.273   1.784   8.709 -0.3651 -0.4335 -0.4856
 3915SOL     OW23377   0.652   3.835   1.629  0.2271 -0.2445 -0.3735
 3915SOL    HW123378   0.648   3.926   1.660  0.1707 -0.5950  0.6359
 3915SOL    HW223379   0.566   3.829   1.587  0.9954 -1.8538 -1.6810
 3916SOL     OW23380   4.414   0.938   8.331 -0.0876 -0.3634 -0.8203
 3916SOL    HW123381   4.459   0.867   8.376 -0.0927  1.0386  1.4154
 3916SOL    HW223382   4.378   0.984   8.407  0.4510 -3.0118  1.0199
 3917SOL     OW23383   1.224   0.788   7.087 -0.3287  0.0578  0.9379
 3917SOL    HW123384   1.210   0.877   7.121 -1.1208  0.5425 -0.6684
 3917SOL    HW223385   1.187   0.793   6.999 -2.5411 -0.2380  1.8544
 3918SOL     OW23386   0.537   0.335   5.135 -0.7659 -0.1706 -0.3724
 3918SOL    HW123387   0.456   0.297   5.170 -0.5519  1.1639  1.5717
 3918SOL    HW223388   0.543   0.285   5.054 -1.0877 -1.7623  0.5749
 3919SOL     OW23389   0.770   0.103  11.959  0.5671  0.4941 -0.2031
 3919SOL    HW123390   0.785   0.009  11.950 -2.3918 -0.1495  1.7980
 3919SOL    HW223391   0.683   0.113  11.921  0.2294  2.0417  0.9724
 3920SOL     OW23392   1.914   3.392  14.407  0.8554 -0.1691 -0.1846
 3920SOL    HW123393   1.902   3.409  14.500  0.6556 -0.2506 -0.1957
 3920SOL    HW223394   2.000   3.350  14.412  0.8238 -0.2004  0.0942
 3921SOL     OW23395   4.566   2.047   1.187  0.5667 -0.3646  0.2954
 3921SOL    HW123396   4.507   1.982   1.149  0.7944 -0.2933 -0.1840
 3921SOL    HW223397   4.509   2.120   1.211 -0.2588  0.2239 -3.5268
 3922SOL     OW23398   3.027   1.259   6.380  0.0128  0.2277 -0.6718
 3922SOL    HW123399   3.049   1.296   6.295  0.6760  1.3314 -0.0143
 3922SOL    HW223400   2.934   1.283   6.385 -0.1085 -0.4554  0.5223
 3923SOL     OW23401   2.182   3.656   1.693  0.1887 -0.3095  0.1855
 3923SOL    HW123402   2.198   3.714   1.767 -1.2649  0.7184 -0.3110
 3923SOL    HW223403   2.257   3.681   1.639  0.0053 -0.6508 -0.2339
 3924SOL     OW23404   3.833   0.500   0.612  0.8059 -0.2435  0.3315
 3924SOL    HW123405   3.886   0.434   0.567  0.8154 -1.6356  2.3860
 3924SOL    HW223406   3.751   0.452   0.623  0.1817  0.7831  0.2517
 3925SOL     OW23407   4.408   0.917   4.661 -0.2332  0.3298 -0.2324
 3925SOL    HW123408   4.380   1.001   4.624 -0.2847  0.3473 -0.1545
 3925SOL    HW223409   4.365   0.850   4.608 -1.6272 -0.6475  2.1178
 3926SOL     OW23410   1.321   2.329   4.467  0.0766  0.5151 -0.6721
 3926SOL    HW123411   1.360   2.280   4.539  0.6109  0.4758 -0.9870
 3926SOL    HW223412   1.238   2.357   4.505  0.3455  1.9170 -1.1098
 3927SOL     OW23413   0.973   0.639   0.228 -0.2324 -0.2267  0.6124
 3927SOL    HW123414   1.004   0.710   0.285 -0.0075 -1.0939  1.5599
 3927SOL    HW223415   1.057   0.601   0.204 -1.0860 -0.7267 -1.5369
 3928SOL     OW23416   0.249   0.138   5.654  0.1525 -0.2770  0.4436
 3928SOL    HW123417   0.267   0.084   5.731  1.1072  0.0738  0.4628
 3928SOL    HW223418   0.204   0.208   5.702  1.3430  1.3523 -0.8080
 3929SOL     OW23419   3.178   0.283   9.015 -0.3468  0.2183 -0.3583
 3929SOL    HW123420   3.126   0.327   8.947 -1.8189 -0.5986  0.2484
 3929SOL    HW223421   3.262   0.254   8.979  0.2830  2.2495 -0.5662
 3930SOL     OW23422   0.345   1.821  12.777 -0.4237 -0.0129 -0.1265
 3930SOL    HW123423   0.348   1.752  12.843  0.8215 -0.4892 -0.6868
 3930SOL    HW223424   0.332   1.756  12.708 -0.4193  1.5446 -1.5955
 3931SOL     OW23425   4.571   0.425  14.620  0.3554 -0.1807  0.0204
 3931SOL    HW123426   4.508   0.459  14.683  0.7894  0.5003  0.0783
 3931SOL    HW223427   4.532   0.339  14.604 -0.5758  0.3807 -0.7106
 3932SOL     OW23428   3.812   2.006   4.742 -0.2072 -0.5590  0.2467
 3932SOL    HW123429   3.719   1.984   4.751 -0.6558  0.6232 -1.5158
 3932SOL    HW223430   3.855   1.921   4.749 -0.9611 -1.0121 -0.5327
 3933SOL     OW23431   1.909   2.960   7.553  0.3311  0.7424 -0.5686
 3933SOL    HW123432   1.885   3.018   7.481 -0.8902  1.7875  0.6819
 3933SOL    HW223433   2.003   2.952   7.537  0.1917  1.1766 -1.6035
 3934SOL     OW23434   3.826   1.567   8.122 -0.0967 -0.3770  0.3352
 3934SOL    HW123435   3.809   1.562   8.216 -1.7149 -0.6034  0.0252
 3934SOL    HW223436   3.897   1.502   8.118 -1.0604 -1.5060  1.5286
 3935SOL     OW23437   3.553   1.550  17.500 -0.2631 -0.6164 -0.4943
 3935SOL    HW123438   3.534   1.643  17.492 -0.0430 -0.5916 -0.7686
 3935SOL    HW223439   3.476   1.525  17.550 -0.1176 -0.5767 -0.2491
 3936SOL     OW23440   1.980   3.781  16.531 -0.2652 -0.0880  0.3687
 3936SOL    HW123441   1.893   3.778  16.491 -0.3937  0.3991  0.6159
 3936SOL    HW223442   1.996   3.873  16.553  0.6750 -0.3395  0.7333
 3937SOL     OW23443   1.996   3.357   9.185  0.2383 -0.0494 -0.4751
 3937SOL    HW123444   1.902   3.339   9.188  0.2285  0.1978  0.7952
 3937SOL    HW223445   1.986   3.452   9.188  0.6172 -0.0197 -0.1212
 3938SOL     OW23446   1.970   4.043   7.468  0.2616 -0.1337  0.6634
 3938SOL    HW123447   2.023   3.964   7.454  0.7194  0.0988  1.0885
 3938SOL    HW223448   1.949   4.051   7.561 -0.4237 -1.7068  0.6552
 3939SOL     OW23449   4.614   4.647  16.911  0.0010 -0.5866  0.1925
 3939SOL    HW123450   4.556   4.714  16.948  2.1263  0.1059  2.2725
 3939SOL    HW223451   4.573   4.565  16.937 -1.7167  0.0554 -0.4834
 3940SOL     OW23452   1.802   3.657   7.666  0.2732  0.2617  0.4685
 3940SOL    HW123453   1.785   3.732   7.609 -0.4105  1.1724  1.8593
 3940SOL    HW223454   1.711   3.633   7.682  0.0847  0.7329  0.1021
 3941SOL     OW23455   3.084   4.221   2.696 -0.3422  0.4317 -0.4046
 3941SOL    HW123456   3.148   4.292   2.693  0.9580 -0.7527 -0.7591
 3941SOL    HW223457   3.071   4.201   2.789 -0.1150  1.2072 -0.2040
 3942SOL     OW23458   2.320   1.045   4.111  0.7100 -0.4525 -0.3704
 3942SOL    HW123459   2.360   1.065   4.027  2.5120 -1.4988  0.2449
 3942SOL    HW223460   2.243   0.994   4.087  2.8165 -3.3757 -0.8476
 3943SOL     OW23461   0.644   1.297   2.755 -0.5108  0.0636  0.1723
 3943SOL    HW123462   0.571   1.308   2.816  0.0346 -0.1304  0.8606
 3943SOL    HW223463   0.612   1.219   2.708 -0.2820  0.4636 -0.6340
 3944SOL     OW23464   0.546   3.870   8.922  0.1714  0.1472  0.3398
 3944SOL    HW123465   0.500   3.921   8.856 -0.4278  0.3682  0.9404
 3944SOL    HW223466   0.523   3.777   8.909 -3.0165  1.0438 -0.4331
 3945SOL     OW23467   2.621   4.489  13.686  0.0974 -0.5245 -0.0934
 3945SOL    HW123468   2.552   4.554  13.673  0.9662  0.5044  0.4551
 3945SOL    HW223469   2.596   4.416  13.628 -0.4577 -0.1895 -0.2712
 3946SOL     OW23470   4.271   3.433   5.854  0.1763  0.0969 -0.1269
 3946SOL    HW123471   4.231   3.361   5.805  0.8672 -1.6296  1.8129
 3946SOL    HW223472   4.202   3.498   5.843  0.5382  0.5425  0.2456
 3947SOL     OW23473   2.693   2.462  17.504 -0.4876  0.3526 -0.5065
 3947SOL    HW123474   2.732   2.483  17.419 -0.2560 -2.9417 -1.2261
 3947SOL    HW223475   2.765   2.438  17.563  0.8842  1.0069 -1.9054
 3948SOL     OW23476   2.730   3.352   5.409  0.4872 -0.6650  0.4792
 3948SOL    HW123477   2.826   3.346   5.414  0.6407  0.4914 -1.0476
 3948SOL    HW223478   2.719   3.304   5.327  2.0678 -0.5975  0.2254
 3949SOL     OW23479   0.600   2.239  15.911  0.1969 -0.1916  1.0236
 3949SOL    HW123480   0.529   2.241  15.976 -1.8057 -1.4188 -1.1414
 3949SOL    HW223481   0.548   2.221  15.833 -0.6455  1.0205  1.2901
 3950SOL     OW23482   2.034   0.451   7.885 -0.2055 -0.2704  0.0516
 3950SOL    HW123483   2.036   0.462   7.789  0.4090 -1.7562 -0.1001
 3950SOL    HW223484   1.948   0.484   7.911 -0.3448  0.4915 -1.3796
 3951SOL     OW23485   3.228   1.637   6.549  0.3461  0.2179 -0.2453
 3951SOL    HW123486   3.184   1.715   6.517 -0.3425 -1.2358 -2.8584
 3951SOL    HW223487   3.177   1.598   6.620  1.7799 -0.5026  0.3965
 3952SOL     OW23488   0.621   1.674  10.296 -0.1329  0.9203 -0.2166
 3952SOL    HW123489   0.688   1.700  10.359 -1.8290  0.1437  1.9018
 3952SOL    HW223490   0.568   1.753  10.292  1.0973  1.6951 -1.2443
 3953SOL     OW23491   1.929   2.632   6.912 -0.3691  0.1459 -0.1755
 3953SOL    HW123492   1.971   2.716   6.894  0.9886 -0.8196 -1.6012
 3953SOL    HW223493   1.999   2.583   6.953  1.0110  2.8993  0.7583
 3954SOL     OW23494   4.157   2.014  14.886 -0.3185 -0.0443 -0.0587
 3954SOL    HW123495   4.075   1.966  14.894 -1.0980  1.0666 -1.4099
 3954SOL    HW223496   4.182   2.011  14.978 -1.8207 -1.3803  0.3152
 3955SOL     OW23497   1.803   0.006   2.980  0.1714  0.4017 -0.0389
 3955SOL    HW123498   1.736   0.015   2.913 -0.8330 -2.0035  0.6071
 3955SOL    HW223499   1.872   4.691   2.937  1.0027  2.5072 -1.0999
 3956SOL     OW23500   0.182   1.463   6.551 -0.6880 -0.0091 -0.4290
 3956SOL    HW123501   0.141   1.545   6.523  0.2794  0.3587 -0.7714
 3956SOL    HW223502   0.227   1.495   6.629 -1.5913  1.4166 -0.4954
 3957SOL     OW23503   2.349   0.575   4.245 -0.0667 -0.2377  0.4272
 3957SOL    HW123504   2.409   0.617   4.184  1.4628 -1.1841  1.2784
 3957SOL    HW223505   2.261   0.581   4.207  0.3910  1.0354 -0.4076
 3958SOL     OW23506   1.917   1.286   5.319  0.6555 -0.2726  0.7663
 3958SOL    HW123507   1.924   1.369   5.366  0.1973  0.3389 -0.2482
 3958SOL    HW223508   1.937   1.228   5.393  3.0799 -1.8306 -1.0883
 3959SOL     OW23509   1.310   1.974  14.573  0.6457  0.6864 -0.7219
 3959SOL    HW123510   1.369   1.899  14.573  0.9599  0.9370 -2.1974
 3959SOL    HW223511   1.247   1.949  14.506  0.5646  0.4596 -0.5641
 3960SOL     OW23512   1.257   1.130   0.564 -0.2711  0.1714 -0.1499
 3960SOL    HW123513   1.328   1.180   0.604  0.5198 -0.3308 -0.9107
 3960SOL    HW223514   1.306   1.072   0.506 -1.7122  1.4153 -2.6321
 3961SOL     OW23515   2.883   1.210   9.278 -0.4028 -0.2363  0.2856
 3961SOL    HW123516   2.880   1.149   9.205  0.0700  1.0175 -0.7707
 3961SOL    HW223517   2.813   1.268   9.248 -0.6365 -0.2365  0.8234
 3962SOL     OW23518   3.170   0.285  13.267  0.4808  0.2684  0.5144
 3962SOL    HW123519   3.152   0.212  13.207 -0.5776  0.7251  0.2953
 3962SOL    HW223520   3.168   0.250  13.356  1.1812  1.5646  1.0335
 3963SOL     OW23521   0.550   2.329   7.262  0.8775  0.0780 -0.2026
 3963SOL    HW123522   0.499   2.248   7.265  3.4216 -1.5811 -1.1089
 3963SOL    HW223523   0.499   2.391   7.313 -0.5930 -2.0354  0.9028
 3964SOL     OW23524   4.269   3.676   3.826 -0.2741 -0.4868  0.2978
 3964SOL    HW123525   4.223   3.611   3.879 -2.3003  0.5179 -0.2623
 3964SOL    HW223526   4.260   3.755   3.880  2.3738 -0.4451  0.6805
 3965SOL     OW23527   4.694   2.182   2.571 -0.3497 -0.2062  0.2794
 3965SOL    HW123528   4.618   2.128   2.548 -0.2679 -1.0755  2.0815
 3965SOL    HW223529   0.031   2.126   2.541  0.9713  3.3867 -3.3410
 3966SOL     OW23530   4.530   2.234   9.931 -0.5313 -0.5271 -0.8364
 3966SOL    HW123531   4.489   2.318   9.951 -1.3912 -1.3966  1.0052
 3966SOL    HW223532   4.492   2.208   9.847  0.2754 -0.5232 -1.2090
 3967SOL     OW23533   0.324   4.278   7.093 -0.2651  0.2721  0.5033
 3967SOL    HW123534   0.252   4.233   7.048  0.2161 -0.5864  0.5936
 3967SOL    HW223535   0.377   4.201   7.114 -0.8450  0.0355  1.1335
 3968SOL     OW23536   0.344   3.799   7.038  0.0704  0.1194  0.1749
 3968SOL    HW123537   0.416   3.738   7.023  1.2262  0.9398  2.3963
 3968SOL    HW223538   0.321   3.763   7.123 -1.6117  0.3997 -0.1684
 3969SOL     OW23539   3.892   3.947   3.951 -0.1093 -0.0273  0.1706
 3969SOL    HW123540   3.806   3.908   3.939  0.1173 -0.4471 -0.0648
 3969SOL    HW223541   3.893   3.943   4.047 -0.4576 -0.1599  0.1669
 3970SOL     OW23542   0.834   0.750  15.613 -0.0454  0.2465  0.1315
 3970SOL    HW123543   0.888   0.820  15.576  0.3408  0.8698  1.8653
 3970SOL    HW223544   0.878   0.726  15.694  1.5291  2.4641 -0.0730
 3971SOL     OW23545   1.307   1.805   7.707  0.1152 -0.0811  0.2619
 3971SOL    HW123546   1.400   1.786   7.719 -0.2383 -0.8575  1.7366
 3971SOL    HW223547   1.289   1.816   7.800 -1.7684 -1.2932  0.0329
 3972SOL     OW23548   0.013   0.617   3.443 -0.2528 -0.1340  0.3531
 3972SOL    HW123549   0.024   0.576   3.357  1.3896  1.4608 -0.1780
 3972SOL    HW223550   4.697   0.552   3.493 -0.3399 -0.6202 -0.3639
 3973SOL     OW23551   2.676   3.960  16.762  0.2128 -0.1723 -0.1503
 3973SOL    HW123552   2.707   4.017  16.832 -0.1415 -1.2631  0.8879
 3973SOL    HW223553   2.758   3.951  16.714 -0.1954 -0.5674 -0.7694
 3974SOL     OW23554   0.703   1.836   4.465  0.4216  0.1727  0.2723
 3974SOL    HW123555   0.701   1.926   4.432  4.4340  0.2591  0.2976
 3974SOL    HW223556   0.610   1.813   4.466  0.3384  0.4873 -2.0657
 3975SOL     OW23557   3.328   3.987  14.764  0.2894 -0.0680 -0.2517
 3975SOL    HW123558   3.413   3.942  14.761 -0.2485 -1.0294 -0.7548
 3975SOL    HW223559   3.372   4.055  14.816  1.1555 -0.4442 -0.4889
 3976SOL     OW23560   2.067   1.520   1.694  0.4490  0.2364  0.3842
 3976SOL    HW123561   2.116   1.602   1.692  1.5623 -0.4298  0.1128
 3976SOL    HW223562   2.101   1.472   1.770 -0.0079 -2.4317 -1.1151
 3977SOL     OW23563   2.560   3.731   0.554 -0.0875  0.0319 -0.1867
 3977SOL    HW123564   2.582   3.778   0.475 -1.5988 -2.8520 -2.3360
 3977SOL    HW223565   2.645   3.693   0.579 -0.3876  0.4184  1.4641
 3978SOL     OW23566   4.122   1.293   2.426 -0.0640 -0.3716 -0.5900
 3978SOL    HW123567   4.145   1.340   2.507 -2.5884 -0.6443  0.2834
 3978SOL    HW223568   4.061   1.230   2.466  2.3974 -0.6420  2.7530
 3979SOL     OW23569   0.408   0.789   7.994 -0.3809 -0.3678  0.3673
 3979SOL    HW123570   0.313   0.800   8.001 -0.2134 -0.1304  2.2894
 3979SOL    HW223571   0.423   0.726   8.065 -2.5619 -0.1812  0.9858
 3980SOL     OW23572   4.733   0.597   4.406  0.2031 -0.1844  0.5523
 3980SOL    HW123573   0.060   0.609   4.335 -2.0282  1.7259 -1.0879
 3980SOL    HW223574   0.050   0.541   4.464 -1.5159 -3.4905 -1.0535
 3981SOL     OW23575   3.671   1.872  14.689 -0.0005  0.0555  0.5127
 3981SOL    HW123576   3.731   1.899  14.619 -1.0553  0.3719 -0.2686
 3981SOL    HW223577   3.658   1.779  14.671  0.6915 -0.1295  0.9475
 3982SOL     OW23578   2.569   0.046   7.012  0.0577 -0.2012 -0.1802
 3982SOL    HW123579   2.656   0.038   6.973  0.1409 -0.0856 -0.0178
 3982SOL    HW223580   2.530   0.106   6.949 -1.3630 -1.6194 -0.6387
 3983SOL     OW23581   0.616   2.805   3.685  0.2390  0.2589  0.4321
 3983SOL    HW123582   0.554   2.843   3.748 -0.0093  2.0617 -0.9183
 3983SOL    HW223583   0.622   2.872   3.617 -1.3081  0.8548  0.8769
 3984SOL     OW23584   0.683   0.624   6.026  0.1133  0.1139  0.0154
 3984SOL    HW123585   0.762   0.671   6.053  0.0987 -0.7097  1.4554
 3984SOL    HW223586   0.637   0.610   6.108  0.6624 -0.2878  0.2532
 3985SOL     OW23587   4.419   4.393   1.836  0.0632  0.0899 -0.6276
 3985SOL    HW123588   4.504   4.350   1.827  0.0392  0.3212 -1.9052
 3985SOL    HW223589   4.444   4.458   1.902 -0.5226 -0.1327 -0.1856
 3986SOL     OW23590   1.532   0.469   5.593  0.0316  0.2680 -0.0966
 3986SOL    HW123591   1.497   0.408   5.528  0.7684  0.0965 -0.3353
 3986SOL    HW223592   1.620   0.433   5.608  1.3083  3.3057 -0.2761
 3987SOL     OW23593   2.514   4.487  15.401 -0.0661 -0.7659 -0.4860
 3987SOL    HW123594   2.575   4.458  15.468  0.1253 -2.2767 -1.3225
 3987SOL    HW223595   2.547   4.576  15.386  0.1870 -0.6347  0.8907
 3988SOL     OW23596   1.674   0.645   3.397  0.0259  0.0561  0.4965
 3988SOL    HW123597   1.694   0.569   3.343  0.1220 -0.0125  0.6299
 3988SOL    HW223598   1.631   0.711   3.343  0.4277 -1.5953 -1.8594
 3989SOL     OW23599   3.242   4.512   6.498  0.4850  0.3368 -0.4936
 3989SOL    HW123600   3.285   4.439   6.454  1.3957 -0.3167  1.4733
 3989SOL    HW223601   3.313   4.545   6.554 -1.5959  1.1094  1.6790
 3990SOL     OW23602   2.648   0.351  11.434 -0.4789  0.9668  0.3670
 3990SOL    HW123603   2.665   0.325  11.343  0.2088  0.8787  0.5217
 3990SOL    HW223604   2.605   0.436  11.426 -0.6179  0.9230  0.6562
 3991SOL     OW23605   0.965   3.780   6.778 -0.0703  0.9107  0.3355
 3991SOL    HW123606   1.002   3.859   6.737 -0.1061 -0.4733 -2.3343
 3991SOL    HW223607   0.871   3.786   6.764 -0.1789 -2.3162 -0.1611
 3992SOL     OW23608   1.995   4.381  15.407 -0.6789 -0.2523 -0.2782
 3992SOL    HW123609   2.087   4.406  15.414 -0.2384 -1.3091 -2.4062
 3992SOL    HW223610   1.994   4.304  15.463  0.5906  1.0709  1.5993
 3993SOL     OW23611   4.542   2.431  13.239 -0.2748 -0.0483  0.0375
 3993SOL    HW123612   4.593   2.450  13.160  1.0324  1.1562  1.1778
 3993SOL    HW223613   4.603   2.363  13.267 -0.6932 -0.3614  0.1892
 3994SOL     OW23614   0.143   0.563   7.987  0.2386 -0.0877  0.4753
 3994SOL    HW123615   0.049   0.581   7.981  0.0837 -0.9449  0.3367
 3994SOL    HW223616   0.153   0.622   8.061  1.3819 -2.0064  1.8433
 3995SOL     OW23617   1.834   0.194   6.387  0.6556  0.2894 -0.5298
 3995SOL    HW123618   1.806   0.255   6.455 -1.5803 -2.6797  1.2216
 3995SOL    HW223619   1.912   0.242   6.359  0.3273  0.9075 -0.3786
 3996SOL     OW23620   3.947   1.311  13.952 -0.3202  0.5320  0.0444
 3996SOL    HW123621   3.942   1.351  13.865 -1.5285  0.3087 -0.0032
 3996SOL    HW223622   4.007   1.240  13.929 -1.2708  0.3459 -1.8954
 3997SOL     OW23623   2.892   4.557   6.713 -0.6967  0.1747 -0.2985
 3997SOL    HW123624   2.824   4.550   6.646 -0.4177  0.7099 -0.6324
 3997SOL    HW223625   2.905   4.462   6.720  1.0998  0.4813  0.5449
 3998SOL     OW23626   1.870   1.662   1.088 -0.3896  0.0689  0.0770
 3998SOL    HW123627   1.953   1.646   1.133 -0.7510 -1.7459  0.0802
 3998SOL    HW223628   1.849   1.576   1.051 -0.2768  0.9096 -1.9727
 3999SOL     OW23629   1.923   3.443  14.658  0.9415  0.3760 -0.1436
 3999SOL    HW123630   1.935   3.518  14.718  0.6620  1.1088 -1.0035
 3999SOL    HW223631   1.953   3.370  14.713 -1.0694  0.5308  1.1443
 4000SOL     OW23632   0.794   0.312   1.674  0.4272  0.5140  0.4754
 4000SOL    HW123633   0.745   0.232   1.659 -0.4882  1.3444 -0.9802
 4000SOL    HW223634   0.728   0.363   1.721 -0.2168  0.5148 -0.4376
 4001SOL     OW23635   3.816   0.885   2.639 -0.4855 -0.4945  0.0683
 4001SOL    HW123636   3.804   0.976   2.667  0.0871 -0.6745  0.8964
 4001SOL    HW223637   3.868   0.841   2.706 -0.7269  1.1038  1.3282
 4002SOL     OW23638   0.610   0.355   7.234 -0.0111 -0.1686 -0.3586
 4002SOL    HW123639   0.618   0.277   7.290  0.4123  1.4879  1.9016
 4002SOL    HW223640   0.701   0.385   7.234 -0.1729  0.3239  1.1869
 4003SOL     OW23641   3.635   4.086   6.231  0.5334  0.1829  0.9362
 4003SOL    HW123642   3.602   4.145   6.163  2.5731  0.3716  0.1089
 4003SOL    HW223643   3.582   4.112   6.306 -1.1345  3.3581 -1.3276
 4004SOL     OW23644   2.326   4.448   2.584  0.2838  0.0916 -0.6709
 4004SOL    HW123645   2.273   4.431   2.506  2.2123 -1.6818 -1.6188
 4004SOL    HW223646   2.293   4.381   2.645  1.3273 -0.4875 -0.7436
 4005SOL     OW23647   1.839   0.107   3.245  0.5869 -0.6045 -0.9923
 4005SOL    HW123648   1.827   0.096   3.150 -0.2042 -1.7633 -0.7513
 4005SOL    HW223649   1.931   0.137   3.244  1.0174 -1.8826  1.2863
 4006SOL     OW23650   2.171   3.002  11.281 -0.3037 -0.2586 -0.3085
 4006SOL    HW123651   2.167   2.930  11.218 -0.1428  1.8904 -2.8005
 4006SOL    HW223652   2.156   2.936  11.348  0.1768 -1.1564 -1.0711
 4007SOL     OW23653   2.664   2.865   5.659 -0.4771  0.0768  0.7023
 4007SOL    HW123654   2.610   2.824   5.591  1.6107  1.2043 -1.6419
 4007SOL    HW223655   2.602   2.855   5.731 -1.2107 -0.0332  0.0502
 4008SOL     OW23656   0.152   3.189   4.937  0.0869 -0.1127 -0.1474
 4008SOL    HW123657   0.120   3.253   4.874 -3.4670 -0.0516  1.7309
 4008SOL    HW223658   0.135   3.242   5.014  0.5039  1.9173 -1.4441
 4009SOL     OW23659   2.853   1.197   8.366 -0.4867  0.3651  0.3043
 4009SOL    HW123660   2.829   1.231   8.452 -1.2580 -2.1320  1.1022
 4009SOL    HW223661   2.926   1.254   8.342  0.3033 -0.8115 -0.1268
 4010SOL     OW23662   0.451   2.826   2.271 -0.1345 -0.4126 -0.3582
 4010SOL    HW123663   0.408   2.896   2.321 -0.8622  0.7447 -2.6199
 4010SOL    HW223664   0.438   2.754   2.332 -1.5549 -0.5000 -0.7666
 4011SOL     OW23665   2.596   3.934   2.744 -0.1993  0.8364 -0.4105
 4011SOL    HW123666   2.504   3.959   2.744  0.0165  1.6089 -1.5937
 4011SOL    HW223667   2.586   3.842   2.720 -0.8652  0.7629  0.1385
 4012SOL     OW23668   0.636   1.669   6.664 -0.3137 -0.2318  0.9576
 4012SOL    HW123669   0.593   1.592   6.628 -2.1465  0.9399  0.6790
 4012SOL    HW223670   0.598   1.685   6.750  0.8799  1.5515  1.1684
 4013SOL     OW23671   1.018   2.738   4.563  0.4493  0.2944 -0.3381
 4013SOL    HW123672   0.991   2.701   4.646 -0.3031 -0.4472 -0.9206
 4013SOL    HW223673   0.989   2.671   4.501  1.4147 -2.3028  2.0539
 4014SOL     OW23674   3.964   2.418  12.474 -0.1129  0.8668  0.0112
 4014SOL    HW123675   4.043   2.411  12.527 -0.3301 -1.7240 -0.0117
 4014SOL    HW223676   3.908   2.457  12.541 -0.4179 -0.5923  0.5950
 4015SOL     OW23677   2.394   3.209  17.129  0.3420  0.2554 -0.5286
 4015SOL    HW123678   2.302   3.234  17.139  0.4696  0.1456  1.0444
 4015SOL    HW223679   2.394   3.151  17.053  0.2233  0.3106 -0.5711
 4016SOL     OW23680   3.207   1.515   2.764 -0.2807  0.4406 -0.0256
 4016SOL    HW123681   3.205   1.528   2.859 -1.5768 -2.5404  0.3345
 4016SOL    HW223682   3.132   1.570   2.741 -0.7299  0.3663  1.2508
 4017SOL     OW23683   0.717   1.481   9.877 -0.2752  0.1808 -0.1446
 4017SOL    HW123684   0.636   1.483   9.927  1.0521  3.6878  1.8954
 4017SOL    HW223685   0.700   1.557   9.822 -1.7795  0.0937  0.2192
 4018SOL     OW23686   1.933   0.115  12.484  0.6309  0.6169 -0.0805
 4018SOL    HW123687   1.945   0.126  12.578 -0.1220 -1.3384  0.2422
 4018SOL    HW223688   2.019   0.077  12.462 -0.8950 -1.9863 -1.5674
 4019SOL     OW23689   2.193   0.034  12.170  0.2064 -0.4573 -0.0116
 4019SOL    HW123690   2.145   4.688  12.185 -0.5066 -0.0068  0.1654
 4019SOL    HW223691   2.185   0.075  12.256 -0.1516 -0.7279  0.0849
 4020SOL     OW23692   4.499   2.738   9.700 -0.3160 -0.1962  0.1326
 4020SOL    HW123693   4.468   2.815   9.652 -0.6306 -0.4529 -0.0790
 4020SOL    HW223694   4.571   2.693   9.657  0.3371 -0.6345  1.6748
 4021SOL     OW23695   0.935   0.904   7.273 -0.0477 -0.4254 -0.1370
 4021SOL    HW123696   1.010   0.875   7.325 -0.3442 -1.3858 -0.2546
 4021SOL    HW223697   0.854   0.889   7.322  0.0208  0.5890  0.2905
 4022SOL     OW23698   1.270   1.744  12.466 -0.5316  0.4303  0.2751
 4022SOL    HW123699   1.206   1.673  12.460  0.1840 -0.0635 -1.5215
 4022SOL    HW223700   1.353   1.701  12.448 -1.8295 -1.9050 -0.1295
 4023SOL     OW23701   3.394   1.095   9.202 -0.5786 -0.2896  0.0092
 4023SOL    HW123702   3.376   1.016   9.253 -1.1663 -1.2452 -1.6656
 4023SOL    HW223703   3.307   1.118   9.169 -1.3736 -0.5244  1.9807
 4024SOL     OW23704   1.262   4.199   5.539  0.4943 -0.5093 -0.3714
 4024SOL    HW123705   1.202   4.229   5.471 -1.3171 -1.4478  0.8299
 4024SOL    HW223706   1.296   4.125   5.489  1.2394 -1.1371  1.0632
 4025SOL     OW23707   4.713   4.400   0.607  0.3853 -0.0127 -0.4235
 4025SOL    HW123708   4.628   4.369   0.640  1.1363 -1.4342  0.1690
 4025SOL    HW223709   0.019   4.318   0.577  0.4354 -0.4154  0.7733
 4026SOL     OW23710   0.410   3.267   5.611  0.6207 -0.1144 -0.1311
 4026SOL    HW123711   0.347   3.281   5.681 -1.3831  1.7386 -2.3203
 4026SOL    HW223712   0.420   3.353   5.571 -2.3370 -0.3967 -1.4751
 4027SOL     OW23713   1.382   1.144   3.977  0.2214 -0.0758 -0.1647
 4027SOL    HW123714   1.456   1.124   3.920  0.5695 -0.9784  0.6043
 4027SOL    HW223715   1.359   1.234   3.956 -0.0249 -0.3914 -1.2264
 4028SOL     OW23716   0.181   4.491   0.375 -0.0288  0.3805 -0.2484
 4028SOL    HW123717   0.121   4.500   0.449  2.2951 -0.2293  1.6994
 4028SOL    HW223718   0.245   4.556   0.402 -1.4357  1.7578 -0.2249
 4029SOL     OW23719   3.293   2.194   7.123  0.1457  0.0994  0.1796
 4029SOL    HW123720   3.348   2.116   7.115  0.0978 -0.1408  2.2775
 4029SOL    HW223721   3.338   2.235   7.197  0.9605 -2.1943  0.9571
 4030SOL     OW23722   0.920   0.482  13.169 -0.2255  0.3434  0.4257
 4030SOL    HW123723   0.971   0.474  13.250 -0.5028  0.1341  0.5808
 4030SOL    HW223724   0.834   0.514  13.197 -0.5016  0.5945 -0.7204
 4031SOL     OW23725   0.185   0.104   4.784 -0.2979  0.5797 -0.1233
 4031SOL    HW123726   0.237   0.145   4.854  1.0405 -1.3811  0.0116
 4031SOL    HW223727   0.146   0.030   4.832  0.4161 -0.5757 -1.3338
 4032SOL     OW23728   4.294   0.626   5.744 -0.5532 -0.1308 -0.1089
 4032SOL    HW123729   4.353   0.606   5.817  1.8115 -0.8832 -2.2056
 4032SOL    HW223730   4.236   0.693   5.779 -0.0882  0.2415 -0.0504
 4033SOL     OW23731   0.699   4.437  17.670 -0.0240 -0.0587 -0.5101
 4033SOL    HW123732   0.764   4.372  17.695  1.0599  0.4337 -2.0917
 4033SOL    HW223733   0.744   4.514  17.705 -0.4244  0.3505 -0.8848
 4034SOL     OW23734   4.203   3.533   0.773 -0.2778 -0.0326  0.6388
 4034SOL    HW123735   4.252   3.615   0.786  0.1895  0.3107 -3.5416
 4034SOL    HW223736   4.277   3.473   0.763  2.2849  3.5263 -1.8740
 4035SOL     OW23737   0.362   3.177   3.807  0.4504 -0.1844  0.0694
 4035SOL    HW123738   0.269   3.165   3.828  0.4318  0.2695  0.2624
 4035SOL    HW223739   0.380   3.237   3.880  0.3220  1.8674 -1.5757
 4036SOL     OW23740   2.447   4.158  15.141 -0.4134  0.0439  0.0041
 4036SOL    HW123741   2.512   4.228  15.149 -1.3765  0.7630  1.4635
 4036SOL    HW223742   2.434   4.139  15.234  2.2415  1.2703  0.6126
 4037SOL     OW23743   1.943   1.787   3.634  0.1528  1.0634 -0.2433
 4037SOL    HW123744   1.992   1.727   3.690 -0.8579  0.2101 -0.2851
 4037SOL    HW223745   1.967   1.869   3.678 -1.0605  0.6911  1.1008
 4038SOL     OW23746   0.321   4.522   4.808 -0.2664 -0.1160  0.2493
 4038SOL    HW123747   0.352   4.432   4.803  1.1807  0.4551 -1.3944
 4038SOL    HW223748   0.227   4.510   4.794 -0.5019 -0.5534  2.1799
 4039SOL     OW23749   3.959   1.785   5.261  0.5062 -0.3460  0.2776
 4039SOL    HW123750   3.912   1.710   5.296  3.6654 -3.1298 -1.4050
 4039SOL    HW223751   3.926   1.800   5.172  2.2399  2.2693  0.0570
 4040SOL     OW23752   0.856   0.241  16.083 -0.4275  0.0998  0.2518
 4040SOL    HW123753   0.812   0.156  16.091 -1.0738  0.3331 -0.8748
 4040SOL    HW223754   0.806   0.272  16.008 -1.4369  0.7678  1.1964
 4041SOL     OW23755   3.348   0.895   2.120  0.1315 -0.0154 -0.0637
 4041SOL    HW123756   3.388   0.889   2.207 -1.6769 -4.6121  0.4605
 4041SOL    HW223757   3.355   0.806   2.087 -1.2635  0.0059 -0.3950
 4042SOL     OW23758   0.735   3.162   8.829 -1.0115  0.1977  0.1566
 4042SOL    HW123759   0.681   3.102   8.779  1.0562 -2.7283  1.4647
 4042SOL    HW223760   0.798   3.187   8.761 -0.2340  0.9422  1.1420
 4043SOL     OW23761   0.431   3.191   6.919 -0.6914  0.2211  0.1057
 4043SOL    HW123762   0.440   3.177   6.825 -0.1094 -1.5713  0.4127
 4043SOL    HW223763   0.356   3.250   6.919  0.7015  1.9831  2.9069
 4044SOL     OW23764   2.791   4.084   8.765 -0.5160  0.4513  0.6202
 4044SOL    HW123765   2.726   4.026   8.805  0.1040  0.8588  2.2081
 4044SOL    HW223766   2.847   4.110   8.838  0.0885 -0.2194  0.3940
 4045SOL     OW23767   2.882   3.137   8.745  0.2459  0.3208 -0.1524
 4045SOL    HW123768   2.790   3.155   8.723  0.8201  1.9609 -1.1404
 4045SOL    HW223769   2.874   3.062   8.805 -2.1833 -0.4691 -1.4489
 4046SOL     OW23770   2.623   2.620   7.065  0.6455  0.0382  0.2374
 4046SOL    HW123771   2.579   2.636   6.981  2.0620 -0.6649 -0.6434
 4046SOL    HW223772   2.576   2.680   7.122  0.2860  0.1614 -0.1847
 4047SOL     OW23773   3.803   3.018   7.234 -0.5749  0.0854  0.3553
 4047SOL    HW123774   3.722   3.009   7.184 -0.4228 -1.7356  0.4429
 4047SOL    HW223775   3.826   3.111   7.240  2.3178 -0.5583 -0.8917
 4048SOL     OW23776   4.090   0.527  11.459 -0.5894  0.3656 -0.3716
 4048SOL    HW123777   4.034   0.458  11.493 -1.1731 -0.2906 -2.6366
 4048SOL    HW223778   4.069   0.609  11.504  1.8236  1.1324 -0.5897
 4049SOL     OW23779   1.525   1.696   2.501 -0.1870 -0.1683 -0.4659
 4049SOL    HW123780   1.540   1.748   2.580  1.4415  0.3542 -1.1221
 4049SOL    HW223781   1.466   1.627   2.531 -1.0141  1.0921  0.7759
 4050SOL     OW23782   1.924   1.475  14.172 -0.1495  0.5309 -0.3398
 4050SOL    HW123783   1.938   1.394  14.221 -1.4065  0.6990  0.2858
 4050SOL    HW223784   2.011   1.515  14.180  0.0860 -0.1569  0.5152
 4051SOL     OW23785   2.128   2.574   9.524 -0.1122 -0.5948 -0.6538
 4051SOL    HW123786   2.099   2.497   9.475 -2.0824  1.1668 -2.2471
 4051SOL    HW223787   2.222   2.567   9.506  0.2636 -0.4283  1.2121
 4052SOL     OW23788   4.189   2.817  14.006  0.1486 -0.5246 -0.4219
 4052SOL    HW123789   4.117   2.768  13.966 -0.2267 -0.5188  0.2670
 4052SOL    HW223790   4.146   2.902  14.016  0.5231 -0.4489  0.5459
 4053SOL     OW23791   3.956   3.351   1.105 -0.1096 -0.2242  0.4938
 4053SOL    HW123792   3.916   3.363   1.019 -2.4165 -0.5407  1.5262
 4053SOL    HW223793   3.906   3.277   1.137  1.0598 -0.7721  1.0634
 4054SOL     OW23794   1.853   3.268  11.970 -0.1006  0.4627  0.5152
 4054SOL    HW123795   1.844   3.196  12.032  1.4928 -0.0063  0.1959
 4054SOL    HW223796   1.949   3.276  11.969 -0.0204 -0.5439 -0.3781
 4055SOL     OW23797   0.323   1.013   3.561  0.3074  0.5249 -0.3270
 4055SOL    HW123798   0.356   0.933   3.603 -0.8867 -0.8548 -1.9845
 4055SOL    HW223799   0.371   1.084   3.602  0.7641  0.8352 -1.3767
 4056SOL     OW23800   0.149   4.438  13.540 -0.1823  0.4355  0.2880
 4056SOL    HW123801   0.151   4.351  13.581  2.1256  1.3596  2.1830
 4056SOL    HW223802   0.058   4.464  13.527 -0.4303 -0.9217 -0.6767
 4057SOL     OW23803   2.094   1.225   7.787  0.0139  0.1187  0.1887
 4057SOL    HW123804   2.125   1.190   7.871 -0.3746 -0.8310 -0.0574
 4057SOL    HW223805   2.052   1.303   7.823 -1.0594 -1.5205  2.5319
 4058SOL     OW23806   3.776   2.074   5.495 -0.6261 -0.5203  0.0679
 4058SOL    HW123807   3.718   2.087   5.570 -0.0206  0.4937  0.3670
 4058SOL    HW223808   3.857   2.046   5.537 -0.4065  0.5801  0.3779
 4059SOL     OW23809   1.148   3.931  15.410  0.0310  0.1843 -0.0887
 4059SOL    HW123810   1.055   3.954  15.414 -0.1487 -0.6655  0.6099
 4059SOL    HW223811   1.150   3.900  15.501  0.4011  0.1203 -0.1180
 4060SOL     OW23812   3.685   3.430   4.300 -0.2898  0.5349  0.5018
 4060SOL    HW123813   3.648   3.350   4.263  0.7586 -0.3682  1.4064
 4060SOL    HW223814   3.769   3.394   4.329 -0.5106  0.3987  0.9796
 4061SOL     OW23815   0.548   1.769   4.795  0.1044 -0.0359 -0.1871
 4061SOL    HW123816   0.522   1.776   4.703 -1.2073 -0.2311  0.1775
 4061SOL    HW223817   0.613   1.698   4.800  0.0625  0.0947  2.0685
 4062SOL     OW23818   3.732   2.201  16.710  0.3173  0.3189  0.3131
 4062SOL    HW123819   3.742   2.112  16.746  2.0459 -0.1163 -1.2572
 4062SOL    HW223820   3.824   2.219  16.730  0.1926 -0.1884  1.3441
 4063SOL     OW23821   1.560   2.805   4.601  0.4841  0.1232  0.1359
 4063SOL    HW123822   1.473   2.845   4.605  1.1842  1.5495  1.1058
 4063SOL    HW223823   1.549   2.713   4.627  1.1255  0.3236  1.1396
 4064SOL     OW23824   4.434   3.794  10.473  0.4395  0.2303 -0.1595
 4064SOL    HW123825   4.461   3.850  10.400 -0.2358 -0.9588 -1.3172
 4064SOL    HW223826   4.345   3.772  10.444 -0.6297  1.5822  2.0575
 4065SOL     OW23827   1.270   1.836  15.084 -0.5059  0.0772  0.2290
 4065SOL    HW123828   1.222   1.820  15.004  0.0672  0.5646 -0.2166
 4065SOL    HW223829   1.327   1.906  15.051 -0.5255 -0.1331 -0.2387
 4066SOL     OW23830   1.505   2.610  17.669 -0.0167  0.0834 -0.6271
 4066SOL    HW123831   1.413   2.630  17.649 -0.9597 -2.3680  1.3248
 4066SOL    HW223832   1.481   2.535  17.723 -0.5465  0.7183  0.0235
 4067SOL     OW23833   1.581   4.482   2.149  0.3054 -0.4632  0.4297
 4067SOL    HW123834   1.520   4.412   2.174 -0.0836 -0.3200 -0.1227
 4067SOL    HW223835   1.636   4.488   2.227 -0.2142  1.2692  0.6794
 4068SOL     OW23836   0.006   1.371   7.532 -0.0387 -0.1503 -0.0964
 4068SOL    HW123837   4.724   1.331   7.447 -0.1249  2.0208 -1.1144
 4068SOL    HW223838   0.082   1.426   7.510 -0.7126  1.3909  1.3851
 4069SOL     OW23839   0.902   2.371   5.228 -0.4038 -0.3606  0.7568
 4069SOL    HW123840   0.974   2.421   5.266  0.5079 -0.7963 -0.4010
 4069SOL    HW223841   0.854   2.428   5.168 -0.3345 -1.0196  0.0814
 4070SOL     OW23842   3.459   2.183   3.803  0.3494 -0.0532 -0.5438
 4070SOL    HW123843   3.411   2.184   3.720  2.2439  1.7869 -1.6191
 4070SOL    HW223844   3.386   2.155   3.859  0.7446 -0.4035 -0.2025
 4071SOL     OW23845   1.017   4.552   0.841 -0.3823  0.0758  0.3804
 4071SOL    HW123846   1.056   4.494   0.906 -0.0830  2.3100  2.2220
 4071SOL    HW223847   1.093   4.571   0.786 -0.2410  2.3430  1.3466
 4072SOL     OW23848   4.459   0.523  10.933  0.1635 -0.0252  0.0610
 4072SOL    HW123849   4.372   0.557  10.951 -0.4520 -2.9061  2.4906
 4072SOL    HW223850   4.481   0.567  10.851  1.6527  0.9863  1.0165
 4073SOL     OW23851   3.112   4.598  15.753  0.2670  0.0153 -0.7958
 4073SOL    HW123852   3.136   4.507  15.736  2.2307  0.3433  0.2147
 4073SOL    HW223853   3.037   4.586  15.811  0.4669  1.3267 -0.2818
 4074SOL     OW23854   0.163   0.283  11.045  0.4799 -0.5155 -0.2749
 4074SOL    HW123855   0.122   0.354  10.995  0.1058  0.7946  1.9305
 4074SOL    HW223856   0.147   0.208  10.988  2.4909 -1.2648  0.1456
 4075SOL     OW23857   4.038   1.639   7.104 -0.7295 -0.1919 -0.4198
 4075SOL    HW123858   4.082   1.721   7.084  1.9440 -1.9634 -1.7491
 4075SOL    HW223859   3.957   1.672   7.144 -1.5591 -0.3623 -1.9300
 4076SOL     OW23860   4.509   3.399  13.400 -0.7176  0.4962 -0.2491
 4076SOL    HW123861   4.536   3.382  13.310  0.9070 -2.0258  0.7034
 4076SOL    HW223862   4.597   3.414  13.435 -0.4159  0.7176 -1.1065
 4077SOL     OW23863   1.567   2.610  12.442 -0.3592  0.3002  0.1604
 4077SOL    HW123864   1.634   2.653  12.494 -0.5577 -1.2937  1.7525
 4077SOL    HW223865   1.539   2.540  12.501  1.3326 -0.1964  0.3792
 4078SOL     OW23866   0.332   1.480   4.610  0.2949 -0.0556  0.5710
 4078SOL    HW123867   0.237   1.474   4.605  0.5130 -2.3361 -0.9131
 4078SOL    HW223868   0.361   1.421   4.540  2.2140  0.0771  1.2464
 4079SOL     OW23869   0.552   2.481   5.180 -0.3962 -0.1001 -0.0473
 4079SOL    HW123870   0.490   2.542   5.140  0.5902  0.4869 -0.7016
 4079SOL    HW223871   0.623   2.545   5.191 -1.7301  1.0982  1.5525
 4080SOL     OW23872   2.903   1.130   4.557  0.0300 -0.0766 -0.3495
 4080SOL    HW123873   2.901   1.084   4.473 -1.1920 -1.4034  0.3983
 4080SOL    HW223874   2.838   1.093   4.617  1.4258  0.1834  1.3420
 4081SOL     OW23875   2.518   3.797  16.477 -0.0690 -0.0246  0.0298
 4081SOL    HW123876   2.578   3.868  16.454 -1.5711  1.9484  2.1261
 4081SOL    HW223877   2.458   3.832  16.543  0.3441 -0.2287  0.5128
 4082SOL     OW23878   4.696   3.393   7.329  0.3779 -0.5165  0.0184
 4082SOL    HW123879   4.644   3.411   7.251 -1.6595  0.0711  1.5099
 4082SOL    HW223880   0.036   3.450   7.315  2.0235 -2.2273  2.0099
 4083SOL     OW23881   1.059   3.061   4.877  0.4134  0.2018  0.1986
 4083SOL    HW123882   1.108   2.979   4.875  0.4894  0.2413  0.4916
 4083SOL    HW223883   1.088   3.105   4.797 -1.5829 -0.9647 -1.1810
 4084SOL     OW23884   4.352   1.183  16.637  0.1140  0.1544  0.4716
 4084SOL    HW123885   4.376   1.228  16.718  2.0241  1.7026 -0.9694
 4084SOL    HW223886   4.439   1.164  16.602 -0.1889  0.1304 -0.2629
 4085SOL     OW23887   1.577   3.045   0.248 -0.0077  0.1564  0.0850
 4085SOL    HW123888   1.520   3.029   0.323  0.4402 -0.5296  0.2849
 4085SOL    HW223889   1.529   2.994   0.183  0.5217 -1.9862  1.3713
 4086SOL     OW23890   2.218   3.155   5.602  0.8425  0.3305 -0.3481
 4086SOL    HW123891   2.179   3.071   5.580 -1.8594  0.4566  4.0690
 4086SOL    HW223892   2.156   3.213   5.558  0.5783  0.7549  0.5802
 4087SOL     OW23893   0.173   4.619   8.249 -0.3226 -0.0776  0.5130
 4087SOL    HW123894   0.129   4.669   8.318  2.3891  0.4877  1.8253
 4087SOL    HW223895   0.260   4.660   8.251 -0.7318  0.9464 -2.9623
 4088SOL     OW23896   0.976   4.712   8.384 -0.3845 -0.5175  0.4711
 4088SOL    HW123897   1.033   0.054   8.387 -0.2883 -0.5592 -0.3305
 4088SOL    HW223898   1.034   4.639   8.367  0.4582 -0.1959  1.9359
 4089SOL     OW23899   3.278   1.023   6.176 -0.3902  0.0926  0.0833
 4089SOL    HW123900   3.357   0.974   6.199 -0.4301 -0.1292 -0.2495
 4089SOL    HW223901   3.211   1.008   6.243 -2.7342  3.0315 -1.5841
 4090SOL     OW23902   4.498   0.282   6.823 -0.1767 -0.4615  0.6051
 4090SOL    HW123903   4.521   0.272   6.916  1.9382 -3.3296 -0.2272
 4090SOL    HW223904   4.576   0.258   6.773  0.1028  0.2314  0.7133
 4091SOL     OW23905   1.109   4.307   6.554 -0.3143 -0.1635 -0.0584
 4091SOL    HW123906   1.102   4.290   6.460  1.1539  1.7008 -0.5220
 4091SOL    HW223907   1.021   4.275   6.573 -0.3193 -0.4945 -0.6222
 4092SOL     OW23908   4.255   2.290   3.230 -0.1813 -0.2547  0.3979
 4092SOL    HW123909   4.176   2.342   3.241 -1.4244 -1.7757 -1.2837
 4092SOL    HW223910   4.318   2.349   3.271  2.3896 -3.9547  1.8610
 4093SOL     OW23911   1.223   0.432  10.337 -0.1255  0.0516  0.1729
 4093SOL    HW123912   1.159   0.397  10.400 -2.4934  1.6297 -1.3731
 4093SOL    HW223913   1.199   0.384  10.258  3.0285  1.4146 -1.5965
 4094SOL     OW23914   3.200   1.753  17.461  0.1796 -0.6477  0.4531
 4094SOL    HW123915   3.218   1.733  17.369  2.2822  1.5461  0.3956
 4094SOL    HW223916   3.285   1.766  17.503  0.0748 -3.1018  1.4128
 4095SOL     OW23917   2.105   2.483   9.100  0.8436 -0.1266 -0.5582
 4095SOL    HW123918   2.085   2.495   9.007 -0.5034  1.2250 -0.0915
 4095SOL    HW223919   2.200   2.493   9.111  0.6463 -0.0037  1.0394
 4096SOL     OW23920   3.195   1.008   8.758  0.0368  0.0219 -0.3382
 4096SOL    HW123921   3.175   0.944   8.827 -1.8158  2.2633  1.1982
 4096SOL    HW223922   3.150   0.965   8.685 -0.7026 -2.2595  1.4468
 4097SOL     OW23923   2.984   1.269   7.568  0.3434  0.3691 -0.2290
 4097SOL    HW123924   3.009   1.233   7.654  1.8655  0.8402 -0.4644
 4097SOL    HW223925   3.067   1.249   7.524  1.4512  1.0241  1.5580
 4098SOL     OW23926   3.489   0.100   3.813 -0.3162 -0.4182  0.6978
 4098SOL    HW123927   3.529   0.169   3.759 -1.5648 -1.4719 -1.5716
 4098SOL    HW223928   3.536   0.126   3.891 -1.2925 -1.7433  1.7263
 4099SOL     OW23929   1.675   4.425   8.726  0.0096 -0.0883  0.1433
 4099SOL    HW123930   1.652   4.427   8.633  1.7646 -0.0851 -0.2901
 4099SOL    HW223931   1.725   4.506   8.736 -1.5978  0.6380  2.1698
 4100SOL     OW23932   3.026   2.695  14.173  0.0237  0.2421  0.3577
 4100SOL    HW123933   2.978   2.769  14.137 -0.8237 -0.4597  0.0483
 4100SOL    HW223934   3.115   2.724  14.152 -1.3213  1.3683 -3.6920
 4101SOL     OW23935   0.158   0.269   4.239 -0.5730 -0.3225  0.1996
 4101SOL    HW123936   0.242   0.268   4.193 -0.0601 -1.2829  1.1860
 4101SOL    HW223937   0.135   0.362   4.227  0.4109 -0.3210 -1.7183
 4102SOL     OW23938   0.225   0.416   4.011  0.7390  0.3551 -0.8325
 4102SOL    HW123939   0.275   0.359   3.952 -1.5935 -1.6534 -0.8732
 4102SOL    HW223940   0.246   0.497   3.965  1.5820  0.7770  0.3256
 4103SOL     OW23941   3.383   3.852  10.903  0.3541  0.2448  0.2701
 4103SOL    HW123942   3.445   3.813  10.964  0.1339  2.3680  1.8807
 4103SOL    HW223943   3.321   3.879  10.971 -0.3115  0.7519 -0.5462
 4104SOL     OW23944   0.388   3.241   7.435  0.6291 -0.2862  0.3461
 4104SOL    HW123945   0.300   3.230   7.401 -0.4055  1.0441  2.5904
 4104SOL    HW223946   0.410   3.148   7.430 -1.3684 -0.7653  0.4820
 4105SOL     OW23947   3.493   1.112  16.001  0.0408  0.0495 -0.6105
 4105SOL    HW123948   3.471   1.020  16.012 -1.1076  0.4355  0.2232
 4105SOL    HW223949   3.447   1.151  16.075 -1.7169 -1.0986 -1.1151
 4106SOL     OW23950   1.578   1.300   1.111 -0.0843 -0.0432  0.0771
 4106SOL    HW123951   1.639   1.334   1.177 -2.5146 -0.9289  2.7851
 4106SOL    HW223952   1.567   1.216   1.156 -2.8569  0.2135 -0.1507
 4107SOL     OW23953   1.650   2.114   0.038 -0.3447 -0.5106  0.1525
 4107SOL    HW123954   1.627   2.119  17.684  1.8671  0.6622 -0.3360
 4107SOL    HW223955   1.567   2.090   0.079 -0.2916 -1.6070 -0.3837
 4108SOL     OW23956   2.990   0.146   9.185 -0.0393  0.1837 -0.2361
 4108SOL    HW123957   3.054   0.213   9.161  0.6103  0.2768  1.7783
 4108SOL    HW223958   3.003   0.125   9.277  0.3451 -0.5217 -0.4584
 4109SOL     OW23959   1.321   1.622  15.700  0.1905 -0.2802 -0.4326
 4109SOL    HW123960   1.403   1.572  15.701 -0.1164 -0.6940  3.1312
 4109SOL    HW223961   1.315   1.645  15.793 -0.6957 -0.2879 -0.4907
 4110SOL     OW23962   0.711   0.134   3.109 -0.3166 -0.0726  0.0453
 4110SOL    HW123963   0.711   0.226   3.084 -1.2354 -0.3437 -0.9388
 4110SOL    HW223964   0.689   0.139   3.202 -1.6508 -1.5727 -0.1851
 4111SOL     OW23965   4.268   3.501  12.206 -0.0206  0.1352  0.1707
 4111SOL    HW123966   4.338   3.445  12.240  0.8647 -0.3080 -2.3919
 4111SOL    HW223967   4.290   3.487  12.114 -3.0807  0.9265 -0.6956
 4112SOL     OW23968   0.002   0.227  11.287  0.2520 -0.3700  0.0857
 4112SOL    HW123969   0.046   0.207  11.205  0.4994  0.2646  0.0636
 4112SOL    HW223970   4.663   0.276  11.251 -0.5194  0.5696  2.9568
 4113SOL     OW23971   1.917   0.863   5.358 -0.0392 -0.5542 -0.4766
 4113SOL    HW123972   1.962   0.846   5.276 -0.0434 -0.5052 -0.4892
 4113SOL    HW223973   1.948   0.792   5.414  2.6281  1.1621  0.2258
 4114SOL     OW23974   3.232   0.701   2.752  0.1003  0.2843  0.1601
 4114SOL    HW123975   3.282   0.715   2.671 -0.8429  0.1072 -0.4561
 4114SOL    HW223976   3.236   0.607   2.767  1.1344  0.3057 -0.0277
 4115SOL     OW23977   4.092   0.574   0.100  0.6146  0.0210 -0.0648
 4115SOL    HW123978   4.109   0.658   0.058  0.1623 -1.6122 -3.5241
 4115SOL    HW223979   4.040   0.603   0.175  1.3250 -0.4385  0.5989
 4116SOL     OW23980   3.244   1.137   6.504 -0.4465  0.4858  0.1178
 4116SOL    HW123981   3.208   1.108   6.588 -0.2870  3.0357  1.0846
 4116SOL    HW223982   3.179   1.198   6.469 -1.2250 -2.6933 -3.9611
 4117SOL     OW23983   1.266   4.286   9.555 -0.3017 -0.4992 -0.5594
 4117SOL    HW123984   1.179   4.319   9.532  0.6748  0.6473 -2.5046
 4117SOL    HW223985   1.282   4.231   9.478  0.9412  0.2457 -0.8172
 4118SOL     OW23986   4.707   1.853   4.770 -0.0362 -0.3138  0.1982
 4118SOL    HW123987   4.723   1.840   4.863  0.0844  0.8565  0.3458
 4118SOL    HW223988   4.620   1.894   4.765  0.1759  0.0186 -0.8508
 4119SOL     OW23989   0.332   0.539   7.796 -0.2536 -0.1701  0.2278
 4119SOL    HW123990   0.385   0.480   7.850 -0.9101 -2.3116 -1.4799
 4119SOL    HW223991   0.265   0.550   7.863 -1.3937 -1.8496 -0.6572
 4120SOL     OW23992   2.357   4.323   5.376  0.2829 -0.3509  0.5769
 4120SOL    HW123993   2.340   4.411   5.343 -0.2365 -0.0949  1.5332
 4120SOL    HW223994   2.448   4.348   5.396  0.8174 -0.6720 -1.4729
 4121SOL     OW23995   4.642   1.311   4.332  0.1850  0.0822  0.5043
 4121SOL    HW123996   0.001   1.294   4.335 -0.0834 -1.4389  0.2647
 4121SOL    HW223997   4.614   1.231   4.287 -0.9866  1.1855 -0.7294
 4122SOL     OW23998   0.677   3.420   5.353  0.7221 -0.3007  0.0472
 4122SOL    HW123999   0.689   3.508   5.318 -0.2365 -0.3496 -0.3969
 4122SOL    HW224000   0.722   3.367   5.287  0.4340 -0.2223 -0.2108
 4123SOL     OW24001   2.832   0.908  12.806  0.1349  0.0043  0.3516
 4123SOL    HW124002   2.768   0.903  12.735  0.5476  2.0328 -0.1606
 4123SOL    HW224003   2.786   0.867  12.879 -0.6208  1.8356  0.9039
 4124SOL     OW24004   1.024   4.416   7.913  0.0385 -0.1499 -0.5500
 4124SOL    HW124005   1.053   4.325   7.925  0.1016 -0.0009  0.4906
 4124SOL    HW224006   1.023   4.422   7.818 -1.0819 -0.4986 -0.5559
 4125SOL     OW24007   2.657   0.757   6.775 -0.5523 -0.2096  0.1468
 4125SOL    HW124008   2.733   0.777   6.830 -0.6859  1.1401 -0.1624
 4125SOL    HW224009   2.658   0.842   6.730  1.6141  0.1589  0.8898
 4126SOL     OW24010   4.385   4.175  14.419  1.3806 -0.3605  0.8008
 4126SOL    HW124011   4.410   4.197  14.329 -1.3123 -0.3958  0.0353
 4126SOL    HW224012   4.291   4.192  14.420  1.1638 -1.2718 -2.9475
 4127SOL     OW24013   4.682   0.876   4.468  0.2084  0.1783  0.4373
 4127SOL    HW124014   4.677   0.794   4.418 -0.0651  0.5736 -0.1863
 4127SOL    HW224015   0.036   0.908   4.459 -0.3575  2.4033  2.8332
 4128SOL     OW24016   4.507   1.657   5.648 -0.2245  0.1999 -0.4339
 4128SOL    HW124017   4.470   1.695   5.728 -0.3113 -1.9553  0.5589
 4128SOL    HW224018   4.599   1.656   5.674  0.0055  2.4415 -1.1267
 4129SOL     OW24019   3.043   1.178  10.378  0.1118  0.2895  0.3087
 4129SOL    HW124020   3.107   1.126  10.330 -0.1649  0.1216  0.1216
 4129SOL    HW224021   3.067   1.264  10.344 -2.0006  0.5021 -0.6336
 4130SOL     OW24022   0.238   3.938  14.646 -0.1413  0.4314 -0.0878
 4130SOL    HW124023   0.321   3.982  14.663  1.6833 -2.7071 -0.8018
 4130SOL    HW224024   0.255   3.845  14.628  0.7379  0.8160 -1.2570
 4131SOL     OW24025   2.128   0.761   7.871  0.2436 -0.6650  0.4275
 4131SOL    HW124026   2.045   0.722   7.898  1.2152 -3.2660 -0.2627
 4131SOL    HW224027   2.106   0.827   7.805 -3.0523 -2.3724 -0.1834
 4132SOL     OW24028   0.173   4.247  13.311 -0.3653  0.2251 -0.0557
 4132SOL    HW124029   0.175   4.201  13.395 -3.3707 -1.3216 -0.8481
 4132SOL    HW224030   0.267   4.267  13.303  0.4258 -2.5788  2.0980
 4133SOL     OW24031   4.234   2.217   2.407 -0.3976  0.3491 -0.1678
 4133SOL    HW124032   4.283   2.285   2.454  0.5227  0.6839 -1.6124
 4133SOL    HW224033   4.310   2.169   2.372  0.2008  0.6810  0.6610
 4134SOL     OW24034   4.230   2.606   1.760 -0.5344 -0.3390 -0.3167
 4134SOL    HW124035   4.198   2.617   1.850 -1.4370  0.9814 -0.8033
 4134SOL    HW224036   4.168   2.540   1.728 -0.0984  0.9071 -3.6535
 4135SOL     OW24037   1.521   0.804   3.222  0.0918  0.3987 -0.5871
 4135SOL    HW124038   1.500   0.759   3.140 -0.1766  2.3680 -1.6124
 4135SOL    HW224039   1.579   0.876   3.197  1.2808 -0.6317 -0.7460
 4136SOL     OW24040   3.503   3.234   8.212 -1.2585  0.2675  0.6349
 4136SOL    HW124041   3.473   3.150   8.245 -1.8593 -0.1619 -0.9790
 4136SOL    HW224042   3.585   3.210   8.167 -0.7209  0.2539  1.6315
 4137SOL     OW24043   1.273   2.541   1.072 -0.2889 -0.3169 -0.6600
 4137SOL    HW124044   1.230   2.465   1.032  0.8860 -1.5743  0.4829
 4137SOL    HW224045   1.271   2.520   1.165  2.1231  2.3670 -0.0127
 4138SOL     OW24046   4.517   0.729   8.056 -0.6309  0.5098 -0.4545
 4138SOL    HW124047   4.567   0.749   8.135  1.1798 -1.1505 -1.1644
 4138SOL    HW224048   4.483   0.643   8.081  0.4802  0.5897  1.3664
 4139SOL     OW24049   4.656   0.190   7.830 -1.1289  0.1955  0.6283
 4139SOL    HW124050   4.651   0.188   7.925 -0.7218 -1.3010  0.6254
 4139SOL    HW224051   4.601   0.116   7.803  0.9898 -1.7211  1.5429
 4140SOL     OW24052   4.175   2.069   8.045  0.0795  0.2817  0.8287
 4140SOL    HW124053   4.105   2.094   8.105  1.9328  0.7473  2.7723
 4140SOL    HW224054   4.238   2.141   8.039  0.9219 -0.4960  0.3170
 4141SOL     OW24055   0.441   2.061   0.620 -0.4289  0.2795  0.1766
 4141SOL    HW124056   0.482   2.038   0.537 -0.5109  0.0876  0.1892
 4141SOL    HW224057   0.351   2.049   0.589 -0.2380 -0.4283 -0.0908
 4142SOL     OW24058   2.840   4.355   2.630  0.6054  0.1475 -0.4636
 4142SOL    HW124059   2.797   4.308   2.701 -0.9083  0.6987 -0.9985
 4142SOL    HW224060   2.919   4.302   2.630  0.5704  0.0980 -3.4149
 4143SOL     OW24061   2.541   0.510   3.960  0.2046 -0.4023 -0.3540
 4143SOL    HW124062   2.587   0.592   3.978 -0.8991  0.0578  0.3676
 4143SOL    HW224063   2.618   0.452   3.964 -0.2420 -0.7407  3.2263
 4144SOL     OW24064   1.590   4.184  10.364 -0.7535  0.1307 -0.2595
 4144SOL    HW124065   1.636   4.107  10.332  1.5206  1.3204  0.1170
 4144SOL    HW224066   1.603   4.259  10.305 -0.3777  0.6576  0.4890
 4145SOL     OW24067   2.216   1.653  13.069  0.4111 -0.4310 -0.1202
 4145SOL    HW124068   2.140   1.699  13.105 -0.5425 -1.9900 -0.1211
 4145SOL    HW224069   2.183   1.572  13.029  1.7438 -2.9304  3.7770
 4146SOL     OW24070   2.434   4.415   2.945 -0.2656  0.2062 -0.1653
 4146SOL    HW124071   2.441   4.424   3.040  1.1667  0.3319 -0.2786
 4146SOL    HW224072   2.510   4.460   2.908  0.5189  0.4790  1.8076
 4147SOL     OW24073   2.633   3.146   3.596  0.1395  0.2552 -0.9994
 4147SOL    HW124074   2.589   3.218   3.642 -0.3884 -0.6902 -0.0216
 4147SOL    HW224075   2.612   3.062   3.636  1.5431 -0.3268 -1.4924
 4148SOL     OW24076   1.713   0.304  15.436 -0.0412  0.1812  0.4955
 4148SOL    HW124077   1.740   0.295  15.345  0.5330  2.5594  0.4233
 4148SOL    HW224078   1.784   0.345  15.486  1.4224 -1.6874 -0.0528
 4149SOL     OW24079   1.200   0.270  17.266 -0.6199 -0.1365  0.1155
 4149SOL    HW124080   1.136   0.299  17.331  1.2832 -0.1699  1.9925
 4149SOL    HW224081   1.160   0.308  17.187  0.8411  0.3540 -0.3807
 4150SOL     OW24082   3.859   2.198  12.630 -0.6129  0.0550  0.0749
 4150SOL    HW124083   3.950   2.226  12.627  0.2238 -2.8408 -1.1632
 4150SOL    HW224084   3.859   2.135  12.558 -0.7798 -0.0182  0.1391
 4151SOL     OW24085   0.891   4.279   5.177 -0.1360 -0.3404  0.0969
 4151SOL    HW124086   0.899   4.324   5.092 -1.2944  1.6138  1.0252
 4151SOL    HW224087   0.835   4.208   5.148 -0.6274  0.2573 -0.4356
 4152SOL     OW24088   3.143   4.217   7.154 -0.2508 -0.0854  0.0878
 4152SOL    HW124089   3.161   4.220   7.248  0.6245 -3.4866  0.0069
 4152SOL    HW224090   3.099   4.132   7.149  2.3910 -1.5266  1.1605
 4153SOL     OW24091   0.609   4.517   6.956  0.1133 -0.5601 -0.3352
 4153SOL    HW124092   0.654   4.435   6.976  0.2096 -0.4452 -0.0816
 4153SOL    HW224093   0.687   4.569   6.976  1.2698 -2.0036 -1.1819
 4154SOL     OW24094   0.648   0.811   4.718  1.1305 -0.0298  0.6336
 4154SOL    HW124095   0.631   0.735   4.775 -1.4102 -0.2001 -0.3272
 4154SOL    HW224096   0.720   0.855   4.763  2.3476  0.5563 -1.9368
 4155SOL     OW24097   3.570   0.173   6.139 -0.5349 -0.2385 -0.5780
 4155SOL    HW124098   3.478   0.201   6.145 -0.4321 -0.0634  0.1964
 4155SOL    HW224099   3.592   0.146   6.229  0.3715 -1.2892 -1.1195
 4156SOL     OW24100   1.953   2.418   3.774  0.5227 -0.1335  0.6476
 4156SOL    HW124101   1.960   2.512   3.791  3.0893 -0.2193  0.0506
 4156SOL    HW224102   1.999   2.415   3.690 -0.4356 -0.4944  0.1354
 4157SOL     OW24103   0.492   3.742   3.640 -0.5613 -0.3992  0.3915
 4157SOL    HW124104   0.492   3.835   3.663  1.4218 -0.0640 -0.9831
 4157SOL    HW224105   0.519   3.706   3.724 -0.0839  1.4959  1.0477
 4158SOL     OW24106   2.604   0.353   3.114  0.0299  0.4920 -0.5552
 4158SOL    HW124107   2.638   0.431   3.069  1.5445  0.6981  0.9674
 4158SOL    HW224108   2.660   0.358   3.191  1.3757 -2.6023 -1.3255
 4159SOL     OW24109   0.344   3.202  17.303 -0.2591  0.0304 -0.0066
 4159SOL    HW124110   0.261   3.161  17.327 -0.7548  1.6491  1.0431
 4159SOL    HW224111   0.402   3.158  17.365  0.3116 -1.4104 -1.5570
 4160SOL     OW24112   3.095   4.640   2.271  0.0202  0.0810 -0.3931
 4160SOL    HW124113   3.105   4.701   2.198 -4.2110  0.4280 -0.7360
 4160SOL    HW224114   3.054   4.561   2.236 -1.1283 -0.5484  2.3588
 4161SOL     OW24115   2.259   1.123   3.663 -0.4505 -0.4096 -0.2595
 4161SOL    HW124116   2.240   1.029   3.670 -0.8046 -0.1192  2.4917
 4161SOL    HW224117   2.320   1.133   3.589 -0.5966  0.3517 -0.2753
 4162SOL     OW24118   4.620   2.209   4.602 -0.5480  0.3642 -0.6800
 4162SOL    HW124119   4.637   2.121   4.566 -2.7504 -0.9829  1.5621
 4162SOL    HW224120   4.686   2.260   4.555 -1.9912  0.7767 -2.2569
 4163SOL     OW24121   1.331   2.473   7.433  0.4362 -0.3453 -0.6499
 4163SOL    HW124122   1.370   2.416   7.368  0.8068 -1.1929  0.3240
 4163SOL    HW224123   1.308   2.548   7.377 -2.0065 -0.6780 -0.0875
 4164SOL     OW24124   2.261   1.983  10.770  0.0231 -0.3231  0.2006
 4164SOL    HW124125   2.289   2.054  10.829 -0.4140  0.4006 -0.4565
 4164SOL    HW224126   2.268   1.908  10.829 -0.9792 -1.4097 -1.0641
 4165SOL     OW24127   2.959   3.241   7.646 -0.2249 -0.2934 -0.5705
 4165SOL    HW124128   2.915   3.176   7.702 -1.6737  0.8441 -0.3829
 4165SOL    HW224129   2.964   3.320   7.700  1.2843 -1.8482  1.5905
 4166SOL     OW24130   3.689   2.195   7.037  0.9001  0.2146 -0.0730
 4166SOL    HW124131   3.754   2.266   7.034  1.3001 -0.3093 -2.9266
 4166SOL    HW224132   3.703   2.169   6.946 -1.1652  1.4931 -0.7431
 4167SOL     OW24133   2.727   0.310   4.519  0.0979  0.2379 -0.0442
 4167SOL    HW124134   2.733   0.252   4.443 -0.3377 -1.2890  1.0842
 4167SOL    HW224135   2.638   0.342   4.507  0.2986  0.3465 -1.2767
 4168SOL     OW24136   4.651   3.726  10.612  0.1938 -0.3326  0.2344
 4168SOL    HW124137   4.566   3.759  10.583  1.4679  0.7461 -2.2556
 4168SOL    HW224138   4.710   3.801  10.606 -0.2352 -0.0652 -0.6519
 4169SOL     OW24139   1.969   3.275   6.069 -0.3639  0.8785 -0.0544
 4169SOL    HW124140   1.987   3.205   6.006  2.0579  0.8684  0.6432
 4169SOL    HW224141   2.047   3.274   6.124 -0.2008 -1.2438 -0.3467
 4170SOL     OW24142   1.116   1.533  14.940 -0.0686  0.1462 -0.0494
 4170SOL    HW124143   1.202   1.495  14.960 -0.6313  0.2372  2.6182
 4170SOL    HW224144   1.058   1.458  14.954  0.3674 -0.0624  0.6513
 4171SOL     OW24145   3.692   3.344  17.708 -0.0331  0.1175 -0.3000
 4171SOL    HW124146   3.732   3.399   0.036 -0.1213 -3.5551  2.7195
 4171SOL    HW224147   3.657   3.415  17.653 -0.5141  2.7628  3.4433
 4172SOL     OW24148   1.599   0.010  12.397  0.0724 -0.1704  0.1366
 4172SOL    HW124149   1.606   4.714  12.487  0.7260 -1.5554 -0.4061
 4172SOL    HW224150   1.505   0.029  12.395 -0.1979 -1.4810  1.0220
 4173SOL     OW24151   3.749   3.469   4.016  0.6973  0.3213 -0.1594
 4173SOL    HW124152   3.802   3.401   4.056  2.3353  1.6555 -0.0908
 4173SOL    HW224153   3.699   3.493   4.094  0.7323  1.4447 -0.4846
 4174SOL     OW24154   2.492   0.897  17.313 -0.0720  0.1262 -0.4566
 4174SOL    HW124155   2.489   0.810  17.274  0.2548 -0.2382  0.3387
 4174SOL    HW224156   2.585   0.919  17.313 -0.4722  1.7946 -0.6440
 4175SOL     OW24157   1.558   1.746  15.569  0.4589  0.8145  0.6219
 4175SOL    HW124158   1.536   1.735  15.662  0.5635 -0.4818  0.4952
 4175SOL    HW224159   1.527   1.660  15.539  0.0880  1.5765 -1.1436
 4176SOL     OW24160   1.515   1.939  12.277 -0.0801  0.6436  0.3027
 4176SOL    HW124161   1.443   1.886  12.243 -0.6330  1.7460 -0.2198
 4176SOL    HW224162   1.544   1.970  12.191 -1.2721  0.8229 -0.0380
 4177SOL     OW24163   0.080   2.524  11.649 -0.2254 -0.3666  0.3640
 4177SOL    HW124164   0.038   2.442  11.675 -1.3211 -0.2518 -1.0162
 4177SOL    HW224165   0.015   2.570  11.596 -2.7565 -2.2378  1.8251
 4178SOL     OW24166   4.663   0.424  13.285 -0.0526  0.3315  0.2282
 4178SOL    HW124167   4.734   0.435  13.349  0.1276  1.8064 -0.2245
 4178SOL    HW224168   4.640   0.516  13.276 -2.6974 -0.4171 -0.5038
 4179SOL     OW24169   0.054   2.861   1.141  0.4519  0.3486  0.3211
 4179SOL    HW124170   0.094   2.932   1.191 -0.9301  0.1719  1.6589
 4179SOL    HW224171   0.134   2.832   1.097  0.1817  1.8948 -1.2098
 4180SOL     OW24172   4.729   3.594   4.837  0.3289 -0.4258 -0.5684
 4180SOL    HW124173   0.048   3.530   4.790 -0.4099 -0.4384 -1.3894
 4180SOL    HW224174   4.662   3.540   4.878  2.4672 -0.9499  2.2925
 4181SOL     OW24175   1.866   2.817  11.783 -0.2500  0.3364  0.1738
 4181SOL    HW124176   1.779   2.854  11.799 -1.0851 -0.3839 -2.6607
 4181SOL    HW224177   1.902   2.868  11.710 -0.3783 -0.8235 -0.7081
 4182SOL     OW24178   3.922   4.134   6.347  0.1328  0.5098  0.1300
 4182SOL    HW124179   3.858   4.112   6.279 -0.2757 -0.5729  0.8658
 4182SOL    HW224180   3.878   4.211   6.382 -1.8483  0.0692 -1.4074
 4183SOL     OW24181   2.678   1.314  15.928 -0.7004 -0.6878 -0.0013
 4183SOL    HW124182   2.663   1.408  15.928 -2.1239 -0.9212 -2.5403
 4183SOL    HW224183   2.646   1.277  15.845 -0.9333  1.1686 -0.7215
 4184SOL     OW24184   3.095   1.245   5.336  0.0610 -0.2940 -0.1230
 4184SOL    HW124185   3.042   1.175   5.374 -0.7908 -1.6724 -3.8270
 4184SOL    HW224186   3.091   1.234   5.241 -1.5861  2.2849 -0.3585
 4185SOL     OW24187   1.212   4.217   3.936  0.7596 -0.0713  0.5312
 4185SOL    HW124188   1.207   4.188   4.027  2.3690 -0.0381  0.6303
 4185SOL    HW224189   1.211   4.311   3.955 -0.5053 -0.2573  1.4288
 4186SOL     OW24190   1.510   0.489  15.434  0.3069 -0.2162  0.2168
 4186SOL    HW124191   1.574   0.422  15.410 -0.0199 -0.5070  0.1618
 4186SOL    HW224192   1.534   0.494  15.526  0.0972 -0.9276  0.3088
 4187SOL     OW24193   2.973   3.618  13.810  0.2127 -0.3424 -0.1420
 4187SOL    HW124194   2.960   3.711  13.793 -2.1319 -0.5998  0.1656
 4187SOL    HW224195   3.051   3.606  13.756  0.5272 -1.0170  0.4593
 4188SOL     OW24196   0.672   0.828  11.298 -0.1108 -0.0658 -0.0772
 4188SOL    HW124197   0.754   0.779  11.304 -0.4183 -0.7835 -1.6979
 4188SOL    HW224198   0.605   0.759  11.288  0.3061 -0.3670 -0.7943
 4189SOL     OW24199   2.884   3.705   0.852 -0.3408 -0.2445 -0.6449
 4189SOL    HW124200   2.858   3.694   0.760  1.5797 -3.4703 -0.8203
 4189SOL    HW224201   2.805   3.752   0.876 -0.2990 -0.6642  0.2853
 4190SOL     OW24202   0.611   1.546   2.395 -0.2657  0.7328 -0.1693
 4190SOL    HW124203   0.682   1.487   2.367 -1.1282  0.1629 -1.1610
 4190SOL    HW224204   0.538   1.485   2.399  0.5355 -0.1289  1.0828
 4191SOL     OW24205   2.808   3.730  14.784 -0.9739 -0.1381  0.3238
 4191SOL    HW124206   2.754   3.723  14.704 -0.6490  0.9138  0.0206
 4191SOL    HW224207   2.880   3.675  14.754 -0.7817  0.9231 -1.1634
 4192SOL     OW24208   0.756   4.512  16.748 -0.4526 -0.9486  0.5194
 4192SOL    HW124209   0.797   4.588  16.791  0.5545 -0.2734 -1.6470
 4192SOL    HW224210   0.677   4.557  16.718  0.2200  0.4927  0.8977
 4193SOL     OW24211   0.272   4.449  12.721 -0.3520 -0.0200 -0.7015
 4193SOL    HW124212   0.361   4.433  12.755 -0.0885  0.8478 -0.9708
 4193SOL    HW224213   0.230   4.438  12.806 -0.7151  0.0782 -0.8721
 4194SOL     OW24214   0.727   3.478   1.512 -0.5235  0.3874 -0.5474
 4194SOL    HW124215   0.720   3.541   1.440 -0.3811  1.5674  0.4766
 4194SOL    HW224216   0.730   3.397   1.462  3.5053  1.3595 -1.9148
 4195SOL     OW24217   3.414   2.413   2.597 -0.4860 -0.2293  0.6623
 4195SOL    HW124218   3.467   2.480   2.639 -0.1626 -0.2947  0.3600
 4195SOL    HW224219   3.475   2.366   2.539 -1.4748  0.1717 -0.7057
 4196SOL     OW24220   3.834   0.138  13.142 -0.2094 -0.5207 -0.4757
 4196SOL    HW124221   3.756   0.123  13.195 -0.3036 -0.6761 -0.6589
 4196SOL    HW224222   3.801   0.109  13.057 -0.7956  0.7572 -0.6686
 4197SOL     OW24223   3.757   1.105   2.784  0.1039  0.1876  0.0212
 4197SOL    HW124224   3.666   1.098   2.814  0.2011  1.6031  0.6198
 4197SOL    HW224225   3.809   1.101   2.864  0.6156 -2.7302 -0.4431
 4198SOL     OW24226   0.853   2.155  15.799  0.3337  0.6513  0.0907
 4198SOL    HW124227   0.834   2.121  15.712 -0.0887 -1.1448  0.8860
 4198SOL    HW224228   0.768   2.190  15.825  0.0369 -0.6108  0.8480
 4199SOL     OW24229   0.159   1.004   2.325  0.5649  0.2927  0.1245
 4199SOL    HW124230   0.158   0.949   2.403  0.8055  0.0446 -0.0454
 4199SOL    HW224231   0.080   1.057   2.335  0.4540  0.1222  0.1572
 4200SOL     OW24232   3.164   4.111   3.598  0.5477  0.5357  0.5013
 4200SOL    HW124233   3.223   4.083   3.669  1.0049  1.5037  0.5061
 4200SOL    HW224234   3.077   4.088   3.631  1.7111  0.1168  3.3202
 4201SOL     OW24235   3.438   4.123   7.499  0.2999  0.2690  0.3932
 4201SOL    HW124236   3.385   4.202   7.492 -0.9550 -0.6315 -0.2652
 4201SOL    HW224237   3.502   4.153   7.564 -0.4609  2.4803  0.1136
 4202SOL     OW24238   4.262   0.996   2.065  0.1293  0.5726  0.2836
 4202SOL    HW124239   4.306   1.065   2.016 -0.1051  0.8539  0.4749
 4202SOL    HW224240   4.294   1.014   2.154  3.0892  0.0789 -0.6911
 4203SOL     OW24241   1.902   0.941   4.599 -0.5401 -0.2264 -0.0476
 4203SOL    HW124242   1.871   1.015   4.546 -1.2501  0.2773  1.0761
 4203SOL    HW224243   1.817   0.934   4.642 -0.2415 -0.5484  0.4894
 4204SOL     OW24244   1.394   2.517   0.667 -0.1619  0.4215  0.0093
 4204SOL    HW124245   1.450   2.513   0.590 -2.0806 -2.7255 -1.2187
 4204SOL    HW224246   1.425   2.439   0.713  2.5557  2.4279  1.6170
 4205SOL     OW24247   2.543   0.482   5.583  0.6217  0.0531 -0.6577
 4205SOL    HW124248   2.582   0.547   5.524  0.1422  0.3145 -0.6888
 4205SOL    HW224249   2.532   0.538   5.660 -1.1647  0.1052 -0.9314
 4206SOL     OW24250   3.306   2.443   7.524 -0.1910 -0.1604 -0.8369
 4206SOL    HW124251   3.362   2.510   7.563 -2.1260  0.4106  0.9683
 4206SOL    HW224252   3.271   2.397   7.600 -0.0109 -0.4563 -0.9324
 4207SOL     OW24253   0.616   0.104   7.369 -0.1536 -0.7723  0.2157
 4207SOL    HW124254   0.554   0.060   7.427 -1.8088  0.3449 -0.7208
 4207SOL    HW224255   0.655   0.027   7.326 -0.3219 -0.6711 -0.1167
 4208SOL     OW24256   4.048   1.356   7.934  0.0106  0.1733  0.0772
 4208SOL    HW124257   4.088   1.418   7.995  0.5903 -2.0006  1.8997
 4208SOL    HW224258   4.106   1.283   7.956 -0.3571  0.1979  1.1293
 4209SOL     OW24259   1.444   3.927   3.598 -0.3866 -0.2365 -0.7043
 4209SOL    HW124260   1.392   3.953   3.674 -1.8923  0.6061 -2.0092
 4209SOL    HW224261   1.384   3.954   3.528 -1.3009  0.3177  0.2922
 4210SOL     OW24262   1.217   3.753  11.099 -0.5698  1.0461  0.1726
 4210SOL    HW124263   1.203   3.723  11.009 -0.5373 -0.3554  0.6385
 4210SOL    HW224264   1.130   3.753  11.137 -1.1860 -1.4929 -1.2218
 4211SOL     OW24265   1.753   2.432   8.248  0.0243 -0.4462  0.1709
 4211SOL    HW124266   1.685   2.387   8.198  0.3700 -0.8142  0.0303
 4211SOL    HW224267   1.725   2.401   8.334 -0.8326 -2.3697 -0.7995
 4212SOL     OW24268   3.741   2.456   1.750 -0.0231  0.0947 -0.1934
 4212SOL    HW124269   3.736   2.393   1.822  1.5986 -1.9575 -1.8823
 4212SOL    HW224270   3.651   2.453   1.717 -0.8067 -2.1249  2.1128
 4213SOL     OW24271   1.089   3.878   3.805  0.4084 -0.0979  0.2676
 4213SOL    HW124272   1.152   3.863   3.875 -0.3490  0.4007  1.0518
 4213SOL    HW224273   1.137   3.944   3.755  1.3562 -0.5591  0.5574
 4214SOL     OW24274   1.953   4.296   9.063 -0.1054 -0.2784 -0.9463
 4214SOL    HW124275   2.026   4.297   9.001  1.1642 -1.2080  0.5386
 4214SOL    HW224276   1.999   4.258   9.138 -0.2871  1.6892  0.1605
 4215SOL     OW24277   3.282   1.852   2.973 -0.5904 -0.5771 -0.0428
 4215SOL    HW124278   3.288   1.762   3.004 -1.3897 -0.3536  0.8008
 4215SOL    HW224279   3.334   1.906   3.032 -1.9364 -1.7026  2.1889
 4216SOL     OW24280   1.870   2.193   4.136 -0.0489  0.5272  0.5433
 4216SOL    HW124281   1.838   2.118   4.187  0.2818  0.0332  0.0200
 4216SOL    HW224282   1.816   2.182   4.057 -0.6022  0.2277  0.9605
 4217SOL     OW24283   3.142   2.617   4.613  0.8150 -0.1236  0.3458
 4217SOL    HW124284   3.146   2.611   4.708 -2.2102 -0.3141  0.4639
 4217SOL    HW224285   3.106   2.530   4.594  0.0171  0.0162  1.2363
 4218SOL     OW24286   1.119   3.661  10.861 -0.2537 -0.2148  0.0854
 4218SOL    HW124287   1.056   3.641  10.930 -1.8878  2.9808 -0.4927
 4218SOL    HW224288   1.091   3.750  10.841 -1.7280 -0.7447 -0.1552
 4219SOL     OW24289   3.858   4.721   7.653 -1.1372 -0.3599 -0.2724
 4219SOL    HW124290   3.820   4.709   7.740 -0.0780  1.0062  0.3750
 4219SOL    HW224291   3.934   0.042   7.668  0.1457 -1.4497 -2.7284
 4220SOL     OW24292   3.770   2.450   2.193  0.3153  0.1124  0.2400
 4220SOL    HW124293   3.689   2.408   2.163  0.6960 -0.4383 -0.0229
 4220SOL    HW224294   3.824   2.429   2.117  1.3160  1.1184  0.6878
 4221SOL     OW24295   3.026   1.777  15.034  0.3305 -0.3207  0.1652
 4221SOL    HW124296   2.945   1.749  15.077  2.6865 -2.6058  3.1299
 4221SOL    HW224297   3.077   1.703  15.068  1.4977  0.3626 -0.1277
 4222SOL     OW24298   0.455   2.047   3.162 -0.2164 -0.7248 -0.5108
 4222SOL    HW124299   0.531   2.055   3.104 -0.5418 -0.7235 -0.9410
 4222SOL    HW224300   0.411   1.967   3.132 -0.3998 -0.8623  0.1300
 4223SOL     OW24301   2.275   0.299   3.778  0.5103  0.6648  0.1530
 4223SOL    HW124302   2.206   0.255   3.730  0.2690 -0.0245  1.1276
 4223SOL    HW224303   2.316   0.224   3.823  0.7960  0.6870 -0.0695
 4224SOL     OW24304   0.050   2.383  14.739 -0.6097 -0.0251 -0.2557
 4224SOL    HW124305   0.038   2.364  14.832  2.7917  0.2273  0.2193
 4224SOL    HW224306   4.707   2.347  14.696 -1.5594  0.7165  0.8326
 4225SOL     OW24307   1.959   3.647  14.812  0.1420 -0.1128  0.2039
 4225SOL    HW124308   1.975   3.708  14.884 -1.3368  0.0436  0.3801
 4225SOL    HW224309   1.975   3.703  14.736 -0.4205 -0.3432 -0.0834
 4226SOL     OW24310   2.606   0.924   2.584 -0.1978 -0.3156 -0.2216
 4226SOL    HW124311   2.631   0.960   2.499  1.7802 -0.1426  0.4236
 4226SOL    HW224312   2.512   0.910   2.578 -0.2540  0.5588 -1.2913
 4227SOL     OW24313   1.680   3.552   8.096 -0.4567 -0.6167 -0.5662
 4227SOL    HW124314   1.646   3.517   8.014 -4.5468  3.0091 -0.4157
 4227SOL    HW224315   1.735   3.481   8.129 -1.8821 -1.1595  0.6547
 4228SOL     OW24316   4.092   2.651   0.559  0.0918 -0.1015  0.3298
 4228SOL    HW124317   4.111   2.566   0.520 -2.4251  0.1695 -1.5203
 4228SOL    HW224318   4.002   2.673   0.532  0.2858  0.9038  0.5125
 4229SOL     OW24319   1.717   3.758   8.711  0.3881  0.1607 -0.1649
 4229SOL    HW124320   1.765   3.793   8.636 -1.0440 -0.9150 -1.5710
 4229SOL    HW224321   1.682   3.832   8.761 -1.3870 -1.0038  0.3018
 4230SOL     OW24322   2.381   0.498  12.775  0.2676 -0.1181 -0.2638
 4230SOL    HW124323   2.329   0.434  12.823 -0.0361 -0.7470 -1.4302
 4230SOL    HW224324   2.371   0.573  12.834  2.4382 -0.1577  0.1612
 4231SOL     OW24325   0.609   3.349   0.290  0.1787 -0.0302 -0.1888
 4231SOL    HW124326   0.543   3.349   0.220 -0.4184  1.3558  0.3626
 4231SOL    HW224327   0.683   3.318   0.238  2.1243  0.1849  2.4676
 4232SOL     OW24328   3.482   3.580   1.393 -0.1455 -0.5152 -0.1285
 4232SOL    HW124329   3.474   3.624   1.308  1.0554 -1.4391 -0.7331
 4232SOL    HW224330   3.536   3.504   1.371 -0.0288 -0.8901  1.4884
 4233SOL     OW24331   3.367   1.131   2.447  0.8740  0.5492 -0.4819
 4233SOL    HW124332   3.281   1.100   2.474  1.4279 -0.7752 -0.2270
 4233SOL    HW224333   3.381   1.191   2.521 -1.1962  0.5868 -0.1240
 4234SOL     OW24334   3.194   3.504  12.555 -0.4900  0.3929 -0.7395
 4234SOL    HW124335   3.238   3.476  12.636 -2.2646 -2.0787 -0.6269
 4234SOL    HW224336   3.183   3.597  12.575 -0.1812  0.3641 -0.4275
 4235SOL     OW24337   0.665   4.563   1.230  0.6154 -0.2774  0.1494
 4235SOL    HW124338   0.627   4.566   1.142 -0.6121  2.2598  0.7726
 4235SOL    HW224339   0.661   4.656   1.251  0.9270 -0.1005 -0.6014
 4236SOL     OW24340   0.069   4.049   2.979 -0.0630  0.0985 -0.2747
 4236SOL    HW124341   0.018   4.105   3.037  0.7356  0.5228  0.0272
 4236SOL    HW224342   0.100   4.111   2.913  3.1196 -0.6769  0.4491
 4237SOL     OW24343   1.380   2.382   5.374  0.6246 -0.2175  0.4090
 4237SOL    HW124344   1.370   2.349   5.284  1.1541  0.5555  0.0670
 4237SOL    HW224345   1.315   2.452   5.368  0.2903 -0.5655 -0.1176
 4238SOL     OW24346   2.694   4.195  13.088 -0.1118 -0.1657  0.1710
 4238SOL    HW124347   2.651   4.134  13.148 -3.7178 -0.5582 -2.8041
 4238SOL    HW224348   2.624   4.241  13.041 -0.1860 -0.2180  0.2312
 4239SOL     OW24349   1.457   1.804   5.439 -0.5867  0.1106 -0.1930
 4239SOL    HW124350   1.463   1.771   5.349  2.0278 -2.3801  0.8908
 4239SOL    HW224351   1.432   1.895   5.426 -1.3521 -0.2341 -1.0893
 4240SOL     OW24352   2.736   2.964   8.409  0.6503  0.0664  0.2541
 4240SOL    HW124353   2.660   3.018   8.431  0.1958  0.8573 -3.1898
 4240SOL    HW224354   2.696   2.878   8.397  0.5640 -0.0480  1.3540
 4241SOL     OW24355   1.040   1.563   6.869  0.6206  0.6124 -0.1147
 4241SOL    HW124356   1.040   1.468   6.866  0.0609  0.5961  0.6275
 4241SOL    HW224357   0.971   1.561   6.935  0.3337  0.8590 -0.4024
 4242SOL     OW24358   4.177   0.743  16.278 -0.2456  0.4130  0.4222
 4242SOL    HW124359   4.100   0.752  16.334 -2.4861  0.2012 -2.6816
 4242SOL    HW224360   4.166   0.820  16.222  1.5332 -0.9729 -1.8345
 4243SOL     OW24361   1.023   4.494  12.110 -0.2110 -0.4475 -0.6141
 4243SOL    HW124362   1.049   4.496  12.018  1.7844 -2.5709 -0.1089
 4243SOL    HW224363   0.929   4.474  12.104 -0.9484  2.0365  2.3250
 4244SOL     OW24364   0.724   3.351  10.966  0.3595 -0.1134  0.2092
 4244SOL    HW124365   0.765   3.388  10.888 -0.8116  0.3027 -0.1955
 4244SOL    HW224366   0.786   3.279  10.981  0.5619 -0.2520 -1.3792
 4245SOL     OW24367   0.121   1.391   5.928  0.0711 -0.2545 -0.2893
 4245SOL    HW124368   0.213   1.391   5.952  0.1008  0.2962 -0.3916
 4245SOL    HW224369   0.108   1.298   5.913  1.5100 -0.6089  0.7054
 4246SOL     OW24370   0.180   2.828  12.106 -0.3905 -0.1596 -0.0744
 4246SOL    HW124371   0.148   2.744  12.074 -0.2035  0.1551 -1.0771
 4246SOL    HW224372   0.106   2.853  12.162 -0.4115  1.2649 -0.7243
 4247SOL     OW24373   0.017   3.983   6.575  0.2323 -0.1312 -0.0074
 4247SOL    HW124374   0.029   3.953   6.485 -0.1070  1.9449 -0.7274
 4247SOL    HW224375   4.672   4.035   6.574  0.4472  0.1924 -0.3112
 4248SOL     OW24376   0.006   3.810   5.222  1.2035 -0.0949  0.2302
 4248SOL    HW124377   0.059   3.828   5.144  0.6240  0.0943 -0.1258
 4248SOL    HW224378   0.043   3.734   5.266 -0.1103 -1.3426 -0.7952
 4249SOL     OW24379   0.223   1.392   5.500  0.0319  0.0053  0.2887
 4249SOL    HW124380   0.188   1.322   5.556  2.6838 -0.2938  1.6019
 4249SOL    HW224381   0.182   1.384   5.414 -2.6706 -1.3365  1.6853
 4250SOL     OW24382   1.815   0.364   8.855 -0.2929 -0.1675 -0.2101
 4250SOL    HW124383   1.872   0.287   8.849  2.2192  1.5191  2.1336
 4250SOL    HW224384   1.814   0.408   8.771 -0.7453 -0.9689 -0.6292
 4251SOL     OW24385   2.866   1.318  16.129 -0.0254  0.8613  0.9227
 4251SOL    HW124386   2.840   1.312  16.037  1.5033  2.3940  0.4038
 4251SOL    HW224387   2.783   1.302  16.174  0.1568 -1.3826  0.4389
 4252SOL     OW24388   2.380   2.917   4.998  0.3477  0.3500 -0.0338
 4252SOL    HW124389   2.322   2.992   4.986  2.2519  1.3447 -3.0672
 4252SOL    HW224390   2.327   2.849   4.956 -2.0371  1.6004  0.9436
 4253SOL     OW24391   0.224   2.987   2.365  0.2797 -0.0755 -0.2709
 4253SOL    HW124392   0.153   2.998   2.302  0.0509 -0.6686 -0.1117
 4253SOL    HW224393   0.237   3.077   2.395 -2.6675  0.9051 -1.9035
 4254SOL     OW24394   3.707   3.026   4.721  0.8964  0.0371  0.1556
 4254SOL    HW124395   3.682   2.938   4.750  1.9392 -1.3984 -3.3221
 4254SOL    HW224396   3.642   3.082   4.763  0.0323 -0.9697  0.1651
 4255SOL     OW24397   1.677   2.479   0.761  0.2050  0.3948 -0.4250
 4255SOL    HW124398   1.745   2.544   0.778  0.3321  0.9414 -3.0029
 4255SOL    HW224399   1.651   2.483   0.669  0.2082  0.0004 -0.4446
 4256SOL     OW24400   3.801   4.617   6.774  0.1420 -0.6068  0.2430
 4256SOL    HW124401   3.733   4.551   6.786 -1.5938  1.1677  0.1663
 4256SOL    HW224402   3.846   4.618   6.858 -2.4496 -1.5508  1.6245
 4257SOL     OW24403   0.382   4.008   2.188  0.0381  0.5993  0.1469
 4257SOL    HW124404   0.289   4.020   2.206 -0.2103 -1.3455  0.1167
 4257SOL    HW224405   0.379   3.992   2.093  0.2467  1.8999 -0.0907
 4258SOL     OW24406   0.265   2.474   3.951 -0.0347 -0.1053 -0.6975
 4258SOL    HW124407   0.183   2.446   3.910 -0.1283 -1.8484  0.6602
 4258SOL    HW224408   0.289   2.549   3.898 -1.1504  1.2671  0.7116
 4259SOL     OW24409   3.826   0.737   6.249  0.0785 -0.8619 -0.0573
 4259SOL    HW124410   3.905   0.756   6.298  1.7773 -1.5779 -2.5238
 4259SOL    HW224411   3.757   0.744   6.315  0.3947  0.3188  0.1378
 4260SOL     OW24412   3.260   4.482   0.181 -0.1825  0.1527 -0.3204
 4260SOL    HW124413   3.178   4.507   0.139 -0.3205 -2.8661 -1.7859
 4260SOL    HW224414   3.266   4.554   0.244  0.9709 -0.6559  0.4861
 4261SOL     OW24415   2.911   0.405  11.513  0.1458 -0.1963 -0.5158
 4261SOL    HW124416   2.820   0.380  11.496  0.0139  0.5760 -0.9289
 4261SOL    HW224417   2.945   0.407  11.424  1.6797  1.6780  0.1049
 4262SOL     OW24418   3.572   0.930   8.495  0.0047  0.8213 -0.6148
 4262SOL    HW124419   3.493   0.954   8.447  0.4306  0.5325 -1.4460
 4262SOL    HW224420   3.568   0.993   8.568 -1.4674  0.4454 -0.3733
 4263SOL     OW24421   2.964   3.525   5.837  0.2248  0.1474  0.5951
 4263SOL    HW124422   2.976   3.612   5.875 -0.7063  0.1372  0.9036
 4263SOL    HW224423   2.908   3.536   5.760  1.0213  2.0868  0.2833
 4264SOL     OW24424   1.668   1.285   8.184 -0.2002  0.2274 -0.0674
 4264SOL    HW124425   1.617   1.343   8.240  4.0228  0.6054  3.3134
 4264SOL    HW224426   1.667   1.197   8.220 -0.9602  0.1274 -0.3202
 4265SOL     OW24427   4.216   2.098   4.693 -0.6943 -0.2804 -0.2281
 4265SOL    HW124428   4.166   2.038   4.748 -0.5017  0.0083  0.2689
 4265SOL    HW224429   4.150   2.168   4.687 -2.9152 -2.2983  0.6995
 4266SOL     OW24430   2.650   3.605   1.197 -0.5487 -0.1648 -0.7284
 4266SOL    HW124431   2.732   3.624   1.244 -0.3039  1.0521 -1.6310
 4266SOL    HW224432   2.598   3.571   1.270  1.2051  0.1361  0.6804
 4267SOL     OW24433   4.321   2.931   8.203 -0.1834  0.7639  0.3961
 4267SOL    HW124434   4.346   2.841   8.226  3.2177  1.6995  0.2858
 4267SOL    HW224435   4.313   2.961   8.293 -0.8908 -1.8420  1.2072
 4268SOL     OW24436   3.090   0.532   8.546  0.5105  0.2831  0.3427
 4268SOL    HW124437   3.051   0.598   8.489 -0.2006 -0.8641 -0.4916
 4268SOL    HW224438   3.129   0.477   8.478 -2.3296 -1.2120 -0.0664
 4269SOL     OW24439   2.532   2.119   9.041 -0.2727  0.5322  0.0984
 4269SOL    HW124440   2.451   2.166   9.024 -0.5968  0.9508  2.6798
 4269SOL    HW224441   2.592   2.180   8.998  0.9851 -1.3537 -0.8309
 4270SOL     OW24442   3.327   0.813   6.673 -0.0035  0.4253 -0.0444
 4270SOL    HW124443   3.337   0.869   6.597  0.4765  0.0426 -0.2607
 4270SOL    HW224444   3.232   0.804   6.663 -0.0482  0.2811  0.4776
 4271SOL     OW24445   3.305   1.267   0.739  0.5279  0.1402  0.3936
 4271SOL    HW124446   3.343   1.301   0.821  1.5699 -0.7210  0.2795
 4271SOL    HW224447   3.321   1.338   0.677  2.7762  2.0736  3.1457
 4272SOL     OW24448   3.235   2.315  14.198 -0.6894 -0.1051  0.0074
 4272SOL    HW124449   3.266   2.238  14.245 -0.4438 -1.1870 -1.9279
 4272SOL    HW224450   3.184   2.353  14.269  0.2778  0.0958  0.5817
 4273SOL     OW24451   2.099   4.654   8.208 -0.1701 -0.3474  0.1524
 4273SOL    HW124452   2.089   4.682   8.117  1.8090 -0.2318 -0.0351
 4273SOL    HW224453   2.160   4.722   8.238  1.0280 -1.7621  0.8815
 4274SOL     OW24454   2.130   2.024   4.165 -0.3965 -0.4727  0.5033
 4274SOL    HW124455   2.070   2.081   4.118  0.6306  0.8519  0.8119
 4274SOL    HW224456   2.067   1.977   4.220  0.2619 -3.2207 -1.0830
 4275SOL     OW24457   0.091   1.928   1.075  0.0399 -0.5566  0.4303
 4275SOL    HW124458   0.002   1.951   1.102  0.2277  1.0152 -0.3445
 4275SOL    HW224459   0.148   1.982   1.130 -0.6475 -0.2944  0.8913
 4276SOL     OW24460   4.175   4.062   9.015 -0.2533 -1.1156 -0.0114
 4276SOL    HW124461   4.082   4.076   9.001 -0.1439  0.1202  0.5116
 4276SOL    HW224462   4.165   3.989   9.077  0.9226 -1.8920 -0.7310
 4277SOL     OW24463   3.624   3.566   6.411  0.1879  0.3343  0.5189
 4277SOL    HW124464   3.623   3.559   6.506 -2.9016 -0.6035  0.4013
 4277SOL    HW224465   3.610   3.659   6.397  0.0119  0.4214  1.3161
 4278SOL     OW24466   4.456   2.827  11.167 -0.3106  0.0200 -0.2753
 4278SOL    HW124467   4.526   2.767  11.190 -0.1296  1.0570  1.9238
 4278SOL    HW224468   4.507   2.876  11.103 -0.4227  0.5181  0.0187
 4279SOL     OW24469   3.171   3.008   9.112  0.4597 -0.2441 -0.2206
 4279SOL    HW124470   3.234   3.022   9.041  1.0187  1.6523  0.6816
 4279SOL    HW224471   3.218   3.037   9.189  0.1329  1.1542 -0.5517
 4280SOL     OW24472   1.715   3.092   7.061  0.3340 -0.0963  0.0455
 4280SOL    HW124473   1.666   3.042   7.126  1.1804 -2.0130 -0.7891
 4280SOL    HW224474   1.802   3.051   7.057  0.6227  0.5656 -0.4081
 4281SOL     OW24475   0.926   0.684   7.097  0.4462  0.5207 -0.7648
 4281SOL    HW124476   0.886   0.771   7.099  0.0869  0.3094  1.1078
 4281SOL    HW224477   0.996   0.697   7.161 -0.8928  3.3760  0.1161
 4282SOL     OW24478   0.358   3.759   5.488  0.6388 -0.1079  0.1317
 4282SOL    HW124479   0.363   3.812   5.409  0.1817 -0.6431 -0.2585
 4282SOL    HW224480   0.342   3.829   5.551  0.0471  1.9107 -2.2426
 4283SOL     OW24481   0.107   1.577   7.874 -0.2339  0.4933 -0.5701
 4283SOL    HW124482   0.139   1.490   7.851 -1.1992 -0.0976  0.3667
 4283SOL    HW224483   0.163   1.602   7.947 -0.2777 -1.1777  0.0371
 4284SOL     OW24484   0.459   0.466   8.672  0.2495  0.4366  0.4695
 4284SOL    HW124485   0.470   0.480   8.766  1.9727  1.9044  0.0485
 4284SOL    HW224486   0.407   0.387   8.685  0.4633 -0.2087 -2.5862
 4285SOL     OW24487   0.820   3.797   3.987  0.5421 -0.0301 -0.0157
 4285SOL    HW124488   0.800   3.854   3.914 -1.8294 -1.2693 -0.3191
 4285SOL    HW224489   0.913   3.817   4.002  0.9488 -1.5773 -0.4040
 4286SOL     OW24490   2.442   3.878   4.306  0.2837  0.0207  0.0627
 4286SOL    HW124491   2.425   3.785   4.287 -0.6705  0.4308 -1.0721
 4286SOL    HW224492   2.524   3.892   4.353  0.6573 -2.6618  0.2322
 4287SOL     OW24493   3.373   3.871   7.370 -0.0168 -0.4482  0.3087
 4287SOL    HW124494   3.348   3.884   7.279  1.6682 -1.9689 -0.3505
 4287SOL    HW224495   3.362   3.961   7.402 -1.6922 -0.0395 -1.4306
 4288SOL     OW24496   0.150   3.189   7.332  0.5349 -0.2887 -0.3873
 4288SOL    HW124497   0.067   3.229   7.357 -0.7726 -2.0987 -1.8631
 4288SOL    HW224498   0.124   3.142   7.254 -3.1886 -0.4452  0.9575
 4289SOL     OW24499   2.960   1.087   1.829  0.0780  0.0326  0.6186
 4289SOL    HW124500   3.018   1.145   1.878 -2.0708  1.8094  1.0287
 4289SOL    HW224501   3.005   1.003   1.840 -0.9894 -0.6622 -0.2961
 4290SOL     OW24502   3.621   2.520   8.781 -0.0783 -0.2171 -0.7769
 4290SOL    HW124503   3.632   2.538   8.688  2.2118 -0.0926 -0.4724
 4290SOL    HW224504   3.707   2.544   8.815  1.0941 -0.3649 -3.6745
 4291SOL     OW24505   0.319   1.256   6.823  0.5927  0.1070  0.0903
 4291SOL    HW124506   0.264   1.180   6.805 -0.5090  0.8679  0.3007
 4291SOL    HW224507   0.393   1.231   6.767 -0.6568 -2.0179 -0.5873
 4292SOL     OW24508   1.885   4.460   6.702  0.3929 -0.2941 -0.0435
 4292SOL    HW124509   1.936   4.497   6.630 -0.4772 -1.0776 -1.0610
 4292SOL    HW224510   1.958   4.409   6.737  3.1268  2.2078 -2.1394
 4293SOL     OW24511   1.554   4.496  17.682  0.0698  0.1200 -0.5988
 4293SOL    HW124512   1.601   4.580  17.675  0.3745  0.0023  0.0087
 4293SOL    HW224513   1.521   4.490  17.593  4.6885  2.0746 -2.4818
 4294SOL     OW24514   2.743   1.247   4.070 -0.1449 -0.3812  0.9773
 4294SOL    HW124515   2.794   1.326   4.055 -1.6074  0.4924  0.5616
 4294SOL    HW224516   2.668   1.271   4.016  1.5146 -0.2303 -1.2715
 4295SOL     OW24517   2.572   1.351   2.696 -0.3480 -0.1918 -0.5866
 4295SOL    HW124518   2.565   1.328   2.603  1.6102  0.7532 -0.9795
 4295SOL    HW224519   2.497   1.402   2.724 -0.9852 -1.3963 -0.0996
 4296SOL     OW24520   2.846   2.035   6.796  0.6381 -0.0116  0.2277
 4296SOL    HW124521   2.771   2.093   6.810 -0.7507 -1.9097  0.6660
 4296SOL    HW224522   2.849   1.964   6.859 -0.8417  2.0949  2.6433
 4297SOL     OW24523   4.395   4.285   4.975 -0.1964 -0.0402 -0.0612
 4297SOL    HW124524   4.322   4.329   4.932  0.6838  0.0908 -1.4212
 4297SOL    HW224525   4.431   4.349   5.036 -0.6215  0.3592 -0.2307
 4298SOL     OW24526   4.471   0.418   2.726  0.5391  0.0588 -0.6582
 4298SOL    HW124527   4.380   0.389   2.723  0.1214  1.2053  1.3175
 4298SOL    HW224528   4.471   0.453   2.815  0.2205  0.4280 -0.8059
 4299SOL     OW24529   2.997   2.456  10.906 -0.2160 -0.2554 -0.2041
 4299SOL    HW124530   3.065   2.470  10.972  0.2518 -0.6657 -0.5938
 4299SOL    HW224531   3.043   2.464  10.823  1.3846 -2.7500  0.4247
 4300SOL     OW24532   1.593   2.472   2.194 -0.1415 -0.3853 -0.2772
 4300SOL    HW124533   1.599   2.386   2.152 -0.0457  0.3894 -1.8502
 4300SOL    HW224534   1.508   2.466   2.236  0.3149 -1.3924  0.5063
 4301SOL     OW24535   2.639   0.388   6.665  0.3230 -0.0375 -0.1886
 4301SOL    HW124536   2.622   0.352   6.752  2.2400  1.0743  0.6402
 4301SOL    HW224537   2.576   0.460   6.660  1.6942  1.1887  0.0934
 4302SOL     OW24538   0.349   4.550   7.039  0.1730  0.2670  0.4739
 4302SOL    HW124539   0.438   4.551   7.004  0.2666 -3.1916  0.5977
 4302SOL    HW224540   0.353   4.464   7.080 -0.4120 -0.4244 -0.9179
 4303SOL     OW24541   1.971   2.648  11.989  0.5645  0.1550  0.6553
 4303SOL    HW124542   1.930   2.706  11.924 -3.8308 -3.1866  0.4324
 4303SOL    HW224543   1.942   2.700  12.065  2.9343 -1.4539  2.6471
 4304SOL     OW24544   3.886   0.771   0.646 -0.1601  0.0480  0.2520
 4304SOL    HW124545   3.898   0.693   0.592  0.9512  0.7356 -0.4997
 4304SOL    HW224546   3.896   0.737   0.735  1.8285 -1.9814 -0.7716
 4305SOL     OW24547   2.231   2.601  15.402  0.9228  0.0226  1.1206
 4305SOL    HW124548   2.146   2.631  15.369  0.9012 -2.2606 -0.8923
 4305SOL    HW224549   2.287   2.618  15.326  0.2367  1.1947  0.8693
 4306SOL     OW24550   0.551   1.147   6.709 -0.0674 -0.1831  0.7118
 4306SOL    HW124551   0.636   1.118   6.743 -0.1925 -0.6407  0.6370
 4306SOL    HW224552   0.505   1.065   6.690  1.8202 -1.0253 -0.1884
 4307SOL     OW24553   4.533   3.014   6.217 -0.0640 -0.0705 -0.1875
 4307SOL    HW124554   4.527   2.999   6.122 -0.4497  0.4333 -0.2451
 4307SOL    HW224555   4.442   3.029   6.242  0.0916 -1.0457  0.9279
 4308SOL     OW24556   0.539   3.753   9.228  0.3676 -0.1542  0.2244
 4308SOL    HW124557   0.625   3.718   9.250  0.2861 -0.9994 -0.7825
 4308SOL    HW224558   0.537   3.749   9.132 -0.8397  1.7813  0.1698
 4309SOL     OW24559   0.589   4.474   5.538 -0.4273 -0.0522  0.4994
 4309SOL    HW124560   0.510   4.479   5.484  1.1567 -1.0298 -1.8918
 4309SOL    HW224561   0.616   4.564   5.557 -0.0778 -0.6597  2.8288
 4310SOL     OW24562   3.750   2.175   8.919  0.5901 -0.0778 -0.5287
 4310SOL    HW124563   3.770   2.242   8.854 -1.0027  2.1041  1.2242
 4310SOL    HW224564   3.822   2.183   8.983 -0.3346  2.4916  0.1882
 4311SOL     OW24565   2.747   1.511  13.381  0.1163  0.2265 -0.4295
 4311SOL    HW124566   2.701   1.590  13.355  1.3742  0.5380 -1.7414
 4311SOL    HW224567   2.685   1.479  13.446 -0.1911  0.3054 -0.6851
 4312SOL     OW24568   4.598   0.498   3.194  0.4639 -0.3920 -0.1626
 4312SOL    HW124569   4.634   0.425   3.244  0.5666 -0.9069 -0.9902
 4312SOL    HW224570   4.505   0.486   3.212  0.7340 -1.1583  0.7132
 4313SOL     OW24571   3.505   0.244   3.574 -0.2889 -0.9733  0.5991
 4313SOL    HW124572   3.421   0.246   3.528 -0.2237 -2.2315  0.4407
 4313SOL    HW224573   3.550   0.182   3.517 -0.1081  0.3316 -0.6891
 4314SOL     OW24574   3.763   0.617   6.748 -0.2582  0.4266  0.2440
 4314SOL    HW124575   3.733   0.530   6.776  1.0390 -0.5065 -1.3015
 4314SOL    HW224576   3.857   0.602   6.752 -0.1869  0.5382 -1.0532
 4315SOL     OW24577   0.121   3.046   2.123  0.7887  0.4157 -0.6172
 4315SOL    HW124578   0.033   3.040   2.086  0.3767  1.4047  0.2014
 4315SOL    HW224579   0.167   2.977   2.076  1.1801 -1.2667  2.2109
 4316SOL     OW24580   0.141   0.843   3.066  0.0975 -0.0903 -0.0285
 4316SOL    HW124581   0.163   0.869   3.155  0.7505  1.2457 -0.5844
 4316SOL    HW224582   0.126   0.929   3.026  0.5249  1.2325  2.6520
 4317SOL     OW24583   2.608   0.322   9.293  0.0340 -0.1584  0.4114
 4317SOL    HW124584   2.659   0.263   9.348 -0.4464 -1.2758 -0.3342
 4317SOL    HW224585   2.519   0.293   9.314  1.0684 -1.0091  3.5428
 4318SOL     OW24586   1.905   3.654   3.084  0.1917  0.2848 -0.6380
 4318SOL    HW124587   1.867   3.737   3.112 -2.1082 -0.7128 -0.8083
 4318SOL    HW224588   1.998   3.649   3.107  0.3968  1.1924 -1.2843
 4319SOL     OW24589   0.675   3.690  14.831 -0.4577  0.2598  0.2060
 4319SOL    HW124590   0.754   3.717  14.785  1.2978 -1.3335  2.2788
 4319SOL    HW224591   0.633   3.774  14.848 -2.0835 -0.5772  0.3636
 4320SOL     OW24592   0.578   0.468   7.551  0.4704 -0.2890  0.1006
 4320SOL    HW124593   0.587   0.541   7.611 -1.8268 -0.0044  0.1238
 4320SOL    HW224594   0.484   0.445   7.556  0.0586  1.3810 -0.1776
 4321SOL     OW24595   0.632   2.453   4.802 -0.4246  0.3842 -0.2828
 4321SOL    HW124596   0.588   2.394   4.741 -0.2383  0.4357 -0.4677
 4321SOL    HW224597   0.597   2.421   4.885  1.9718 -0.7954  0.2347
 4322SOL     OW24598   3.322   2.780  16.985 -0.5958 -0.4559  0.0989
 4322SOL    HW124599   3.316   2.848  16.918 -2.6916  0.3058  1.0590
 4322SOL    HW224600   3.321   2.831  17.066  0.7111 -0.7496  0.3034
 4323SOL     OW24601   2.753   3.558  16.598 -0.4247 -0.1643 -0.6562
 4323SOL    HW124602   2.713   3.482  16.554 -0.3012 -0.3864 -0.3814
 4323SOL    HW224603   2.689   3.625  16.571 -1.9642 -1.1352  0.5968
 4324SOL     OW24604   3.482   4.293   5.250  0.5583  0.0053  0.0818
 4324SOL    HW124605   3.574   4.294   5.278  0.6454 -0.2165 -0.2032
 4324SOL    HW224606   3.474   4.367   5.190 -0.5388  1.3774  1.9019
 4325SOL     OW24607   0.651   0.736  16.890 -0.4188 -0.2265 -0.2853
 4325SOL    HW124608   0.706   0.718  16.814 -0.8562 -0.8315 -0.4527
 4325SOL    HW224609   0.725   0.770  16.940 -0.9745 -0.4050  0.6565
 4326SOL     OW24610   4.067   0.099  13.288 -0.0933 -0.6247 -0.1242
 4326SOL    HW124611   3.992   0.128  13.235  1.0144 -0.0939 -1.3914
 4326SOL    HW224612   4.106   0.028  13.236  0.0810 -0.5399 -0.1076
 4327SOL     OW24613   0.848   1.114   6.216  0.0291  0.3141  0.3858
 4327SOL    HW124614   0.911   1.185   6.206 -1.9609  1.8252 -1.3494
 4327SOL    HW224615   0.765   1.152   6.187  0.0705  1.1049  1.2859
 4328SOL     OW24616   4.018   4.267   3.471  0.0321 -0.1880 -0.4858
 4328SOL    HW124617   4.044   4.180   3.442 -0.5015  0.1995 -2.0827
 4328SOL    HW224618   4.080   4.282   3.543  0.0671  0.2182 -0.6001
 4329SOL     OW24619   3.475   4.357   8.916 -0.0174  0.3473  0.6341
 4329SOL    HW124620   3.513   4.325   8.998 -1.7327  0.3048  1.4035
 4329SOL    HW224621   3.427   4.436   8.940 -0.2000  0.5817 -0.5167
 4330SOL     OW24622   1.716   2.320   4.638  0.1266 -0.0305  0.2885
 4330SOL    HW124623   1.792   2.375   4.657  1.0960 -1.7072  1.2198
 4330SOL    HW224624   1.721   2.316   4.542  1.4667 -0.2313  0.3774
 4331SOL     OW24625   4.292   1.372  15.167 -0.1903 -0.2411 -0.4017
 4331SOL    HW124626   4.250   1.362  15.082 -0.0732  0.4725 -0.5462
 4331SOL    HW224627   4.320   1.464  15.166  0.9454 -0.5912 -1.5525
 4332SOL     OW24628   3.875   3.996   6.781  0.1392 -0.1421  0.2898
 4332SOL    HW124629   3.838   4.081   6.757 -0.0432  0.1798  1.7676
 4332SOL    HW224630   3.839   3.955   6.701 -2.3589 -0.1372  1.3961
 4333SOL     OW24631   3.875   0.142   0.055  0.3756  0.2564  0.0725
 4333SOL    HW124632   3.939   0.093   0.107 -0.7060  0.9792  2.1018
 4333SOL    HW224633   3.928   0.213   0.020  1.3007  0.2341  1.4065
 4334SOL     OW24634   0.075   1.904   0.786  0.0899  0.2254 -0.4133
 4334SOL    HW124635   0.101   1.901   0.877 -4.0324  0.0304  0.7840
 4334SOL    HW224636   4.714   1.902   0.779  0.3002 -0.7682 -3.1493
 4335SOL     OW24637   0.226   2.675  12.677 -0.2201  0.3141  0.5348
 4335SOL    HW124638   0.271   2.644  12.755 -0.9158 -0.8804  0.4693
 4335SOL    HW224639   0.254   2.607  12.615 -0.4919 -0.1375  0.9055
 4336SOL     OW24640   0.859   1.714  10.129  0.5724  0.3828 -0.3179
 4336SOL    HW124641   0.864   1.653  10.203  0.7250  0.5492 -0.1917
 4336SOL    HW224642   0.907   1.665  10.063 -1.7625  0.1790 -1.8909
 4337SOL     OW24643   4.137   3.881  14.214  0.2985  0.2263 -0.2747
 4337SOL    HW124644   4.048   3.850  14.228  0.9236 -1.7047 -0.5638
 4337SOL    HW224645   4.144   3.963  14.264  3.0867  0.3858 -0.9423
 4338SOL     OW24646   2.668   4.688   3.142  0.1003  0.6191  0.4957
 4338SOL    HW124647   2.647   4.722   3.054 -1.8888  2.6073  1.7325
 4338SOL    HW224648   2.763   4.694   3.143  0.0730  0.5928  2.2720
 4339SOL     OW24649   2.048   0.160   8.936  0.7049  0.5590  0.0419
 4339SOL    HW124650   2.140   0.135   8.948  0.5993  0.0803 -0.1514
 4339SOL    HW224651   2.053   0.172   8.842 -0.8212 -1.4362 -0.2827
 4340SOL     OW24652   1.468   3.408   1.591  0.4000 -0.3178  0.0055
 4340SOL    HW124653   1.408   3.458   1.536  3.8745 -0.4395 -3.8625
 4340SOL    HW224654   1.550   3.411   1.542  0.5138  1.4080  0.3048
 4341SOL     OW24655   2.892   2.180   5.682 -0.0623 -0.2989  0.1442
 4341SOL    HW124656   2.897   2.123   5.606  3.7410  2.4063 -1.5806
 4341SOL    HW224657   2.982   2.210   5.687 -0.5662  1.1394  0.6715
 4342SOL     OW24658   4.193   1.006   3.479  0.0114  0.1719  0.0097
 4342SOL    HW124659   4.226   1.094   3.494  0.7207 -0.4901  2.2208
 4342SOL    HW224660   4.145   1.029   3.399 -1.5497  2.3517  1.5725
 4343SOL     OW24661   0.990   3.872   9.036  1.0126  0.2650  0.4470
 4343SOL    HW124662   0.945   3.789   9.050 -0.5963  1.6210  3.2653
 4343SOL    HW224663   1.050   3.872   9.111 -0.6970 -0.0192  1.8061
 4344SOL     OW24664   0.914   1.296  13.268  0.3270  0.5837 -0.0997
 4344SOL    HW124665   0.838   1.354  13.265  1.2034  1.7898  1.4453
 4344SOL    HW224666   0.919   1.265  13.177 -1.5798  0.0997 -0.0530
 4345SOL     OW24667   3.082   3.865  12.875 -0.1225  0.6211 -0.4167
 4345SOL    HW124668   3.011   3.822  12.923  1.3576  1.8363  2.8573
 4345SOL    HW224669   3.151   3.852  12.940 -1.1631 -1.2513  0.3237
 4346SOL     OW24670   1.167   0.845  17.384 -0.5542 -0.6337  0.1257
 4346SOL    HW124671   1.225   0.819  17.313  0.3877  4.1912 -0.8799
 4346SOL    HW224672   1.121   0.922  17.351  1.5827  0.7666  0.4500
 4347SOL     OW24673   3.933   0.402   8.235  0.2319 -0.2441  0.5397
 4347SOL    HW124674   4.002   0.359   8.286 -0.0287  0.5378  1.5604
 4347SOL    HW224675   3.977   0.401   8.149 -4.6253 -0.6606 -1.9276
 4348SOL     OW24676   2.963   0.405   4.810 -0.3623  0.0501 -0.4737
 4348SOL    HW124677   2.976   0.344   4.882  2.4019 -0.6155 -1.5432
 4348SOL    HW224678   2.895   0.455   4.856 -2.5735 -1.9426 -1.5963
 4349SOL     OW24679   0.037   2.385   9.508  0.7240  0.7342 -0.2304
 4349SOL    HW124680   4.696   2.338   9.475 -0.1925 -1.0145  4.3979
 4349SOL    HW224681   0.049   2.346   9.595 -0.4787  1.5076  0.2816
 4350SOL     OW24682   3.990   2.671   8.660  0.1621 -0.0510 -0.4825
 4350SOL    HW124683   4.046   2.727   8.607  0.8580 -0.2753  0.0214
 4350SOL    HW224684   3.956   2.618   8.587 -1.7409  2.4531 -1.4090
 4351SOL     OW24685   1.700   4.485  16.602  0.2332 -0.0715 -0.2005
 4351SOL    HW124686   1.668   4.402  16.566 -1.2577 -0.3692  1.8377
 4351SOL    HW224687   1.657   4.544  16.539  2.1214  1.7334  0.2140
 4352SOL     OW24688   0.788   0.508   1.446  0.4602 -0.0929  0.2891
 4352SOL    HW124689   0.698   0.501   1.417  0.7500 -1.7086 -0.1837
 4352SOL    HW224690   0.800   0.440   1.512  1.0250  0.2786  0.5755
 4353SOL     OW24691   3.896   3.028   4.192  0.0940  0.8107 -1.2078
 4353SOL    HW124692   3.815   3.003   4.146 -0.8485  0.5501  0.5941
 4353SOL    HW224693   3.892   2.971   4.269  1.6916  2.1193 -0.1756
 4354SOL     OW24694   4.566   2.991   8.826  0.7003  0.0598  0.2877
 4354SOL    HW124695   4.506   2.917   8.837  0.2118  0.1069 -2.1694
 4354SOL    HW224696   4.648   2.944   8.838 -0.2732 -1.7446 -0.0972
 4355SOL     OW24697   3.198   2.293   1.329  0.2884  0.0987 -0.0729
 4355SOL    HW124698   3.262   2.334   1.387  1.0286  0.2036 -0.9769
 4355SOL    HW224699   3.138   2.269   1.400 -0.0926  2.7057  0.4895
 4356SOL     OW24700   4.611   3.497   8.003 -0.9013  0.4536 -0.2026
 4356SOL    HW124701   4.623   3.584   8.040 -0.2967  0.3786 -0.2202
 4356SOL    HW224702   4.645   3.434   8.066 -0.1188 -2.4367 -3.5342
 4357SOL     OW24703   4.163   0.535  16.076  0.4854  0.2249 -0.0675
 4357SOL    HW124704   4.077   0.558  16.041 -1.3025 -1.2311  3.3497
 4357SOL    HW224705   4.165   0.593  16.151 -0.0996  0.1538 -0.0005
 4358SOL     OW24706   0.475   2.812   3.256 -0.4320  0.1778  0.2007
 4358SOL    HW124707   0.533   2.777   3.324 -2.2173 -1.2301  0.9916
 4358SOL    HW224708   0.422   2.869   3.311  2.1441  0.4422  2.4125
 4359SOL     OW24709   4.044   3.176  17.283  0.6506 -0.0789  0.0094
 4359SOL    HW124710   4.063   3.269  17.295 -1.2967  0.2166  0.8524
 4359SOL    HW224711   4.096   3.145  17.357 -0.3766  0.5913  1.0147
 4360SOL     OW24712   2.655   1.555  17.582  0.5884 -0.1255  0.3514
 4360SOL    HW124713   2.562   1.549  17.604  0.2524  0.9931 -0.7878
 4360SOL    HW224714   2.699   1.500  17.647  0.2023 -0.5897  0.2165
 4361SOL     OW24715   3.963   1.872  15.392 -0.7936 -0.1484  0.0256
 4361SOL    HW124716   3.959   1.777  15.406 -1.9638 -0.3136 -1.3561
 4361SOL    HW224717   3.904   1.892  15.319 -0.2528 -2.2755 -1.0043
 4362SOL     OW24718   0.646   3.354   7.853 -0.0446  0.5674 -0.1594
 4362SOL    HW124719   0.593   3.299   7.911  0.2363  1.0455  0.5564
 4362SOL    HW224720   0.582   3.370   7.784  1.5784  1.8437 -1.3668
 4363SOL     OW24721   1.709   4.202  16.111 -0.3798 -0.3616 -0.0194
 4363SOL    HW124722   1.673   4.278  16.156 -1.5429 -0.5781 -0.5678
 4363SOL    HW224723   1.678   4.213  16.021  0.2097  1.8137  0.0613
 4364SOL     OW24724   1.599   2.579   1.458 -0.3328 -0.3204  0.3011
 4364SOL    HW124725   1.561   2.666   1.471  1.9346  0.7907 -0.3874
 4364SOL    HW224726   1.689   2.606   1.440 -0.5403  1.6445  2.2100
 4365SOL     OW24727   1.809   2.928   4.659  0.4846 -0.3710 -0.3338
 4365SOL    HW124728   1.719   2.906   4.635  0.8442 -0.5542 -1.5242
 4365SOL    HW224729   1.798   3.000   4.721  0.6973 -1.3680  0.8726
 4366SOL     OW24730   0.370   1.531   5.679 -0.6368  0.5921  0.1070
 4366SOL    HW124731   0.337   1.465   5.619  4.4129  0.0530 -2.0970
 4366SOL    HW224732   0.454   1.540   5.635  0.0476  1.4845  1.5837
 4367SOL     OW24733   3.866   0.841   3.864 -0.2026  0.2832  0.0060
 4367SOL    HW124734   3.818   0.791   3.930  0.2101  1.2894  1.0822
 4367SOL    HW224735   3.798   0.904   3.841 -0.0361  1.0513  1.6125
 4368SOL     OW24736   3.744   3.254  11.858  0.2384 -0.0026  0.0246
 4368SOL    HW124737   3.729   3.215  11.772 -2.8523 -0.2809  0.6933
 4368SOL    HW224738   3.678   3.323  11.860  0.5648  0.3358 -0.9265
 4369SOL     OW24739   1.250   1.070   2.052 -0.4590 -0.3764 -0.6057
 4369SOL    HW124740   1.201   1.110   2.123  0.4705  0.6956 -0.5746
 4369SOL    HW224741   1.218   0.980   2.043 -1.2714  0.0190 -1.7607
 4370SOL     OW24742   2.312   1.008   6.845 -0.2632  0.2415  0.1642
 4370SOL    HW124743   2.397   1.050   6.859 -0.1152  0.3436 -0.9730
 4370SOL    HW224744   2.270   1.068   6.783 -0.1689 -2.9203 -2.9985
 4371SOL     OW24745   1.555   1.361   7.165  0.3174 -0.7216 -0.1703
 4371SOL    HW124746   1.574   1.454   7.177 -3.5083 -0.4256  3.3817
 4371SOL    HW224747   1.460   1.356   7.153  0.5185 -0.2332 -2.0225
 4372SOL     OW24748   4.488   0.201  13.345  0.5152 -0.0632  0.7829
 4372SOL    HW124749   4.550   0.137  13.381  1.2520  1.3324  2.0064
 4372SOL    HW224750   4.526   0.286  13.368 -0.8951 -0.6305  5.2792
 4373SOL     OW24751   0.298   4.085   1.457  0.9724  0.6392 -0.1241
 4373SOL    HW124752   0.300   4.155   1.522  1.0784  2.1063 -1.6840
 4373SOL    HW224753   0.329   4.138   1.383  2.6620  0.4581  0.4467
 4374SOL     OW24754   1.433   2.212  12.379  0.2288 -0.0524 -0.0735
 4374SOL    HW124755   1.397   2.143  12.435 -0.5434 -0.9669 -1.7146
 4374SOL    HW224756   1.504   2.182  12.323 -1.5901 -1.0895 -1.8100
 4375SOL     OW24757   1.092   4.018  14.970  0.0432 -0.0715 -0.5243
 4375SOL    HW124758   1.127   3.947  14.917  0.3949  0.2665 -0.7473
 4375SOL    HW224759   1.154   4.009  15.042 -0.2928 -0.0386 -0.2289
 4376SOL     OW24760   0.987   0.084   1.297 -0.0265  0.5097 -0.4527
 4376SOL    HW124761   1.065   0.129   1.331 -0.5930  0.4453  0.9206
 4376SOL    HW224762   1.038   0.023   1.243  0.0863 -0.4111  0.7188
 4377SOL     OW24763   2.690   3.978  16.383 -0.0240  0.5076  0.3707
 4377SOL    HW124764   2.752   3.999  16.314 -0.7265 -0.1284 -0.4647
 4377SOL    HW224765   2.684   4.059  16.434 -1.3092 -0.1061  1.2268
 4378SOL     OW24766   3.452   1.721   4.483 -0.0509 -0.3310 -0.9735
 4378SOL    HW124767   3.383   1.659   4.458 -0.4663 -0.2702  0.0188
 4378SOL    HW224768   3.408   1.806   4.483  2.6016  1.0157  1.7213
 4379SOL     OW24769   1.381   1.333   3.376 -0.0253 -0.0755  0.3571
 4379SOL    HW124770   1.286   1.338   3.392 -0.2171 -1.0528 -0.4421
 4379SOL    HW224771   1.417   1.327   3.464 -0.7440 -1.2959  0.5676
 4380SOL     OW24772   0.761   2.664   5.195  0.0510  0.4293  0.0095
 4380SOL    HW124773   0.785   2.644   5.286 -2.4452  2.1244  1.0266
 4380SOL    HW224774   0.822   2.734   5.175 -1.9959  1.6917 -1.7804
 4381SOL     OW24775   3.037   0.796   9.190 -0.1050 -0.0724  0.1816
 4381SOL    HW124776   2.994   0.882   9.188 -0.2675 -0.2033 -1.9205
 4381SOL    HW224777   2.965   0.753   9.236 -0.0511 -1.5850 -1.1646
 4382SOL     OW24778   0.894   3.439   2.002 -0.3953 -0.1945 -0.0545
 4382SOL    HW124779   0.888   3.450   1.907  2.2405 -1.5442 -0.3882
 4382SOL    HW224780   0.808   3.471   2.028 -0.1781  1.2179 -1.0961
 4383SOL     OW24781   1.595   2.351   0.970 -0.5375 -0.2683 -0.0461
 4383SOL    HW124782   1.641   2.268   0.958  0.4934  0.5431 -1.7859
 4383SOL    HW224783   1.628   2.390   0.889 -0.7485 -0.8352 -0.4019
 4384SOL     OW24784   3.367   2.330   4.771  0.1852 -0.5848  0.1488
 4384SOL    HW124785   3.414   2.412   4.781  0.1599 -0.5218 -0.2401
 4384SOL    HW224786   3.389   2.276   4.846 -0.3059  0.6243  1.1553
 4385SOL     OW24787   1.449   3.386   9.940  0.1517  0.2584  0.9905
 4385SOL    HW124788   1.417   3.392  10.030 -0.2623 -1.4699  0.9748
 4385SOL    HW224789   1.380   3.332   9.900 -0.0263  1.9365 -0.9784
 4386SOL     OW24790   3.200   3.291  11.248  0.0124 -0.0923 -0.1239
 4386SOL    HW124791   3.231   3.202  11.269 -0.6813 -0.2039  0.3997
 4386SOL    HW224792   3.225   3.340  11.326  1.1842 -2.3081  0.8961
 4387SOL     OW24793   1.361   4.533   4.159 -0.0086 -0.1123 -0.0175
 4387SOL    HW124794   1.423   4.578   4.216 -0.4769  2.2119 -1.3304
 4387SOL    HW224795   1.331   4.460   4.214  1.1197 -0.0439  0.6701
 4388SOL     OW24796   0.729   0.975   1.054  0.0092 -0.2117 -0.1462
 4388SOL    HW124797   0.691   1.024   1.127  1.4795 -1.0101  1.1510
 4388SOL    HW224798   0.656   0.918   1.030  0.1067  0.0656 -1.1089
 4389SOL     OW24799   1.772   2.659   8.713 -0.4881 -0.2680  0.5223
 4389SOL    HW124800   1.795   2.742   8.754  2.1680 -1.6659  1.8945
 4389SOL    HW224801   1.727   2.698   8.638  1.2389 -0.5748 -0.6760
 4390SOL     OW24802   0.769   4.044   0.788  0.2085  0.3168  0.4483
 4390SOL    HW124803   0.801   4.044   0.697 -0.2083 -1.8454  0.3138
 4390SOL    HW224804   0.682   4.010   0.769  0.1075 -0.2943  2.0086
 4391SOL     OW24805   0.015   3.552   1.760 -0.3690 -0.1543  0.0221
 4391SOL    HW124806   0.027   3.599   1.678 -2.2266  0.2704 -0.0045
 4391SOL    HW224807   0.110   3.539   1.761 -0.3512  0.0774  1.3006
 4392SOL     OW24808   1.184   0.577   6.011 -0.0593 -0.0964 -0.1789
 4392SOL    HW124809   1.171   0.488   6.044 -0.5097 -0.1407 -0.4721
 4392SOL    HW224810   1.272   0.580   5.972 -0.0634 -2.3429 -0.3859
 4393SOL     OW24811   2.618   4.724   3.556  0.1453 -0.6702 -0.2263
 4393SOL    HW124812   2.706   0.025   3.546 -0.7645  1.7425  0.5800
 4393SOL    HW224813   2.634   4.634   3.585  0.8833 -1.5182 -3.3221
 4394SOL     OW24814   3.626   2.870  11.355  0.0006  0.3358 -0.1337
 4394SOL    HW124815   3.592   2.934  11.418 -1.4298 -0.7785  0.2308
 4394SOL    HW224816   3.547   2.842  11.309 -1.2961  0.0826  2.2175
 4395SOL     OW24817   3.224   4.415   5.172 -0.0606 -0.3477 -0.0907
 4395SOL    HW124818   3.259   4.371   5.249  0.3111  1.8761  0.9885
 4395SOL    HW224819   3.229   4.505   5.203  1.4252  0.6438 -3.1579
 4396SOL     OW24820   0.130   4.640  11.280  0.2663 -0.0540  0.6819
 4396SOL    HW124821   0.141   4.685  11.364 -3.3025  2.7951 -0.3834
 4396SOL    HW224822   0.219   4.611  11.262  1.2610  1.5351  3.0424
 4397SOL     OW24823   0.085   2.126   3.737 -0.2875 -0.7693 -0.4524
 4397SOL    HW124824   0.179   2.136   3.748 -0.3761 -0.6021  0.1592
 4397SOL    HW224825   0.100   2.069   3.662 -0.8125  2.4771 -3.0221
 4398SOL     OW24826   0.491   2.694   1.710  0.2345 -0.6581 -0.8236
 4398SOL    HW124827   0.481   2.789   1.706 -0.2685 -0.6992 -0.5116
 4398SOL    HW224828   0.582   2.691   1.681  0.6773  0.3230  0.4347
 4399SOL     OW24829   4.693   2.595   3.541 -0.0132 -0.0661  0.2042
 4399SOL    HW124830   4.618   2.539   3.521  2.3967 -3.3128  0.2456
 4399SOL    HW224831   4.672   2.611   3.633 -3.4822  1.9353 -0.9145
 4400SOL     OW24832   4.423   1.603   4.935  0.0872  0.6399 -0.2354
 4400SOL    HW124833   4.337   1.623   4.899  0.0687 -1.2722 -1.2395
 4400SOL    HW224834   4.413   1.626   5.027  0.6653  1.6857 -0.4261
 4401SOL     OW24835   0.527   4.671   4.871  0.1289  0.1358 -0.0315
 4401SOL    HW124836   0.444   4.629   4.850  0.6986 -1.5840  1.1352
 4401SOL    HW224837   0.537   4.638   4.961 -0.9970 -1.3475 -0.4501
 4402SOL     OW24838   4.057   2.420   3.358  0.2353 -0.3680 -0.0261
 4402SOL    HW124839   4.067   2.383   3.445  0.0870 -0.1934  0.0642
 4402SOL    HW224840   3.970   2.396   3.328 -1.0368  1.0255  2.5792
 4403SOL     OW24841   3.060   2.140   2.597  0.3859  0.3414 -0.2487
 4403SOL    HW124842   2.966   2.155   2.609  0.2265 -1.0033  0.2192
 4403SOL    HW224843   3.090   2.167   2.683 -0.1877 -2.2161  0.7556
 4404SOL     OW24844   3.382   1.508   4.135  0.1283 -0.1630 -0.1840
 4404SOL    HW124845   3.419   1.594   4.116  1.8334 -1.0288 -0.7582
 4404SOL    HW224846   3.342   1.482   4.052 -1.2849 -0.0903  0.4747
 4405SOL     OW24847   2.638   3.255   8.736  0.4708  0.1143 -0.1650
 4405SOL    HW124848   2.574   3.222   8.799  3.6546 -1.0193  2.4565
 4405SOL    HW224849   2.637   3.349   8.749  0.7779  0.3324 -1.6174
 4406SOL     OW24850   0.183   4.291  14.846 -0.5878  0.5051 -0.4880
 4406SOL    HW124851   0.130   4.319  14.772  0.9424 -0.4577 -1.9436
 4406SOL    HW224852   0.122   4.237  14.897 -0.6107  0.0772 -0.9650
 4407SOL     OW24853   1.896   2.195   5.743 -0.1470 -0.1576 -0.4339
 4407SOL    HW124854   1.934   2.282   5.741  0.4415 -0.3667  1.7187
 4407SOL    HW224855   1.889   2.192   5.648  1.3733  1.6607 -0.6004
 4408SOL     OW24856   0.668   1.955  12.978  0.1539 -0.5159  0.2392
 4408SOL    HW124857   0.714   2.023  13.027  0.0018  0.7526 -1.4018
 4408SOL    HW224858   0.722   1.883  13.012 -0.8147 -0.2181  2.3816
 4409SOL     OW24859   0.109   4.301   7.640  0.0285 -0.2421 -0.2713
 4409SOL    HW124860   0.174   4.343   7.696 -0.6391  3.4882 -2.3211
 4409SOL    HW224861   0.164   4.289   7.563 -1.5767 -0.7521 -1.3463
 4410SOL     OW24862   3.409   4.039  14.234  0.3100 -0.0443 -0.0879
 4410SOL    HW124863   3.493   3.993  14.233 -0.4761 -1.4885  1.0888
 4410SOL    HW224864   3.433   4.099  14.305  2.5358 -0.5425 -0.4184
 4411SOL     OW24865   1.992   1.163   9.154  0.4427 -0.2598  0.1279
 4411SOL    HW124866   1.994   1.219   9.076 -0.5359 -0.4200 -0.0167
 4411SOL    HW224867   2.060   1.097   9.141  0.3969  0.2203 -2.5379
 4412SOL     OW24868   2.641   3.878  13.745 -0.0102  0.2611  0.0464
 4412SOL    HW124869   2.666   3.933  13.819  2.1771 -0.2947 -0.2742
 4412SOL    HW224870   2.728   3.845  13.723  0.3191 -0.5237  2.5355
 4413SOL     OW24871   4.169   4.319   7.408 -0.1113  0.4412  0.7762
 4413SOL    HW124872   4.095   4.380   7.412 -0.9717 -0.5190 -0.7084
 4413SOL    HW224873   4.130   4.237   7.439  1.7453 -0.4336  0.8357
 4414SOL     OW24874   3.273   4.305   3.016 -0.0670 -0.0572  0.5342
 4414SOL    HW124875   3.221   4.275   3.091  0.9692 -0.7775  0.9633
 4414SOL    HW224876   3.202   4.362   2.985 -1.9121 -1.8013  1.5551
 4415SOL     OW24877   2.188   4.734  14.281  0.1951 -0.7001  0.2036
 4415SOL    HW124878   2.139   4.661  14.318 -0.1131 -0.1418  0.9031
 4415SOL    HW224879   2.268   4.709  14.327  1.0639  0.1832 -0.8099
 4416SOL     OW24880   3.008   4.020  12.286  0.4023 -0.3061  0.1739
 4416SOL    HW124881   3.089   3.974  12.309  0.9371  0.4804 -0.1119
 4416SOL    HW224882   2.971   4.031  12.374 -2.0409  1.3726 -1.0754
 4417SOL     OW24883   1.939   0.552   9.569 -0.5570 -0.0680  0.3829
 4417SOL    HW124884   1.876   0.506   9.624 -2.4630 -0.1191 -1.8903
 4417SOL    HW224885   1.948   0.504   9.487 -1.4493  1.4871 -0.6426
 4418SOL     OW24886   0.762   4.208   8.581 -0.1335 -0.5015 -0.2616
 4418SOL    HW124887   0.834   4.270   8.593 -1.3880  0.9285 -0.1552
 4418SOL    HW224888   0.804   4.149   8.519 -0.0157  0.0397 -0.6956
 4419SOL     OW24889   1.607   4.472   8.452  0.0374 -0.1246  0.2696
 4419SOL    HW124890   1.537   4.539   8.451 -1.8873 -2.1641 -0.9307
 4419SOL    HW224891   1.665   4.493   8.379  0.3433 -2.4631 -0.1498
 4420SOL     OW24892   2.980   4.635   9.689  0.6126 -0.1479  0.8038
 4420SOL    HW124893   2.962   4.597   9.775  2.6208  3.0979  2.6259
 4420SOL    HW224894   3.075   4.642   9.679  0.1898 -0.7144 -3.4146
 4421SOL     OW24895   1.938   3.431   2.912  0.2714 -0.0464  0.6298
 4421SOL    HW124896   1.918   3.507   2.966  1.2971 -1.1270  2.5153
 4421SOL    HW224897   1.951   3.354   2.968  3.2477 -0.3135 -0.4644
 4422SOL     OW24898   3.096   4.716   9.964  0.4988  0.1247  0.2318
 4422SOL    HW124899   3.187   4.709   9.993  0.9927  1.5271 -0.9678
 4422SOL    HW224900   3.077   0.071   9.990  2.2304  0.4851  0.3014
 4423SOL     OW24901   4.264   3.899   3.224 -0.0792 -0.1229 -0.1199
 4423SOL    HW124902   4.358   3.889   3.236 -0.0151  2.5923  1.6111
 4423SOL    HW224903   4.262   3.929   3.134 -0.4065 -0.8937 -0.3693
 4424SOL     OW24904   2.701   0.707   8.957  0.3766 -0.3711 -0.2723
 4424SOL    HW124905   2.725   0.628   9.007  0.3054 -0.5330 -0.4948
 4424SOL    HW224906   2.767   0.705   8.888  1.6537  0.1990  0.9188
 4425SOL     OW24907   0.829   3.341   6.755 -0.0326  0.1522  0.2132
 4425SOL    HW124908   0.878   3.353   6.836 -0.8223  0.5928  0.6209
 4425SOL    HW224909   0.835   3.246   6.741  0.4380  0.4050 -1.2427
 4426SOL     OW24910   2.518   1.555  13.783  0.4201  0.4205 -0.4155
 4426SOL    HW124911   2.570   1.520  13.710 -0.9017 -2.4097  0.0098
 4426SOL    HW224912   2.578   1.618  13.823 -0.7042  0.7981  0.6698
 4427SOL     OW24913   1.136   4.169  15.734  0.4911  0.2025 -0.2097
 4427SOL    HW124914   1.160   4.224  15.660 -0.9403  1.2644  0.1136
 4427SOL    HW224915   1.179   4.212  15.808  0.6926  0.4584 -0.4714
 4428SOL     OW24916   0.103   0.562   2.748 -0.8285 -0.3220 -0.0587
 4428SOL    HW124917   0.025   0.605   2.715 -0.1731  0.3133 -0.7865
 4428SOL    HW224918   0.083   0.559   2.842 -0.3784 -1.8677 -0.0164
 4429SOL     OW24919   3.818   2.942   6.782  0.1762 -0.6168 -0.1682
 4429SOL    HW124920   3.885   2.982   6.838 -0.9037 -1.0203  1.4123
 4429SOL    HW224921   3.868   2.915   6.705  0.4090 -0.8070  0.0480
 4430SOL     OW24922   4.118   3.669  12.684  0.0343 -0.0952  0.1628
 4430SOL    HW124923   4.166   3.617  12.749  0.9985 -1.3227 -1.5312
 4430SOL    HW224924   4.145   3.636  12.598  3.0380 -1.3385  1.5873
 4431SOL     OW24925   3.005   2.880   5.255  0.2834  0.4091 -0.3195
 4431SOL    HW124926   3.064   2.948   5.223  1.4991 -0.5011  0.0225
 4431SOL    HW224927   2.921   2.895   5.211  0.3793 -0.8900 -0.9290
 4432SOL     OW24928   4.163   4.474   4.444  0.0191  0.5222 -0.2239
 4432SOL    HW124929   4.140   4.393   4.490  1.4675  0.0422 -0.3392
 4432SOL    HW224930   4.113   4.475   4.363  0.7350 -0.7805 -0.6865
 4433SOL     OW24931   2.563   4.090   1.629 -0.2936 -0.3001  0.0328
 4433SOL    HW124932   2.616   4.163   1.596 -1.0232  0.1422 -0.1522
 4433SOL    HW224933   2.486   4.096   1.573  0.0740  0.5617 -0.3817
 4434SOL     OW24934   1.208   1.856   7.026  0.9319  0.1553 -0.2517
 4434SOL    HW124935   1.140   1.819   7.083  0.8253  1.1779  0.2889
 4434SOL    HW224936   1.198   1.797   6.951  1.7202  1.6401 -1.5258
 4435SOL     OW24937   0.734   2.273   3.307  0.0840  0.5564  0.9944
 4435SOL    HW124938   0.737   2.179   3.289 -0.7643  1.0487 -1.7352
 4435SOL    HW224939   0.801   2.315   3.253  0.5721 -2.7503 -0.9804
 4436SOL     OW24940   1.336   4.066   4.790 -0.3112 -0.6158 -0.4293
 4436SOL    HW124941   1.339   3.982   4.835  1.4116  0.9083  2.3211
 4436SOL    HW224942   1.246   4.087   4.812 -0.1132 -0.6872  0.4449
 4437SOL     OW24943   2.336   2.392   5.367  0.2301 -0.4790 -0.4705
 4437SOL    HW124944   2.351   2.381   5.273  0.2350  0.0062 -0.5280
 4437SOL    HW224945   2.257   2.445   5.378 -0.0407 -0.9386 -0.2099
 4438SOL     OW24946   1.264   0.930  12.022  0.3632  0.3628  0.7485
 4438SOL    HW124947   1.333   0.903  12.083  0.3032  0.3737  0.8209
 4438SOL    HW224948   1.265   0.863  11.954  0.6450  0.3867  0.7262
 4439SOL     OW24949   4.360   3.751   7.655 -0.2805 -0.1765  0.7290
 4439SOL    HW124950   4.338   3.676   7.601  0.3263  0.9392 -1.1050
 4439SOL    HW224951   4.452   3.727   7.663  0.1129  1.3934  1.0454
 4440SOL     OW24952   0.348   1.709   9.878 -0.1876  0.4460  0.0837
 4440SOL    HW124953   0.364   1.615   9.887  2.0757  0.7357 -0.8425
 4440SOL    HW224954   0.406   1.742   9.948  0.3565 -0.5062  0.0805
 4441SOL     OW24955   0.861   3.111   8.355 -0.2008  0.5915  0.4862
 4441SOL    HW124956   0.817   3.132   8.272  2.1650  1.8800 -0.4578
 4441SOL    HW224957   0.952   3.128   8.329 -0.5073  0.4622 -0.6726
 4442SOL     OW24958   1.834   1.174  15.364 -0.2655 -0.1181 -0.2849
 4442SOL    HW124959   1.795   1.089  15.386  0.1485  0.1823  1.6497
 4442SOL    HW224960   1.814   1.175  15.271  2.1105  1.2564 -0.7794
 4443SOL     OW24961   1.639   4.675  11.254  0.1223  0.3252 -0.1852
 4443SOL    HW124962   1.581   0.005  11.295  0.6614 -0.0225  1.1390
 4443SOL    HW224963   1.614   4.591  11.291 -0.3346  0.6281  0.2056
 4444SOL     OW24964   3.879   1.779  12.487  0.3964 -0.2776 -0.3180
 4444SOL    HW124965   3.939   1.732  12.546  0.8786  0.3252 -0.3279
 4444SOL    HW224966   3.798   1.782  12.537 -0.8266  2.2333 -2.4360
 4445SOL     OW24967   1.879   1.254  10.678  0.3047  0.1158 -0.1958
 4445SOL    HW124968   1.952   1.262  10.616  1.0056 -3.4706  0.1734
 4445SOL    HW224969   1.933   1.208  10.743 -0.1118 -1.7069 -1.1483
 4446SOL     OW24970   3.765   1.873  15.791  0.4129  0.4476  0.4816
 4446SOL    HW124971   3.836   1.920  15.747 -1.1909 -1.1761 -3.8788
 4446SOL    HW224972   3.809   1.788  15.785  0.1807  0.2164  2.2221
 4447SOL     OW24973   4.657   0.973   7.056  0.7091  0.0826 -0.3090
 4447SOL    HW124974   0.006   0.967   7.101  0.1718  0.7715  0.7925
 4447SOL    HW224975   4.678   1.034   6.985 -0.7423 -0.0305 -0.8334
 4448SOL     OW24976   2.665   4.613   0.888  0.2881  0.5915  0.2766
 4448SOL    HW124977   2.659   4.525   0.850 -2.9036  0.4831  1.0091
 4448SOL    HW224978   2.572   4.629   0.905 -0.1175 -2.2602  0.7379
 4449SOL     OW24979   1.053   3.935  10.888 -0.0778 -0.4611 -0.0768
 4449SOL    HW124980   1.008   3.984  10.956 -3.5910 -0.5007 -2.3433
 4449SOL    HW224981   0.991   3.954  10.817 -1.2106  1.9097  1.5629
 4450SOL     OW24982   3.003   1.526   9.510 -0.5233 -0.0017 -0.5402
 4450SOL    HW124983   2.991   1.614   9.546  1.2290  0.3514 -0.8398
 4450SOL    HW224984   2.998   1.538   9.416  0.2661  1.5142 -0.3960
 4451SOL     OW24985   3.293   4.019   5.295 -0.5050  0.0294 -0.6789
 4451SOL    HW124986   3.374   4.054   5.332 -1.2371  2.1532 -1.0981
 4451SOL    HW224987   3.278   4.076   5.220  2.1763  2.0784  0.3637
 4452SOL     OW24988   3.316   3.735   0.306  0.2271 -0.2606  0.2153
 4452SOL    HW124989   3.237   3.749   0.360  1.3917  0.6427  1.6697
 4452SOL    HW224990   3.331   3.825   0.279  0.6905 -0.3170  0.2871
 4453SOL     OW24991   2.530   0.053   4.650  0.0562 -0.0984  0.5763
 4453SOL    HW124992   2.469   0.116   4.612  0.1383 -0.7812 -0.6615
 4453SOL    HW224993   2.610   0.103   4.669  1.1375 -2.1879  1.5144
 4454SOL     OW24994   1.466   3.972   4.548 -0.3664 -0.0868 -0.2007
 4454SOL    HW124995   1.508   4.058   4.557  0.0442 -0.2870 -0.2065
 4454SOL    HW224996   1.514   3.925   4.616 -0.3013  0.8642  0.4150
 4455SOL     OW24997   3.387   4.062   7.880 -0.0286 -0.4637 -0.5817
 4455SOL    HW124998   3.326   4.135   7.890  1.1698  0.5090 -0.3470
 4455SOL    HW224999   3.390   4.037   7.972 -0.9636 -1.5158 -0.8315
 4456SOL     OW25000   0.108   3.557   7.035 -0.1907 -0.0679 -0.2704
 4456SOL    HW125001   0.163   3.601   7.100 -2.7433 -2.1365  3.2717
 4456SOL    HW225002   0.021   3.597   7.044 -1.1118 -1.9128 -1.0061
 4457SOL     OW25003   1.452   0.509   7.478 -0.2211  0.1738 -0.1517
 4457SOL    HW125004   1.411   0.572   7.419  2.4876  1.7824 -0.3224
 4457SOL    HW225005   1.381   0.463   7.523 -1.1431  0.4496 -1.3342
 4458SOL     OW25006   0.616   2.730  17.109  0.1090 -0.2744 -0.1505
 4458SOL    HW125007   0.582   2.817  17.130 -0.6492 -0.2930 -1.2988
 4458SOL    HW225008   0.646   2.750  17.020 -0.4392 -0.2109 -0.3219
 4459SOL     OW25009   2.909   2.771  13.137 -0.3666 -0.4111 -0.0536
 4459SOL    HW125010   2.937   2.682  13.117  0.2021 -0.1744 -0.3105
 4459SOL    HW225011   2.838   2.777  13.073  0.7716  1.2218 -1.1694
 4460SOL     OW25012   0.255   0.172   3.496  0.0380 -0.1658  0.0308
 4460SOL    HW125013   0.312   0.212   3.430  0.0754 -0.3302 -0.0367
 4460SOL    HW225014   0.301   0.090   3.514 -2.4207 -1.8572 -1.5632
 4461SOL     OW25015   1.552   2.266  11.322 -0.1134 -0.3164 -0.0157
 4461SOL    HW125016   1.552   2.360  11.337  0.7578 -0.7529  2.7639
 4461SOL    HW225017   1.529   2.270  11.229  1.1628 -1.2650 -0.3739
 4462SOL     OW25018   2.083   0.425   7.209  0.0286 -0.5089  0.5160
 4462SOL    HW125019   2.119   0.358   7.152  1.6806  2.5726 -2.0730
 4462SOL    HW225020   2.165   0.451   7.250 -1.4187  1.0814  2.4327
 4463SOL     OW25021   0.229   1.293   4.320  0.2557  0.6188 -0.4462
 4463SOL    HW125022   0.289   1.363   4.296 -0.8493  1.4309 -0.8720
 4463SOL    HW225023   0.228   1.245   4.238  0.5180 -1.4618  0.7866
 4464SOL     OW25024   3.722   2.576   7.537  0.5039  0.4227 -0.2473
 4464SOL    HW125025   3.786   2.631   7.582  2.3582  0.5814 -3.1097
 4464SOL    HW225026   3.749   2.492   7.575 -0.5536  0.3807  0.4197
 4465SOL     OW25027   4.167   0.976   2.994 -0.1051 -0.1127  0.5557
 4465SOL    HW125028   4.237   0.939   3.048 -1.6100 -1.1217  1.8117
 4465SOL    HW225029   4.221   1.026   2.932 -0.2907 -3.6335 -2.4585
 4466SOL     OW25030   4.407   4.617   4.701 -0.1820  0.0775  1.1739
 4466SOL    HW125031   4.329   4.654   4.658  0.1271  0.3159  0.8223
 4466SOL    HW225032   4.397   4.643   4.793  3.7351  2.9891  0.7756
 4467SOL     OW25033   2.196   2.850   2.720 -0.0007 -0.8673  0.4637
 4467SOL    HW125034   2.247   2.779   2.681  0.0664 -0.0894 -0.8457
 4467SOL    HW225035   2.249   2.929   2.706 -2.0479  0.5416  0.5926
 4468SOL     OW25036   4.440   3.373  14.805 -0.6100 -0.3770 -0.0669
 4468SOL    HW125037   4.488   3.290  14.806 -0.1115 -0.0919 -0.4356
 4468SOL    HW225038   4.499   3.428  14.856  0.7255 -1.6987 -0.1818
 4469SOL     OW25039   0.327   0.090   7.880  0.3017  0.1982 -0.2610
 4469SOL    HW125040   0.257   0.132   7.830 -0.2714  2.4724  2.4539
 4469SOL    HW225041   0.278   0.013   7.909 -2.0008  0.7056 -2.8071
 4470SOL     OW25042   3.734   4.314   5.335 -0.4515 -0.2130  0.4118
 4470SOL    HW125043   3.806   4.268   5.293  0.0546 -1.2546  2.4276
 4470SOL    HW225044   3.761   4.332   5.425  2.7044  2.0139 -1.0239
 4471SOL     OW25045   0.125   3.903   6.344  0.3578 -0.0407  0.5469
 4471SOL    HW125046   0.120   3.837   6.275  1.1851  0.2965  0.1674
 4471SOL    HW225047   0.183   3.968   6.304  0.1893  1.2226  2.3121
 4472SOL     OW25048   3.840   4.434   8.011 -0.5416 -0.0317  0.2825
 4472SOL    HW125049   3.918   4.380   8.012  0.0456  0.8355  1.6624
 4472SOL    HW225050   3.781   4.363   8.034 -0.8635  0.1527  0.0407
 4473SOL     OW25051   4.351   1.622  15.114  0.3775 -0.4187  0.0810
 4473SOL    HW125052   4.314   1.686  15.175  0.4138  0.1248 -0.4668
 4473SOL    HW225053   4.302   1.644  15.034  2.1435  0.6773 -0.6804
 4474SOL     OW25054   0.995   0.398  17.690  0.1137  0.3564  0.5042
 4474SOL    HW125055   0.931   0.355  17.633  0.9449 -4.1089  2.9445
 4474SOL    HW225056   1.048   0.439  17.622  0.2567  1.3668  1.2356
 4475SOL     OW25057   3.232   0.818   9.006 -0.2217  0.2030 -0.0116
 4475SOL    HW125058   3.211   0.769   8.926  0.3715  1.7980 -1.1335
 4475SOL    HW225059   3.166   0.774   9.061  0.7854 -0.1549  0.9150
 4476SOL     OW25060   0.203   0.917   1.861 -0.2920 -0.0607 -0.6854
 4476SOL    HW125061   0.277   0.942   1.916 -0.8730  1.2602 -0.4847
 4476SOL    HW225062   0.158   1.001   1.847 -1.4717 -0.7353 -0.9425
 4477SOL     OW25063   3.779   1.758   1.815 -0.1032  0.6368 -0.2771
 4477SOL    HW125064   3.746   1.669   1.818  0.9453  0.2559 -0.0609
 4477SOL    HW225065   3.776   1.790   1.905  1.0767 -0.1283  0.0208
 4478SOL     OW25066   1.495   4.652   0.852 -0.2507 -0.1810  0.2652
 4478SOL    HW125067   1.526   4.636   0.763  2.7935  0.1471  1.2749
 4478SOL    HW225068   1.551   4.725   0.879 -0.0055  0.4322 -1.9292
 4479SOL     OW25069   2.318   4.613   9.094  0.4457 -0.2252  0.1648
 4479SOL    HW125070   2.401   4.564   9.099 -0.9256 -2.6429 -0.6435
 4479SOL    HW225071   2.320   4.657   9.178 -2.1404 -0.2695  0.2216
 4480SOL     OW25072   0.239   0.784   6.456  0.0688 -0.0390  0.1890
 4480SOL    HW125073   0.209   0.706   6.408  0.8222  0.2833 -0.8079
 4480SOL    HW225074   0.243   0.847   6.384 -1.1487 -1.2071 -0.8910
 4481SOL     OW25075   2.091   1.928  10.568 -0.1283 -0.0005 -0.3472
 4481SOL    HW125076   2.120   1.920  10.659  0.7722 -1.8963 -0.7923
 4481SOL    HW225077   2.032   2.001  10.584 -2.0385 -1.6607  0.3030
 4482SOL     OW25078   0.139   2.418   8.866  0.2181  0.5932 -0.2536
 4482SOL    HW125079   0.091   2.369   8.932  0.2585  1.0663  0.1252
 4482SOL    HW225080   0.208   2.462   8.915 -0.3704  1.4497 -0.1775
 4483SOL     OW25081   0.671   0.982   2.082 -0.2315 -0.0301  0.3124
 4483SOL    HW125082   0.741   0.931   2.041  0.7631 -1.6242  4.0115
 4483SOL    HW225083   0.705   1.015   2.165  1.5275 -1.2314  0.0766
 4484SOL     OW25084   3.908   2.393  14.599  0.1266 -0.1765 -0.0098
 4484SOL    HW125085   3.983   2.384  14.539 -1.2034 -1.1315 -1.5114
 4484SOL    HW225086   3.853   2.463  14.565  1.1462 -0.1316 -1.5735
 4485SOL     OW25087   3.408   3.828   8.191  0.2418  0.7119  0.1697
 4485SOL    HW125088   3.371   3.817   8.103 -0.7926 -2.0164  0.9300
 4485SOL    HW225089   3.481   3.766   8.187  2.2212  3.0840 -0.9262
 4486SOL     OW25090   4.688   4.386   3.604 -0.3375 -0.1669 -0.3328
 4486SOL    HW125091   0.026   4.430   3.647 -0.9749  0.0516  0.5098
 4486SOL    HW225092   4.646   4.347   3.680 -0.3348 -0.3636 -0.4309
 4487SOL     OW25093   3.083   2.830   6.693 -0.3018  0.2383 -0.2431
 4487SOL    HW125094   3.000   2.803   6.655 -0.6713  0.7391  0.2041
 4487SOL    HW225095   3.079   2.808   6.786 -0.0718 -1.8582 -0.7308
 4488SOL     OW25096   4.466   3.871   2.467 -0.0965  0.8441  0.4039
 4488SOL    HW125097   4.463   3.938   2.399  0.9318  0.0028 -0.4647
 4488SOL    HW225098   4.385   3.895   2.511 -1.1455  0.7438 -1.4863
 4489SOL     OW25099   1.422   0.816   2.561  0.2861 -0.0946  0.0831
 4489SOL    HW125100   1.501   0.851   2.520  0.7352  1.0536  1.9084
 4489SOL    HW225101   1.383   0.878   2.624 -0.1228  1.4861 -1.7303
 4490SOL     OW25102   1.854   4.134  11.209  0.0097  0.0573  0.2342
 4490SOL    HW125103   1.878   4.226  11.220 -1.6710  0.7763 -2.2953
 4490SOL    HW225104   1.818   4.131  11.121 -2.4117 -0.2171  1.2303
 4491SOL     OW25105   4.041   1.026   5.241 -0.3511  0.4497  0.0667
 4491SOL    HW125106   4.004   1.041   5.328  1.0371  3.2730  0.1754
 4491SOL    HW225107   4.102   0.957   5.268  1.8930  1.3589 -2.7396
 4492SOL     OW25108   0.774   2.534   7.801 -0.0073  0.4550  0.0677
 4492SOL    HW125109   0.783   2.541   7.706 -1.2828  1.5559  0.0316
 4492SOL    HW225110   0.747   2.624   7.823 -1.0587 -0.3140  1.9400
 4493SOL     OW25111   3.007   2.533   0.531  0.7333  0.2964 -0.4464
 4493SOL    HW125112   2.961   2.532   0.615 -1.4894 -0.6334 -1.6787
 4493SOL    HW225113   3.061   2.454   0.540 -0.0925 -0.1605  0.5839
 4494SOL     OW25114   4.671   1.724   8.680 -0.2388  0.5592 -0.5516
 4494SOL    HW125115   0.030   1.703   8.674 -0.2897  0.4103 -0.8163
 4494SOL    HW225116   4.636   1.655   8.735 -0.0413 -0.0108 -1.1407
 4495SOL     OW25117   1.878   2.335   3.109  0.0822  0.3680  0.2561
 4495SOL    HW125118   1.973   2.321   3.103  0.0426 -0.1286  0.8091
 4495SOL    HW225119   1.876   2.429   3.127 -0.4269  1.0414 -3.2835
 4496SOL     OW25120   2.844   3.411   8.441 -0.0445 -0.2185  0.2316
 4496SOL    HW125121   2.819   3.368   8.522  0.1587  0.2847  0.5631
 4496SOL    HW225122   2.803   3.497   8.451 -0.5377 -0.6610  1.9807
 4497SOL     OW25123   0.527   4.519   5.108  0.4037  0.1868 -0.4649
 4497SOL    HW125124   0.471   4.586   5.149  0.3359  0.6862 -1.3762
 4497SOL    HW225125   0.608   4.526   5.158  0.3939 -0.0160 -0.4221
 4498SOL     OW25126   0.852   1.229  17.454  0.7004  0.4128 -0.0648
 4498SOL    HW125127   0.907   1.183  17.518  0.4159 -1.5871 -1.2554
 4498SOL    HW225128   0.772   1.241  17.505 -0.4227 -2.7846 -1.0684
 4499SOL     OW25129   0.871   1.715   4.233  0.0063  0.2412 -0.1793
 4499SOL    HW125130   0.924   1.773   4.288  1.7390 -0.9334 -0.6057
 4499SOL    HW225131   0.790   1.759   4.208  0.1818  0.9467  0.4992
 4500SOL     OW25132   4.622   4.279   2.518 -0.1635 -0.3569 -0.2498
 4500SOL    HW125133   4.542   4.329   2.506  0.0623  0.3908  1.3855
 4500SOL    HW225134   4.685   4.343   2.553 -1.3485  0.9152 -0.4821
 4501SOL     OW25135   4.483   4.189   7.641  0.6099  0.0844 -0.2301
 4501SOL    HW125136   4.409   4.236   7.679  0.0336 -0.4277 -0.7091
 4501SOL    HW225137   4.505   4.247   7.568  0.9308 -1.3668 -1.2850
 4502SOL     OW25138   2.343   1.301  14.629  0.3017  0.0317 -0.0505
 4502SOL    HW125139   2.313   1.380  14.584  1.9702  1.2328  0.9416
 4502SOL    HW225140   2.308   1.303  14.718 -1.6114 -3.9801 -0.7226
 4503SOL     OW25141   4.466   3.473   2.081 -0.0276  0.5461 -0.4831
 4503SOL    HW125142   4.500   3.560   2.097 -1.4113  0.7477  1.3049
 4503SOL    HW225143   4.471   3.426   2.164  2.2533 -0.8883 -1.4350
 4504SOL     OW25144   0.389   0.915  15.486 -0.2513  0.7283  0.0247
 4504SOL    HW125145   0.302   0.881  15.503  0.9214 -2.4870 -0.4156
 4504SOL    HW225146   0.424   0.947  15.569 -1.7336  0.9438  0.5507
 4505SOL     OW25147   0.684   0.654   4.945 -0.2978 -0.2128  0.0493
 4505SOL    HW125148   0.642   0.636   5.029 -0.5460 -0.7182 -0.1831
 4505SOL    HW225149   0.689   0.561   4.922  3.1014 -0.0064 -0.0655
 4506SOL     OW25150   1.716   3.812  17.073 -0.1764  0.3012 -0.4979
 4506SOL    HW125151   1.655   3.837  17.142  0.9097 -0.8038  0.8554
 4506SOL    HW225152   1.785   3.878  17.072  1.4621 -1.4157 -0.2069
 4507SOL     OW25153   1.282   2.619   4.709 -0.1857  0.2756 -0.1787
 4507SOL    HW125154   1.222   2.596   4.639 -0.5460 -0.1601  0.2690
 4507SOL    HW225155   1.369   2.592   4.681 -1.0474 -0.1568 -2.3981
 4508SOL     OW25156   3.261   1.453   2.501 -0.6807 -0.2955 -0.5655
 4508SOL    HW125157   3.225   1.541   2.504 -1.7429 -0.6953 -2.0241
 4508SOL    HW225158   3.261   1.439   2.596 -1.4603 -0.7810 -0.6427
 4509SOL     OW25159   4.180   1.210   5.597 -0.0361  0.2556  0.1283
 4509SOL    HW125160   4.221   1.211   5.511 -0.5152  0.9553 -0.0986
 4509SOL    HW225161   4.209   1.295   5.631  0.3614  0.6073 -1.0643
 4510SOL     OW25162   2.882   4.260  12.872 -0.3756 -0.4811 -0.7813
 4510SOL    HW125163   2.831   4.265  12.953  1.1108  0.9862  0.0762
 4510SOL    HW225164   2.916   4.349  12.861 -1.3768 -0.2838 -2.3402
 4511SOL     OW25165   0.108   2.461   2.033  0.0313 -0.0803  0.0972
 4511SOL    HW125166   0.024   2.485   1.995 -0.1689  0.8594  1.1345
 4511SOL    HW225167   0.135   2.410   1.956 -0.9030  0.2037 -0.4161
 4512SOL     OW25168   0.741   1.215   7.635  0.3670 -0.3160 -0.2560
 4512SOL    HW125169   0.736   1.121   7.652  0.2250 -0.0894  0.9747
 4512SOL    HW225170   0.667   1.249   7.686  0.4612 -0.1256 -0.2465
 4513SOL     OW25171   0.645   4.202   8.831  0.3318  0.7103  0.1784
 4513SOL    HW125172   0.690   4.203   8.746  0.3110  2.2463  0.1854
 4513SOL    HW225173   0.554   4.200   8.800  0.3511  0.1765  0.1673
 4514SOL     OW25174   4.526   4.025   6.917  0.1600  0.5151 -0.1875
 4514SOL    HW125175   4.465   4.031   6.991 -0.3541 -1.2258 -0.4746
 4514SOL    HW225176   4.474   4.079   6.858  0.8060  1.9105  0.4967
 4515SOL     OW25177   3.616   3.867   2.358  0.2139  0.2440  0.3786
 4515SOL    HW125178   3.572   3.826   2.433  2.0585  0.2805  1.4738
 4515SOL    HW225179   3.628   3.958   2.382  2.0972 -0.0676  0.6270
 4516SOL     OW25180   2.675   2.262   1.859  0.4849  0.3163  0.9296
 4516SOL    HW125181   2.619   2.313   1.918 -1.0030 -2.1904  1.6669
 4516SOL    HW225182   2.612   2.191   1.876  2.4779 -1.5577  0.4384
 4517SOL     OW25183   2.470   1.674   5.718  0.6466 -0.4860  0.2392
 4517SOL    HW125184   2.398   1.710   5.770  1.4561 -1.6860  2.1715
 4517SOL    HW225185   2.428   1.610   5.661  1.4423 -0.3777 -0.4690
 4518SOL     OW25186   2.319   3.272   1.015 -0.1145 -0.1986 -0.2593
 4518SOL    HW125187   2.375   3.197   1.035  0.3407 -0.3083 -1.9575
 4518SOL    HW225188   2.367   3.288   0.934 -1.6978 -1.0401 -1.3655
 4519SOL     OW25189   3.788   3.655   9.801  0.3199  0.2887 -0.0527
 4519SOL    HW125190   3.851   3.584   9.811 -1.1584 -0.8758  0.8775
 4519SOL    HW225191   3.730   3.610   9.739  1.4851 -0.2525 -0.7607
 4520SOL     OW25192   2.592   1.722   8.543  0.0493  0.1574  0.0404
 4520SOL    HW125193   2.499   1.698   8.545  0.0103  0.2026 -1.4346
 4520SOL    HW225194   2.617   1.659   8.475  0.3098  0.6154 -0.2788
 4521SOL     OW25195   3.217   3.887  12.383  0.3594 -0.4047 -0.1439
 4521SOL    HW125196   3.310   3.883  12.405  0.1699  1.2418  0.9642
 4521SOL    HW225197   3.191   3.860  12.472 -1.4882  0.9536 -0.2780
 4522SOL     OW25198   1.283   1.195   6.179 -0.2057  0.3942  0.2447
 4522SOL    HW125199   1.236   1.167   6.257  0.0333  0.6177  0.4696
 4522SOL    HW225200   1.234   1.142   6.116  0.8802 -0.2085 -0.0913
 4523SOL     OW25201   2.420   4.682  13.625  0.3582  0.4355 -0.4967
 4523SOL    HW125202   2.326   4.698  13.611 -0.0410 -0.3000  1.3280
 4523SOL    HW225203   2.437   0.022  13.682  1.2597 -0.3284  0.2449
 4524SOL     OW25204   2.287   4.733  15.204 -0.0728 -0.2442 -0.3350
 4524SOL    HW125205   2.224   4.670  15.239  1.2352 -0.7350  1.1496
 4524SOL    HW225206   2.261   4.711  15.115  1.5877 -0.7149 -0.7050
 4525SOL     OW25207   2.111   0.439  12.399 -0.0651 -0.3839 -0.6797
 4525SOL    HW125208   2.037   0.451  12.340  0.4696  1.6348 -0.9613
 4525SOL    HW225209   2.126   0.345  12.402  0.9459 -0.2612 -1.6211
 4526SOL     OW25210   3.888   0.377  11.248 -0.0960  0.3678 -0.1849
 4526SOL    HW125211   3.906   0.467  11.221  2.0952 -0.1626 -0.4743
 4526SOL    HW225212   3.842   0.402  11.328  0.7945 -1.0761  0.7656
 4527SOL     OW25213   0.640   4.240   3.549 -0.2713  0.1741  0.1208
 4527SOL    HW125214   0.567   4.302   3.548 -0.8736 -0.5094  2.7522
 4527SOL    HW225215   0.686   4.259   3.630 -3.1128  3.5134  0.9585
 4528SOL     OW25216   0.455   0.901   6.617 -0.3263 -0.1747  0.3961
 4528SOL    HW125217   0.454   0.805   6.617  2.3319 -0.2186 -1.6118
 4528SOL    HW225218   0.426   0.908   6.526 -1.0744 -0.3385  0.6202
 4529SOL     OW25219   2.060   2.824  10.450  0.2167  0.6874 -0.2426
 4529SOL    HW125220   1.970   2.791  10.449 -0.1697  1.7537 -0.2607
 4529SOL    HW225221   2.076   2.816  10.544 -2.1459 -1.8559 -0.0558
 4530SOL     OW25222   2.186   2.407  16.092  0.8603 -0.2330 -0.4115
 4530SOL    HW125223   2.105   2.425  16.140  0.6137 -1.2043 -0.4554
 4530SOL    HW225224   2.228   2.336  16.140  3.2559  2.6880  1.7897
 4531SOL     OW25225   3.555   3.675   9.048  0.1591  0.4202  0.3234
 4531SOL    HW125226   3.486   3.734   9.080 -0.1418  0.2502 -0.0116
 4531SOL    HW225227   3.579   3.705   8.961  0.5443 -3.4749 -0.9115
 4532SOL     OW25228   0.195   4.433   2.144  0.0627 -0.1876 -0.0710
 4532SOL    HW125229   0.212   4.508   2.201  0.8157 -0.6787  0.3581
 4532SOL    HW225230   0.218   4.362   2.204  2.6980 -0.5378 -1.4463
 4533SOL     OW25231   4.575   2.716   0.383 -0.2575 -0.4931 -0.4481
 4533SOL    HW125232   4.643   2.713   0.450  0.0343  1.8549 -0.6494
 4533SOL    HW225233   4.506   2.677   0.436 -0.4164 -1.6631 -1.5257
 4534SOL     OW25234   1.565   2.219   2.060 -0.4518  0.3668 -0.2847
 4534SOL    HW125235   1.545   2.126   2.049  0.5552 -0.0469  1.3604
 4534SOL    HW225236   1.639   2.246   2.006  0.2382 -1.2173 -0.1358
 4535SOL     OW25237   0.035   1.092   8.112  0.2394  0.4622 -0.4203
 4535SOL    HW125238   0.000   1.091   8.023  2.5997 -1.1060 -1.3127
 4535SOL    HW225239   4.697   1.123   8.167  1.4096 -0.3796  1.5989
 4536SOL     OW25240   3.894   0.908   8.884 -0.6490 -0.5368  0.2083
 4536SOL    HW125241   3.856   0.824   8.858  0.9894 -1.2017  0.0186
 4536SOL    HW225242   3.825   0.937   8.945 -1.4367 -0.0521 -0.9033
 4537SOL     OW25243   2.667   3.322  16.484  0.2016 -0.1351  0.0616
 4537SOL    HW125244   2.724   3.320  16.407 -0.1772 -2.0086 -0.1648
 4537SOL    HW225245   2.609   3.250  16.461 -0.6218  0.8783 -1.0938
 4538SOL     OW25246   1.816   3.902   5.454  0.4609 -0.1806 -0.0276
 4538SOL    HW125247   1.791   3.970   5.392 -2.0034  1.0171  2.2540
 4538SOL    HW225248   1.828   3.963   5.527 -1.7267 -1.0490  1.0604
 4539SOL     OW25249   0.819   3.802   8.366 -0.3188  0.2480 -0.1349
 4539SOL    HW125250   0.746   3.799   8.304  0.2106  0.2837 -0.7550
 4539SOL    HW225251   0.773   3.763   8.442 -1.2599 -0.0665 -0.8645
 4540SOL     OW25252   0.795   2.453   6.458  0.2130 -0.2484  0.5927
 4540SOL    HW125253   0.769   2.406   6.537  0.3512 -1.1314  0.1088
 4540SOL    HW225254   0.750   2.536   6.472 -2.4388 -1.2415 -2.0877
 4541SOL     OW25255   0.981   3.408  11.817 -0.0464 -0.0863 -0.2014
 4541SOL    HW125256   0.945   3.330  11.858 -0.2279 -0.2790 -0.7310
 4541SOL    HW225257   0.904   3.465  11.828  0.2973  0.2936  0.2580
 4542SOL     OW25258   2.458   3.808   1.192  0.4822 -0.1567 -0.4021
 4542SOL    HW125259   2.428   3.817   1.101  0.7481 -0.4301 -0.5178
 4542SOL    HW225260   2.523   3.738   1.192 -0.7871 -1.3191  0.9802
 4543SOL     OW25261   4.148   4.613   6.924  0.5952  0.2499 -0.1814
 4543SOL    HW125262   4.065   4.569   6.906 -0.7541  2.5169  0.5137
 4543SOL    HW225263   4.115   4.702   6.934  1.6979  0.5285  0.8931
 4544SOL     OW25264   2.867   0.035   5.511  0.2661 -0.1175  0.3048
 4544SOL    HW125265   2.846   4.680   5.535  1.5588 -0.3288  0.6064
 4544SOL    HW225266   2.796   0.081   5.557 -0.7125 -0.0458 -1.2484
 4545SOL     OW25267   3.319   3.715   2.838  0.0779  0.4701  0.8298
 4545SOL    HW125268   3.360   3.773   2.902 -1.1269  1.0265  1.1052
 4545SOL    HW225269   3.383   3.696   2.769 -0.1832  0.4424  0.5960
 4546SOL     OW25270   2.218   3.439   7.929 -0.5714 -0.2491  0.6836
 4546SOL    HW125271   2.229   3.519   7.878 -0.1068 -2.5483 -2.8291
 4546SOL    HW225272   2.256   3.372   7.872  2.4078  2.4470 -0.5135
 4547SOL     OW25273   1.661   1.604   8.393  0.0506 -0.4663  0.7610
 4547SOL    HW125274   1.741   1.614   8.445  1.7863  0.3796 -2.0483
 4547SOL    HW225275   1.596   1.637   8.455 -0.7332 -0.4496 -0.0798
 4548SOL     OW25276   1.847   2.868   8.224 -0.0314 -0.3359 -0.1870
 4548SOL    HW125277   1.828   2.962   8.227 -1.3548 -0.6437  0.9059
 4548SOL    HW225278   1.770   2.832   8.268 -0.7392  0.3586 -0.8560
 4549SOL     OW25279   2.381   4.079  15.918  0.3131 -0.4530  0.7902
 4549SOL    HW125280   2.427   4.162  15.906  0.4542 -0.8836 -1.7353
 4549SOL    HW225281   2.394   4.066  16.012  1.5975 -0.5098  0.6047
 4550SOL     OW25282   3.584   1.296   8.632 -0.5228  0.5821 -0.2439
 4550SOL    HW125283   3.550   1.228   8.690  0.3652 -1.3430 -2.0194
 4550SOL    HW225284   3.509   1.342   8.594 -2.0257 -0.6548  1.2219
 4551SOL     OW25285   0.770   1.936   4.765 -0.2656 -0.4120 -0.3153
 4551SOL    HW125286   0.725   1.870   4.713 -1.5743 -0.3279  0.7037
 4551SOL    HW225287   0.696   1.970   4.816 -0.7570 -2.9227  0.6334
 4552SOL     OW25288   4.378   1.886   8.050 -0.4736 -0.4460  0.4562
 4552SOL    HW125289   4.444   1.953   8.066 -0.4707 -0.7596  1.7182
 4552SOL    HW225290   4.304   1.933   8.088  0.6035  0.3076  1.6314
 4553SOL     OW25291   2.808   4.579   2.806  0.0094 -0.0193 -0.4202
 4553SOL    HW125292   2.718   4.607   2.823  0.6689  1.9367 -0.2266
 4553SOL    HW225293   2.808   4.519   2.731 -1.0258 -0.5924  0.0344
 4554SOL     OW25294   2.329   1.443   3.836 -0.6185  0.3645  0.5518
 4554SOL    HW125295   2.277   1.389   3.777  1.5303 -0.3141 -0.7326
 4554SOL    HW225296   2.293   1.429   3.923  0.5093 -3.5894  0.4042
 4555SOL     OW25297   2.614   4.013   9.463 -0.4927  0.4446  0.1139
 4555SOL    HW125298   2.649   3.967   9.540  1.0471  0.5679 -0.5145
 4555SOL    HW225299   2.630   4.103   9.491 -0.1980  0.4402 -0.0381
 4556SOL     OW25300   3.597   0.641   8.156 -0.2436 -0.2211  0.5787
 4556SOL    HW125301   3.612   0.564   8.211  1.6620  0.2610  0.7346
 4556SOL    HW225302   3.666   0.700   8.188 -1.4932  3.2748 -3.2678
 4557SOL     OW25303   3.612   0.973   2.022 -0.1320 -0.1788 -0.2752
 4557SOL    HW125304   3.576   1.032   2.087 -0.3087 -1.8284  1.1305
 4557SOL    HW225305   3.537   0.915   2.005 -0.8824  0.7890 -0.2780
 4558SOL     OW25306   4.456   2.062   2.861  0.3785  0.3004 -0.8258
 4558SOL    HW125307   4.418   2.150   2.868  0.2716  0.0367  1.6315
 4558SOL    HW225308   4.423   2.023   2.780  0.8866  3.2159 -2.4675
 4559SOL     OW25309   0.079   3.791   3.098  0.0474  0.0216  0.2744
 4559SOL    HW125310   0.071   3.869   3.045  0.6346 -0.0493  0.0806
 4559SOL    HW225311   0.066   3.834   3.183 -1.1751 -1.9756  1.1088
 4560SOL     OW25312   3.615   2.245   9.559 -0.8314 -0.1082  0.2841
 4560SOL    HW125313   3.667   2.171   9.591  0.3590  0.3903 -0.5151
 4560SOL    HW225314   3.660   2.248   9.475  0.1699 -0.4781  0.8050
 4561SOL     OW25315   0.684   2.394  13.887  0.1335 -0.2234  0.3598
 4561SOL    HW125316   0.678   2.299  13.871 -1.2317  0.0851 -0.8314
 4561SOL    HW225317   0.634   2.417  13.965 -0.7884 -0.2459 -0.2246
 4562SOL     OW25318   1.357   2.373   6.384  0.0870 -0.3621 -0.4919
 4562SOL    HW125319   1.453   2.375   6.383  0.0524  1.6991 -0.8074
 4562SOL    HW225320   1.347   2.468   6.391 -0.9791 -0.5692  0.9159
 4563SOL     OW25321   4.699   2.838   6.998  0.1721  0.0066 -0.0625
 4563SOL    HW125322   0.006   2.904   6.944  0.0920  0.3237  0.2672
 4563SOL    HW225323   0.020   2.831   7.075 -0.3497  1.5493  0.4499
 4564SOL     OW25324   1.682   4.062   0.345  0.0877 -0.1839  0.0134
 4564SOL    HW125325   1.705   4.137   0.400  0.8624 -0.3270 -0.1143
 4564SOL    HW225326   1.749   3.996   0.363  2.6266  3.5769  4.3082
 4565SOL     OW25327   2.675   0.581   3.338 -0.5336  0.0879  0.0465
 4565SOL    HW125328   2.702   0.597   3.428 -1.5059  0.0892  0.3305
 4565SOL    HW225329   2.759   0.594   3.293 -0.2993 -0.7118  0.2579
 4566SOL     OW25330   3.725   4.706  11.562  0.4643 -0.4540 -0.1821
 4566SOL    HW125331   3.739   4.611  11.565 -1.1388 -0.6944 -0.5122
 4566SOL    HW225332   3.811   0.012  11.555  0.0785  0.5436  0.7934
 4567SOL     OW25333   0.683   0.061  11.562  0.0473 -0.1805  0.7178
 4567SOL    HW125334   0.618   0.104  11.619 -1.1681 -0.8565 -0.1584
 4567SOL    HW225335   0.715   4.724  11.615 -1.4616 -1.0212  0.4825
 4568SOL     OW25336   4.308   0.946   0.583 -0.1161  0.1223 -0.3235
 4568SOL    HW125337   4.284   1.031   0.621 -1.4079 -0.2713 -0.2483
 4568SOL    HW225338   4.283   0.880   0.647 -1.5945  1.8011  0.8243
 4569SOL     OW25339   3.251   3.380   4.113 -0.3596 -0.0741  0.6962
 4569SOL    HW125340   3.214   3.311   4.059  1.0289 -0.2917  0.0176
 4569SOL    HW225341   3.176   3.435   4.135 -0.7640 -0.8885  1.3305
 4570SOL     OW25342   2.908   4.204   8.210 -0.6663  0.5617  0.4320
 4570SOL    HW125343   2.882   4.287   8.250 -2.2427 -0.0322  0.6177
 4570SOL    HW225344   2.820   4.167   8.217 -1.1248  0.8081 -3.6390
 4571SOL     OW25345   2.503   1.057   3.888 -0.1332  0.1026 -0.1480
 4571SOL    HW125346   2.537   1.139   3.923 -2.1618  1.2048 -0.7691
 4571SOL    HW225347   2.473   1.091   3.804  1.6277 -1.0025 -1.2284
 4572SOL     OW25348   4.367   4.078   8.836  0.2233 -0.4248  0.7238
 4572SOL    HW125349   4.314   4.067   8.915 -1.2729 -0.0557 -0.2097
 4572SOL    HW225350   4.311   4.146   8.798 -1.2437 -1.4317  1.0792
 4573SOL     OW25351   3.769   3.171   3.040  0.6488 -0.4928 -0.4282
 4573SOL    HW125352   3.683   3.182   2.999  0.7309  1.6559 -0.0321
 4573SOL    HW225353   3.755   3.088   3.086 -0.5930 -0.1782 -0.2632
 4574SOL     OW25354   0.540   2.168  13.273 -0.1116 -0.4573 -0.2923
 4574SOL    HW125355   0.513   2.179  13.364 -1.5013  0.2606 -0.7897
 4574SOL    HW225356   0.633   2.189  13.270  0.3230 -2.0519  1.7656
 4575SOL     OW25357   4.444   1.544   7.056 -0.0673  0.8132  0.0008
 4575SOL    HW125358   4.364   1.536   7.108 -0.3632  0.4857 -0.5007
 4575SOL    HW225359   4.513   1.532   7.121 -0.2207 -0.4356 -0.0643
 4576SOL     OW25360   0.411   4.577  11.259  0.4220  0.2452 -0.0742
 4576SOL    HW125361   0.476   4.510  11.234 -0.7784 -0.2680 -1.8680
 4576SOL    HW225362   0.450   4.657  11.225  2.8722 -0.4189  1.1216
 4577SOL     OW25363   4.691   3.960   9.436 -0.2379  0.7095 -0.3175
 4577SOL    HW125364   4.684   3.979   9.530  2.1337 -1.3481  0.2666
 4577SOL    HW225365   4.605   3.983   9.400 -0.3926  3.1151  1.5823
 4578SOL     OW25366   3.164   1.908   0.389 -0.3406  0.3071 -0.0008
 4578SOL    HW125367   3.128   1.997   0.384  0.2102  0.4184 -2.0369
 4578SOL    HW225368   3.245   1.928   0.342 -0.6720  0.5631 -0.4656
 4579SOL     OW25369   0.552   3.924  14.822 -0.7989  0.2338  0.3393
 4579SOL    HW125370   0.607   3.948  14.747 -0.3438  1.0582  0.9422
 4579SOL    HW225371   0.489   3.995  14.815  0.7302  1.4318 -1.5215
 4580SOL     OW25372   2.080   0.753  13.830  0.3266  0.4288  0.0759
 4580SOL    HW125373   2.100   0.830  13.778  1.3063  1.2700  1.6737
 4580SOL    HW225374   2.155   0.700  13.805 -0.0638  0.6997 -1.6183
 4581SOL     OW25375   2.342   0.994  12.369 -0.8270 -0.2387  0.7008
 4581SOL    HW125376   2.347   1.089  12.361  2.4309 -0.1840  3.4712
 4581SOL    HW225377   2.364   0.975  12.460  0.1506  0.2303  0.5545
 4582SOL     OW25378   1.775   2.751   5.309 -0.1491  0.0166  0.1896
 4582SOL    HW125379   1.694   2.801   5.316 -0.7744 -1.2069  2.0187
 4582SOL    HW225380   1.797   2.756   5.216  1.2437 -3.3758  0.3326
 4583SOL     OW25381   0.343   3.003   8.771 -0.0449  0.4127  0.1988
 4583SOL    HW125382   0.280   3.024   8.841 -0.8746  2.3822 -1.1149
 4583SOL    HW225383   0.355   3.093   8.740  1.7808  0.8296  2.1044
 4584SOL     OW25384   4.418   3.815   3.522  0.6574  0.2888  0.2086
 4584SOL    HW125385   4.484   3.751   3.550 -0.9608 -0.2477  2.9008
 4584SOL    HW225386   4.448   3.821   3.431  0.3361  0.6866  0.1305
 4585SOL     OW25387   1.716   3.473   6.153 -0.0284 -0.3397 -0.3946
 4585SOL    HW125388   1.747   3.455   6.242 -0.6307 -0.8384 -0.2844
 4585SOL    HW225389   1.658   3.397   6.145  0.7193 -1.0457  0.7531
 4586SOL     OW25390   3.156   4.191   7.405  1.4666 -0.4601 -0.3494
 4586SOL    HW125391   3.114   4.122   7.457  1.4500  0.9349  1.4889
 4586SOL    HW225392   3.103   4.264   7.434  0.6553 -1.4639  0.6949
 4587SOL     OW25393   0.650   2.695  14.546  0.0882  0.0790 -0.3345
 4587SOL    HW125394   0.724   2.734  14.593 -0.5426 -0.0530  0.7651
 4587SOL    HW225395   0.581   2.698  14.612  1.4329 -1.5345  1.1661
 4588SOL     OW25396   4.168   4.050   6.277 -0.1396  0.0348 -0.3639
 4588SOL    HW125397   4.136   3.960   6.270 -0.0325 -0.0869  0.6404
 4588SOL    HW225398   4.103   4.095   6.333  0.8099  0.0803  0.6945
 4589SOL     OW25399   3.914   0.189   5.922 -0.2563 -0.1647 -0.0410
 4589SOL    HW125400   3.838   0.243   5.942 -2.0606 -1.8780 -2.2276
 4589SOL    HW225401   3.983   0.253   5.940 -2.3839  1.3797  2.7021
 4590SOL     OW25402   0.508   4.188   5.612 -0.5482  0.3104 -0.0544
 4590SOL    HW125403   0.486   4.206   5.520  1.4946  1.2121 -0.3665
 4590SOL    HW225404   0.603   4.199   5.604 -0.7475  0.5854 -2.0449
 4591SOL     OW25405   3.558   0.183   2.127  0.1005 -0.6863 -0.0092
 4591SOL    HW125406   3.508   0.243   2.183 -1.0179  2.2552 -4.1254
 4591SOL    HW225407   3.495   0.175   2.055 -0.6868 -1.0214  0.7196
 4592SOL     OW25408   2.274   0.598   6.250  0.1095 -0.3007 -0.2685
 4592SOL    HW125409   2.318   0.678   6.281 -1.6072  1.2021 -1.7249
 4592SOL    HW225410   2.205   0.600   6.317  0.0272  0.3029 -0.3664
 4593SOL     OW25411   1.991   1.585   8.749 -0.2796 -0.1419  0.4184
 4593SOL    HW125412   1.908   1.551   8.716  0.6985 -0.7361 -1.4147
 4593SOL    HW225413   2.047   1.535   8.688  0.4547 -1.0893  1.8671
 4594SOL     OW25414   4.204   3.158   1.943  0.3216 -0.4031 -0.4894
 4594SOL    HW125415   4.220   3.083   1.999 -2.1317  2.5921  4.1939
 4594SOL    HW225416   4.143   3.129   1.875 -0.2549 -0.9037  0.2568
 4595SOL     OW25417   3.203   1.293   8.761  0.2061  0.5874  0.4732
 4595SOL    HW125418   3.174   1.322   8.847 -0.7412  1.2493 -0.0701
 4595SOL    HW225419   3.201   1.197   8.765 -0.8193  0.5879 -0.0582
 4596SOL     OW25420   4.488   2.308   9.153  0.6955  0.6337  0.2894
 4596SOL    HW125421   4.528   2.233   9.109 -0.6040  0.3078 -0.3124
 4596SOL    HW225422   4.515   2.382   9.099 -1.3309  1.0465 -0.1625
 4597SOL     OW25423   3.469   1.622   6.393  0.4017 -0.3307 -0.3523
 4597SOL    HW125424   3.452   1.656   6.481  1.7025 -1.8114  0.4773
 4597SOL    HW225425   3.528   1.549   6.413  2.4953  1.3312 -0.4098
 4598SOL     OW25426   1.987   2.749   2.139 -0.0975 -0.2569  0.3030
 4598SOL    HW125427   1.894   2.764   2.124  0.5303  0.0013 -3.2584
 4598SOL    HW225428   1.986   2.697   2.219 -1.7979 -1.2285 -0.3574
 4599SOL     OW25429   1.446   4.588  16.775 -0.1302 -0.4966  0.3102
 4599SOL    HW125430   1.368   4.552  16.816 -0.7079  0.2332 -0.1524
 4599SOL    HW225431   1.507   4.514  16.778  0.0442 -0.4296 -1.8648
 4600SOL     OW25432   1.885   4.701   5.058 -0.1666  0.0326  0.3469
 4600SOL    HW125433   1.975   4.719   5.030 -0.3409  0.3687  0.0139
 4600SOL    HW225434   1.847   4.664   4.979 -2.8285 -0.5084  1.9134
 4601SOL     OW25435   3.475   2.759  14.970  0.8017  0.8992 -0.0006
 4601SOL    HW125436   3.518   2.724  14.892  3.2787  0.1710  1.6877
 4601SOL    HW225437   3.475   2.673  15.011 -0.2273  0.7374 -0.3484
 4602SOL     OW25438   1.701   3.720   2.218 -0.2010 -0.1711 -0.1076
 4602SOL    HW125439   1.663   3.802   2.248  1.7893  0.7243 -0.0343
 4602SOL    HW225440   1.699   3.662   2.294  0.6354 -0.4961 -0.3215
 4603SOL     OW25441   1.033   1.291   5.432 -0.1470 -0.0980 -0.7102
 4603SOL    HW125442   0.997   1.208   5.463  2.5467 -0.9471  0.1578
 4603SOL    HW225443   0.961   1.349   5.453 -0.3694 -0.2358 -1.0897
 4604SOL     OW25444   0.810   0.608   4.397  0.1026  0.4316 -0.2737
 4604SOL    HW125445   0.729   0.634   4.442 -0.5095 -1.1563 -0.4542
 4604SOL    HW225446   0.775   0.612   4.308 -3.0977 -0.8405  0.9468
 4605SOL     OW25447   0.841   1.466   3.555 -0.4370  0.0276  0.4692
 4605SOL    HW125448   0.853   1.557   3.526  2.4797 -0.2243  0.8793
 4605SOL    HW225449   0.897   1.419   3.494  0.2835  1.5732 -0.0667
 4606SOL     OW25450   1.514   0.802   6.105 -0.0282 -0.8134  0.1629
 4606SOL    HW125451   1.576   0.767   6.041  0.3407 -0.1363  0.1549
 4606SOL    HW225452   1.495   0.892   6.078  0.4181 -0.6662  0.3408
 4607SOL     OW25453   3.608   3.822   2.096 -0.2810 -0.1429 -0.0459
 4607SOL    HW125454   3.551   3.895   2.070  2.8213  2.7123  1.1851
 4607SOL    HW225455   3.598   3.832   2.191 -2.1036  4.4033 -0.6859
 4608SOL     OW25456   3.852   1.254   6.158  0.2113  0.0261  0.1618
 4608SOL    HW125457   3.937   1.262   6.116 -0.0619 -2.1142 -0.8036
 4608SOL    HW225458   3.803   1.320   6.108 -2.2558 -0.1419  2.3499
 4609SOL     OW25459   0.294   0.503   5.997  0.0096  0.1415  0.2137
 4609SOL    HW125460   0.324   0.593   6.004  0.7659 -0.1753  1.0169
 4609SOL    HW225461   0.370   0.455   6.031 -0.1688 -0.2901  0.0049
 4610SOL     OW25462   2.961   1.788   3.985 -1.0027  0.4864 -0.2520
 4610SOL    HW125463   2.960   1.766   3.891  0.4186 -0.7686  0.0239
 4610SOL    HW225464   2.869   1.791   4.011 -1.1629  2.7343 -1.0940
 4611SOL     OW25465   3.711   1.796   5.609  0.1493  0.0792  0.0182
 4611SOL    HW125466   3.709   1.880   5.563  3.4440 -0.2988 -0.7525
 4611SOL    HW225467   3.695   1.740   5.533 -4.3536 -0.6344  1.4587
 4612SOL     OW25468   2.656   2.461   6.093 -0.0022  0.3179  0.0061
 4612SOL    HW125469   2.595   2.400   6.134 -0.4831  1.9657  1.7247
 4612SOL    HW225470   2.722   2.453   6.162  0.5913  1.9653 -0.3894
 4613SOL     OW25471   2.307   2.104   0.298 -0.4880 -0.0156  0.2828
 4613SOL    HW125472   2.250   2.054   0.239 -0.7114 -1.3846  1.6539
 4613SOL    HW225473   2.236   2.153   0.341 -0.1811 -0.4268  1.2605
 4614SOL     OW25474   4.138   3.920   5.833 -0.3842  0.0347  0.7010
 4614SOL    HW125475   4.081   3.914   5.909 -0.9519  0.5028  0.3115
 4614SOL    HW225476   4.081   3.961   5.768 -0.0452 -1.1353 -0.3471
 4615SOL     OW25477   0.764   1.581   4.791  0.4459  0.1354  0.2663
 4615SOL    HW125478   0.756   1.500   4.740 -2.1584  1.0094 -0.6995
 4615SOL    HW225479   0.839   1.621   4.746  0.2263 -0.3989 -0.5832
 4616SOL     OW25480   4.242   1.100   4.570 -0.3557 -0.2594  0.1258
 4616SOL    HW125481   4.256   1.150   4.650 -1.2697  0.5724 -0.2399
 4616SOL    HW225482   4.224   1.164   4.501  1.1176  1.4032  1.3105
 4617SOL     OW25483   0.970   1.786   7.181  0.3016 -0.2090  0.1438
 4617SOL    HW125484   0.899   1.733   7.144 -0.1713 -0.0760  0.8735
 4617SOL    HW225485   0.980   1.733   7.260  0.0973  0.4225  0.5900
 4618SOL     OW25486   0.415   1.866   0.395 -0.6025  0.0797 -0.1731
 4618SOL    HW125487   0.323   1.868   0.371  0.0717  0.8759 -2.6700
 4618SOL    HW225488   0.415   1.779   0.435 -0.1702 -0.0394 -0.4325
 4619SOL     OW25489   1.866   0.380  12.045 -0.1176  0.1728 -0.5940
 4619SOL    HW125490   1.855   0.315  12.114  1.6460 -3.2114 -3.5583
 4619SOL    HW225491   1.940   0.337  12.004  1.0074  2.0743 -0.5545
 4620SOL     OW25492   4.147   1.302   3.636  0.0961  0.1731  0.0676
 4620SOL    HW125493   4.158   1.396   3.652  0.6117  0.0237  0.6167
 4620SOL    HW225494   4.054   1.290   3.653  0.6758 -2.0720  1.5123
 4621SOL     OW25495   4.640   0.565   3.884  0.0661  0.4568 -0.0871
 4621SOL    HW125496   4.588   0.579   3.963 -1.6903  1.6754 -1.4810
 4621SOL    HW225497   4.657   0.472   3.896 -1.7262 -0.1196 -2.1313
 4622SOL     OW25498   0.433   0.760  16.725  0.1426 -0.9691  0.0226
 4622SOL    HW125499   0.450   0.667  16.709 -0.9425 -1.0876 -0.4188
 4622SOL    HW225500   0.514   0.780  16.773 -0.2199 -2.3306  1.2058
 4623SOL     OW25501   0.542   3.377   2.572  0.4209 -0.3604  0.0271
 4623SOL    HW125502   0.528   3.380   2.478 -0.5630  2.1158  0.2584
 4623SOL    HW225503   0.537   3.283   2.590  2.3829 -0.3993  0.4700
 4624SOL     OW25504   1.234   2.871   4.479  0.5598 -0.2692  0.1786
 4624SOL    HW125505   1.202   2.892   4.391 -0.8940 -1.7058  0.3746
 4624SOL    HW225506   1.171   2.811   4.517 -1.0600 -0.1794 -2.3969
 4625SOL     OW25507   3.508   3.404   5.586 -0.1638  0.3813 -0.1230
 4625SOL    HW125508   3.566   3.342   5.540  0.0511  1.0687 -0.7817
 4625SOL    HW225509   3.490   3.351   5.663  0.4202  1.1217  0.5233
 4626SOL     OW25510   3.849   2.981   5.762 -0.2597  0.0842 -0.1733
 4626SOL    HW125511   3.820   2.987   5.671 -3.4021 -0.4332  0.7724
 4626SOL    HW225512   3.869   2.887   5.761 -0.9379 -0.0664  0.1195
 4627SOL     OW25513   2.479   2.536  13.855 -0.1889  0.0442  0.3806
 4627SOL    HW125514   2.527   2.471  13.907  2.0443 -1.7796 -3.9209
 4627SOL    HW225515   2.404   2.481  13.835 -1.7771  2.1151  0.6924
 4628SOL     OW25516   3.860   3.535   7.025  0.1346 -0.3211  0.1024
 4628SOL    HW125517   3.809   3.587   7.087  0.4185  1.0278 -0.8097
 4628SOL    HW225518   3.786   3.512   6.969  0.4707 -2.7206  0.6316
 4629SOL     OW25519   2.547   1.094   4.937 -0.1523  0.0558  0.3217
 4629SOL    HW125520   2.459   1.130   4.947 -0.1426  0.3262 -0.5780
 4629SOL    HW225521   2.567   1.089   5.030  1.5299 -0.0190 -0.0453
 4630SOL     OW25522   1.559   4.711  15.246  0.0982  0.2692 -0.1059
 4630SOL    HW125523   1.607   4.724  15.164 -0.1662 -1.3178 -0.5171
 4630SOL    HW225524   1.471   4.689  15.215 -0.4660  1.6321  0.5096
 4631SOL     OW25525   1.950   0.969   3.595 -0.2269  0.1221 -0.1792
 4631SOL    HW125526   1.921   0.964   3.686 -0.9386 -1.2279 -0.4685
 4631SOL    HW225527   2.043   0.946   3.603 -0.0517  1.2358  0.9535
 4632SOL     OW25528   0.672   0.645   3.566 -0.5712 -0.0861 -0.7678
 4632SOL    HW125529   0.638   0.685   3.486 -1.4745 -0.6414 -0.6646
 4632SOL    HW225530   0.633   0.558   3.563  0.3061 -0.4856 -0.4817
 4633SOL     OW25531   2.515   0.358   8.666 -0.0234  0.4230  0.2898
 4633SOL    HW125532   2.561   0.280   8.635 -2.2078 -1.0201  0.6807
 4633SOL    HW225533   2.424   0.329   8.667  0.3879 -0.8517  1.7209
 4634SOL     OW25534   2.898   0.084   4.541 -0.4637 -0.2510 -0.5502
 4634SOL    HW125535   2.836   0.122   4.479  0.5370  3.6767  0.8665
 4634SOL    HW225536   2.947   0.163   4.565 -2.3122  0.3851  1.1039
 4635SOL     OW25537   4.639   0.485  12.869  0.1222 -0.4489  0.3099
 4635SOL    HW125538   4.560   0.481  12.816 -0.8385  1.3142  1.5803
 4635SOL    HW225539   4.622   0.414  12.931 -0.3873 -1.3670 -0.8935
 4636SOL     OW25540   4.123   2.428   2.081 -0.1076 -0.8880  0.1160
 4636SOL    HW125541   4.170   2.399   2.002 -0.0898 -0.1786 -0.1294
 4636SOL    HW225542   4.147   2.358   2.142 -1.5211 -0.8051  0.7589
 4637SOL     OW25543   3.346   4.299   6.369  0.4770 -0.4022  0.2251
 4637SOL    HW125544   3.300   4.225   6.330  1.1413  0.0427 -1.3818
 4637SOL    HW225545   3.408   4.331   6.303 -1.6159 -0.9053 -1.9831
 4638SOL     OW25546   3.619   3.448   9.656 -0.2617 -0.2301 -0.2380
 4638SOL    HW125547   3.537   3.407   9.629 -0.6916  0.8194 -0.5298
 4638SOL    HW225548   3.644   3.399   9.735  2.1249 -0.0664 -0.8883
 4639SOL     OW25549   0.639   4.431   9.215 -0.1396  0.3590  0.1629
 4639SOL    HW125550   0.614   4.509   9.166 -0.1276  0.3318  0.1144
 4639SOL    HW225551   0.559   4.378   9.215  0.1408 -0.0547 -2.7527
 4640SOL     OW25552   0.877   2.546   3.972 -0.5082 -0.0990  0.0528
 4640SOL    HW125553   0.930   2.626   3.966  2.7181 -1.9726  3.5741
 4640SOL    HW225554   0.795   2.583   4.005 -1.1270 -1.6220  0.2053
 4641SOL     OW25555   3.336   0.423   8.464 -0.2509  0.2362 -0.3543
 4641SOL    HW125556   3.354   0.514   8.440 -3.0383  0.9444  0.2085
 4641SOL    HW225557   3.311   0.395   8.376  1.3508  2.0948 -1.4028
 4642SOL     OW25558   1.474   0.343   7.781  0.0224 -0.3971  0.0754
 4642SOL    HW125559   1.412   0.307   7.718  0.8897 -1.5566 -0.1139
 4642SOL    HW225560   1.557   0.325   7.737  1.0746  0.5079  1.6650
 4643SOL     OW25561   1.445   0.997   0.781  0.0963 -0.0607  0.6589
 4643SOL    HW125562   1.533   0.978   0.814  0.3080 -0.7121 -0.2897
 4643SOL    HW225563   1.420   1.079   0.822  0.2503 -0.8712  2.3658
 4644SOL     OW25564   0.252   1.934  14.483 -0.1570  0.1116  0.9591
 4644SOL    HW125565   0.295   1.910  14.400 -0.5972 -2.0324  1.3410
 4644SOL    HW225566   0.304   1.877  14.540  0.4410 -0.1411  0.1704
 4645SOL     OW25567   4.072   3.105   6.789 -0.6246 -0.8184  0.1911
 4645SOL    HW125568   4.088   3.121   6.882  0.2942  0.0001 -0.1021
 4645SOL    HW225569   4.086   3.191   6.749 -0.1137 -0.6327  0.7623
 4646SOL     OW25570   4.664   0.529  15.039 -0.3393  0.0708 -0.1955
 4646SOL    HW125571   4.605   0.504  14.968 -3.5064  1.3216  1.9660
 4646SOL    HW225572   4.681   0.623  15.035 -1.4233  0.2099 -1.3987
 4647SOL     OW25573   3.050   4.024   2.475 -0.7361  0.3432  0.3677
 4647SOL    HW125574   2.969   3.974   2.486 -0.2740 -0.6028 -0.5679
 4647SOL    HW225575   3.085   4.027   2.564  0.8966  0.1132 -0.2745
 4648SOL     OW25576   2.223   0.421   3.513  0.7245 -0.6509  0.2256
 4648SOL    HW125577   2.136   0.385   3.498 -0.4173  1.4268  1.7736
 4648SOL    HW225578   2.237   0.404   3.606 -0.1738  1.2710  0.7255
 4649SOL     OW25579   0.821   2.251   6.271 -0.1297 -0.1259  0.6557
 4649SOL    HW125580   0.802   2.338   6.307 -0.0467 -0.7695  2.2266
 4649SOL    HW225581   0.820   2.194   6.348  1.1728 -0.0523  0.7367
 4650SOL     OW25582   3.480   2.583   6.577 -0.1459  0.4016  0.9623
 4650SOL    HW125583   3.429   2.504   6.564  3.6458 -2.1034  1.3604
 4650SOL    HW225584   3.510   2.590   6.487  0.1744 -0.3649  1.0049
 4651SOL     OW25585   0.518   2.535   7.049 -0.0216  0.0030  0.1525
 4651SOL    HW125586   0.454   2.528   7.119  2.0801 -1.6001  1.9252
 4651SOL    HW225587   0.528   2.447   7.012 -0.5981  0.0525 -0.1104
 4652SOL     OW25588   2.113   4.496   7.190  0.2095 -0.2651 -0.0014
 4652SOL    HW125589   2.033   4.549   7.191  0.6152  0.3109  0.9782
 4652SOL    HW225590   2.078   4.413   7.222 -0.5342 -1.1659 -3.1740
 4653SOL     OW25591   4.548   1.080   1.142 -0.1815  0.2925  0.5496
 4653SOL    HW125592   4.626   1.050   1.096  1.9366  0.3328  4.0884
 4653SOL    HW225593   4.592   1.112   1.221 -2.0277  0.7731  1.3794
 4654SOL     OW25594   0.144   1.942   3.544  0.2895 -0.0992 -0.3259
 4654SOL    HW125595   0.171   1.852   3.522 -0.6931 -0.0835 -1.5869
 4654SOL    HW225596   0.177   1.986   3.466  0.8410 -2.1334 -1.2532
 4655SOL     OW25597   3.125   0.155   0.833 -0.4055  0.1592 -0.6709
 4655SOL    HW125598   3.035   0.124   0.827 -0.2331 -0.3057 -0.8024
 4655SOL    HW225599   3.151   0.176   0.743 -0.0176 -2.2065 -1.1147
 4656SOL     OW25600   2.388   1.506   7.375 -0.5090  0.0374 -0.1392
 4656SOL    HW125601   2.358   1.495   7.285 -0.7265  2.3628 -0.3706
 4656SOL    HW225602   2.378   1.600   7.393 -1.3728 -0.0229 -0.3255
 4657SOL     OW25603   0.033   1.610   5.771  0.2265  0.8289  0.5417
 4657SOL    HW125604   0.070   1.526   5.797  0.8346 -0.0108 -2.9842
 4657SOL    HW225605   0.086   1.670   5.823 -1.0341  0.8711  1.7858
 4658SOL     OW25606   3.665   4.622   7.494 -0.6488 -0.3024  0.3387
 4658SOL    HW125607   3.621   4.704   7.472 -0.2622 -0.1845  0.0023
 4658SOL    HW225608   3.729   4.655   7.556 -0.8399  1.0530 -0.2025
 4659SOL     OW25609   0.787   2.158   5.368 -0.2366 -0.1565  0.2409
 4659SOL    HW125610   0.696   2.185   5.379 -1.4742 -3.5341 -1.7684
 4659SOL    HW225611   0.823   2.232   5.319 -0.1692 -0.3090  0.0625
 4660SOL     OW25612   2.493   4.334  11.618 -0.3755  0.5713 -0.3228
 4660SOL    HW125613   2.471   4.322  11.526 -2.4948 -0.4563  0.3140
 4660SOL    HW225614   2.439   4.408  11.644  0.7223  2.2509 -2.8460
 4661SOL     OW25615   2.937   2.843   7.774 -0.5232 -0.5905  0.5241
 4661SOL    HW125616   3.015   2.822   7.722  0.8848  4.1171  0.7469
 4661SOL    HW225617   2.900   2.757   7.793 -0.7148 -0.5935  0.1427
 4662SOL     OW25618   0.972   0.017   3.946  0.2891  0.2566  0.1495
 4662SOL    HW125619   1.027   4.689   3.899 -0.1554 -1.5423  2.0834
 4662SOL    HW225620   1.006   0.004   4.034  0.5080 -0.8214 -0.0842
 4663SOL     OW25621   1.420   0.883   6.379 -0.1091 -0.6599 -0.4971
 4663SOL    HW125622   1.490   0.878   6.444 -0.3177  1.3536 -0.1140
 4663SOL    HW225623   1.437   0.801   6.334 -0.5330 -0.8204 -0.3660
 4664SOL     OW25624   3.694   1.383  16.796 -0.4599 -0.5633  0.4477
 4664SOL    HW125625   3.692   1.363  16.703  0.1321  1.8759 -0.0895
 4664SOL    HW225626   3.784   1.352  16.806  0.3147  1.5173 -0.1114
 4665SOL     OW25627   0.947   4.073   1.433 -0.0962  0.5058  0.3387
 4665SOL    HW125628   0.919   4.164   1.434 -1.1185  0.1942  0.3365
 4665SOL    HW225629   0.872   4.042   1.381 -0.3001 -0.9729  1.4940
 4666SOL     OW25630   0.514   1.443   6.335  0.8152  0.6092  0.5101
 4666SOL    HW125631   0.592   1.454   6.280  0.6632  0.6737  0.3108
 4666SOL    HW225632   0.557   1.436   6.421  3.7701 -1.1078 -1.1196
 4667SOL     OW25633   0.966   2.462   8.354 -0.3054 -0.2533  0.3957
 4667SOL    HW125634   0.929   2.447   8.267 -0.2595  1.0950  0.1408
 4667SOL    HW225635   1.027   2.531   8.330  0.9026 -1.6842 -0.6671
 4668SOL     OW25636   1.953   2.463  16.710  0.0348  0.2978  0.2960
 4668SOL    HW125637   2.034   2.513  16.723 -0.7791  1.6270  0.2184
 4668SOL    HW225638   1.915   2.459  16.797 -1.5147 -1.5008 -0.4672
 4669SOL     OW25639   0.066   0.686   6.636 -0.7899  0.3757  0.1130
 4669SOL    HW125640   0.144   0.723   6.595 -1.0917  1.0176  0.1103
 4669SOL    HW225641   0.061   0.724   6.724 -0.3597 -3.0971  1.6241
 4670SOL     OW25642   1.836   4.160   3.750  0.3607 -0.0242  0.2142
 4670SOL    HW125643   1.834   4.160   3.655 -0.8862  2.2906  0.2550
 4670SOL    HW225644   1.832   4.254   3.765 -3.5137 -0.4074  1.5306
 4671SOL     OW25645   2.191   0.523   8.853 -0.0716  0.0516 -0.3479
 4671SOL    HW125646   2.251   0.480   8.793 -0.8868  0.3659 -1.3798
 4671SOL    HW225647   2.221   0.613   8.838  0.0278 -0.1415 -1.2915
 4672SOL     OW25648   4.037   1.184   8.503 -0.1495 -0.3756 -0.1524
 4672SOL    HW125649   4.055   1.243   8.430 -4.3494  1.9555  0.7475
 4672SOL    HW225650   4.024   1.098   8.464  0.8091 -0.8097  0.4579
 4673SOL     OW25651   1.311   1.307  16.062  0.5723  0.3657  0.1784
 4673SOL    HW125652   1.298   1.365  16.137 -3.1166  0.3303 -0.4314
 4673SOL    HW225653   1.263   1.354  15.994  0.3654 -0.0708  0.0271
 4674SOL     OW25654   1.324   2.378   7.099  0.1871  0.2779  0.2394
 4674SOL    HW125655   1.402   2.373   7.153 -1.5290  2.0449  2.9273
 4674SOL    HW225656   1.323   2.288   7.067 -1.8943  1.8010 -3.9558
 4675SOL     OW25657   1.293   2.692   8.576  0.0040  0.5640  0.1459
 4675SOL    HW125658   1.204   2.685   8.541  0.6614 -2.9411 -0.8066
 4675SOL    HW225659   1.344   2.641   8.513 -0.4091 -1.7861  1.7116
 4676SOL     OW25660   0.955   2.354  11.844  0.3045 -0.1520  0.0004
 4676SOL    HW125661   0.859   2.353  11.839  0.2067  1.2304  1.4201
 4676SOL    HW225662   0.970   2.354  11.750 -0.8890 -0.2331 -0.1955
 4677SOL     OW25663   2.404   1.120   8.995 -0.2692  0.4277  0.8303
 4677SOL    HW125664   2.479   1.169   8.960 -0.1735 -1.2377 -1.3299
 4677SOL    HW225665   2.339   1.137   8.927  0.4117 -3.0141 -0.6881
 4678SOL     OW25666   4.538   3.622  12.454  0.0122  0.2067 -0.6484
 4678SOL    HW125667   4.498   3.661  12.376  1.5393 -1.1226 -2.1094
 4678SOL    HW225668   4.545   3.533  12.418 -0.1479 -0.3149  0.6127
 4679SOL     OW25669   3.868   1.011   6.709  0.3236  0.5801  0.2153
 4679SOL    HW125670   3.830   0.936   6.756 -1.0174 -0.1999 -2.1456
 4679SOL    HW225671   3.959   0.984   6.721  0.3336  0.4248 -0.2107
 4680SOL     OW25672   1.019   1.156   7.794  0.4696 -0.6650  0.1262
 4680SOL    HW125673   0.979   1.069   7.787 -1.1118  0.0238  0.5590
 4680SOL    HW225674   0.945   1.215   7.809 -2.3082 -4.2241  0.4339
 4681SOL     OW25675   4.553   0.247  16.659 -0.0411  0.6829 -0.3016
 4681SOL    HW125676   4.543   0.238  16.754 -0.9304 -0.0972 -0.4619
 4681SOL    HW225677   4.574   0.158  16.630  1.2995  0.3740  1.5935
 4682SOL     OW25678   3.944   4.685   3.092  0.0767  0.4758 -0.3724
 4682SOL    HW125679   3.998   4.649   3.023 -2.2412 -1.5531 -1.0989
 4682SOL    HW225680   4.003   4.733   3.151 -0.6350  1.0492 -0.1160
 4683SOL     OW25681   0.583   3.671   4.343  0.6063  0.0254 -0.7764
 4683SOL    HW125682   0.493   3.683   4.312  0.4400 -0.4069 -0.4569
 4683SOL    HW225683   0.641   3.714   4.280  1.1003 -0.8671 -0.9362
 4684SOL     OW25684   1.761   2.345   0.150  0.2528 -0.1983 -0.3208
 4684SOL    HW125685   1.851   2.312   0.145  0.4457  0.1708  0.7544
 4684SOL    HW225686   1.708   2.274   0.114 -1.2293  0.0203  1.4447
 4685SOL     OW25687   1.675   4.073  17.590 -0.1338 -0.0984  0.3858
 4685SOL    HW125688   1.635   4.125  17.659 -1.2060 -0.0513 -0.2702
 4685SOL    HW225689   1.721   4.135  17.534 -1.6651  0.8120  0.1390
 4686SOL     OW25690   2.147   4.252   5.002  0.5738 -0.0030  0.1524
 4686SOL    HW125691   2.166   4.222   4.913 -0.2283  1.9592 -0.6907
 4686SOL    HW225692   2.166   4.183   5.065 -2.0896  0.1157  1.1252
 4687SOL     OW25693   3.104   3.225   3.930 -0.0871  0.0089  0.0567
 4687SOL    HW125694   3.019   3.203   3.969 -0.0097  0.0648  0.2569
 4687SOL    HW225695   3.071   3.270   3.852  2.4403 -0.0451 -1.0386
 4688SOL     OW25696   0.639   2.432   6.697 -0.1059 -0.2765  0.8741
 4688SOL    HW125697   0.614   2.417   6.788  1.8124 -0.6107  1.3396
 4688SOL    HW225698   0.588   2.358   6.663  0.2444 -0.8753  1.6714
 4689SOL     OW25699   3.594   3.508   2.896 -0.3172 -0.1903  0.0536
 4689SOL    HW125700   3.507   3.474   2.874 -0.4593 -0.4174  0.9677
 4689SOL    HW225701   3.597   3.496   2.991  0.1081 -0.3723  0.0153
 4690SOL     OW25702   1.274   2.377   2.678 -0.3979 -0.1432 -0.5448
 4690SOL    HW125703   1.369   2.382   2.672 -0.3640 -1.5317 -1.1283
 4690SOL    HW225704   1.233   2.457   2.645 -0.0825 -0.4017 -1.5521
 4691SOL     OW25705   1.699   2.646   3.192 -0.7256  0.0998 -0.3782
 4691SOL    HW125706   1.632   2.584   3.224 -0.4694  1.1484  2.1979
 4691SOL    HW225707   1.680   2.662   3.099 -2.0663 -1.2201 -0.3463
 4692SOL     OW25708   3.803   0.844   4.819  0.0705 -0.3937  0.0543
 4692SOL    HW125709   3.847   0.842   4.904 -1.6989 -1.6148  0.9598
 4692SOL    HW225710   3.803   0.749   4.814 -0.2061 -0.4013  0.1881
 4693SOL     OW25711   2.653   2.745   0.859 -0.1239 -0.2025 -0.2998
 4693SOL    HW125712   2.685   2.777   0.944 -0.0675  1.8036 -1.0918
 4693SOL    HW225713   2.709   2.668   0.850  0.2897 -0.1284  1.4751
 4694SOL     OW25714   0.730   4.517   5.293  0.2732  0.6636 -0.3691
 4694SOL    HW125715   0.722   4.476   5.380  0.5195  0.6686 -0.3441
 4694SOL    HW225716   0.805   4.466   5.261 -0.1968 -0.4444  0.2823
 4695SOL     OW25717   1.702   3.251   3.571  0.8426  0.0797  0.5303
 4695SOL    HW125718   1.620   3.275   3.613  0.3086  1.9426 -1.5617
 4695SOL    HW225719   1.691   3.163   3.534 -0.9670 -0.0901  1.4561
 4696SOL     OW25720   0.082   4.661  14.230  0.0124  1.1009 -0.6174
 4696SOL    HW125721   0.068   0.013  14.194 -0.3933  0.3175 -2.3698
 4696SOL    HW225722   0.111   4.675  14.320 -0.3403  2.2678 -0.6806
 4697SOL     OW25723   3.600   2.660   2.271  0.1766  0.2701  0.2468
 4697SOL    HW125724   3.514   2.628   2.299  0.5614  0.1702  1.2907
 4697SOL    HW225725   3.651   2.580   2.255  0.2241  0.6205 -1.3728
 4698SOL     OW25726   0.118   1.197   1.805  0.2370  0.3466 -0.2482
 4698SOL    HW125727   0.126   1.250   1.884 -0.6653  1.0594 -0.6379
 4698SOL    HW225728   0.210   1.190   1.778 -0.1432 -0.4412 -1.3502
 4699SOL     OW25729   2.277   0.389   6.054 -0.4078 -0.4810 -0.2329
 4699SOL    HW125730   2.340   0.320   6.075  0.1464  0.0513 -0.1591
 4699SOL    HW225731   2.271   0.442   6.134 -1.0146  2.2442 -2.1114
 4700SOL     OW25732   3.570   4.268   6.555  0.8256 -0.1927 -0.1159
 4700SOL    HW125733   3.564   4.247   6.648 -1.0762 -0.2195 -0.2519
 4700SOL    HW225734   3.495   4.225   6.515  1.1271  0.0765 -0.9634
 4701SOL     OW25735   3.536   0.460   3.763 -0.1759 -0.0266  0.8512
 4701SOL    HW125736   3.482   0.537   3.747  0.7410  0.6669  1.1382
 4701SOL    HW225737   3.531   0.414   3.679 -0.1090  1.2795  0.1403
 4702SOL     OW25738   2.930   0.187   6.200  0.3059  0.0507  0.2354
 4702SOL    HW125739   2.960   0.163   6.288 -0.4044 -0.3433  0.3690
 4702SOL    HW225740   3.012   0.170   6.153  1.4088  1.2820  1.7491
 4703SOL     OW25741   0.384   2.550   7.290 -0.2026  0.2863 -0.1225
 4703SOL    HW125742   0.342   2.605   7.356  1.4561  0.3679  0.8551
 4703SOL    HW225743   0.305   2.500   7.269 -1.8804  2.7813  0.2431
 4704SOL     OW25744   1.204   4.361   9.196  0.8881  0.3322  0.0775
 4704SOL    HW125745   1.124   4.330   9.239 -0.7938  3.0744 -1.0677
 4704SOL    HW225746   1.257   4.297   9.243 -0.1902 -1.1758 -0.7730
 4705SOL     OW25747   1.188   0.049   4.765 -0.1089 -0.3173 -0.5632
 4705SOL    HW125748   1.246   0.094   4.705  0.6731 -0.9957 -0.3288
 4705SOL    HW225749   1.246   0.050   4.842 -0.9068  1.8780 -0.0017
 4706SOL     OW25750   0.600   1.165   4.642  0.6936 -0.3952  0.0889
 4706SOL    HW125751   0.511   1.171   4.605  0.2117  0.8540  1.4274
 4706SOL    HW225752   0.587   1.152   4.736  0.0058  2.0887  0.3295
 4707SOL     OW25753   1.833   2.023  12.779 -0.5419 -0.3775 -0.4303
 4707SOL    HW125754   1.808   1.932  12.795  1.2984 -1.0592 -1.5309
 4707SOL    HW225755   1.874   2.042  12.864  0.6926 -0.3315 -1.0463
 4708SOL     OW25756   3.417   0.052   0.424  0.1307  0.3313  0.6856
 4708SOL    HW125757   3.335   0.015   0.390  1.9316 -0.2152 -3.0514
 4708SOL    HW225758   3.395   0.145   0.416 -1.6638  0.0587  2.3121
 4709SOL     OW25759   2.506   1.701   0.404 -0.9605  0.1004  0.0853
 4709SOL    HW125760   2.488   1.763   0.333 -0.7125  1.3786  1.1542
 4709SOL    HW225761   2.526   1.621   0.354 -2.0053  0.7825 -1.4457
 4710SOL     OW25762   0.469   4.230  13.362  0.1598 -0.0982 -0.1101
 4710SOL    HW125763   0.561   4.252  13.351  0.3758  0.3036  2.4243
 4710SOL    HW225764   0.467   4.231  13.458  1.8663 -0.0359 -0.0784
 4711SOL     OW25765   1.306   1.515   6.727  0.0402 -0.1858  0.2851
 4711SOL    HW125766   1.279   1.452   6.793 -2.8340  3.7275  2.8349
 4711SOL    HW225767   1.221   1.559   6.717  1.1738  2.0348  0.4667
 4712SOL     OW25768   3.863   3.784   2.293  0.2029 -0.5081 -0.1615
 4712SOL    HW125769   3.771   3.798   2.316  0.8861  1.9977  1.0276
 4712SOL    HW225770   3.892   3.712   2.349  2.4973 -0.8473 -1.7636
 4713SOL     OW25771   0.526   0.754   2.654 -0.3884 -0.7215  0.1037
 4713SOL    HW125772   0.550   0.728   2.566 -1.5314 -0.4365 -0.2887
 4713SOL    HW225773   0.432   0.762   2.640 -0.0605  0.2786 -1.5570
 4714SOL     OW25774   1.278   3.878   6.197 -0.0991 -0.1120 -0.1669
 4714SOL    HW125775   1.323   3.890   6.114 -0.6652  1.7385 -0.2175
 4714SOL    HW225776   1.315   3.799   6.237 -2.3738 -0.8973  0.3937
 4715SOL     OW25777   2.805   4.251   7.639 -0.7284  0.2580  0.3162
 4715SOL    HW125778   2.713   4.239   7.613  0.1781 -0.4233 -2.6013
 4715SOL    HW225779   2.797   4.190   7.712  1.2646 -0.6061 -0.1878
 4716SOL     OW25780   0.457   1.592   8.237  0.4295 -1.1846  0.1049
 4716SOL    HW125781   0.423   1.518   8.186  1.9664 -0.3115 -2.2136
 4716SOL    HW225782   0.373   1.634   8.256  1.9638  1.4899  0.8502
 4717SOL     OW25783   1.602   2.869   6.640  0.7946 -0.1876 -0.1019
 4717SOL    HW125784   1.671   2.904   6.695 -0.2672  0.5961  0.7364
 4717SOL    HW225785   1.560   2.811   6.703 -1.0500 -0.4502 -1.5735
 4718SOL     OW25786   4.687   1.552   6.792 -0.2031 -0.3642 -0.0174
 4718SOL    HW125787   0.031   1.535   6.844 -1.0856  1.4306  1.9614
 4718SOL    HW225788   4.684   1.648   6.796 -1.6648 -0.6424  6.0367
 4719SOL     OW25789   4.179   4.498  13.248 -0.0168 -0.5732 -0.8028
 4719SOL    HW125790   4.258   4.545  13.221  0.4165 -0.8681 -0.0528
 4719SOL    HW225791   4.205   4.450  13.327  0.8348  2.2174  0.6193
 4720SOL     OW25792   3.803   4.598   2.751  0.3508 -0.6156  0.3427
 4720SOL    HW125793   3.832   4.538   2.819  1.4746  2.8068  2.9169
 4720SOL    HW225794   3.856   4.578   2.674  0.2293 -2.0515  0.6283
 4721SOL     OW25795   0.405   4.579  11.755  0.1826  0.0824  0.0897
 4721SOL    HW125796   0.406   4.670  11.724 -1.9566 -0.3168 -1.1291
 4721SOL    HW225797   0.383   4.521  11.682 -1.0125  0.1566  0.3794
 4722SOL     OW25798   0.365   2.642   5.740  0.2101 -1.0794 -0.7214
 4722SOL    HW125799   0.393   2.575   5.802  4.6122  1.1677 -0.2332
 4722SOL    HW225800   0.270   2.629   5.745 -0.4228  3.1840 -1.5674
 4723SOL     OW25801   2.899   3.777   3.159  0.0176  0.1792 -0.4234
 4723SOL    HW125802   2.900   3.790   3.064 -1.2189 -0.3909 -0.5247
 4723SOL    HW225803   2.910   3.682   3.166 -0.2321  0.1613 -0.2593
 4724SOL     OW25804   3.446   2.277  11.284 -0.5464 -0.1222 -0.1927
 4724SOL    HW125805   3.391   2.305  11.211 -1.2749  1.1987  0.8424
 4724SOL    HW225806   3.479   2.364  11.308 -0.9962  0.1611 -0.5784
 4725SOL     OW25807   2.889   3.778   6.700  0.6023  0.7293  0.4220
 4725SOL    HW125808   2.834   3.741   6.631  2.4651 -1.3649  0.0854
 4725SOL    HW225809   2.869   3.718   6.772 -0.3975 -0.9212 -1.2390
 4726SOL     OW25810   2.426   0.286   2.906  0.5197  0.2820  0.4019
 4726SOL    HW125811   2.499   0.307   2.964  0.8393 -0.8450  0.3982
 4726SOL    HW225812   2.426   0.192   2.922  0.8228  0.3768  0.9554
 4727SOL     OW25813   0.677   3.063   6.903  0.8126  0.0366  0.0915
 4727SOL    HW125814   0.597   3.116   6.903 -0.2843 -1.6361 -0.1254
 4727SOL    HW225815   0.707   3.071   6.812 -1.4464  2.3144 -0.4535
 4728SOL     OW25816   1.619   1.572  17.232 -0.1374  0.3654  0.3387
 4728SOL    HW125817   1.621   1.581  17.136  2.1992 -0.3183  0.3236
 4728SOL    HW225818   1.592   1.481  17.245  1.7992 -0.1999  0.4663
 4729SOL     OW25819   2.407   1.022   5.248  0.3740  0.6860  0.3246
 4729SOL    HW125820   2.381   1.114   5.238  1.5234  0.7260 -2.3638
 4729SOL    HW225821   2.335   0.994   5.304  1.2839  1.0833  1.6808
 4730SOL     OW25822   3.813   1.536   2.383 -0.0530  0.1762  0.2723
 4730SOL    HW125823   3.754   1.545   2.458 -2.8341  0.0906 -1.9404
 4730SOL    HW225824   3.788   1.454   2.342  0.0733  0.3501 -0.1490
 4731SOL     OW25825   3.299   3.056  14.879 -0.4813  0.8546 -0.4200
 4731SOL    HW125826   3.261   3.079  14.794 -0.1768 -1.8908 -1.3008
 4731SOL    HW225827   3.392   3.077  14.868 -0.1944 -0.2817 -0.2136
 4732SOL     OW25828   0.154   2.065  13.323 -0.2489 -0.5796  0.0936
 4732SOL    HW125829   0.236   2.050  13.277  1.4864  2.0436  2.3076
 4732SOL    HW225830   0.137   1.977  13.354  1.0473 -1.1649 -0.8686
 4733SOL     OW25831   4.694   2.703   8.114 -0.0230 -0.0162  0.2458
 4733SOL    HW125832   4.651   2.635   8.062 -2.3635  1.7396 -0.1423
 4733SOL    HW225833   0.006   2.659   8.185 -1.1656 -0.2782  0.8351
 4734SOL     OW25834   0.865   4.277  17.318  0.6131 -0.0471  0.5523
 4734SOL    HW125835   0.864   4.213  17.388 -1.8237  1.5872  2.0122
 4734SOL    HW225836   0.957   4.304  17.311  0.4143  0.2311 -1.1803
 4735SOL     OW25837   3.528   2.246   1.614 -0.2326  0.1537 -0.0683
 4735SOL    HW125838   3.438   2.221   1.631  0.7271 -2.0350  1.7768
 4735SOL    HW225839   3.585   2.169   1.612 -0.6922 -0.1988  0.4781
 4736SOL     OW25840   1.629   2.346  14.204  0.0778 -0.5340  0.4926
 4736SOL    HW125841   1.552   2.345  14.147  0.7126 -0.3354 -0.3589
 4736SOL    HW225842   1.596   2.326  14.292 -0.9900  0.7512  0.3829
 4737SOL     OW25843   0.823   3.808  17.163 -0.0849 -0.3983 -0.1671
 4737SOL    HW125844   0.877   3.882  17.137 -1.8197  0.0651 -2.4701
 4737SOL    HW225845   0.750   3.855  17.204 -1.1149 -1.8300 -0.3639
 4738SOL     OW25846   1.477   1.588   2.919 -0.6085  0.5054  0.4229
 4738SOL    HW125847   1.502   1.549   3.003 -0.1971  0.0679  0.0934
 4738SOL    HW225848   1.532   1.667   2.916 -0.6393  0.4397 -1.8738
 4739SOL     OW25849   0.208   2.556   6.726  0.3972  0.2562  0.1153
 4739SOL    HW125850   0.279   2.597   6.776 -0.1430 -0.6015  1.5820
 4739SOL    HW225851   0.123   2.586   6.757  0.2782  0.8008 -0.7334
 4740SOL     OW25852   2.546   2.416   4.378  0.3117  0.4182 -0.0811
 4740SOL    HW125853   2.470   2.397   4.433 -0.1939  2.1237 -0.1826
 4740SOL    HW225854   2.618   2.391   4.435  0.7737  0.6155 -0.5794
 4741SOL     OW25855   0.361   2.127   3.727  0.2836 -0.9729 -0.4876
 4741SOL    HW125856   0.431   2.112   3.790 -1.3068 -1.4044  1.1797
 4741SOL    HW225857   0.392   2.080   3.650 -1.3673 -1.9651 -0.5482
 4742SOL     OW25858   2.133   4.276   4.568 -0.0891  0.1165  0.4042
 4742SOL    HW125859   2.157   4.187   4.542 -0.8103 -0.3618  1.3491
 4742SOL    HW225860   2.218   4.314   4.549  0.0969 -0.2945  0.4063
 4743SOL     OW25861   3.669   0.406   5.070  0.0920 -0.0390  0.2927
 4743SOL    HW125862   3.622   0.354   5.134 -0.0514 -1.1365 -0.6885
 4743SOL    HW225863   3.759   0.372   5.067  0.3598  0.5111  2.8247
 4744SOL     OW25864   2.748   4.414   6.489 -0.1929 -0.2725 -0.5616
 4744SOL    HW125865   2.800   4.345   6.448 -0.7477 -0.9931 -0.0445
 4744SOL    HW225866   2.664   4.369   6.495 -1.2751  1.7334 -0.5257
 4745SOL     OW25867   3.843   3.593   2.758 -0.8161  0.4514  1.0115
 4745SOL    HW125868   3.887   3.586   2.842 -1.7515  0.9120  1.5501
 4745SOL    HW225869   3.764   3.539   2.770  0.6847 -2.4511 -2.1588
 4746SOL     OW25870   0.238   3.432   1.130  0.2806 -0.7262 -0.1997
 4746SOL    HW125871   0.291   3.353   1.130 -0.6277 -1.3265  0.3831
 4746SOL    HW225872   0.179   3.414   1.202 -0.6660 -1.7121 -1.2375
 4747SOL     OW25873   1.561   3.266   3.056 -1.3308 -0.2937  0.7243
 4747SOL    HW125874   1.517   3.269   2.971  4.8918  2.8873 -2.3580
 4747SOL    HW225875   1.596   3.354   3.059 -1.5582 -0.2097  0.9081
 4748SOL     OW25876   3.486   0.121   9.688  0.0760 -0.3455  0.4332
 4748SOL    HW125877   3.478   0.212   9.717  0.5246 -0.5208  1.0918
 4748SOL    HW225878   3.559   0.133   9.627 -0.8405 -0.3135 -0.6597
 4749SOL     OW25879   4.604   2.607  10.953  0.2589 -0.0159 -0.7362
 4749SOL    HW125880   4.630   2.665  11.025 -0.4972 -0.7779  0.1504
 4749SOL    HW225881   4.626   2.664  10.879  1.9283  1.4224  0.8489
 4750SOL     OW25882   0.242   2.908  16.289  0.4488  0.2799 -0.1365
 4750SOL    HW125883   0.325   2.870  16.317  0.0849 -0.4649 -0.0664
 4750SOL    HW225884   0.230   2.888  16.196  0.1346 -1.1441  0.2177
 4751SOL     OW25885   1.743   4.508   7.005 -0.4425 -0.2817 -0.5004
 4751SOL    HW125886   1.715   4.525   6.915  0.8064  3.6640 -0.1504
 4751SOL    HW225887   1.793   4.429   6.984 -1.9202 -1.6223  1.0011
 4752SOL     OW25888   2.222   1.488  14.503  0.2878  0.3943  0.0501
 4752SOL    HW125889   2.235   1.479  14.409  0.4704  1.5075 -0.0321
 4752SOL    HW225890   2.266   1.570  14.525 -2.3886  1.1366  2.6469
 4753SOL     OW25891   1.264   2.459   3.678  0.1230  0.0598  0.0132
 4753SOL    HW125892   1.314   2.457   3.759 -1.0316  0.1673  0.7152
 4753SOL    HW225893   1.318   2.519   3.626 -0.2508  0.4257  0.0566
 4754SOL     OW25894   2.307   1.082  17.404 -0.0543 -0.5226 -0.8150
 4754SOL    HW125895   2.360   1.015  17.360  3.9620  1.2461  1.4210
 4754SOL    HW225896   2.241   1.030  17.450 -0.8669 -0.1123 -1.5277
 4755SOL     OW25897   2.870   1.024  10.231 -0.1584  0.5886 -0.4044
 4755SOL    HW125898   2.793   1.073  10.201 -1.0085 -0.4158  0.1499
 4755SOL    HW225899   2.929   1.076  10.287 -1.5516  1.1517  0.5431
 4756SOL     OW25900   2.051   3.098   5.878 -0.5783 -0.4257  0.4453
 4756SOL    HW125901   1.982   3.044   5.839 -1.7718  3.0257 -2.1909
 4756SOL    HW225902   2.113   3.028   5.898 -0.2783 -0.7254 -1.6096
 4757SOL     OW25903   4.561   1.422   3.410 -0.2192  0.1004 -0.9917
 4757SOL    HW125904   4.616   1.348   3.385 -2.2832 -0.8972 -2.5027
 4757SOL    HW225905   4.526   1.392   3.494  0.6648  2.1415  0.1136
 4758SOL     OW25906   3.948   1.830   0.981 -0.2375 -0.3626  0.0966
 4758SOL    HW125907   3.934   1.880   1.062 -0.7506  1.4465 -1.1091
 4758SOL    HW225908   3.971   1.747   1.023  0.7645 -0.7263 -1.1780
 4759SOL     OW25909   2.728   0.324   3.884 -0.0103  0.1023  0.4427
 4759SOL    HW125910   2.658   0.290   3.829 -0.0375 -1.8753  1.6905
 4759SOL    HW225911   2.740   0.255   3.950  1.2002 -0.5489 -0.4579
 4760SOL     OW25912   1.478   2.174   1.173 -0.1319 -0.5955  0.4295
 4760SOL    HW125913   1.537   2.104   1.200  0.7731 -0.6997 -1.8462
 4760SOL    HW225914   1.529   2.221   1.108 -1.3012  0.3372  0.1769
 4761SOL     OW25915   4.032   0.629   8.623 -0.1447 -0.0153  0.4797
 4761SOL    HW125916   4.065   0.662   8.540 -1.6738 -1.5403 -0.7197
 4761SOL    HW225917   3.947   0.599   8.592  1.4882 -1.2505 -2.8083
 4762SOL     OW25918   1.110   4.188   0.372  0.1802 -0.3491 -0.0954
 4762SOL    HW125919   1.182   4.174   0.433 -0.3043 -0.1114  0.5213
 4762SOL    HW225920   1.083   4.279   0.383 -2.0272 -1.2009  1.3667
 4763SOL     OW25921   4.522   4.340   9.142 -0.6541  0.2012  0.5078
 4763SOL    HW125922   4.583   4.280   9.184 -1.7945  0.7498  2.9391
 4763SOL    HW225923   4.564   4.356   9.058 -0.3984  0.7580  0.7438
 4764SOL     OW25924   4.298   4.474   6.637 -0.0674 -0.1873  0.5536
 4764SOL    HW125925   4.282   4.558   6.594  0.4378 -1.1321 -1.4525
 4764SOL    HW225926   4.382   4.491   6.679 -0.1685  1.3263  0.1322
 4765SOL     OW25927   2.652   0.916   5.307 -0.4370  0.3434 -0.3987
 4765SOL    HW125928   2.620   0.826   5.310  2.2051 -0.5702  0.1785
 4765SOL    HW225929   2.576   0.969   5.331 -1.6279 -0.4830 -2.4174
 4766SOL     OW25930   2.722   0.563  12.415  0.2035  0.2396 -0.0133
 4766SOL    HW125931   2.707   0.574  12.508  0.4830 -0.3210  0.0988
 4766SOL    HW225932   2.674   0.481  12.404 -0.4907  0.8872 -1.7959
 4767SOL     OW25933   4.528   1.087   1.446 -0.5488  0.9605  0.4246
 4767SOL    HW125934   4.598   1.147   1.473 -0.7758  1.0454  0.8235
 4767SOL    HW225935   4.450   1.142   1.451  0.9206  3.1283 -0.5412
 4768SOL     OW25936   1.085   3.600   7.977  0.3404  0.4214 -0.0508
 4768SOL    HW125937   1.104   3.616   8.070 -0.2682 -0.4126  0.2194
 4768SOL    HW225938   1.002   3.554   7.986  1.7316 -1.9302  1.0508
 4769SOL     OW25939   2.809   0.995   4.106  0.3578  0.2441  0.0008
 4769SOL    HW125940   2.868   0.996   4.181  0.2616  0.5312  0.0720
 4769SOL    HW225941   2.791   1.089   4.096  0.5437  0.4536  1.7100
 4770SOL     OW25942   2.221   0.872  14.624 -0.4531  0.8713  0.3754
 4770SOL    HW125943   2.187   0.783  14.625 -0.2518  0.7619 -2.0354
 4770SOL    HW225944   2.237   0.887  14.718 -1.6833 -0.3958  0.7842
 4771SOL     OW25945   1.247   4.357   5.022 -0.0415 -0.3451  0.2763
 4771SOL    HW125946   1.283   4.403   4.946  0.1550  1.8706  1.6971
 4771SOL    HW225947   1.196   4.288   4.981  0.5686  0.4770 -1.8602
 4772SOL     OW25948   1.372   4.078   3.163  0.2299 -0.1853  0.2202
 4772SOL    HW125949   1.358   4.091   3.069 -0.0771 -1.7467  0.0467
 4772SOL    HW225950   1.403   4.160   3.200  2.3768  0.5320 -3.1400
 4773SOL     OW25951   3.944   1.215   8.939  0.0109 -0.4715 -0.3490
 4773SOL    HW125952   3.873   1.256   8.989  1.5035  1.2685  0.3605
 4773SOL    HW225953   3.918   1.124   8.927  2.0778 -1.0207 -0.6800
 4774SOL     OW25954   3.575   1.006   7.267 -0.1433  1.1679  0.2589
 4774SOL    HW125955   3.609   0.928   7.223  2.7647  2.5145  0.0623
 4774SOL    HW225956   3.484   0.978   7.274  0.4903 -1.2658 -1.2532
 4775SOL     OW25957   1.857   1.095   8.738 -0.1961  0.2897 -0.3773
 4775SOL    HW125958   1.940   1.047   8.729  1.9097  3.2771  3.2183
 4775SOL    HW225959   1.820   1.068   8.822  2.7489 -1.0819  0.4847
 4776SOL     OW25960   2.146   3.583  16.388 -0.0884 -0.2073  0.1324
 4776SOL    HW125961   2.239   3.565  16.399  0.1862  0.5134 -1.0294
 4776SOL    HW225962   2.119   3.625  16.470  2.5668 -0.3495  1.0471
 4777SOL     OW25963   4.149   0.692  14.057  0.4575  0.2501 -0.6095
 4777SOL    HW125964   4.075   0.724  14.109  0.2978 -1.2428  0.0844
 4777SOL    HW225965   4.128   0.719  13.968 -1.7245  2.2378  0.5227
 4778SOL     OW25966   4.582   4.001   1.646 -0.0018 -0.0538 -0.4846
 4778SOL    HW125967   4.549   4.019   1.558  1.0281 -3.5617 -1.5830
 4778SOL    HW225968   4.670   3.973   1.621 -0.1800  1.0457 -2.3649
 4779SOL     OW25969   2.055   1.510   4.831 -0.0416 -0.4650 -0.2445
 4779SOL    HW125970   2.128   1.534   4.774 -0.7055  2.1833  0.0284
 4779SOL    HW225971   2.048   1.416   4.815 -1.0238 -0.6421  1.1582
 4780SOL     OW25972   3.427   0.058  13.471 -0.2029 -0.1208  0.2388
 4780SOL    HW125973   3.385   0.143  13.462 -0.3828 -0.3101 -0.6414
 4780SOL    HW225974   3.469   0.060  13.557  0.0615  1.0909  0.0925
 4781SOL     OW25975   0.564   3.033   2.083  0.3995  0.3088  0.0859
 4781SOL    HW125976   0.532   3.097   2.020  1.0027 -0.2343 -0.7631
 4781SOL    HW225977   0.494   2.968   2.089 -0.1894  1.0937  1.8622
 4782SOL     OW25978   1.309   3.603   8.937  0.3404  0.0406  0.0584
 4782SOL    HW125979   1.299   3.544   9.011 -0.2214 -0.6818 -0.5916
 4782SOL    HW225980   1.296   3.543   8.864 -0.4932 -2.7140  2.4952
 4783SOL     OW25981   0.910   3.121   5.940  0.3803  0.1099 -0.3752
 4783SOL    HW125982   0.842   3.079   5.888 -1.4574  0.7359  1.5147
 4783SOL    HW225983   0.858   3.193   5.974 -0.1778 -1.5388  2.2127
 4784SOL     OW25984   2.127   3.937   3.984 -0.1403  0.2828 -0.2691
 4784SOL    HW125985   2.151   3.845   3.967 -0.3897  0.4039 -1.2715
 4784SOL    HW225986   2.160   3.978   3.904  0.3385 -0.3337 -0.3922
 4785SOL     OW25987   3.212   1.789   7.926  0.8012 -0.9219 -0.3147
 4785SOL    HW125988   3.216   1.697   7.902 -0.2446 -1.1919  0.5946
 4785SOL    HW225989   3.117   1.802   7.924  0.8370 -0.6110  0.0985
 4786SOL     OW25990   1.987   2.443   5.791  0.4080  0.6510 -0.3275
 4786SOL    HW125991   1.974   2.538   5.783  1.0777  0.8684  1.0963
 4786SOL    HW225992   2.082   2.435   5.801  0.2400  0.3545  1.0257
 4787SOL     OW25993   3.672   0.807  16.013 -0.0541 -0.4796  0.0841
 4787SOL    HW125994   3.676   0.872  16.084 -0.2577 -1.9755  1.4587
 4787SOL    HW225995   3.591   0.827  15.965 -0.5637 -1.0209  0.7171
 4788SOL     OW25996   1.197   2.654   0.216 -0.1213 -0.5757  0.2045
 4788SOL    HW125997   1.290   2.630   0.218  0.5076  1.7253 -0.7917
 4788SOL    HW225998   1.202   2.749   0.203 -1.8938 -0.4053  0.8034
 4789SOL     OW25999   2.229   2.602   0.317  0.0685  0.2024 -0.1295
 4789SOL    HW126000   2.181   2.555   0.248 -0.1886  1.4821 -0.8233
 4789SOL    HW226001   2.206   2.569   0.404  1.1291  0.8188  0.3868
 4790SOL     OW26002   0.039   2.071   1.758  0.6741  0.5066 -0.1493
 4790SOL    HW126003   0.092   2.101   1.832 -0.2080  1.5370  0.0768
 4790SOL    HW226004   4.709   2.140   1.746 -0.3416 -0.4133  0.1137
 4791SOL     OW26005   3.365   2.026   9.230 -0.2714 -0.2940 -0.0735
 4791SOL    HW126006   3.408   1.977   9.300 -0.2813 -0.5336 -0.2330
 4791SOL    HW226007   3.434   2.026   9.164 -0.0617  2.3168  0.1641
 4792SOL     OW26008   2.033   4.728   6.642  0.3034 -0.4778 -0.0809
 4792SOL    HW126009   2.106   4.670   6.622  1.4495  0.9119  0.1079
 4792SOL    HW226010   2.052   4.721   6.735 -1.6048 -1.6095  0.2261
 4793SOL     OW26011   0.581   2.965  12.952 -0.2050  0.0682  0.0251
 4793SOL    HW126012   0.517   2.957  13.023 -0.3447 -1.3658 -0.2671
 4793SOL    HW226013   0.608   3.054  12.972  0.3680  0.2296 -1.4948
 4794SOL     OW26014   4.130   0.749   2.185  0.0304 -1.1612  0.2818
 4794SOL    HW126015   4.179   0.689   2.128 -1.3776 -2.3926  0.3776
 4794SOL    HW226016   4.079   0.782   2.111 -0.4846 -0.9691  0.7234
 4795SOL     OW26017   3.330   0.728   4.501 -0.0534  0.7079 -0.0788
 4795SOL    HW126018   3.398   0.734   4.569  0.3750  0.8683 -0.5171
 4795SOL    HW226019   3.256   0.770   4.545  0.5321  1.2336  0.4071
 4796SOL     OW26020   2.194   3.847   7.579  0.1328  0.2231 -0.2329
 4796SOL    HW126021   2.174   3.789   7.507 -1.2533  0.3934  0.0130
 4796SOL    HW226022   2.161   3.800   7.656 -1.5804  1.2744 -0.3073
 4797SOL     OW26023   2.504   4.691  11.400 -0.6836 -0.1543 -0.4588
 4797SOL    HW126024   2.572   4.631  11.431 -0.5461 -0.1649 -0.7786
 4797SOL    HW226025   2.523   0.039  11.443 -1.5067 -0.6199  0.8013
 4798SOL     OW26026   2.280   1.748   4.882  0.4501 -0.5697 -0.4486
 4798SOL    HW126027   2.327   1.680   4.930 -0.8519 -0.9876  0.2341
 4798SOL    HW226028   2.235   1.695   4.816 -0.8595  0.8287 -0.6811
 4799SOL     OW26029   1.916   1.024  13.899 -0.4279  0.1274  0.4946
 4799SOL    HW126030   1.895   1.056  13.811 -0.8171 -1.9440 -0.1679
 4799SOL    HW226031   1.855   1.065  13.960  1.3348 -2.1480  3.7548
 4800SOL     OW26032   3.554   0.006  16.331  0.5101  0.1945 -0.9527
 4800SOL    HW126033   3.518   0.084  16.288 -1.1882  0.1024  0.3045
 4800SOL    HW226034   3.515   4.679  16.270  0.3149  1.0348 -1.6877
 4801SOL     OW26035   2.711   3.892   3.954  0.0014  0.1147 -0.2140
 4801SOL    HW126036   2.703   3.831   3.881 -0.7712  1.4670 -1.2537
 4801SOL    HW226037   2.686   3.972   3.909  0.9625  1.3002  1.3794
 4802SOL     OW26038   1.657   1.864   2.006  0.0749 -0.4730 -0.2981
 4802SOL    HW126039   1.691   1.884   2.093 -0.6145  0.5262 -0.2516
 4802SOL    HW226040   1.594   1.933   1.983 -1.4890 -1.8081  0.0170
 4803SOL     OW26041   2.716   0.560   4.253 -0.1949 -0.0025 -0.0293
 4803SOL    HW126042   2.762   0.477   4.254  0.2296  0.2012 -1.8322
 4803SOL    HW226043   2.630   0.524   4.275 -1.8260  2.1646 -2.6891
 4804SOL     OW26044   4.553   1.640  14.418 -0.2218 -0.5715  0.3513
 4804SOL    HW126045   4.594   1.556  14.438  0.0213 -0.0467  2.1178
 4804SOL    HW226046   4.560   1.698  14.494 -0.1636 -0.1526  0.0267
 4805SOL     OW26047   2.646   1.003   3.534 -0.3507  0.0719 -0.0044
 4805SOL    HW126048   2.640   0.942   3.608  1.6232 -1.3422 -1.0192
 4805SOL    HW226049   2.596   0.952   3.471 -0.3448  2.2867 -1.7907
 4806SOL     OW26050   1.289   4.104  10.347  0.2988  0.5428  0.8286
 4806SOL    HW126051   1.383   4.094  10.333  0.6437  2.3545  1.7636
 4806SOL    HW226052   1.261   4.156  10.272  0.4931  0.3458  0.6193
 4807SOL     OW26053   2.610   3.679   6.963 -0.4984  0.5826 -0.3948
 4807SOL    HW126054   2.572   3.684   6.876 -0.4178 -1.0199 -0.5049
 4807SOL    HW226055   2.681   3.617   6.950  0.9105  1.2667  3.8316
 4808SOL     OW26056   4.634   3.730   7.017 -0.1799 -0.7359 -0.1566
 4808SOL    HW126057   4.539   3.726   7.003 -0.4029  0.5110  0.9683
 4808SOL    HW226058   4.666   3.795   6.955  0.2898  0.3559  1.2420
 4809SOL     OW26059   3.826   1.930   3.658  0.2862 -0.6628  0.1130
 4809SOL    HW126060   3.824   1.955   3.751  1.3907  0.3425 -0.1203
 4809SOL    HW226061   3.798   2.015   3.625  2.2107 -0.2467 -0.4653
 4810SOL     OW26062   3.532   3.585  17.313  0.4455  0.1671  0.3041
 4810SOL    HW126063   3.441   3.563  17.293  0.6542  0.3190 -0.8260
 4810SOL    HW226064   3.561   3.494  17.317 -3.3041 -1.0402 -0.4510
 4811SOL     OW26065   1.455   4.628  11.511  0.2647  0.0506 -0.1465
 4811SOL    HW126066   1.452   4.709  11.460  0.7678 -2.2422 -3.8550
 4811SOL    HW226067   1.539   4.641  11.555  0.7449 -0.9511 -0.7577
 4812SOL     OW26068   2.242   0.482   7.634 -0.3591 -0.1573  0.4884
 4812SOL    HW126069   2.286   0.484   7.719  0.6827  3.1666 -0.1240
 4812SOL    HW226070   2.260   0.392   7.606  0.9737  0.9379 -2.1927
 4813SOL     OW26071   0.499   0.968   2.997 -0.3324 -0.2753  0.2285
 4813SOL    HW126072   0.461   1.025   3.064 -1.2822  0.3355 -0.8404
 4813SOL    HW226073   0.452   0.984   2.916 -0.0883  0.4652  0.2298
 4814SOL     OW26074   2.645   0.347   2.035  0.0531  0.2259  0.2865
 4814SOL    HW126075   2.669   0.405   1.963  0.8390 -1.0296 -0.4620
 4814SOL    HW226076   2.595   0.402   2.095  1.5472  0.4094  1.3733
 4815SOL     OW26077   1.751   4.287  17.407  0.3056 -0.5743 -0.1764
 4815SOL    HW126078   1.830   4.332  17.436 -2.6906  2.8586  2.6213
 4815SOL    HW226079   1.693   4.361  17.389  0.6803  0.1951  1.8218
 4816SOL     OW26080   1.238   3.401  11.858  0.4844  0.2935 -1.2797
 4816SOL    HW126081   1.145   3.416  11.842  0.4970  0.0143 -1.6372
 4816SOL    HW226082   1.231   3.323  11.913 -0.5599  0.1628 -1.6132
 4817SOL     OW26083   0.606   4.391   7.681  0.5349 -0.3741 -0.2018
 4817SOL    HW126084   0.677   4.415   7.739  1.1292 -0.3919 -0.9182
 4817SOL    HW226085   0.570   4.477   7.659  1.6132  0.6559  2.1150
 4818SOL     OW26086   4.518   0.405  17.133  0.4799  0.5237  0.7059
 4818SOL    HW126087   4.495   0.420  17.225  1.9030 -1.8912  1.4485
 4818SOL    HW226088   4.576   0.479  17.113 -0.4329  0.8222 -0.8806
 4819SOL     OW26089   1.315   0.387  11.489 -0.0117  0.0569 -0.0094
 4819SOL    HW126090   1.391   0.403  11.433  1.3736 -2.8315  1.0899
 4819SOL    HW226091   1.357   0.342  11.562  4.1716  3.1707 -0.5250
 4820SOL     OW26092   3.118   1.119  15.417 -0.5449 -0.5723 -0.2633
 4820SOL    HW126093   3.113   1.036  15.371 -1.8196 -0.1867 -0.8259
 4820SOL    HW226094   3.142   1.106  15.509  0.6245  1.2899 -0.2972
 4821SOL     OW26095   1.691   1.697   8.134  0.5314  0.0614 -0.2988
 4821SOL    HW126096   1.670   1.673   8.224 -1.2863  1.0359 -0.4772
 4821SOL    HW226097   1.754   1.766   8.153  0.1308  0.2313  0.4115
 4822SOL     OW26098   1.425   4.702   2.164 -0.0104 -0.5287  1.3006
 4822SOL    HW126099   1.438   0.013   2.247  1.5281  2.2823 -0.5019
 4822SOL    HW226100   1.481   4.624   2.160 -0.1076 -0.5513  0.3768
 4823SOL     OW26101   0.105   3.624   3.814  0.2439  0.5019 -0.1994
 4823SOL    HW126102   0.090   3.571   3.735  2.1183 -0.1888 -0.0777
 4823SOL    HW226103   0.056   3.702   3.787  1.1410  1.2309  0.3064
 4824SOL     OW26104   0.253   4.146   8.424  0.0395 -0.4785  0.5579
 4824SOL    HW126105   0.168   4.178   8.454 -0.1655 -1.0279  0.5725
 4824SOL    HW226106   0.281   4.204   8.353  1.5139 -0.4760  1.1497
 4825SOL     OW26107   3.834   3.214   1.907  0.1046  0.1169 -0.8295
 4825SOL    HW126108   3.764   3.272   1.877 -1.2625 -2.3744 -2.4387
 4825SOL    HW226109   3.783   3.133   1.909  0.9467 -0.4218 -1.3251
 4826SOL     OW26110   2.405   3.944   5.878  0.9671  0.0208  0.4149
 4826SOL    HW126111   2.342   3.874   5.894  1.7818 -0.6955  0.5100
 4826SOL    HW226112   2.388   3.965   5.786 -0.7168 -0.3339  0.6446
 4827SOL     OW26113   2.249   1.337   5.306  0.1150  0.3094 -0.3588
 4827SOL    HW126114   2.326   1.336   5.363 -0.4605  0.1007  0.4027
 4827SOL    HW226115   2.215   1.426   5.319  1.8148  0.6425  1.7875
 4828SOL     OW26116   0.288   3.812   5.961  0.1268  0.3533  0.0424
 4828SOL    HW126117   0.374   3.852   5.954 -0.0136  0.6071 -0.2227
 4828SOL    HW226118   0.282   3.755   5.884 -0.9652 -0.0067  0.3896
 4829SOL     OW26119   2.425   4.637   9.761  0.4291 -0.7894  0.0950
 4829SOL    HW126120   2.391   4.557   9.802  0.0835 -0.0213  1.3224
 4829SOL    HW226121   2.432   4.687   9.842 -0.9123 -0.6304  0.1255
 4830SOL     OW26122   1.070   0.222   5.161 -0.1776 -0.0503 -0.5920
 4830SOL    HW126123   1.057   0.212   5.067  1.1432  0.3110 -0.8145
 4830SOL    HW226124   1.003   0.284   5.190 -0.3472 -0.7367  0.4541
 4831SOL     OW26125   1.925   3.548   5.986  0.4173  0.7137  0.0570
 4831SOL    HW126126   1.970   3.464   5.973  2.5942  1.6367  1.7858
 4831SOL    HW226127   1.848   3.507   6.027  1.2592 -1.0442 -0.1325
 4832SOL     OW26128   4.721   0.012   5.735  0.2185  0.2698 -0.3130
 4832SOL    HW126129   0.055   4.682   5.749 -1.7412 -1.9308 -0.6858
 4832SOL    HW226130   4.667   4.717   5.809  0.8890 -2.5396 -0.9462
 4833SOL     OW26131   3.357   4.008   2.041 -0.1761  0.2003 -0.0303
 4833SOL    HW126132   3.332   4.051   2.122  3.4583  0.5300  0.9164
 4833SOL    HW226133   3.321   3.921   2.056  0.8258 -0.2810 -0.3742
 4834SOL     OW26134   2.453   1.507   9.223  0.2442  0.5422  0.1599
 4834SOL    HW126135   2.375   1.454   9.213 -0.5515  1.4714  1.4200
 4834SOL    HW226136   2.453   1.519   9.318  0.4991 -1.6618  0.4252
 4835SOL     OW26137   1.161   0.791   8.553  0.1900 -0.0264 -0.1720
 4835SOL    HW126138   1.221   0.718   8.541  0.1483 -0.4172  2.0451
 4835SOL    HW226139   1.180   0.846   8.477  1.7899  0.0364  0.2755
 4836SOL     OW26140   3.352   3.340   4.604  0.0621 -0.0735  1.1442
 4836SOL    HW126141   3.334   3.423   4.560 -0.2113 -0.4148  0.6150
 4836SOL    HW226142   3.297   3.359   4.681 -1.4142 -0.2392  0.1320
 4837SOL     OW26143   3.746   4.049   3.712  0.3953  0.1691 -0.3218
 4837SOL    HW126144   3.814   3.988   3.682 -0.8396 -1.7271  0.7795
 4837SOL    HW226145   3.807   4.108   3.757 -0.0727  1.5093 -1.4191
 4838SOL     OW26146   1.807   0.138   5.579 -0.1812  0.3375  0.0496
 4838SOL    HW126147   1.759   0.123   5.660  0.5919  1.6335  0.7438
 4838SOL    HW226148   1.749   0.109   5.509 -0.6238 -3.1189  1.8681
 4839SOL     OW26149   1.700   4.572   6.096 -0.0132 -0.2303 -0.5173
 4839SOL    HW126150   1.793   4.594   6.088  0.1594 -1.3356 -1.5709
 4839SOL    HW226151   1.666   4.655   6.129 -1.4372 -0.8227 -0.5333
 4840SOL     OW26152   3.244   2.817   6.457 -0.2680 -0.0211  0.0516
 4840SOL    HW126153   3.247   2.871   6.536  1.7114 -1.2674  0.8351
 4840SOL    HW226154   3.199   2.742   6.495  0.9399 -0.7375  0.0901
 4841SOL     OW26155   2.662   4.288   0.190  0.4319 -0.4404  0.2657
 4841SOL    HW126156   2.571   4.303   0.216  0.3614 -2.2284  1.0412
 4841SOL    HW226157   2.699   4.374   0.210  0.2175 -0.2068 -0.3520
 4842SOL     OW26158   2.704   1.228   8.116  0.1710 -0.1969  0.0487
 4842SOL    HW126159   2.750   1.222   8.200 -0.2719 -3.2537  0.0543
 4842SOL    HW226160   2.694   1.323   8.118  2.0703 -0.0844  3.4122
 4843SOL     OW26161   3.145   2.574   8.829 -0.1884  0.3577 -0.0912
 4843SOL    HW126162   3.132   2.663   8.861 -1.8351  0.5380 -1.2462
 4843SOL    HW226163   3.127   2.594   8.737 -0.2489 -2.8381 -0.7916
 4844SOL     OW26164   1.420   2.326   9.194  0.1756 -0.1588 -0.2613
 4844SOL    HW126165   1.338   2.375   9.196 -0.6702 -1.6284  2.3986
 4844SOL    HW226166   1.481   2.373   9.137  0.8095  0.0599  0.5813
 4845SOL     OW26167   0.321   2.960   3.405  0.7962 -0.3213 -0.1823
 4845SOL    HW126168   0.355   3.020   3.472 -0.1285  0.2783 -0.2447
 4845SOL    HW226169   0.288   2.891   3.462 -1.0686  0.8985  0.2294
 4846SOL     OW26170   2.580   0.255   3.468 -0.0455  0.2505 -0.3779
 4846SOL    HW126171   2.546   0.168   3.489  2.8357 -0.6828  0.4741
 4846SOL    HW226172   2.523   0.286   3.398 -1.5191  1.0371  1.1572
 4847SOL     OW26173   2.694   3.111   6.973  0.2476 -0.0506 -0.2665
 4847SOL    HW126174   2.629   3.136   7.038  0.2502  3.5350 -1.6449
 4847SOL    HW226175   2.776   3.120   7.021  1.2571 -1.1678 -1.7625
 4848SOL     OW26176   1.252   3.556   1.492 -0.2137 -0.0002  0.0655
 4848SOL    HW126177   1.169   3.591   1.527  1.4478  2.4228  1.5568
 4848SOL    HW226178   1.222   3.485   1.435  1.7903 -2.1582  1.7282
 4849SOL     OW26179   0.178   2.662   9.703  0.2750  0.3748 -0.2556
 4849SOL    HW126180   0.100   2.652   9.648  0.6233  1.0279 -0.8643
 4849SOL    HW226181   0.160   2.591   9.764 -1.1803  2.7559  2.0655
 4850SOL     OW26182   4.088   0.286   1.838  0.1085 -0.2249 -0.5933
 4850SOL    HW126183   4.038   0.365   1.858  1.4034 -0.0938  2.1469
 4850SOL    HW226184   4.015   0.225   1.829 -0.1927  0.1188 -0.4772
 4851SOL     OW26185   3.165   1.330   6.133  0.2324 -0.0139 -0.0462
 4851SOL    HW126186   3.142   1.381   6.055  1.4272 -2.4553 -1.9799
 4851SOL    HW226187   3.218   1.256   6.104 -0.5929 -0.8402  0.5767
 4852SOL     OW26188   3.965   2.039  12.858  0.4176 -0.4292 -0.0055
 4852SOL    HW126189   3.907   2.102  12.816 -0.9092  0.2559  2.8190
 4852SOL    HW226190   4.054   2.067  12.836  0.2822 -1.2974 -1.6316
 4853SOL     OW26191   2.445   4.552   7.965  0.2451  0.0144  0.5128
 4853SOL    HW126192   2.403   4.528   8.048  2.8057  1.8217  2.3677
 4853SOL    HW226193   2.494   4.633   7.982  1.1162 -0.7462  1.6688
 4854SOL     OW26194   1.552   3.321  12.088  0.1715  0.1054 -0.4224
 4854SOL    HW126195   1.468   3.366  12.081 -0.3415 -1.2182 -2.7707
 4854SOL    HW226196   1.617   3.390  12.101  0.7589 -0.6326  0.5451
 4855SOL     OW26197   0.196   0.302   5.431 -0.0084  0.0937 -0.4200
 4855SOL    HW126198   0.234   0.338   5.511  2.9117 -0.6864 -1.4356
 4855SOL    HW226199   0.198   0.209   5.453  1.8676 -0.0048 -1.0342
 4856SOL     OW26200   0.371   2.654  17.230 -0.2976 -1.4105 -0.0433
 4856SOL    HW126201   0.339   2.678  17.143  1.8241  0.4792 -0.3175
 4856SOL    HW226202   0.465   2.647  17.212  0.3882  1.3272  2.5412
 4857SOL     OW26203   4.182   2.670   3.570 -0.7018 -0.0590 -0.3558
 4857SOL    HW126204   4.134   2.742   3.610 -1.9148 -0.6064 -0.7984
 4857SOL    HW226205   4.134   2.665   3.487 -0.6293 -0.0629 -0.3977
 4858SOL     OW26206   0.074   0.136   2.357 -0.4632  0.0625 -0.2575
 4858SOL    HW126207   0.016   0.213   2.358  0.4145  0.6875  1.2141
 4858SOL    HW226208   0.035   0.088   2.430 -1.9173  0.6978 -0.6120
 4859SOL     OW26209   1.796   1.672   9.905  0.1049 -0.1477 -0.1816
 4859SOL    HW126210   1.732   1.707   9.967 -2.0761  0.0674 -2.5777
 4859SOL    HW226211   1.763   1.584   9.888  0.8574 -0.1845 -1.5116
 4860SOL     OW26212   2.772   2.314  10.747  0.7239  0.0326 -0.3170
 4860SOL    HW126213   2.822   2.331  10.667 -1.5070 -1.2727 -1.9767
 4860SOL    HW226214   2.830   2.334  10.820  0.9808  0.8179 -0.7271
 4861SOL     OW26215   0.472   3.842   6.633  0.2076  0.1079  0.1961
 4861SOL    HW126216   0.444   3.867   6.720 -0.3625 -2.1068  0.6458
 4861SOL    HW226217   0.461   3.919   6.577  0.3939 -1.5557 -2.1563
 4862SOL     OW26218   2.907   0.717   8.029 -0.4367  0.1953  0.2767
 4862SOL    HW126219   2.858   0.715   7.946 -1.1944  0.8118  0.7109
 4862SOL    HW226220   2.970   0.788   8.017 -0.3829 -0.2150 -1.9442
 4863SOL     OW26221   4.605   4.502   5.488 -0.3361 -0.2540  0.1667
 4863SOL    HW126222   4.649   4.418   5.487  0.1820  0.0161  0.1152
 4863SOL    HW226223   4.517   4.480   5.456 -0.8308 -0.3197  1.5894
 4864SOL     OW26224   3.807   1.473   5.799  1.1879  1.1005 -0.1516
 4864SOL    HW126225   3.770   1.463   5.886  0.1091  0.1882 -0.7123
 4864SOL    HW226226   3.876   1.535   5.824  0.1836  1.6306  1.2306
 4865SOL     OW26227   3.953   0.507   2.640 -0.0767 -0.2059 -0.3625
 4865SOL    HW126228   3.990   0.567   2.706  0.4489 -1.0476  0.1054
 4865SOL    HW226229   4.010   0.530   2.567 -0.7295 -0.5577 -0.9698
 4866SOL     OW26230   4.431   1.029  13.094 -0.0117  0.2157 -0.4094
 4866SOL    HW126231   4.489   1.029  13.018  1.1844 -1.3304  0.5020
 4866SOL    HW226232   4.413   0.936  13.105  0.3708 -0.0606 -2.1467
 4867SOL     OW26233   2.767   0.495   2.667  0.3187  0.0456  0.3129
 4867SOL    HW126234   2.833   0.523   2.605  0.2465  0.2786  0.3415
 4867SOL    HW226235   2.746   0.581   2.703 -0.4407  0.4369 -1.0712
 4868SOL     OW26236   1.739   4.572   8.214 -0.1312  0.3432 -0.8120
 4868SOL    HW126237   1.777   4.658   8.232 -1.1809  0.4450  0.8805
 4868SOL    HW226238   1.714   4.583   8.122 -0.5476  2.4918 -0.4375
 4869SOL     OW26239   1.109   2.461   7.627 -0.4065  0.4117 -0.4068
 4869SOL    HW126240   1.161   2.451   7.548 -1.1709  0.0518 -0.8596
 4869SOL    HW226241   1.022   2.486   7.594 -0.9328 -1.3431 -0.3231
 4870SOL     OW26242   4.575   2.928  17.068 -0.3820  0.2120  0.3696
 4870SOL    HW126243   4.638   2.999  17.081 -0.9605  1.2390 -2.2987
 4870SOL    HW226244   4.560   2.888  17.153  0.1859 -0.8327 -0.0362
 4871SOL     OW26245   0.070   3.734  15.003 -0.3832 -0.1450  0.3631
 4871SOL    HW126246   0.158   3.762  15.029  0.1702 -1.3172 -0.2385
 4871SOL    HW226247   0.036   3.795  14.937  1.9377  0.4718 -0.2641
 4872SOL     OW26248   2.954   0.450  13.362 -0.6243 -0.9350 -1.0976
 4872SOL    HW126249   2.933   0.363  13.394 -0.1950 -0.3428  0.7929
 4872SOL    HW226250   3.042   0.432  13.328 -1.0155  0.4990 -2.8692
 4873SOL     OW26251   2.520   3.244   4.289  0.4373 -0.3387  0.0963
 4873SOL    HW126252   2.595   3.301   4.273  0.2854 -0.8027 -2.2188
 4873SOL    HW226253   2.521   3.243   4.385  0.1615 -0.9993  0.0877
 4874SOL     OW26254   1.636   1.600   1.944 -0.2084 -0.5322 -0.7388
 4874SOL    HW126255   1.639   1.689   1.978 -2.4371  0.6977 -3.7375
 4874SOL    HW226256   1.681   1.539   2.002 -0.9940 -2.9373 -2.6331
 4875SOL     OW26257   3.399   4.645   6.065  0.4130  0.3876  0.0864
 4875SOL    HW126258   3.462   4.648   6.137  0.4389  1.7382  0.0144
 4875SOL    HW226259   3.323   4.644   6.122 -0.9318  1.0285 -1.7162
 4876SOL     OW26260   2.799   0.057   9.832 -0.1134  0.3829 -0.7236
 4876SOL    HW126261   2.838   0.056   9.919 -0.5160 -2.6083 -0.5958
 4876SOL    HW226262   2.864   0.007   9.783 -0.8279  1.0150 -2.3377
 4877SOL     OW26263   3.469   0.174   4.571  0.0993 -0.2198  0.3491
 4877SOL    HW126264   3.556   0.156   4.536 -0.1687 -1.9429  0.6091
 4877SOL    HW226265   3.461   0.097   4.627  0.2544 -0.5691 -0.1184
 4878SOL     OW26266   2.872   2.277   3.375  0.2102  0.7317  0.3226
 4878SOL    HW126267   2.827   2.354   3.410  1.4308  1.4293  0.3497
 4878SOL    HW226268   2.959   2.304   3.405 -0.5920  0.5620  2.7933
 4879SOL     OW26269   1.987   1.757   7.070 -0.2361  0.3110 -0.1955
 4879SOL    HW126270   1.915   1.695   7.057  0.5680 -0.7522  0.4315
 4879SOL    HW226271   1.966   1.821   7.001 -1.2075  0.3109  0.1007
 4880SOL     OW26272   2.014   3.370  10.764 -0.1368  0.6947  0.5755
 4880SOL    HW126273   2.071   3.444  10.786  0.0156  0.5044  0.8268
 4880SOL    HW226274   1.969   3.362  10.848 -0.3227 -1.4419  0.2539
 4881SOL     OW26275   2.944   2.962  12.616 -0.2992 -0.2048 -0.7927
 4881SOL    HW126276   2.932   2.890  12.678  3.7642 -1.1566 -1.1242
 4881SOL    HW226277   3.023   2.930  12.573 -0.4709 -0.9080 -0.5947
 4882SOL     OW26278   1.902   3.618   9.162 -0.4417  0.0531  0.2553
 4882SOL    HW126279   1.890   3.692   9.102 -2.9744  0.6262  1.4315
 4882SOL    HW226280   1.873   3.656   9.245  0.2226  2.2993 -0.5574
 4883SOL     OW26281   3.574   3.228  16.429  0.2986 -0.2913 -0.6247
 4883SOL    HW126282   3.643   3.248  16.366  0.3473 -0.0768 -0.5038
 4883SOL    HW226283   3.628   3.181  16.493  0.9736  0.8801 -0.3258
 4884SOL     OW26284   2.389   4.513   7.706 -0.1826 -0.0714 -0.4198
 4884SOL    HW126285   2.294   4.518   7.696 -0.1649  0.3070 -0.4141
 4884SOL    HW226286   2.394   4.518   7.801 -1.5780 -2.0881 -0.2465
 4885SOL     OW26287   1.106   4.197   4.886 -0.2388  0.3872  0.5765
 4885SOL    HW126288   1.115   4.134   4.958 -0.5530  0.0174  0.2888
 4885SOL    HW226289   1.016   4.177   4.859  0.1067  1.6917 -1.5716
 4886SOL     OW26290   3.110   2.766   1.965 -0.1944  0.2198  0.1824
 4886SOL    HW126291   3.164   2.844   1.955  1.7265 -0.9191  1.6422
 4886SOL    HW226292   3.028   2.805   1.993  0.0119  0.7220  0.0869
 4887SOL     OW26293   2.240   3.749   4.854 -0.3694  0.1635 -0.2383
 4887SOL    HW126294   2.200   3.699   4.783 -0.3679 -2.4029  1.6014
 4887SOL    HW226295   2.210   3.832   4.815  0.0453 -0.4710 -1.9215
 4888SOL     OW26296   2.254   4.100  14.739  0.2263  0.1498  0.5882
 4888SOL    HW126297   2.337   4.063  14.769  2.2771  3.1818 -1.3014
 4888SOL    HW226298   2.193   4.092  14.812 -0.9367 -1.0091 -0.5240
 4889SOL     OW26299   3.288   3.412   6.066  0.4548  0.6393  0.0415
 4889SOL    HW126300   3.245   3.479   6.119 -0.7152  1.0040 -1.3757
 4889SOL    HW226301   3.373   3.452   6.049  0.3228  0.5799 -0.7377
 4890SOL     OW26302   0.305   4.521   2.771 -0.1121 -0.4761 -0.3901
 4890SOL    HW126303   0.370   4.485   2.711  0.1210  1.5801 -1.3749
 4890SOL    HW226304   0.358   4.586   2.818  2.4348 -4.2720  2.0411
 4891SOL     OW26305   1.387   3.413   7.104 -1.0597  0.2280 -0.3825
 4891SOL    HW126306   1.451   3.482   7.088 -0.1737 -0.4797  0.1008
 4891SOL    HW226307   1.443   3.370   7.168 -1.4502 -0.8945 -0.7947
 4892SOL     OW26308   0.481   3.570  14.664 -0.5472 -0.5289 -0.0798
 4892SOL    HW126309   0.512   3.612  14.583  2.9102 -2.2623  0.3655
 4892SOL    HW226310   0.528   3.620  14.731 -0.8448  0.0492 -0.2988
 4893SOL     OW26311   2.200   3.289   6.274 -0.3594 -0.5629  0.3003
 4893SOL    HW126312   2.155   3.373   6.270  0.1622 -0.2248  1.5291
 4893SOL    HW226313   2.282   3.299   6.323 -1.5833  0.6367  2.1267
 4894SOL     OW26314   1.027   4.235   7.071 -0.4345 -0.3265 -0.1926
 4894SOL    HW126315   1.083   4.187   7.008  2.2034 -1.4933  3.0381
 4894SOL    HW226316   0.990   4.298   7.010  0.6992  0.9628  0.4638
 4895SOL     OW26317   3.345   1.083   8.049 -0.0487  0.1518 -0.3753
 4895SOL    HW126318   3.374   1.147   7.985  1.2150 -0.6405 -0.6065
 4895SOL    HW226319   3.427   1.035   8.063 -1.3836 -1.5802  1.5602
 4896SOL     OW26320   4.102   1.892   8.922 -0.3646  0.1513 -0.5601
 4896SOL    HW126321   4.083   1.888   8.828  0.6996 -0.6398 -0.7394
 4896SOL    HW226322   4.075   1.981   8.945  1.4254  0.6840 -0.4760
 4897SOL     OW26323   0.488   2.717  12.855 -0.2256  0.4637 -0.4384
 4897SOL    HW126324   0.522   2.795  12.897 -1.7942  2.2814 -2.5207
 4897SOL    HW226325   0.538   2.722  12.774  0.7642 -4.9631 -0.2165
 4898SOL     OW26326   4.464   2.137   2.226 -0.9346 -0.1503  0.2110
 4898SOL    HW126327   4.549   2.174   2.205 -0.2417 -2.1616 -0.4587
 4898SOL    HW226328   4.486   2.107   2.315  0.6798  0.7566  0.1153
 4899SOL     OW26329   3.353   0.711  14.984  0.5706 -0.6982 -0.2682
 4899SOL    HW126330   3.444   0.738  15.000  0.2061 -0.1116  0.7734
 4899SOL    HW226331   3.376   0.618  14.983  1.5289 -0.4686  0.2873
 4900SOL     OW26332   3.518   3.910  17.517 -0.4563 -0.2306 -0.0071
 4900SOL    HW126333   3.436   3.887  17.473  0.2675 -2.1375 -0.3568
 4900SOL    HW226334   3.496   3.877  17.604  1.4308 -1.1016  0.1295
 4901SOL     OW26335   1.871   3.539  15.172 -0.8832 -0.4280 -0.3233
 4901SOL    HW126336   1.832   3.600  15.108 -0.7424 -0.1556 -0.1485
 4901SOL    HW226337   1.898   3.605  15.235 -0.5971 -1.6462  0.8164
 4902SOL     OW26338   0.468   3.113   2.666 -0.4059  0.4839  0.1298
 4902SOL    HW126339   0.463   3.147   2.755  0.5487 -1.0120  0.7488
 4902SOL    HW226340   0.496   3.022   2.676 -0.2111  0.4083 -1.1142
 4903SOL     OW26341   3.830   2.602   5.194 -0.6344  0.2802 -0.0643
 4903SOL    HW126342   3.840   2.549   5.272  1.2421  1.3879  0.4569
 4903SOL    HW226343   3.896   2.668   5.213 -0.5120  0.6114 -1.5739
 4904SOL     OW26344   1.727   1.526   4.887  0.3508  0.1363  0.2009
 4904SOL    HW126345   1.742   1.517   4.981  0.1041  0.6039  0.2813
 4904SOL    HW226346   1.664   1.462   4.855 -1.1539  1.6949  0.0675
 4905SOL     OW26347   1.521   4.675  17.168  0.1641 -0.3674  0.2191
 4905SOL    HW126348   1.434   4.678  17.130 -0.8773 -0.6821  2.6027
 4905SOL    HW226349   1.561   0.019  17.130 -0.0311  0.1729  1.1463
 4906SOL     OW26350   0.704   4.003   3.068 -0.4389  0.3096  0.5213
 4906SOL    HW126351   0.617   4.040   3.053 -0.7169 -1.1447 -1.5041
 4906SOL    HW226352   0.720   4.031   3.158  0.4203 -0.9752  0.7769
 4907SOL     OW26353   4.651   4.173  11.812  0.5561 -0.0732 -0.5883
 4907SOL    HW126354   4.730   4.183  11.865 -1.1231 -0.2286  1.9618
 4907SOL    HW226355   4.664   4.238  11.743  1.5517 -1.0577 -1.3273
 4908SOL     OW26356   1.987   1.120  11.622 -0.0425 -0.1187 -0.9992
 4908SOL    HW126357   2.008   1.151  11.711  0.8887  1.5747 -1.8051
 4908SOL    HW226358   2.070   1.074  11.611  0.2828 -0.3174  2.1475
 4909SOL     OW26359   1.442   2.492   8.397  0.7204  0.1740  0.0251
 4909SOL    HW126360   1.527   2.449   8.410 -0.0389 -0.8864  1.5157
 4909SOL    HW226361   1.456   2.535   8.312 -0.1948  1.1555  0.3779
 4910SOL     OW26362   4.556   3.437   7.572  0.3303  0.3859  0.2873
 4910SOL    HW126363   4.469   3.454   7.536 -0.2462  0.5226  1.7535
 4910SOL    HW226364   4.612   3.425   7.495  0.7602 -0.3698  0.7239
 4911SOL     OW26365   3.607   2.568   2.788 -0.1615  0.1762  0.7957
 4911SOL    HW126366   3.599   2.661   2.768  1.7937  0.4480  1.2923
 4911SOL    HW226367   3.650   2.545   2.706 -1.8541 -2.5235  0.6663
 4912SOL     OW26368   1.339   3.418  17.737 -0.1029 -0.4360  0.0092
 4912SOL    HW126369   1.389   3.371   0.065  1.0339 -1.3732 -1.4716
 4912SOL    HW226370   1.395   3.400  17.661  0.8246  0.9663  0.3598
 4913SOL     OW26371   0.016   2.088   1.383 -0.0449  0.1223  0.2639
 4913SOL    HW126372   4.702   2.090   1.301  0.4835 -0.7958 -0.0677
 4913SOL    HW226373   4.671   2.055   1.424  1.2871  0.3163  3.0575
 4914SOL     OW26374   4.626   0.527  14.374  0.2925 -0.7389  0.1898
 4914SOL    HW126375   4.600   0.466  14.443  0.8674 -1.1484  0.0408
 4914SOL    HW226376   4.558   0.592  14.387  1.8568  1.5030 -2.9006
 4915SOL     OW26377   2.838   3.347   1.330  0.5148 -0.0454  0.4844
 4915SOL    HW126378   2.784   3.357   1.252  1.1170  0.4962  0.1357
 4915SOL    HW226379   2.865   3.435   1.355  1.4453 -0.6767  1.7497
 4916SOL     OW26380   1.236   0.905   4.015  0.0834 -0.9614 -0.1597
 4916SOL    HW126381   1.272   0.986   3.977 -0.3439  0.3221  2.1662
 4916SOL    HW226382   1.140   0.907   4.009  0.0162 -1.6951  0.7199
 4917SOL     OW26383   3.032   1.926   3.292  0.4221  0.1415 -0.6932
 4917SOL    HW126384   3.005   1.957   3.206 -0.9052  0.8645 -0.0259
 4917SOL    HW226385   2.976   1.966   3.358  1.4834  0.0199  0.2809
 4918SOL     OW26386   2.565   0.143  11.587  0.0136  0.1343 -0.4592
 4918SOL    HW126387   2.559   0.183  11.673 -0.2575 -0.7275 -0.0795
 4918SOL    HW226388   2.634   0.198  11.550  0.2220 -0.7232 -1.3635
 4919SOL     OW26389   1.405   1.595   4.056 -0.1377 -0.2209  0.1558
 4919SOL    HW126390   1.362   1.517   4.090  0.8560 -0.6261  0.5001
 4919SOL    HW226391   1.357   1.665   4.101  0.5380  1.3390 -1.5433
 4920SOL     OW26392   1.200   3.097   4.635 -0.3823 -0.5643 -0.1948
 4920SOL    HW126393   1.179   3.172   4.579 -0.1625  0.7836  1.5225
 4920SOL    HW226394   1.215   3.037   4.562 -1.0797 -1.8958  0.7670
 4921SOL     OW26395   3.115   4.514   2.897 -0.0132  0.0523 -0.8164
 4921SOL    HW126396   3.168   4.592   2.909 -0.5409  0.3516 -0.4202
 4921SOL    HW226397   3.117   4.520   2.802 -0.7464 -1.6638 -0.9377
 4922SOL     OW26398   1.318   3.659   7.814  0.2750  0.4114  0.1167
 4922SOL    HW126399   1.369   3.711   7.876 -1.7295  0.6369  1.6000
 4922SOL    HW226400   1.235   3.652   7.862 -0.7936  0.1036 -1.7785
 4923SOL     OW26401   0.886   2.358   8.831 -0.1162  0.4857 -0.4387
 4923SOL    HW126402   0.956   2.418   8.805  0.5564 -1.1383 -2.3448
 4923SOL    HW226403   0.870   2.318   8.745 -0.1342 -1.2124  0.3438
 4924SOL     OW26404   3.731   4.482   3.779  0.0914 -0.4258  0.5886
 4924SOL    HW126405   3.655   4.463   3.833 -1.9387 -0.2675 -2.2093
 4924SOL    HW226406   3.685   4.499   3.697  0.7521  0.0221  0.3074
 4925SOL     OW26407   2.669   1.833   8.995 -0.6378  0.0620  0.0311
 4925SOL    HW126408   2.644   1.924   9.008  0.8547  1.0884 -4.0723
 4925SOL    HW226409   2.764   1.847   8.987 -0.0506 -1.6147  4.1739
 4926SOL     OW26410   4.186   0.225   4.032 -0.2400  0.2231 -0.5611
 4926SOL    HW126411   4.248   0.247   4.102 -0.2150 -1.9055  0.0830
 4926SOL    HW226412   4.215   0.294   3.971  0.4320  0.5097  0.0828
 4927SOL     OW26413   1.312   1.188  16.342 -0.1193  0.2009  0.0707
 4927SOL    HW126414   1.269   1.269  16.317  0.9382  0.3944 -1.1045
 4927SOL    HW226415   1.407   1.202  16.342 -0.2159  0.7317 -2.1907
 4928SOL     OW26416   3.001   3.965  17.518 -0.0056 -0.0330 -0.1100
 4928SOL    HW126417   2.954   4.005  17.445  0.3498  1.0867  0.2731
 4928SOL    HW226418   2.927   3.967  17.578  0.1916  1.3858  0.0855
 4929SOL     OW26419   2.553   1.702   7.505  0.3109 -0.1407  0.2683
 4929SOL    HW126420   2.526   1.620   7.546 -3.9255  1.3796  0.4593
 4929SOL    HW226421   2.639   1.682   7.466 -0.4505 -2.2583 -0.3178
 4930SOL     OW26422   2.303   0.225  12.782  0.0602 -0.2976 -0.0715
 4930SOL    HW126423   2.320   0.216  12.876 -3.6430 -3.7439  0.2658
 4930SOL    HW226424   2.376   0.173  12.749 -0.2648 -1.6528  1.3741
 4931SOL     OW26425   4.534   0.764  15.371 -0.0575 -0.8277 -0.0027
 4931SOL    HW126426   4.606   0.773  15.308  1.1403 -0.7292  1.3840
 4931SOL    HW226427   4.575   0.709  15.438  0.9415  0.0271  0.0973
 4932SOL     OW26428   2.996   3.724   7.935  0.0122 -0.3612 -0.1409
 4932SOL    HW126429   2.993   3.681   8.021 -2.4718 -0.0289 -0.0444
 4932SOL    HW226430   2.996   3.816   7.963  0.9966  0.1739 -1.9582
 4933SOL     OW26431   2.392   2.437   3.058  0.4240  0.4957  0.2346
 4933SOL    HW126432   2.444   2.369   3.015 -0.9505 -2.5867  3.5244
 4933SOL    HW226433   2.401   2.506   2.992  0.9381 -0.0976 -0.3180
 4934SOL     OW26434   3.232   2.916   7.864  0.4417 -0.6875 -0.1924
 4934SOL    HW126435   3.231   2.884   7.954  0.0116  0.0806  0.0773
 4934SOL    HW226436   3.198   3.005   7.875 -0.2416 -0.8738 -0.8518
 4935SOL     OW26437   0.538   0.275   1.802  0.3347  0.0800 -0.1462
 4935SOL    HW126438   0.494   0.346   1.754 -1.4552 -1.1267 -0.3014
 4935SOL    HW226439   0.543   0.306   1.893  0.7151 -0.8311  0.1433
 4936SOL     OW26440   2.042   2.429   2.649  0.2365  0.4501  0.1515
 4936SOL    HW126441   1.999   2.359   2.600  0.0565  0.6282  0.0598
 4936SOL    HW226442   2.118   2.381   2.684 -1.2273 -0.4785  2.0991
 4937SOL     OW26443   3.619   1.518   7.505  0.0666 -0.1627  0.0856
 4937SOL    HW126444   3.687   1.585   7.511 -0.1874  0.0943  0.1016
 4937SOL    HW226445   3.659   1.459   7.441 -1.5072 -2.6594  1.4257
 4938SOL     OW26446   3.655   2.085   8.559 -0.0193  0.1368 -0.5357
 4938SOL    HW126447   3.630   2.095   8.467  0.1429  0.2608 -0.5653
 4938SOL    HW226448   3.574   2.124   8.592  0.2592 -0.7199  1.1569
 4939SOL     OW26449   2.942   3.352   1.734 -0.1963 -0.4728  0.2653
 4939SOL    HW126450   2.891   3.420   1.777 -0.5234  0.4797 -1.6597
 4939SOL    HW226451   2.912   3.351   1.643 -0.7510 -0.5958  0.4511
 4940SOL     OW26452   2.650   1.472  11.376  0.3363 -0.2664  0.6187
 4940SOL    HW126453   2.742   1.447  11.389  0.3907 -0.6587 -0.5868
 4940SOL    HW226454   2.617   1.434  11.458 -0.8076 -0.6047 -0.0099
 4941SOL     OW26455   3.604   3.865  14.033 -0.6152 -0.6124 -0.0894
 4941SOL    HW126456   3.657   3.813  13.971 -1.7562  1.0952 -2.4814
 4941SOL    HW226457   3.545   3.910  13.973  0.6844  3.8838  2.0521
 4942SOL     OW26458   4.142   0.185  17.436  0.1715  0.1946 -1.3177
 4942SOL    HW126459   4.054   0.224  17.441  0.6634  0.7933  2.1736
 4942SOL    HW226460   4.196   0.262  17.453  2.1562 -1.9177  1.7374
 4943SOL     OW26461   4.473   0.858  10.922  0.2561 -0.4681  0.4026
 4943SOL    HW126462   4.431   0.807  10.853 -1.4942  1.7113 -0.1248
 4943SOL    HW226463   4.564   0.862  10.892  0.0161  0.2750 -0.2124
 4944SOL     OW26464   3.904   2.372  14.234 -0.2222 -0.5968 -0.7525
 4944SOL    HW126465   3.881   2.462  14.210  0.0043 -0.1093  0.8525
 4944SOL    HW226466   3.952   2.397  14.313  0.2738 -1.1514 -0.8762
 4945SOL     OW26467   2.765   4.364   8.954 -0.5132 -0.0991 -0.4113
 4945SOL    HW126468   2.817   4.444   8.947  0.9703 -1.0488 -0.3259
 4945SOL    HW226469   2.834   4.297   8.957  0.2301  0.6674 -0.3402
 4946SOL     OW26470   1.033   2.345   9.706  0.5311 -0.4436  0.2345
 4946SOL    HW126471   0.982   2.383   9.777 -1.7165 -0.8039 -1.1735
 4946SOL    HW226472   0.963   2.300   9.658  0.2533 -0.2981  0.5022
 4947SOL     OW26473   2.305   3.111   3.892 -0.2015  0.4593 -0.2557
 4947SOL    HW126474   2.362   3.187   3.905  2.2454 -1.2286 -1.0665
 4947SOL    HW226475   2.241   3.160   3.841 -0.2430 -0.4689 -1.0918
 4948SOL     OW26476   1.006   0.337   8.196  0.7460  0.5561  0.8413
 4948SOL    HW126477   0.963   0.346   8.280  0.5757  0.1419  0.7970
 4948SOL    HW226478   0.990   0.430   8.177 -1.6524 -0.2820 -1.3510
 4949SOL     OW26479   4.678   1.343   6.597  0.6938  0.1183 -0.3458
 4949SOL    HW126480   0.034   1.363   6.573  0.5019 -1.4393 -2.4431
 4949SOL    HW226481   4.658   1.413   6.658 -0.3155  0.7728 -1.4296
 4950SOL     OW26482   2.095   3.671  16.776  0.0700 -1.0365  0.5970
 4950SOL    HW126483   2.051   3.721  16.707 -0.0430  0.4214  1.7221
 4950SOL    HW226484   2.047   3.685  16.857  0.0656 -0.3362  0.4806
 4951SOL     OW26485   4.723   4.210  13.127  0.6745  0.3455 -0.6612
 4951SOL    HW126486   4.728   4.118  13.103 -1.9395 -0.1597  0.7305
 4951SOL    HW226487   0.068   4.211  13.179  0.2540 -0.2287 -0.0015
 4952SOL     OW26488   0.830   3.567   3.243  0.0297 -0.7699  0.3903
 4952SOL    HW126489   0.814   3.592   3.334  2.1003 -1.7145  1.0049
 4952SOL    HW226490   0.760   3.502   3.232  0.5803 -1.1666 -0.7101
 4953SOL     OW26491   2.838   2.833   7.368 -0.0548  0.1521  0.0474
 4953SOL    HW126492   2.905   2.766   7.382  0.5593  0.4633 -1.3673
 4953SOL    HW226493   2.878   2.903   7.419  0.9993 -0.1298 -0.3827
 4954SOL     OW26494   3.799   1.856   7.188 -0.0556 -0.2154  1.2373
 4954SOL    HW126495   3.825   1.944   7.213 -1.5174  1.3231 -2.7193
 4954SOL    HW226496   3.812   1.865   7.094 -0.4394  1.9671  1.3928
 4955SOL     OW26497   4.426   3.730   1.840 -0.2025  0.1870 -0.4309
 4955SOL    HW126498   4.396   3.766   1.757  0.4148 -0.2933 -0.8611
 4955SOL    HW226499   4.354   3.744   1.901  1.6061  1.7704  1.3675
 4956SOL     OW26500   3.924   1.281  16.848  0.1769 -0.1101  0.2163
 4956SOL    HW126501   3.915   1.296  16.943 -1.0264 -0.8116  0.2185
 4956SOL    HW226502   4.008   1.235  16.851 -0.7158 -1.9256 -2.4214
 4957SOL     OW26503   0.798   2.713   4.383  0.3463 -0.1481  0.5081
 4957SOL    HW126504   0.711   2.677   4.366 -0.5037  1.9954  0.3556
 4957SOL    HW226505   0.809   2.775   4.311 -0.2504  0.2895  0.7913
 4958SOL     OW26506   1.353   2.073   8.860 -0.1903 -0.2018 -0.2092
 4958SOL    HW126507   1.328   1.981   8.862  1.2086 -0.5647  0.9533
 4958SOL    HW226508   1.448   2.068   8.869  0.0003 -0.1806 -2.2223
 4959SOL     OW26509   3.540   4.448   4.949  0.3940  0.7089  0.1320
 4959SOL    HW126510   3.476   4.486   4.889  1.0100  0.4133 -0.7136
 4959SOL    HW226511   3.495   4.364   4.957  0.0114  1.0281  1.3817
 4960SOL     OW26512   0.923   1.482   0.002  0.4436 -0.5665 -0.4553
 4960SOL    HW126513   0.879   1.529   0.072 -2.0978 -0.6874 -1.9809
 4960SOL    HW226514   0.889   1.535  17.669  0.0980  0.4257  0.4412
 4961SOL     OW26515   1.468   1.970   3.125 -0.2358  0.0303 -0.3058
 4961SOL    HW126516   1.492   2.001   3.213 -0.9565  1.1116 -0.4860
 4961SOL    HW226517   1.390   1.919   3.148  1.2248 -1.6366  0.9626
 4962SOL     OW26518   0.866   1.329   2.922  0.1728  0.0646 -0.0433
 4962SOL    HW126519   0.814   1.306   2.845  0.2384 -0.0524 -0.0517
 4962SOL    HW226520   0.819   1.402   2.963  0.6849  1.2374 -1.5721
 4963SOL     OW26521   1.881   3.226  15.845 -0.3332 -0.5691  0.3942
 4963SOL    HW126522   1.964   3.252  15.805 -1.0545  0.7227 -0.2518
 4963SOL    HW226523   1.829   3.304  15.827 -0.4104 -1.3435 -2.8137
 4964SOL     OW26524   1.552   1.223   8.830 -0.0625 -0.3617  0.9350
 4964SOL    HW126525   1.459   1.214   8.807  0.4256 -3.7902  0.1915
 4964SOL    HW226526   1.593   1.138   8.811 -0.3722 -0.5018  0.8858
 4965SOL     OW26527   3.086   3.168  13.738 -0.3379  0.0577  0.4480
 4965SOL    HW126528   3.151   3.143  13.673 -0.7050 -0.1148  0.1438
 4965SOL    HW226529   3.131   3.244  13.776 -0.1485 -0.6334  1.6150
 4966SOL     OW26530   3.516   1.940   4.766 -0.1846  0.2419 -0.3009
 4966SOL    HW126531   3.461   1.991   4.707 -1.1310 -1.1821 -0.6432
 4966SOL    HW226532   3.448   1.877   4.793 -1.0337 -0.1036 -3.2439
 4967SOL     OW26533   1.102   4.390  11.349  0.1584  0.6906  0.6116
 4967SOL    HW126534   1.179   4.413  11.298  0.0447 -0.2909 -0.0017
 4967SOL    HW226535   1.136   4.349  11.429  0.4740 -1.3383 -0.5706
 4968SOL     OW26536   3.838   1.271  12.032 -0.2613 -0.4396  0.0399
 4968SOL    HW126537   3.811   1.210  11.963 -2.3905 -2.5446  2.7218
 4968SOL    HW226538   3.853   1.353  11.987  4.1432 -0.5455  1.2238
 4969SOL     OW26539   3.729   3.501   0.883  0.4187 -0.5548  0.4999
 4969SOL    HW126540   3.793   3.514   0.813  0.3113 -1.5179  0.2197
 4969SOL    HW226541   3.740   3.407   0.901  4.0720 -0.1774  0.3183
 4970SOL     OW26542   4.378   2.828   4.163 -0.2128  0.2404  0.3737
 4970SOL    HW126543   4.308   2.780   4.118 -0.5752  3.6296 -2.6746
 4970SOL    HW226544   4.455   2.804   4.110  1.1878  1.2703  1.9363
 4971SOL     OW26545   1.517   3.694   7.635  0.3320  0.7456  0.1439
 4971SOL    HW126546   1.429   3.724   7.612  0.0879  0.8529  1.1761
 4971SOL    HW226547   1.481   3.653   7.713  1.1734  1.4869  0.9334
 4972SOL     OW26548   3.977   1.632   8.684 -0.0103 -0.6074  0.2405
 4972SOL    HW126549   3.901   1.591   8.726 -0.3876  0.5650  0.6883
 4972SOL    HW226550   4.037   1.563   8.712  0.5164  0.0852  0.8048
 4973SOL     OW26551   0.443   0.674  10.666  0.0119 -0.3435  0.2554
 4973SOL    HW126552   0.408   0.735  10.601 -0.7547 -0.2608  0.7513
 4973SOL    HW226553   0.365   0.624  10.690  0.2236 -1.2514 -0.9310
 4974SOL     OW26554   4.256   3.870   2.911  0.4575 -0.4106  0.2196
 4974SOL    HW126555   4.348   3.892   2.901  0.2437  0.3560 -0.1308
 4974SOL    HW226556   4.266   3.780   2.941 -0.1806 -0.6614 -0.3243
 4975SOL     OW26557   3.633   1.288  15.845  0.0744 -0.2448 -0.1616
 4975SOL    HW126558   3.596   1.226  15.908  0.8594  1.3771  1.8969
 4975SOL    HW226559   3.548   1.323  15.817  0.8087  0.8098 -1.0741
 4976SOL     OW26560   0.399   0.785  11.960 -0.2527  0.8273 -0.3386
 4976SOL    HW126561   0.373   0.717  12.023  1.2201 -0.5260 -1.1870
 4976SOL    HW226562   0.456   0.732  11.905 -0.4623  2.1002 -1.7773
 4977SOL     OW26563   4.452   4.220  11.474  0.3001 -0.1707  0.1310
 4977SOL    HW126564   4.395   4.203  11.399  0.5540  0.5969 -0.2371
 4977SOL    HW226565   4.535   4.219  11.427 -0.5716 -0.0660 -1.4024
 4978SOL     OW26566   3.152   0.686  14.502 -0.3493  0.0652 -0.1886
 4978SOL    HW126567   3.204   0.709  14.579  0.5520 -0.4749 -0.6273
 4978SOL    HW226568   3.153   0.772  14.461 -2.6038 -0.8988 -2.2961
 4979SOL     OW26569   3.922   0.285   5.613  0.4412 -0.1463  0.4795
 4979SOL    HW126570   3.956   0.355   5.557 -2.1683 -1.0071 -2.1701
 4979SOL    HW226571   3.926   0.334   5.696  0.5648  0.3689  0.1677
 4980SOL     OW26572   3.936   3.442  15.902  0.2564  0.2401 -0.3989
 4980SOL    HW126573   4.005   3.422  15.965 -1.6927 -0.5969  1.4872
 4980SOL    HW226574   3.900   3.353  15.909  0.2738  0.2114 -0.6513
 4981SOL     OW26575   4.542   0.586   9.107  1.0700 -0.3111 -0.5156
 4981SOL    HW126576   4.637   0.599   9.105  1.0046  0.2177 -0.2879
 4981SOL    HW226577   4.528   0.582   9.012  3.3867  0.2053 -0.8846
 4982SOL     OW26578   1.151   1.030   7.200 -0.4995  0.3925  0.0956
 4982SOL    HW126579   1.135   1.108   7.146  0.4726 -0.5016 -1.4581
 4982SOL    HW226580   1.064   0.991   7.199  0.2935 -1.3535  0.6045
 4983SOL     OW26581   0.564   0.392   3.691 -0.1755 -0.6317  0.3008
 4983SOL    HW126582   0.621   0.316   3.703  0.6508 -0.0839 -0.1781
 4983SOL    HW226583   0.482   0.367   3.648  0.7010 -1.4066 -0.9461
 4984SOL     OW26584   4.277   4.585   5.162  0.1331  0.2807 -0.0582
 4984SOL    HW126585   4.190   4.595   5.200 -1.7042  1.8780 -4.7044
 4984SOL    HW226586   4.322   4.602   5.245  1.8547 -0.7235 -0.7848
 4985SOL     OW26587   3.683   3.223   6.693 -0.1502  0.0266  0.5839
 4985SOL    HW126588   3.720   3.208   6.606  1.0608 -0.9712  1.2669
 4985SOL    HW226589   3.693   3.138   6.737  1.3819 -0.6867 -1.1863
 4986SOL     OW26590   3.000   2.638   2.400  0.3134  0.7680 -0.3529
 4986SOL    HW126591   2.965   2.592   2.324 -0.5774  0.0429  0.4930
 4986SOL    HW226592   3.052   2.567   2.437 -0.1184  1.0309  0.7815
 4987SOL     OW26593   0.512   3.392   2.297 -0.8484 -0.1571  0.1556
 4987SOL    HW126594   0.529   3.454   2.226 -0.7877 -0.4951 -0.1230
 4987SOL    HW226595   0.440   3.342   2.260  0.3218 -0.7645 -1.2823
 4988SOL     OW26596   0.929   3.074   9.331  0.1967 -0.1919 -0.2901
 4988SOL    HW126597   0.872   3.118   9.268  0.1675 -0.7574 -0.6660
 4988SOL    HW226598   0.894   2.984   9.329  0.9658 -0.5021  0.1270
 4989SOL     OW26599   0.969   0.030   1.937 -0.3589 -0.9544  0.0577
 4989SOL    HW126600   0.885   4.721   1.951 -0.3596 -1.0246 -0.1556
 4989SOL    HW226601   1.010   4.723   1.861 -2.0173 -2.5657  0.0519
 4990SOL     OW26602   2.843   2.450   6.295  0.1618 -0.7449  0.3185
 4990SOL    HW126603   2.809   2.382   6.353  1.6632 -1.7903 -0.0017
 4990SOL    HW226604   2.906   2.484   6.358  0.3471  0.8112 -0.7053
 4991SOL     OW26605   0.120   3.219   4.302  0.4161  0.1568 -0.0962
 4991SOL    HW126606   0.182   3.282   4.268  0.5645  1.1469  2.0105
 4991SOL    HW226607   0.091   3.167   4.227  0.2404 -0.8914  0.6845
 4992SOL     OW26608   2.723   0.693   8.229 -0.1499 -0.3045 -0.6435
 4992SOL    HW126609   2.775   0.751   8.173  3.9736 -2.8060  0.6421
 4992SOL    HW226610   2.651   0.679   8.167 -0.6497  1.2634 -0.4328
 4993SOL     OW26611   3.135   3.780  12.624 -0.0228 -0.1209 -0.2809
 4993SOL    HW126612   3.223   3.787  12.660  0.0695  0.0375 -0.5385
 4993SOL    HW226613   3.091   3.793  12.709  0.1875  0.5458 -0.2709
 4994SOL     OW26614   2.886   3.224   4.085  0.6126 -0.4442  0.7081
 4994SOL    HW126615   2.850   3.271   4.160  0.0249  1.3044 -0.6741
 4994SOL    HW226616   2.865   3.134   4.109  1.2197 -0.9751 -0.7498
 4995SOL     OW26617   0.642   0.139   6.757  0.0569 -0.7694 -0.2350
 4995SOL    HW126618   0.706   0.078   6.720  0.8052 -0.2286  0.1747
 4995SOL    HW226619   0.557   0.096   6.761 -0.2483  0.1932  3.2388
 4996SOL     OW26620   0.258   2.263   5.950 -0.1559 -0.1211 -0.7956
 4996SOL    HW126621   0.235   2.219   5.869  2.7402 -1.6344 -0.8017
 4996SOL    HW226622   0.174   2.299   5.979  0.1670 -1.2634  1.5943
 4997SOL     OW26623   1.422   1.997   6.884 -0.2001 -0.1791 -0.0263
 4997SOL    HW126624   1.353   2.057   6.858 -0.5885 -0.6090  0.0228
 4997SOL    HW226625   1.385   1.939   6.950 -2.1042 -0.1199 -1.0531
 4998SOL     OW26626   1.953   2.793   2.558 -0.0130 -0.2136  0.1282
 4998SOL    HW126627   2.044   2.786   2.587  0.4149 -0.4252 -1.2713
 4998SOL    HW226628   1.948   2.888   2.569  2.0637 -0.1654  0.6420
 4999SOL     OW26629   1.419   4.634   3.504 -0.6961 -0.3087  0.0552
 4999SOL    HW126630   1.324   4.629   3.498 -0.6704  1.0934 -1.7590
 4999SOL    HW226631   1.459   4.654   3.419 -0.2032  1.8315  0.7940
 5000SOL     OW26632   3.703   3.722   7.874  0.3535 -0.2816  0.1146
 5000SOL    HW126633   3.667   3.682   7.795  0.9562  0.6552 -0.6295
 5000SOL    HW226634   3.632   3.711   7.937 -0.0876  0.3429 -0.2775
 5001SOL     OW26635   4.550   0.168   4.914 -0.2875  0.3795  0.0169
 5001SOL    HW126636   4.621   0.120   4.956 -1.2293 -0.6289  0.4331
 5001SOL    HW226637   4.527   0.239   4.974  0.9553  0.3308  0.5619
 5002SOL     OW26638   1.938   1.529   5.429 -0.8634  0.1926  0.1906
 5002SOL    HW126639   1.911   1.610   5.388  0.2233 -0.0283 -0.9699
 5002SOL    HW226640   1.981   1.563   5.507  1.3268  0.5049 -1.1671
 5003SOL     OW26641   0.064   0.719   7.374  0.0391  0.3535 -0.0280
 5003SOL    HW126642   0.109   0.800   7.397  0.7542 -0.5380  1.6742
 5003SOL    HW226643   4.710   0.750   7.390 -0.1483 -0.2128  0.0128
 5004SOL     OW26644   0.549   3.584   1.220  0.3285  0.5599 -0.0393
 5004SOL    HW126645   0.546   3.679   1.236  0.4501  0.4885  0.4140
 5004SOL    HW226646   0.636   3.583   1.182  0.7947 -0.4623  1.0617
 5005SOL     OW26647   1.972   2.017  13.020  0.5658 -0.5184  0.0304
 5005SOL    HW126648   1.950   1.954  13.089  1.1830 -0.5017  0.2399
 5005SOL    HW226649   1.941   2.100  13.057  2.6517 -0.0673  0.7290
 5006SOL     OW26650   1.629   2.755   9.835  0.0305  0.2003 -0.4391
 5006SOL    HW126651   1.644   2.692   9.906 -0.4152  2.1909  1.4012
 5006SOL    HW226652   1.559   2.803   9.879 -0.0546 -0.3399  0.0180
 5007SOL     OW26653   3.928   1.886  12.070  0.7734 -0.5041  0.3934
 5007SOL    HW126654   4.016   1.920  12.052  0.0128  0.6350 -1.1478
 5007SOL    HW226655   3.955   1.801  12.104 -0.9090 -0.9724  0.5434
 5008SOL     OW26656   0.213   1.899  10.213 -0.0994  0.3828 -0.2497
 5008SOL    HW126657   0.171   1.821  10.176 -0.9600  0.4260  0.6664
 5008SOL    HW226658   0.183   1.969  10.156 -1.3987 -1.9774 -2.4823
 5009SOL     OW26659   1.148   0.957   5.269 -0.0947  0.2158 -0.3204
 5009SOL    HW126660   1.083   0.923   5.208  0.5862 -1.2382 -0.2377
 5009SOL    HW226661   1.212   0.886   5.265  2.2418  2.3950 -1.8249
 5010SOL     OW26662   4.556   2.622  13.752  0.3519 -0.2204 -0.0260
 5010SOL    HW126663   4.563   2.702  13.699 -0.1122 -0.4670 -0.4614
 5010SOL    HW226664   4.507   2.655  13.827 -0.0542 -0.1209 -0.3369
 5011SOL     OW26665   2.570   1.312   3.884  0.3518  0.2857  0.0550
 5011SOL    HW126666   2.607   1.313   3.796  2.5554  2.0821  0.9928
 5011SOL    HW226667   2.496   1.368   3.864  0.5013  0.4635  0.0014
 5012SOL     OW26668   0.956   4.596   1.151 -0.5305  0.2148  0.2194
 5012SOL    HW126669   0.942   4.611   1.058  0.1338 -0.7701 -0.0427
 5012SOL    HW226670   0.875   4.620   1.196 -1.1225 -0.1240 -0.6729
 5013SOL     OW26671   2.994   1.584   7.198  0.0878 -0.3725  0.8101
 5013SOL    HW126672   2.939   1.517   7.157  1.2517 -0.5520 -0.4578
 5013SOL    HW226673   3.078   1.579   7.151 -1.0614 -0.6251 -1.2376
 5014SOL     OW26674   1.903   3.791   4.896 -0.3534 -0.1301  0.1992
 5014SOL    HW126675   1.880   3.770   4.806 -0.2049  2.6837 -0.4792
 5014SOL    HW226676   1.965   3.862   4.887  0.3175 -0.8057 -0.4816
 5015SOL     OW26677   0.183   3.554   4.439 -0.5522 -0.6425 -0.0080
 5015SOL    HW126678   0.097   3.588   4.464 -1.4017 -1.8327 -1.3310
 5015SOL    HW226679   0.224   3.623   4.387  1.2047 -1.0731  0.8002
 5016SOL     OW26680   3.035   1.742   4.892 -0.0377  0.4287  0.0402
 5016SOL    HW126681   3.066   1.670   4.837  0.2670  0.3176  0.3561
 5016SOL    HW226682   2.978   1.786   4.829 -0.1788 -0.5824 -0.5528
 5017SOL     OW26683   2.994   3.766   8.241 -0.0732 -0.2550  0.8032
 5017SOL    HW126684   2.899   3.763   8.237  0.0326  0.3943 -1.8681
 5017SOL    HW226685   3.015   3.855   8.269 -0.8932 -0.0022  0.6130
 5018SOL     OW26686   0.671   3.984  16.102 -0.0179 -0.2636 -0.4772
 5018SOL    HW126687   0.671   3.890  16.081  1.9690 -0.1026 -1.1691
 5018SOL    HW226688   0.736   4.007  16.036  2.5457  1.1517  2.5642
 5019SOL     OW26689   4.714   0.464   7.761  0.5874 -0.7682  0.2687
 5019SOL    HW126690   4.684   0.375   7.781 -0.0549 -0.7825 -0.7690
 5019SOL    HW226691   0.051   0.448   7.700  0.3943  1.2948 -0.4795
 5020SOL     OW26692   4.239   2.711   4.907 -0.9246 -0.6700 -0.3336
 5020SOL    HW126693   4.292   2.725   4.829 -1.4064 -2.2113 -0.9381
 5020SOL    HW226694   4.292   2.761   4.969 -3.7590  2.1805 -0.2261
 5021SOL     OW26695   3.969   2.839   4.922  0.8200 -0.3607 -0.0962
 5021SOL    HW126696   4.009   2.922   4.946 -2.2269  0.4497  2.1366
 5021SOL    HW226697   4.027   2.791   4.863 -0.8299 -2.1533 -0.2487
 5022SOL     OW26698   2.319   2.439   7.423  0.0598  0.1919 -0.2635
 5022SOL    HW126699   2.277   2.524   7.437  1.0328  0.4219  1.2630
 5022SOL    HW226700   2.247   2.386   7.458 -0.1658  0.7219  0.0766
 5023SOL     OW26701   0.744   3.365  13.352  0.1796  0.2078  0.0608
 5023SOL    HW126702   0.743   3.387  13.446 -0.2130 -3.8191  0.9922
 5023SOL    HW226703   0.722   3.273  13.363  0.8170  0.0215 -0.2828
 5024SOL     OW26704   3.885   4.312   7.149  0.3941  0.6760  0.0670
 5024SOL    HW126705   3.864   4.342   7.237 -1.1468  1.1317 -0.4607
 5024SOL    HW226706   3.896   4.396   7.104 -0.6399  0.5569 -0.4045
 5025SOL     OW26707   3.520   0.201   0.171 -0.2055  0.3379  0.0132
 5025SOL    HW126708   3.589   0.266   0.186  0.8069 -0.6304 -0.4181
 5025SOL    HW226709   3.454   0.241   0.228 -1.8484 -0.4229 -1.3626
 5026SOL     OW26710   0.958   0.678   3.918  0.2144  0.2518 -0.5961
 5026SOL    HW126711   0.883   0.619   3.930 -1.2549  1.8933 -1.6120
 5026SOL    HW226712   0.924   0.751   3.970  1.0590 -0.1180  0.4562
 5027SOL     OW26713   1.962   0.774   8.109 -0.8354  0.5455 -0.4817
 5027SOL    HW126714   1.870   0.749   8.097 -1.1197  2.1581 -1.6238
 5027SOL    HW226715   1.946   0.858   8.152  1.2184 -0.4228  2.1922
 5028SOL     OW26716   0.037   4.700   2.094 -0.0013  0.1796  0.6184
 5028SOL    HW126717   0.129   4.673   2.091 -0.2801 -0.6355 -0.5147
 5028SOL    HW226718   0.052   0.055   2.124 -0.9815 -0.2239  2.3320
 5029SOL     OW26719   3.060   1.369   8.304 -0.1035  0.3172 -0.2598
 5029SOL    HW126720   3.150   1.373   8.336 -0.1712  0.1359 -0.0481
 5029SOL    HW226721   3.045   1.464   8.308  1.4130  0.4607  1.9966
 5030SOL     OW26722   2.150   1.167  17.690 -0.1660 -0.4442  0.0022
 5030SOL    HW126723   2.103   1.246  17.662 -1.2664 -1.5283 -1.1834
 5030SOL    HW226724   2.089   1.093  17.696 -0.5336 -0.1111  0.4362
 5031SOL     OW26725   3.313   1.495   1.964  0.6993 -0.5574 -0.0417
 5031SOL    HW126726   3.349   1.568   1.913 -0.6407  0.2018  0.0976
 5031SOL    HW226727   3.291   1.526   2.052  0.0151 -0.5382 -0.2173
 5032SOL     OW26728   1.225   4.213   8.486 -0.2647  0.4391  0.8169
 5032SOL    HW126729   1.142   4.259   8.493  0.8824  2.8648 -1.3919
 5032SOL    HW226730   1.275   4.266   8.547  1.1416  0.7444 -0.5853
 5033SOL     OW26731   1.036   1.209   2.577  0.0258  0.1957  0.7132
 5033SOL    HW126732   1.034   1.272   2.505  1.0665 -1.2186 -0.5573
 5033SOL    HW226733   1.128   1.212   2.602  0.4004  0.0302 -0.6479
 5034SOL     OW26734   4.139   0.850   8.720  0.5395  0.2383 -0.1455
 5034SOL    HW126735   4.075   0.891   8.779  1.1150 -0.0643  0.6988
 5034SOL    HW226736   4.086   0.782   8.678 -1.6348 -0.2217  3.3111
 5035SOL     OW26737   2.798   4.732   6.886  0.1550  0.6208  0.5868
 5035SOL    HW126738   2.850   4.678   6.827  0.1164  2.1660 -0.8670
 5035SOL    HW226739   2.807   0.086   6.851 -2.1801 -0.0536 -1.6513
 5036SOL     OW26740   4.369   0.268   4.237  0.3938  0.1472  0.1027
 5036SOL    HW126741   4.345   0.359   4.253  1.7890  0.8174 -1.6133
 5036SOL    HW226742   4.429   0.252   4.310  0.5936  0.7320  0.0728
 5037SOL     OW26743   4.649   1.897   7.326 -0.9470  0.6750 -0.3190
 5037SOL    HW126744   4.603   1.812   7.327 -0.6827  0.5220 -1.9856
 5037SOL    HW226745   0.004   1.867   7.334 -0.8320  0.7996 -1.2230
 5038SOL     OW26746   1.950   3.017  15.622 -0.2039  0.3748  0.7824
 5038SOL    HW126747   1.892   3.087  15.593  1.2921  0.6592 -1.5332
 5038SOL    HW226748   1.948   3.039  15.715  3.6242 -1.2876  1.2527
 5039SOL     OW26749   1.040   1.660   4.944 -0.2291  0.1306  0.6042
 5039SOL    HW126750   0.993   1.668   5.027 -3.3206 -1.2188 -0.9954
 5039SOL    HW226751   1.024   1.568   4.924 -0.6889  0.2075  0.6096
 5040SOL     OW26752   4.562   3.328  13.148  0.1670  0.2659  0.2384
 5040SOL    HW126753   4.629   3.277  13.104  0.4476  0.3801  0.5275
 5040SOL    HW226754   4.558   3.400  13.085 -0.5240 -3.2581 -3.7135
 5041SOL     OW26755   1.293   1.392   7.197 -0.7305  0.7096  0.2143
 5041SOL    HW126756   1.256   1.463   7.248  1.2123 -0.5884  3.4554
 5041SOL    HW226757   1.215   1.340   7.176 -1.8848  2.0472  1.2292
 5042SOL     OW26758   2.505   2.761   5.874 -0.1624  0.1361 -0.6545
 5042SOL    HW126759   2.549   2.797   5.950 -1.3770  0.2363 -0.0096
 5042SOL    HW226760   2.466   2.677   5.901  0.2125  0.3845  0.6479
 5043SOL     OW26761   4.384   2.445   5.921 -0.2758  0.1670 -0.8457
 5043SOL    HW126762   4.370   2.417   5.830 -0.9354 -0.0571 -0.6731
 5043SOL    HW226763   4.391   2.368   5.976  1.6193  0.4467 -0.6971
 5044SOL     OW26764   2.972   4.339  13.847 -0.0525 -0.3681  0.9679
 5044SOL    HW126765   2.889   4.330  13.892 -0.4288  1.4378  0.6208
 5044SOL    HW226766   2.990   4.433  13.856 -2.5665  0.3931 -2.0841
 5045SOL     OW26767   1.777   3.542   2.415 -0.1773  0.4400 -0.6493
 5045SOL    HW126768   1.810   3.506   2.498 -1.5140  1.5730  0.3827
 5045SOL    HW226769   1.787   3.463   2.363 -0.8767 -1.0981  1.5580
 5046SOL     OW26770   1.774   3.572   7.333 -0.8731  0.6690  0.0882
 5046SOL    HW126771   1.803   3.482   7.314 -0.3123  0.8737 -0.0160
 5046SOL    HW226772   1.718   3.563   7.410 -2.4827 -0.0920 -1.1575
 5047SOL     OW26773   4.480   4.392   3.250  0.2950  0.3935 -0.3201
 5047SOL    HW126774   4.552   4.406   3.312  2.6255  0.4520 -3.0524
 5047SOL    HW226775   4.416   4.335   3.293  0.7439 -1.1589 -1.7231
 5048SOL     OW26776   3.359   0.574   7.776 -0.0083  0.3317  0.1655
 5048SOL    HW126777   3.332   0.656   7.735 -1.7780  0.1796  1.0469
 5048SOL    HW226778   3.385   0.521   7.701  0.9829 -0.1093  0.7999
 5049SOL     OW26779   1.999   2.058   6.975  0.1978 -0.3793  0.1541
 5049SOL    HW126780   1.987   2.083   6.884  0.1102  0.9305  0.5287
 5049SOL    HW226781   2.094   2.052   6.978  0.1477 -1.7877 -0.8705
 5050SOL     OW26782   2.852   3.752   3.418  0.7160  0.1884 -0.6414
 5050SOL    HW126783   2.936   3.789   3.448  0.3162  1.3067 -0.9072
 5050SOL    HW226784   2.850   3.764   3.324  1.3928 -0.8347 -0.7910
 5051SOL     OW26785   3.157   4.521  16.705 -0.2206  0.8839 -0.2511
 5051SOL    HW126786   3.156   4.433  16.743  1.6948 -0.2409 -2.8448
 5051SOL    HW226787   3.238   4.509  16.655  2.1644 -0.2478  3.8823
 5052SOL     OW26788   1.049   3.886  13.804 -0.5983  0.3989  0.0669
 5052SOL    HW126789   0.964   3.851  13.777  0.4556 -1.4660 -0.7815
 5052SOL    HW226790   1.035   3.978  13.781 -0.0761  0.7677  1.2454
 5053SOL     OW26791   0.042   3.527   5.793 -0.1920  0.1765 -0.8272
 5053SOL    HW126792   4.692   3.496   5.760 -0.8591  0.9247  0.1892
 5053SOL    HW226793   0.002   3.570   5.868 -2.3181  0.6179 -2.1958
 5054SOL     OW26794   1.434   3.191   0.750 -0.2102 -0.5039  0.2735
 5054SOL    HW126795   1.472   3.273   0.781  0.1133 -1.0803  1.4385
 5054SOL    HW226796   1.364   3.225   0.695  0.6121  0.2024 -0.3265
 5055SOL     OW26797   4.595   0.311   1.306  0.8306  0.1548  0.9705
 5055SOL    HW126798   4.603   0.224   1.267  0.6489 -0.0061  1.2937
 5055SOL    HW226799   4.581   0.288   1.398 -0.6665 -0.8492  0.5040
 5056SOL     OW26800   0.316   0.101  11.618  0.0794 -0.1175  0.1350
 5056SOL    HW126801   0.305   0.171  11.554  1.6306 -0.8895 -0.9811
 5056SOL    HW226802   0.228   0.066  11.606  1.1231 -2.2917 -1.0636
 5057SOL     OW26803   1.452   4.267   8.316 -0.2790 -0.3516  0.2321
 5057SOL    HW126804   1.473   4.350   8.358  2.0812  0.2638 -2.1456
 5057SOL    HW226805   1.373   4.239   8.362  0.2260  0.0200  1.3419
 5058SOL     OW26806   1.770   1.431   8.930  0.5099  0.4094  0.1567
 5058SOL    HW126807   1.713   1.370   8.883  0.0350  0.2759  0.9153
 5058SOL    HW226808   1.854   1.385   8.924 -0.8426 -1.9723 -0.6612
 5059SOL     OW26809   2.283   3.925   3.314 -0.3453 -0.3431  0.4149
 5059SOL    HW126810   2.347   3.977   3.361  0.1438 -1.8519  1.4230
 5059SOL    HW226811   2.320   3.934   3.226  0.7557 -1.2375  0.7854
 5060SOL     OW26812   2.283   1.068   7.679  0.5743 -0.2598 -0.0232
 5060SOL    HW126813   2.317   1.105   7.598 -2.1391  0.8478 -0.6753
 5060SOL    HW226814   2.211   1.130   7.690  0.9504  0.3644 -1.1086
 5061SOL     OW26815   1.964   0.123  15.070 -0.2073  0.7240  0.3416
 5061SOL    HW126816   2.048   0.100  15.029 -0.7620 -0.3240 -0.1968
 5061SOL    HW226817   1.979   0.107  15.164  0.5088  0.2849  0.1527
 5062SOL     OW26818   1.110   0.925  12.555  0.5090 -0.2152 -0.1281
 5062SOL    HW126819   1.102   0.852  12.615 -0.2045  1.6108  1.9927
 5062SOL    HW226820   1.095   0.874  12.476 -1.4957 -1.9283  1.3738
 5063SOL     OW26821   3.208   2.113   2.112  0.3982  0.1004 -0.3739
 5063SOL    HW126822   3.197   2.073   2.199 -0.5396  0.7692 -0.1852
 5063SOL    HW226823   3.121   2.131   2.079 -0.6691 -0.0341  2.3585
 5064SOL     OW26824   1.153   2.591   6.028  0.3008  0.4505  0.3975
 5064SOL    HW126825   1.154   2.496   6.039  2.0051  0.3530 -0.5410
 5064SOL    HW226826   1.068   2.603   5.986  0.8959 -1.1161 -1.2527
 5065SOL     OW26827   1.459   3.083   7.625 -0.1748  0.2663 -0.1595
 5065SOL    HW126828   1.375   3.119   7.596 -0.3325  0.7505  0.8643
 5065SOL    HW226829   1.505   3.159   7.661  0.5749 -1.4215  2.4519
 5066SOL     OW26830   4.724   4.271   6.744 -0.1605 -0.4145 -0.0068
 5066SOL    HW126831   4.687   4.240   6.827 -2.0141  2.3850  0.2064
 5066SOL    HW226832   0.081   4.277   6.770 -0.1011  1.0802 -0.5884
 5067SOL     OW26833   3.427   4.498   2.146 -0.4745  0.1052  0.2898
 5067SOL    HW126834   3.355   4.554   2.118  0.9747  1.0259 -1.5742
 5067SOL    HW226835   3.426   4.433   2.075 -0.7388 -0.3319  0.6918
 5068SOL     OW26836   1.224   2.645   1.506  0.1641 -0.4046 -0.5992
 5068SOL    HW126837   1.267   2.609   1.429  0.2115 -1.2369 -0.1938
 5068SOL    HW226838   1.206   2.563   1.553 -2.0087  0.9102  0.8716
 5069SOL     OW26839   3.435   0.783   1.822 -0.2950 -0.7335 -0.4845
 5069SOL    HW126840   3.425   0.719   1.892  0.1623 -1.6117 -1.2265
 5069SOL    HW226841   3.384   0.743   1.751  0.1320 -1.8191 -0.1824
 5070SOL     OW26842   1.209   3.695  10.599 -0.8701  0.8051 -0.2712
 5070SOL    HW126843   1.236   3.782  10.629  3.1794 -0.8409  0.7964
 5070SOL    HW226844   1.144   3.671  10.665 -0.6151 -2.6280 -1.2903
 5071SOL     OW26845   1.081   4.147   2.822 -0.6759 -0.4610 -0.2114
 5071SOL    HW126846   1.065   4.191   2.738 -0.6153  1.5319  0.8044
 5071SOL    HW226847   1.056   4.219   2.880 -3.1045 -0.1110 -1.6800
 5072SOL     OW26848   0.826   3.532   7.662 -1.1065 -0.4129  0.2564
 5072SOL    HW126849   0.773   3.570   7.592  0.0465  1.1868  0.2471
 5072SOL    HW226850   0.763   3.532   7.733 -1.1981  0.5918  0.1802
 5073SOL     OW26851   0.137   2.911   2.893  0.1159 -0.1072  0.6980
 5073SOL    HW126852   0.125   3.000   2.927  0.0053 -0.1432  0.7565
 5073SOL    HW226853   0.211   2.899   2.952  0.6170 -0.4131  0.0038
 5074SOL     OW26854   1.838   1.134  15.077  0.5870 -0.7794  0.2912
 5074SOL    HW126855   1.781   1.126  15.001  0.6743  1.0450  0.0307
 5074SOL    HW226856   1.915   1.082  15.054  0.7527 -1.0622  1.4423
 5075SOL     OW26857   3.687   4.652   5.538  0.1122 -0.1876 -0.0562
 5075SOL    HW126858   3.776   4.675   5.562  0.0667  0.1629 -0.2095
 5075SOL    HW226859   3.643   0.002   5.533  0.8058  0.1661 -0.0772
 5076SOL     OW26860   2.936   0.449   3.273 -0.3148  0.2612  0.5111
 5076SOL    HW126861   3.025   0.470   3.301 -0.0661 -1.7922  1.1941
 5076SOL    HW226862   2.951   0.450   3.179 -0.0184  1.7822  0.5731
 5077SOL     OW26863   1.673   2.117   4.800  0.2206  0.2888  0.4031
 5077SOL    HW126864   1.688   2.179   4.728 -0.5405  1.8948  1.6228
 5077SOL    HW226865   1.763   2.086   4.814  1.3398  3.0248 -0.6093
 5078SOL     OW26866   3.174   0.533  17.098  0.5808  0.3892  0.0251
 5078SOL    HW126867   3.143   0.450  17.134  0.8733 -0.2278 -1.1833
 5078SOL    HW226868   3.209   0.504  17.014 -0.7418 -1.3627  0.0834
 5079SOL     OW26869   1.466   3.088   8.274  0.8562 -0.5407 -0.2662
 5079SOL    HW126870   1.433   3.173   8.244  1.5361 -0.6736 -1.4286
 5079SOL    HW226871   1.539   3.113   8.330  0.4152 -0.1482  0.1282
 5080SOL     OW26872   2.096   1.786   7.928 -0.1603  0.4032 -0.0615
 5080SOL    HW126873   2.134   1.721   7.987  2.7469 -0.5099 -2.9978
 5080SOL    HW226874   2.128   1.867   7.968  3.2212 -1.1881  0.4394
 5081SOL     OW26875   1.527   4.372   7.500 -0.6598  0.0160 -0.0400
 5081SOL    HW126876   1.490   4.391   7.414  0.7410  0.7721 -0.4741
 5081SOL    HW226877   1.612   4.351   7.460 -1.7612  0.3272 -2.5442
 5082SOL     OW26878   3.604   1.289  17.397 -0.2293  0.6296  0.1403
 5082SOL    HW126879   3.593   1.304  17.303  0.5405 -0.6303 -0.1522
 5082SOL    HW226880   3.586   1.381  17.417 -1.0550 -0.0170  2.4204
 5083SOL     OW26881   0.588   0.027   3.521 -0.3039 -0.0526 -0.4871
 5083SOL    HW126882   0.627   4.710   3.591 -2.3250  0.7384  1.2446
 5083SOL    HW226883   0.505   4.717   3.508 -0.6474  1.1773 -2.5527
 5084SOL     OW26884   2.882   0.567   5.307 -0.6015 -0.4607  0.1501
 5084SOL    HW126885   2.858   0.613   5.388  0.4606 -0.0984  0.2558
 5084SOL    HW226886   2.950   0.507   5.337  0.4506  1.0537  0.7305
 5085SOL     OW26887   4.110   2.154   7.713 -0.1112  0.3304  0.1784
 5085SOL    HW126888   4.134   2.080   7.769 -0.0501 -0.8456 -1.3964
 5085SOL    HW226889   4.017   2.140   7.696 -0.5330  0.2702  2.4773
 5086SOL     OW26890   3.196   0.590   5.075 -0.3001  0.5223  0.1911
 5086SOL    HW126891   3.282   0.552   5.055 -0.5562  1.5636 -2.9614
 5086SOL    HW226892   3.149   0.514   5.109  2.3066 -1.5546 -0.8262
 5087SOL     OW26893   1.578   1.056  10.297 -0.2454  0.0962 -0.0469
 5087SOL    HW126894   1.522   1.011  10.234 -0.6626 -0.0832  0.4566
 5087SOL    HW226895   1.633   0.981  10.320  0.3264  0.7001  0.5317
 5088SOL     OW26896   1.759   0.727  16.523  0.1924  0.5219 -0.3098
 5088SOL    HW126897   1.803   0.805  16.556 -0.0231  0.0387  1.1123
 5088SOL    HW226898   1.667   0.743  16.547 -0.1787 -1.2146 -0.5872
 5089SOL     OW26899   3.417   1.220   7.837 -0.5109 -0.1178  0.6839
 5089SOL    HW126900   3.506   1.242   7.808 -0.7438  1.0730  0.8519
 5089SOL    HW226901   3.374   1.258   7.761  1.2923 -0.5151 -0.5254
 5090SOL     OW26902   1.147   1.921  12.273  0.9864  0.5171  0.3484
 5090SOL    HW126903   1.199   1.879  12.341  0.7174  2.2370  1.6379
 5090SOL    HW226904   1.121   1.846  12.220 -0.4653  1.3732 -0.1369
 5091SOL     OW26905   4.165   4.379  11.439 -0.3540 -0.4968  0.2084
 5091SOL    HW126906   4.149   4.437  11.513 -1.6936 -0.0537 -0.4296
 5091SOL    HW226907   4.259   4.365  11.454 -0.6265 -0.0784  2.2893
 5092SOL     OW26908   3.897   1.729   7.725  0.7933 -0.1447  0.3825
 5092SOL    HW126909   3.877   1.637   7.741 -0.4005  0.2948  1.4458
 5092SOL    HW226910   3.885   1.755   7.817  0.1369  0.2138  0.1978
 5093SOL     OW26911   2.812   4.557  14.589 -0.3607  0.1758  0.2652
 5093SOL    HW126912   2.826   4.608  14.509 -0.9374 -0.6015 -0.3349
 5093SOL    HW226913   2.723   4.527  14.569 -0.8590  1.0739  1.1453
 5094SOL     OW26914   2.955   2.912   2.419  0.0699  0.3635  0.0923
 5094SOL    HW126915   2.984   2.821   2.415  0.4523  0.5316 -0.8829
 5094SOL    HW226916   3.024   2.959   2.373 -0.0664  0.1249 -0.3600
 5095SOL     OW26917   0.793   1.162   0.680 -0.0107 -0.2772  0.2244
 5095SOL    HW126918   0.811   1.071   0.654 -1.9552 -1.3550  2.6560
 5095SOL    HW226919   0.815   1.209   0.599 -0.8303  2.4905  1.6086
 5096SOL     OW26920   4.699   4.013  10.437  0.4529 -0.4103  0.5942
 5096SOL    HW126921   0.007   4.098  10.427  0.2211 -0.4108 -0.4173
 5096SOL    HW226922   4.614   4.046  10.464  0.4916  0.9610 -0.9454
 5097SOL     OW26923   2.558   4.026   2.133 -0.3577  0.8187  0.1131
 5097SOL    HW126924   2.511   4.059   2.056  1.2579  3.3047  0.2132
 5097SOL    HW226925   2.610   4.105   2.144 -1.0400  1.0232  1.8957
 5098SOL     OW26926   2.711   0.182  12.647 -0.2364  0.3027 -0.7920
 5098SOL    HW126927   2.794   0.137  12.661  0.5227  1.7424 -0.6833
 5098SOL    HW226928   2.651   0.145  12.712  1.5087 -0.5973  0.2981
 5099SOL     OW26929   2.602   1.671   2.008  0.1224  0.0750  0.4263
 5099SOL    HW126930   2.554   1.613   2.068 -0.4683 -0.4076 -0.5141
 5099SOL    HW226931   2.564   1.658   1.921 -0.1779  2.2311  0.2445
 5100SOL     OW26932   4.442   3.390   6.928  0.0004  0.6250  0.0586
 5100SOL    HW126933   4.474   3.423   7.012  0.7515 -0.9317  0.3860
 5100SOL    HW226934   4.439   3.295   6.938 -1.8700  0.6715 -0.1783
 5101SOL     OW26935   0.268   3.243   1.538 -0.4839  0.3340 -0.2229
 5101SOL    HW126936   0.254   3.155   1.503 -0.3035  0.5186 -0.7637
 5101SOL    HW226937   0.280   3.212   1.628 -1.9352  0.4654  0.0077
 5102SOL     OW26938   2.743   0.517   0.053  0.4304  0.6252 -0.5702
 5102SOL    HW126939   2.663   0.549   0.012 -1.2856  1.0977  3.0810
 5102SOL    HW226940   2.820   0.552   0.009  2.0300 -0.0560  1.6489
 5103SOL     OW26941   1.146   4.319   0.960 -0.3819  0.4888 -0.4302
 5103SOL    HW126942   1.223   4.368   0.989  0.6891  1.0469 -4.2364
 5103SOL    HW226943   1.155   4.233   1.002  2.0564  0.1152 -1.7261
 5104SOL     OW26944   0.524   1.484  12.192 -0.0904 -0.1263 -0.5772
 5104SOL    HW126945   0.493   1.413  12.136  1.7738  0.0597 -1.8186
 5104SOL    HW226946   0.612   1.463  12.223 -0.1965 -1.0631 -0.9277
 5105SOL     OW26947   3.322   3.458   7.693 -0.3820 -0.0107  0.0413
 5105SOL    HW126948   3.298   3.522   7.626 -2.9759 -1.8911 -0.8051
 5105SOL    HW226949   3.237   3.455   7.736 -0.8181  0.6558 -0.7764
 5106SOL     OW26950   4.229   0.420   4.600  0.0406 -0.1295 -0.2053
 5106SOL    HW126951   4.317   0.459   4.598 -0.0696  0.2195  1.7499
 5106SOL    HW226952   4.259   0.334   4.629 -0.0979  0.2026  0.9178
 5107SOL     OW26953   0.588   0.970  16.501  0.1746 -0.3872  0.2576
 5107SOL    HW126954   0.517   1.015  16.548 -0.2951  0.3315 -1.1272
 5107SOL    HW226955   0.542   0.934  16.425 -0.2575 -0.4096  0.5318
 5108SOL     OW26956   2.732   3.407   4.253  0.6780  0.0252  0.0968
 5108SOL    HW126957   2.759   3.444   4.337 -1.3609  2.7842 -0.4774
 5108SOL    HW226958   2.763   3.473   4.192  1.4491 -0.6034 -0.2007
 5109SOL     OW26959   2.871   3.639   3.849  0.3352 -0.6194 -0.2404
 5109SOL    HW126960   2.886   3.574   3.780  0.1500  0.1441 -0.9980
 5109SOL    HW226961   2.902   3.715   3.800  1.2643 -0.3781  0.7352
 5110SOL     OW26962   4.448   0.572   6.888 -0.3838 -0.4556  0.3204
 5110SOL    HW126963   4.488   0.498   6.933 -0.5580 -0.0485  1.1596
 5110SOL    HW226964   4.428   0.625   6.966 -2.6715  0.8273 -1.1466
 5111SOL     OW26965   1.994   4.221   6.998  0.1089 -0.2397 -0.4955
 5111SOL    HW126966   1.902   4.234   6.974  0.5667 -0.1871 -2.2367
 5111SOL    HW226967   1.991   4.240   7.092 -0.3608  2.1004 -0.9858
 5112SOL     OW26968   2.151   0.199   4.093 -0.3861  0.3897 -0.7647
 5112SOL    HW126969   2.100   0.146   4.032 -1.5575  0.5241  0.0989
 5112SOL    HW226970   2.113   0.285   4.076 -0.4138  0.5667  0.2006
 5113SOL     OW26971   1.969   3.793  14.589 -0.2753 -0.1537  0.4757
 5113SOL    HW126972   1.986   3.885  14.569 -2.4270  0.5600  1.9836
 5113SOL    HW226973   1.928   3.764  14.508 -0.0681 -0.4270  0.4679
 5114SOL     OW26974   2.433   3.955   8.246 -0.3627  0.1112 -0.4197
 5114SOL    HW126975   2.346   3.994   8.235 -0.1253  0.3041 -1.5900
 5114SOL    HW226976   2.403   3.882   8.300 -1.5274 -0.3843 -1.7244
 5115SOL     OW26977   3.836   2.926   3.615  0.1041 -0.2465  0.0560
 5115SOL    HW126978   3.780   2.886   3.682  1.2421 -1.1552  0.4567
 5115SOL    HW226979   3.890   2.850   3.593 -0.1721 -0.5037  0.2581
 5116SOL     OW26980   0.522   2.808   7.647  0.0399  0.3215  0.5246
 5116SOL    HW126981   0.608   2.818   7.687  0.1170 -2.9884  1.2521
 5116SOL    HW226982   0.503   2.719   7.678  1.2523  1.3936  4.2942
 5117SOL     OW26983   2.363   0.656   3.473  0.2084  0.4358  0.1218
 5117SOL    HW126984   2.311   0.577   3.459  1.7243 -0.8458  1.7411
 5117SOL    HW226985   2.427   0.622   3.535 -0.1279 -0.3302  0.0504
 5118SOL     OW26986   4.281   4.687   2.124  0.9434  0.1739 -0.2165
 5118SOL    HW126987   4.228   0.016   2.171  1.2478  0.7511 -0.6670
 5118SOL    HW226988   4.364   4.696   2.172  1.0408  1.3852 -0.6198
 5119SOL     OW26989   0.617   2.265   8.740 -0.3620  0.4596  0.2970
 5119SOL    HW126990   0.629   2.268   8.645  0.1623  0.1308  0.3501
 5119SOL    HW226991   0.522   2.267   8.753 -0.5831 -1.0931 -1.0725
 5120SOL     OW26992   0.407   0.112   1.100 -0.2743 -0.1481 -0.1394
 5120SOL    HW126993   0.392   0.202   1.071  1.0536  0.2412  0.3712
 5120SOL    HW226994   0.460   0.127   1.178  1.7009 -0.8439 -1.3321
 5121SOL     OW26995   0.075   0.205   7.159 -0.0488  0.4601  0.5741
 5121SOL    HW126996   0.109   0.246   7.079 -0.3175 -0.1384  0.1553
 5121SOL    HW226997   0.139   0.139   7.183 -0.6741  0.0680  1.1780
 5122SOL     OW26998   4.315   3.802   6.095  0.2683  0.3590  0.1181
 5122SOL    HW126999   4.368   3.799   6.016  0.2695  0.0136  0.1296
 5122SOL    HW227000   4.378   3.839   6.158  2.6013  0.0700 -2.0617
 5123SOL     OW27001   0.440   0.970   3.926  0.4371  0.3326 -0.1222
 5123SOL    HW127002   0.500   0.959   3.852  0.3336  2.0528 -0.4698
 5123SOL    HW227003   0.411   1.060   3.910 -1.1143 -0.0712  0.4043
 5124SOL     OW27004   1.774   2.001   8.345 -0.0888  0.6278  0.1286
 5124SOL    HW127005   1.845   2.060   8.370 -1.7671  3.0731 -0.7821
 5124SOL    HW227006   1.783   2.009   8.251  0.1581 -2.0829 -0.0698
 5125SOL     OW27007   0.865   2.371   3.086  0.4103 -0.0348 -0.0553
 5125SOL    HW127008   0.898   2.459   3.104 -0.5178  0.4822 -0.8893
 5125SOL    HW227009   0.936   2.334   3.032  0.8577 -1.4788  1.5116
 5126SOL     OW27010   1.893   4.222   4.424 -0.0534  0.5060 -0.3337
 5126SOL    HW127011   1.950   4.270   4.484  1.7435 -1.5167 -0.4170
 5126SOL    HW227012   1.945   4.212   4.345  0.0127 -0.9062 -0.1129
 5127SOL     OW27013   2.797   3.194   1.544 -0.0165 -0.4175 -0.5456
 5127SOL    HW127014   2.715   3.219   1.585  0.0133  1.9675 -1.9760
 5127SOL    HW227015   2.796   3.250   1.467  0.1465 -1.1173 -1.0583
 5128SOL     OW27016   3.389   2.994   8.381 -0.2738  0.1401  0.0829
 5128SOL    HW127017   3.428   2.910   8.407 -3.5402 -1.1134  0.8951
 5128SOL    HW227018   3.420   3.052   8.450  0.0907  1.7509 -1.4316
 5129SOL     OW27019   1.689   1.135   3.423 -0.3135  0.1596  0.6007
 5129SOL    HW127020   1.713   1.043   3.440 -1.8891 -0.5805 -1.1695
 5129SOL    HW227021   1.593   1.134   3.426 -0.3173  0.4653  0.5755
 5130SOL     OW27022   1.428   0.536   7.989 -0.4963 -0.2854  0.1115
 5130SOL    HW127023   1.451   0.462   8.045 -0.5730 -0.0429  0.4659
 5130SOL    HW227024   1.446   0.501   7.902  3.6676 -0.1463  0.8803
 5131SOL     OW27025   3.883   1.195   6.512 -0.6993 -0.4406 -0.0313
 5131SOL    HW127026   3.891   1.149   6.596  0.3151  2.4861  1.4597
 5131SOL    HW227027   3.885   1.124   6.447  2.0809 -1.8531  1.5744
 5132SOL     OW27028   4.302   3.530   7.511 -0.1055 -0.1724  0.2776
 5132SOL    HW127029   4.294   3.534   7.416  0.6094 -1.5253  0.1652
 5132SOL    HW227030   4.209   3.511   7.520  0.5191 -1.9253  3.0014
 5133SOL     OW27031   0.971   0.172   4.876  0.4881  0.1473  0.2302
 5133SOL    HW127032   0.884   0.147   4.843  0.7731 -2.3775  1.3298
 5133SOL    HW227033   1.030   0.122   4.820 -0.2490 -0.8898  0.3672
 5134SOL     OW27034   1.604   1.022   3.118 -0.3008 -0.0056 -0.7905
 5134SOL    HW127035   1.678   0.995   3.064 -0.0274  0.0729 -0.4576
 5134SOL    HW227036   1.595   1.115   3.095 -0.5365  0.2060  0.1746
 5135SOL     OW27037   0.487   1.091  10.258  0.1694  0.6110  0.3647
 5135SOL    HW127038   0.518   1.160  10.316  2.1356 -1.9978  2.4084
 5135SOL    HW227039   0.394   1.111  10.251  0.7128  2.5036 -1.5530
 5136SOL     OW27040   1.452   1.023  14.936 -1.0483 -0.0973 -0.2811
 5136SOL    HW127041   1.385   1.086  14.961  1.1072  1.8571  0.5856
 5136SOL    HW227042   1.519   1.082  14.901 -1.2437 -0.5820 -1.4603
 5137SOL     OW27043   2.965   4.582  13.957  0.0655  0.1212  0.0645
 5137SOL    HW127044   2.904   4.649  13.926 -2.1476 -2.6635 -1.6347
 5137SOL    HW227045   2.917   4.543  14.031 -1.7916  1.8240 -0.2228
 5138SOL     OW27046   0.084   2.648   2.860  0.1095  0.2935 -0.3094
 5138SOL    HW127047   0.173   2.625   2.836  1.0969  2.8669  0.8990
 5138SOL    HW227048   0.098   2.740   2.882 -0.0580 -0.0863  1.3821
 5139SOL     OW27049   4.251   0.433   3.885  0.6082 -0.0325  0.0828
 5139SOL    HW127050   4.167   0.462   3.920  0.4009  1.8303 -2.0050
 5139SOL    HW227051   4.298   0.493   3.944  1.2264 -0.0544 -0.3839
 5140SOL     OW27052   1.243   2.251  15.143  0.6937 -0.3783  0.0587
 5140SOL    HW127053   1.175   2.187  15.166  0.0991  0.0006 -0.6655
 5140SOL    HW227054   1.254   2.286  15.232 -0.6569  1.8877 -0.6511
 5141SOL     OW27055   3.459   1.835   8.038  0.2851  0.1500 -0.5084
 5141SOL    HW127056   3.505   1.885   7.972 -0.8080 -0.3565 -1.6616
 5141SOL    HW227057   3.370   1.822   8.003  0.7405  0.4667 -1.7788
 5142SOL     OW27058   2.446   4.130  16.761  0.4560  0.0226  0.9255
 5142SOL    HW127059   2.519   4.117  16.701 -2.4383 -3.9966 -1.7551
 5142SOL    HW227060   2.480   4.134  16.850  0.0772 -0.0066  1.0753
 5143SOL     OW27061   3.837   1.416  11.788  0.3635 -0.0092 -0.6602
 5143SOL    HW127062   3.791   1.391  11.708  0.2081  0.0105 -0.5765
 5143SOL    HW227063   3.923   1.377  11.773  0.3102 -0.9462  1.4904
 5144SOL     OW27064   0.830   2.933   3.872 -0.3533  0.7060 -0.2713
 5144SOL    HW127065   0.746   2.972   3.898 -1.0689  0.7152 -2.6051
 5144SOL    HW227066   0.808   2.905   3.784  0.0111  3.1668 -1.1438
 5145SOL     OW27067   2.986   3.966   7.198  0.2969  0.0554  0.5036
 5145SOL    HW127068   2.955   3.971   7.288 -0.1856  0.5541  0.3113
 5145SOL    HW227069   2.931   3.894   7.167  2.9989 -2.4945  1.6941
 5146SOL     OW27070   4.192   0.557   5.123  0.3193  0.3893  0.5019
 5146SOL    HW127071   4.097   0.543   5.118  0.1998  1.8728 -1.3076
 5146SOL    HW227072   4.225   0.467   5.129 -0.8326 -0.2122 -1.9342
 5147SOL     OW27073   1.440   2.765   4.272 -0.3726 -0.2073 -0.2590
 5147SOL    HW127074   1.423   2.785   4.180  1.9840  0.0894 -0.6414
 5147SOL    HW227075   1.394   2.684   4.292  0.7422 -0.4821  1.2640
 5148SOL     OW27076   4.668   3.938  13.840 -0.1029 -0.6025 -0.2576
 5148SOL    HW127077   4.624   3.996  13.778  0.5360  0.3654  0.2028
 5148SOL    HW227078   4.659   3.856  13.790 -0.9674 -0.0821 -0.9626
 5149SOL     OW27079   3.730   1.027   9.070 -0.9725  0.1380  0.1316
 5149SOL    HW127080   3.665   0.971   9.112 -0.6584 -0.5509 -0.3094
 5149SOL    HW227081   3.704   1.116   9.094  0.5063  0.2716  1.2204
 5150SOL     OW27082   0.900   2.544  13.885 -0.0756  0.3480 -0.2732
 5150SOL    HW127083   0.897   2.517  13.977  0.3931  1.2588  0.0158
 5150SOL    HW227084   0.828   2.496  13.844 -1.3348  2.0066 -0.0062
 5151SOL     OW27085   0.965   3.403   8.286  0.7090 -0.0508 -0.0146
 5151SOL    HW127086   0.939   3.444   8.368  1.8083 -0.8645  0.7544
 5151SOL    HW227087   0.990   3.483   8.240 -1.5951 -0.9617 -2.8681
 5152SOL     OW27088   1.337   2.257   3.250  0.3758 -0.2016  0.2299
 5152SOL    HW127089   1.361   2.251   3.158 -0.8169 -0.3320 -0.0740
 5152SOL    HW227090   1.400   2.325   3.275  1.0276 -0.6649 -0.1514
 5153SOL     OW27091   3.855   4.326   8.863  0.2230  0.2034 -0.7840
 5153SOL    HW127092   3.933   4.371   8.896  0.6579 -0.5510 -0.7746
 5153SOL    HW227093   3.796   4.356   8.932  2.1659  1.1928  0.4580
 5154SOL     OW27094   0.894   1.932   9.830 -0.3552  0.3799  0.0523
 5154SOL    HW127095   0.952   1.939   9.906  0.4704 -0.1004 -0.5223
 5154SOL    HW227096   0.823   1.996   9.834 -1.2671 -0.6018 -0.3301
 5155SOL     OW27097   2.039   3.825   7.822 -0.1692 -0.5113 -0.5576
 5155SOL    HW127098   1.987   3.874   7.887 -1.3576 -1.0731 -1.0913
 5155SOL    HW227099   1.983   3.756   7.787 -0.6117  0.2230 -1.2877
 5156SOL     OW27100   2.631   3.773  16.937 -0.0173 -0.0783 -0.9002
 5156SOL    HW127101   2.619   3.835  16.865 -1.4959  2.7464  1.7638
 5156SOL    HW227102   2.544   3.733  16.940 -0.1546  0.5145  4.1275
 5157SOL     OW27103   1.329   2.165   6.633 -0.2063 -0.2334  0.0267
 5157SOL    HW127104   1.401   2.172   6.571  1.3401  2.6678  2.2089
 5157SOL    HW227105   1.324   2.257   6.657 -1.2115 -0.1726 -0.4040
 5158SOL     OW27106   2.162   1.987   5.422  0.4456  0.1504  0.4315
 5158SOL    HW127107   2.152   2.074   5.382  1.9965  0.8865  1.6677
 5158SOL    HW227108   2.162   2.013   5.514  1.1361  0.4874  0.3396
 5159SOL     OW27109   4.117   1.533   5.859 -0.3480 -0.1685 -0.3251
 5159SOL    HW127110   4.084   1.570   5.777 -1.0757 -0.4400 -0.1588
 5159SOL    HW227111   4.210   1.539   5.839 -0.2183  0.7764  0.5904
 5160SOL     OW27112   4.208   0.859   1.833  0.2594 -0.3039  0.4686
 5160SOL    HW127113   4.214   0.897   1.920 -0.1662 -3.1390  1.7516
 5160SOL    HW227114   4.291   0.883   1.792 -1.3325  0.4711 -2.2693
 5161SOL     OW27115   0.812   1.496   2.613  0.5595 -0.3344  0.0092
 5161SOL    HW127116   0.755   1.440   2.666  1.3037  0.6433  1.8439
 5161SOL    HW227117   0.745   1.536   2.557 -0.3030 -1.8251 -0.0245
 5162SOL     OW27118   2.381   1.741   3.239 -0.5475 -0.4070  0.2907
 5162SOL    HW127119   2.312   1.788   3.286 -0.3987  0.2157 -0.1108
 5162SOL    HW227120   2.462   1.791   3.252 -1.7006  1.3126  0.8939
 5163SOL     OW27121   3.505   2.641  11.093  0.0616  0.0572  0.2378
 5163SOL    HW127122   3.454   2.706  11.142  0.1788  0.2288  0.1323
 5163SOL    HW227123   3.535   2.593  11.171  0.2981  0.8486  0.6306
 5164SOL     OW27124   3.402   3.655  16.222 -0.5898 -0.1712  0.0754
 5164SOL    HW127125   3.480   3.659  16.278  0.8039  1.1699 -1.9830
 5164SOL    HW227126   3.379   3.747  16.226  4.5555  1.0931  1.3919
 5165SOL     OW27127   3.964   3.341  10.644 -0.2679  0.2079  0.2090
 5165SOL    HW127128   3.877   3.327  10.608 -0.6739  1.6799  0.6518
 5165SOL    HW227129   4.019   3.296  10.580 -1.8991 -0.4618 -0.7022
 5166SOL     OW27130   1.705   4.007  15.453 -0.4200  0.5739  0.0042
 5166SOL    HW127131   1.670   4.009  15.364 -1.2991  0.4778  0.3476
 5166SOL    HW227132   1.650   3.933  15.478  0.1863 -0.3049 -1.2996
 5167SOL     OW27133   3.588   3.658   5.649 -0.3507  0.0667  0.2494
 5167SOL    HW127134   3.580   3.571   5.611  0.3817  0.5739 -1.0671
 5167SOL    HW227135   3.500   3.693   5.635  0.3974  1.0147 -2.0319
 5168SOL     OW27136   2.598   0.312   1.601  0.1874 -0.1527 -0.3534
 5168SOL    HW127137   2.573   0.220   1.593 -1.7702  0.5322 -2.0160
 5168SOL    HW227138   2.692   0.303   1.610  0.2784  0.6256 -0.5098
 5169SOL     OW27139   3.191   4.318   8.309  0.1787  0.3774  0.3051
 5169SOL    HW127140   3.162   4.319   8.218  1.7484  1.2142 -0.1919
 5169SOL    HW227141   3.268   4.262   8.314  1.7754  2.5775  0.8757
 5170SOL     OW27142   1.400   1.539   5.727  0.2579 -0.7084  0.2970
 5170SOL    HW127143   1.434   1.582   5.649  3.3360  0.3728  2.2092
 5170SOL    HW227144   1.389   1.614   5.787 -1.1310 -1.7832  1.3935
 5171SOL     OW27145   2.255   3.148   2.141 -0.4291  0.1117  0.3219
 5171SOL    HW127146   2.334   3.149   2.088 -0.8650  2.2446 -0.2700
 5171SOL    HW227147   2.283   3.106   2.222  0.5314  0.6746  0.2760
 5172SOL     OW27148   4.274   2.181  14.682  0.0228 -0.5166  0.3975
 5172SOL    HW127149   4.228   2.257  14.716 -0.5096 -1.2978  1.3990
 5172SOL    HW227150   4.243   2.116  14.744 -1.1289 -1.2590 -0.9648
 5173SOL     OW27151   4.543   2.301  14.660  0.2457 -0.2565  0.2005
 5173SOL    HW127152   4.460   2.256  14.642  0.7308 -0.6814 -0.9787
 5173SOL    HW227153   4.553   2.285  14.754  0.9926 -2.9118 -0.3304
 5174SOL     OW27154   0.453   1.308   2.935  0.3841 -0.3048 -0.3554
 5174SOL    HW127155   0.402   1.241   2.980 -1.2519  1.3533  0.2554
 5174SOL    HW227156   0.408   1.386   2.967  0.2128 -2.0674  3.7767
 5175SOL     OW27157   0.851   0.616   3.131  0.1229  0.2937  0.2076
 5175SOL    HW127158   0.766   0.650   3.159  0.7480  0.3091  2.0822
 5175SOL    HW227159   0.902   0.696   3.143  0.7478 -0.0879  0.0867
 5176SOL     OW27160   2.738   3.630   9.054  0.0418 -0.2814 -0.7556
 5176SOL    HW127161   2.776   3.606   9.139  1.4334  1.3298 -0.9225
 5176SOL    HW227162   2.771   3.719   9.040 -1.8494  0.2690 -1.7547
 5177SOL     OW27163   2.440   0.884  13.156  0.0880 -0.1270 -0.2941
 5177SOL    HW127164   2.419   0.872  13.249  0.9886 -0.0657 -0.0858
 5177SOL    HW227165   2.496   0.961  13.161  0.7293 -0.7954  2.7494
 5178SOL     OW27166   2.931   4.227   8.541 -0.0990 -0.3845  0.0793
 5178SOL    HW127167   2.920   4.134   8.519 -0.3456 -0.7056  1.5526
 5178SOL    HW227168   2.859   4.241   8.602  1.2208  2.3955  0.9929
 5179SOL     OW27169   1.777   4.093   6.678 -0.2123  0.6052  0.2848
 5179SOL    HW127170   1.831   4.145   6.738 -0.4481  0.5317  0.5596
 5179SOL    HW227171   1.732   4.033   6.738  0.7953  1.9084  2.3521
 5180SOL     OW27172   1.790   2.793  12.590  0.5871 -0.4549 -0.2810
 5180SOL    HW127173   1.713   2.847  12.570  1.3042  1.5866  2.4603
 5180SOL    HW227174   1.844   2.862  12.629  0.1558 -0.8300  0.9547
 5181SOL     OW27175   1.269   4.279   3.471  0.3017 -0.4633 -0.4485
 5181SOL    HW127176   1.349   4.308   3.429  0.0739 -0.1453 -0.6630
 5181SOL    HW227177   1.205   4.330   3.422 -1.2065 -3.0395 -1.1730
 5182SOL     OW27178   1.692   0.927   0.934 -0.8075  0.3712 -0.1874
 5182SOL    HW127179   1.776   0.960   0.966  0.3034 -0.4326 -2.3136
 5182SOL    HW227180   1.630   0.934   1.007  0.5081  1.9142  0.7901
 5183SOL     OW27181   2.044   3.219   2.501 -0.0430  0.1352 -0.1629
 5183SOL    HW127182   2.001   3.273   2.435 -3.0459  1.1711  2.6613
 5183SOL    HW227183   2.119   3.276   2.514  0.4886 -0.5240 -0.3481
 5184SOL     OW27184   4.510   0.400   6.084 -0.6324 -0.3941  0.3685
 5184SOL    HW127185   4.490   0.474   6.026 -1.3464  0.3410  1.5456
 5184SOL    HW227186   4.591   0.363   6.051 -1.3311 -1.2312 -0.4195
 5185SOL     OW27187   2.674   4.428  17.112  0.2672  0.2753  0.2749
 5185SOL    HW127188   2.611   4.417  17.040 -0.1814  0.0872  0.6946
 5185SOL    HW227189   2.662   4.522  17.130  1.4374  0.2535  1.1385
 5186SOL     OW27190   3.569   3.600  13.081 -0.1288  0.5101 -0.4115
 5186SOL    HW127191   3.595   3.674  13.136  1.4385 -0.4089  0.1133
 5186SOL    HW227192   3.524   3.644  13.010  1.2985  0.3415 -1.4153
 5187SOL     OW27193   3.080   2.513   2.800 -0.3614  0.2342 -0.5380
 5187SOL    HW127194   3.124   2.546   2.722  1.1297 -1.0473 -0.2219
 5187SOL    HW227195   3.151   2.474   2.851 -1.6932 -2.4403 -0.7309
 5188SOL     OW27196   2.913   3.225   4.613  0.3574 -0.1610  0.2851
 5188SOL    HW127197   2.995   3.182   4.587  0.4407 -0.6743  1.3770
 5188SOL    HW227198   2.848   3.154   4.619 -0.7377  0.7321 -1.1024
 5189SOL     OW27199   0.819   4.076   8.272  0.3905 -0.3662 -0.2164
 5189SOL    HW127200   0.842   3.983   8.268  1.2326 -0.1720  0.1706
 5189SOL    HW227201   0.729   4.076   8.305  1.1675 -0.2547  1.9455
 5190SOL     OW27202   0.296   3.734   2.299 -0.3139 -0.1542 -0.1222
 5190SOL    HW127203   0.273   3.665   2.237  0.9980  0.4280 -1.2638
 5190SOL    HW227204   0.329   3.801   2.239  1.3052 -2.0451 -1.3234
 5191SOL     OW27205   1.376   1.327   8.586 -0.0872  0.3549 -0.5883
 5191SOL    HW127206   1.421   1.399   8.630  0.6807 -0.1740 -0.5025
 5191SOL    HW227207   1.395   1.334   8.492  2.0150  3.1155  0.0453
 5192SOL     OW27208   4.511   3.568   5.865 -0.0316 -0.3908  0.0552
 5192SOL    HW127209   4.481   3.656   5.845 -3.0745 -1.9328 -2.1219
 5192SOL    HW227210   4.427   3.523   5.874 -1.5266  2.0409 -1.8346
 5193SOL     OW27211   4.261   2.535  12.862 -0.3002  0.1785 -0.1233
 5193SOL    HW127212   4.178   2.571  12.892 -0.2888  0.3130 -0.2555
 5193SOL    HW227213   4.292   2.528  12.952  0.2511 -0.3624 -0.3453
 5194SOL     OW27214   3.609   0.254   8.004  0.0524 -0.3388 -0.5967
 5194SOL    HW127215   3.601   0.328   7.945  0.5609  0.0493 -0.1817
 5194SOL    HW227216   3.549   0.192   7.962 -1.6023  1.4188 -0.8079
 5195SOL     OW27217   4.662   1.646   2.474  0.2464 -0.7592 -0.2341
 5195SOL    HW127218   4.664   1.712   2.405  1.7406 -0.9705 -0.3873
 5195SOL    HW227219   0.010   1.602   2.458  2.2567  2.2915  2.0010
 5196SOL     OW27220   2.073   2.985   5.325 -0.4090 -0.6179  0.1985
 5196SOL    HW127221   2.086   2.909   5.269 -1.4271  0.6783 -1.7743
 5196SOL    HW227222   2.141   3.048   5.299 -1.1021  1.3191  3.0681
 5197SOL     OW27223   3.999   1.843   5.931  0.3030 -0.2412 -0.6146
 5197SOL    HW127224   4.032   1.757   5.906  1.3492 -0.1530  0.4388
 5197SOL    HW227225   3.944   1.810   6.003  3.9743 -0.3768  2.1423
 5198SOL     OW27226   0.274   2.771   7.420  0.0066 -0.1137 -0.2587
 5198SOL    HW127227   0.327   2.850   7.427 -1.0134  0.7173 -1.8697
 5198SOL    HW227228   0.255   2.742   7.509 -0.9312  1.3361 -0.0021
 5199SOL     OW27229   4.158   2.676   3.296 -0.0193  0.2029 -0.0329
 5199SOL    HW127230   4.161   2.580   3.296  1.5686  0.2495 -2.6393
 5199SOL    HW227231   4.119   2.690   3.209 -1.5290  0.4215  0.6712
 5200SOL     OW27232   4.264   4.695  13.512 -0.2176  0.3635 -0.0832
 5200SOL    HW127233   4.204   0.035  13.507 -1.6930 -0.6584  2.2024
 5200SOL    HW227234   4.321   4.715  13.438 -0.6780  1.4179 -0.1579
 5201SOL     OW27235   2.533   3.226   1.607  0.0727 -0.2220 -0.8017
 5201SOL    HW127236   2.455   3.254   1.655  0.2018 -1.5078  0.1583
 5201SOL    HW227237   2.488   3.190   1.531 -4.3363  2.5104  0.5170
 5202SOL     OW27238   4.574   0.194  10.975 -0.1371  0.2420  0.3688
 5202SOL    HW127239   4.530   0.109  10.979 -3.3474  1.7990 -1.1162
 5202SOL    HW227240   4.534   0.231  11.054 -2.6610 -1.3529 -0.1476
 5203SOL     OW27241   4.118   0.850   0.011  0.0165  0.3851  0.3679
 5203SOL    HW127242   4.077   0.917  17.695 -1.2204 -0.7123 -0.0564
 5203SOL    HW227243   4.178   0.901   0.065  0.6914  1.2341 -1.1692
 5204SOL     OW27244   1.256   2.681   0.823 -0.0021 -0.3606  0.1545
 5204SOL    HW127245   1.287   2.651   0.908 -2.5097  1.6580  1.7782
 5204SOL    HW227246   1.313   2.628   0.766 -0.4016 -2.7497  1.9739
 5205SOL     OW27247   1.396   2.006   0.098  0.0009 -0.2779 -0.1735
 5205SOL    HW127248   1.352   1.937   0.048 -2.2351 -0.9091  2.7104
 5205SOL    HW227249   1.337   2.026   0.170  0.2298  0.6537 -0.2402
 5206SOL     OW27250   1.244   2.318   2.959 -0.0635 -0.4332 -0.2686
 5206SOL    HW127251   1.245   2.310   2.863 -0.4435 -1.2522 -0.2041
 5206SOL    HW227252   1.165   2.275   2.991 -1.1050  1.4043 -0.4225
 5207SOL     OW27253   1.687   3.840   8.075 -0.4721 -0.3930 -0.7577
 5207SOL    HW127254   1.693   3.745   8.083  1.6172 -0.1956 -0.0114
 5207SOL    HW227255   1.707   3.862   8.166 -0.3148 -3.5719 -0.0158
 5208SOL     OW27256   3.759   1.556  11.997  0.5528  0.7738  0.3554
 5208SOL    HW127257   3.849   1.580  12.017  1.1707 -2.8991  1.9234
 5208SOL    HW227258   3.770   1.505  11.916  1.1657 -0.2980  1.1154
 5209SOL     OW27259   0.375   3.952   5.694  0.3266  0.6014 -0.4661
 5209SOL    HW127260   0.405   4.040   5.669 -1.1641  1.7640  1.7656
 5209SOL    HW227261   0.425   3.940   5.775  1.0850  0.3607 -0.9770
 5210SOL     OW27262   1.675   1.999   5.561  0.0682 -0.2901  0.4876
 5210SOL    HW127263   1.714   2.021   5.476  0.2188 -0.8432  0.4145
 5210SOL    HW227264   1.586   2.032   5.547  0.0125 -0.8099 -0.4358
 5211SOL     OW27265   0.100   0.844  17.086 -0.4406 -0.0328 -0.3698
 5211SOL    HW127266   0.154   0.807  17.017 -1.5213 -0.5946 -0.9215
 5211SOL    HW227267   0.063   0.914  17.032 -3.6501 -0.1134  1.6758
 5212SOL     OW27268   1.214   3.169   2.995  0.0661  0.5281 -0.1241
 5212SOL    HW127269   1.243   3.132   3.078  0.2045 -0.6950 -0.7109
 5212SOL    HW227270   1.164   3.247   3.018 -1.9994 -0.6726 -0.5360
 5213SOL     OW27271   2.086   1.253   4.556  0.5055  0.1514  0.1561
 5213SOL    HW127272   1.993   1.230   4.566  0.6477 -1.6279 -2.6008
 5213SOL    HW227273   2.091   1.277   4.463 -0.2974 -2.1010 -0.4660
 5214SOL     OW27274   2.793   0.701   4.019 -0.2799 -0.1313  0.8795
 5214SOL    HW127275   2.777   0.794   4.034  0.4266  0.1979 -0.4278
 5214SOL    HW227276   2.766   0.661   4.101 -0.1412 -0.3794  0.8048
 5215SOL     OW27277   4.469   4.107   2.364  0.3414  0.8027  0.0691
 5215SOL    HW127278   4.431   4.133   2.280  0.4972 -2.4945 -1.0597
 5215SOL    HW227279   4.548   4.160   2.372 -0.3280  1.5802  1.4646
 5216SOL     OW27280   4.402   2.166   8.308 -0.6332 -0.3984 -0.7739
 5216SOL    HW127281   4.379   2.129   8.393  1.2576 -0.8775 -0.4748
 5216SOL    HW227282   4.319   2.196   8.270 -1.2361 -0.2698  0.6740
 5217SOL     OW27283   0.800   3.322   1.289  0.3620 -0.0971 -0.4439
 5217SOL    HW127284   0.788   3.402   1.239 -1.5642 -0.6234 -0.8340
 5217SOL    HW227285   0.864   3.276   1.234  0.5564  0.8069 -0.9627
 5218SOL     OW27286   0.393   4.332   3.084 -0.4247 -0.0668  0.1359
 5218SOL    HW127287   0.369   4.364   2.997  0.1282  4.5745  1.6778
 5218SOL    HW227288   0.369   4.241   3.066 -3.6121  0.8919 -0.4476
 5219SOL     OW27289   2.578   0.185  16.438  0.2666 -0.0233 -0.1051
 5219SOL    HW127290   2.639   0.252  16.406  0.9010  1.0428  3.3545
 5219SOL    HW227291   2.625   0.151  16.514  0.4205 -0.9822 -0.6378
 5220SOL     OW27292   3.853   3.834  16.784  0.0419  0.4795  0.2147
 5220SOL    HW127293   3.799   3.755  16.794  0.9665  0.0031  1.4177
 5220SOL    HW227294   3.857   3.845  16.689  0.1914  2.1846  0.4313
 5221SOL     OW27295   0.874   1.012   3.835  0.0425 -0.2612 -0.2020
 5221SOL    HW127296   0.848   1.095   3.875  3.3700 -0.2977  2.0412
 5221SOL    HW227297   0.859   0.958   3.912 -0.3308 -1.9423 -1.4373
 5222SOL     OW27298   4.518   4.284  12.984 -0.8077  0.1288 -0.4583
 5222SOL    HW127299   4.585   4.249  13.043  1.4111  0.2842 -2.9133
 5222SOL    HW227300   4.494   4.368  13.021 -0.8424  0.0786 -0.3664
 5223SOL     OW27301   2.542   3.758   3.737 -0.1178 -0.0639  0.0431
 5223SOL    HW127302   2.468   3.713   3.695 -0.3541  0.3431  0.0188
 5223SOL    HW227303   2.576   3.798   3.657  1.0181 -0.0362  0.5493
 5224SOL     OW27304   0.934   4.516   3.623  0.6075  0.2390 -0.3712
 5224SOL    HW127305   0.977   4.489   3.542 -1.4933  0.6125 -1.6149
 5224SOL    HW227306   1.008   4.526   3.682  0.0203 -0.0962  0.4171
 5225SOL     OW27307   1.200   4.307  10.991  0.3801 -0.8470  0.1876
 5225SOL    HW127308   1.290   4.279  10.974  0.2400 -1.4603  0.4386
 5225SOL    HW227309   1.203   4.397  10.959  2.1029  0.2871  3.5515
 5226SOL     OW27310   4.728   3.347   3.180  0.5663 -0.0456 -0.2930
 5226SOL    HW127311   4.640   3.339   3.142  1.2012 -1.0026 -1.5713
 5226SOL    HW227312   0.026   3.281   3.119 -0.4101 -1.7317  0.9882
 5227SOL     OW27313   2.337   1.871  17.198 -0.0602  0.0126  0.2510
 5227SOL    HW127314   2.352   1.808  17.128 -0.0972  0.2362  0.0399
 5227SOL    HW227315   2.321   1.952  17.149 -1.0971  0.3857  1.1894
 5228SOL     OW27316   2.106   3.750   5.493 -0.5101  0.0686 -0.1998
 5228SOL    HW127317   2.024   3.796   5.477 -0.6864 -0.4619 -0.8721
 5228SOL    HW227318   2.151   3.787   5.417  1.8206  0.4171  1.3499
 5229SOL     OW27319   2.502   1.224  13.346 -0.4500  0.2768  0.2279
 5229SOL    HW127320   2.481   1.271  13.265 -0.4622  1.0774  0.6982
 5229SOL    HW227321   2.495   1.294  13.412  0.6265  0.2330  0.3828
 5230SOL     OW27322   3.366   1.074   0.536  0.1205  0.2114 -0.7016
 5230SOL    HW127323   3.361   1.136   0.609 -0.5322 -0.9876  0.2896
 5230SOL    HW227324   3.455   1.091   0.505  0.0204  1.3925 -0.3364
 5231SOL     OW27325   0.874   2.825  14.598  0.4997 -0.2338 -0.0168
 5231SOL    HW127326   0.934   2.750  14.598  0.2362 -0.4582  2.5831
 5231SOL    HW227327   0.931   2.899  14.580  0.5702 -0.4663 -0.7662
 5232SOL     OW27328   2.342   1.836   7.679 -0.2273  0.3019 -0.3388
 5232SOL    HW127329   2.405   1.783   7.631  0.6728  0.6922  0.4351
 5232SOL    HW227330   2.279   1.770   7.710 -0.2761  0.9305  0.8956
 5233SOL     OW27331   4.162   4.581   7.236 -0.0519  0.0282  0.2978
 5233SOL    HW127332   4.090   4.576   7.173 -0.4575  0.4631  0.7258
 5233SOL    HW227333   4.117   4.648   7.287  0.4789  1.0003 -0.5039
 5234SOL     OW27334   0.252   2.331   3.535 -0.1158 -0.2348 -0.1845
 5234SOL    HW127335   0.329   2.304   3.485 -1.8501 -4.5379 -0.4409
 5234SOL    HW227336   0.282   2.328   3.626 -0.0492 -3.8974 -0.3407
 5235SOL     OW27337   3.423   3.743   9.310  0.0583  0.3831 -0.7020
 5235SOL    HW127338   3.456   3.828   9.281 -1.9911  1.5886  0.5224
 5235SOL    HW227339   3.454   3.735   9.400 -0.1174 -0.5737 -0.7202
 5236SOL     OW27340   1.359   3.343   1.083  0.0632 -0.2854 -0.4342
 5236SOL    HW127341   1.304   3.421   1.093 -0.7177 -1.0550  1.3827
 5236SOL    HW227342   1.305   3.276   1.042  0.2436 -1.7287  1.6604
 5237SOL     OW27343   2.850   1.473   4.855 -0.1181  0.2142 -0.0330
 5237SOL    HW127344   2.859   1.492   4.762  0.3537 -0.7722 -0.1918
 5237SOL    HW227345   2.885   1.384   4.851 -1.1705 -0.3388  2.7127
 5238SOL     OW27346   4.238   2.147  12.867  0.2481  0.5084  0.0921
 5238SOL    HW127347   4.209   2.165  12.956  1.7952  2.1739  0.2812
 5238SOL    HW227348   4.325   2.113  12.888  0.2179 -0.7374 -1.7945
 5239SOL     OW27349   0.510   1.937   8.825 -0.1759 -0.4453 -0.4198
 5239SOL    HW127350   0.554   1.901   8.748 -1.1625 -0.9739 -0.7397
 5239SOL    HW227351   0.588   1.952   8.878 -0.3324 -0.9967 -0.0280
 5240SOL     OW27352   2.012   3.327   1.399 -0.0804  0.3132  0.3254
 5240SOL    HW127353   1.987   3.410   1.440 -0.6875  0.2063  0.1690
 5240SOL    HW227354   2.070   3.354   1.327  0.0170 -0.3071  0.1717
 5241SOL     OW27355   4.428   3.333   0.644 -0.1147 -0.0407 -0.0636
 5241SOL    HW127356   4.357   3.270   0.630  2.0041 -2.0789 -1.7554
 5241SOL    HW227357   4.390   3.396   0.583  0.9269  0.4458 -0.2153
 5242SOL     OW27358   0.907   4.027  15.949 -1.0422 -0.2665 -0.1446
 5242SOL    HW127359   0.884   4.027  15.856 -1.1199 -0.6626 -0.1250
 5242SOL    HW227360   0.973   3.958  15.957  0.5439  1.3690  1.1093
 5243SOL     OW27361   4.370   3.721   6.952  0.8132 -0.0072 -0.3134
 5243SOL    HW127362   4.301   3.773   6.911 -0.7659 -1.8277  0.0336
 5243SOL    HW227363   4.337   3.631   6.954  0.1452  0.1997 -2.1165
 5244SOL     OW27364   4.240   3.098   7.756 -0.0573 -0.1298  0.5989
 5244SOL    HW127365   4.170   3.094   7.692 -0.0216 -0.1382  0.5600
 5244SOL    HW227366   4.308   3.149   7.711  0.4619 -0.5139  0.9471
 5245SOL     OW27367   1.730   1.865   6.827  0.3522  0.2452  0.9727
 5245SOL    HW127368   1.644   1.906   6.825  0.1936 -0.1521 -1.1393
 5245SOL    HW227369   1.747   1.832   6.739 -0.5717  2.2241  0.0542
 5246SOL     OW27370   2.772   2.867  16.252  0.1618  0.0920 -0.4628
 5246SOL    HW127371   2.834   2.930  16.287 -1.5394  1.6708 -0.3144
 5246SOL    HW227372   2.690   2.916  16.243 -0.1799 -0.2132  0.9613
 5247SOL     OW27373   1.547   4.408   0.374 -0.0254  0.2817  0.3117
 5247SOL    HW127374   1.485   4.338   0.354  1.7163  0.1917 -4.6738
 5247SOL    HW227375   1.490   4.483   0.358 -1.1628 -0.3195  1.5909
 5248SOL     OW27376   2.044   1.649   9.016 -0.6638 -0.4580 -0.5390
 5248SOL    HW127377   1.980   1.608   9.073 -0.4589  0.1260  0.1112
 5248SOL    HW227378   2.010   1.625   8.930  0.0650 -0.5210 -0.8150
 5249SOL     OW27379   2.263   2.132   2.913  0.0845  0.1011  0.0298
 5249SOL    HW127380   2.330   2.069   2.885  0.8441  1.5376 -1.3892
 5249SOL    HW227381   2.234   2.166   2.828  0.6884  2.6583  0.8477
 5250SOL     OW27382   0.929   3.596   4.415 -0.0517 -0.0650 -0.4531
 5250SOL    HW127383   0.846   3.600   4.462 -0.2013  2.7087 -0.9701
 5250SOL    HW227384   0.988   3.618   4.487  1.7122  0.8271 -2.1479
 5251SOL     OW27385   0.992   4.366   7.622 -0.1500 -0.0602 -0.0464
 5251SOL    HW127386   0.950   4.279   7.628 -0.6767  0.4054  2.9207
 5251SOL    HW227387   1.084   4.342   7.631 -0.5838 -1.0882  1.6331
 5252SOL     OW27388   0.520   2.429   5.858 -0.3269 -0.4810  0.4249
 5252SOL    HW127389   0.487   2.349   5.900 -0.9646 -1.0176 -1.1086
 5252SOL    HW227390   0.540   2.490   5.929 -0.8089  1.3821 -1.0279
 5253SOL     OW27391   2.854   1.578   6.176  0.0450  0.5307  0.3657
 5253SOL    HW127392   2.833   1.549   6.265  1.3851 -1.3572  0.0652
 5253SOL    HW227393   2.771   1.622   6.156 -0.0610  0.6192  0.9793
 5254SOL     OW27394   4.311   4.360   6.278  0.3718  0.3886 -0.0370
 5254SOL    HW127395   4.236   4.385   6.332 -0.3720 -3.2872  0.6233
 5254SOL    HW227396   4.347   4.284   6.324 -0.7235 -0.3195 -0.3555
 5255SOL     OW27397   0.860   3.321   2.581 -0.2125 -0.1678 -0.0504
 5255SOL    HW127398   0.940   3.298   2.533  0.7528 -0.4522  1.7189
 5255SOL    HW227399   0.845   3.233   2.613 -1.9789 -0.7902 -2.5849
 5256SOL     OW27400   2.102   2.247  13.300  0.2469 -0.4487 -0.1480
 5256SOL    HW127401   2.008   2.231  13.296 -0.0699  1.2262  0.7032
 5256SOL    HW227402   2.124   2.311  13.231  0.8199  1.7557  2.0891
 5257SOL     OW27403   2.253   0.964   9.635 -0.1491  0.3820  0.0395
 5257SOL    HW127404   2.220   0.992   9.720  1.9574 -0.1900  1.0449
 5257SOL    HW227405   2.225   1.045   9.592  0.0740  0.4176 -0.0369
 5258SOL     OW27406   2.513   4.472   3.984  0.1927 -0.3559 -0.2529
 5258SOL    HW127407   2.483   4.400   3.928 -0.7859 -0.4137  0.3341
 5258SOL    HW227408   2.547   4.419   4.056  1.0790  0.6543  0.0692
 5259SOL     OW27409   3.929   2.686  14.293 -0.0728  0.0683 -0.4710
 5259SOL    HW127410   3.859   2.655  14.350  0.9245 -0.5718  0.4010
 5259SOL    HW227411   3.945   2.771  14.333  1.1570 -0.7433  0.7487
 5260SOL     OW27412   0.396   3.336   4.657 -0.1586 -0.0049 -0.3476
 5260SOL    HW127413   0.479   3.379   4.677 -0.6396  1.5373 -1.7244
 5260SOL    HW227414   0.424   3.259   4.708  2.2850  0.6449 -0.6877
 5261SOL     OW27415   3.373   3.094   7.568  0.1795 -0.4344 -0.3265
 5261SOL    HW127416   3.323   3.106   7.649 -1.0541 -2.7073 -0.7386
 5261SOL    HW227417   3.301   3.121   7.511 -0.6242  0.1186  0.9512
 5262SOL     OW27418   2.868   3.685   2.397  0.3830 -0.4492 -0.1487
 5262SOL    HW127419   2.874   3.690   2.302  0.3614 -0.5136 -0.1537
 5262SOL    HW227420   2.837   3.774   2.410  1.1040 -0.4814  1.8641
 5263SOL     OW27421   3.908   0.191   4.655  0.4170  0.2323  0.2580
 5263SOL    HW127422   3.851   0.245   4.710  1.8371  0.7368  1.2466
 5263SOL    HW227423   3.934   0.249   4.584 -0.4075  2.7446  1.9976
 5264SOL     OW27424   1.335   2.832   9.665 -0.3436 -0.1487 -0.4739
 5264SOL    HW127425   1.346   2.891   9.739 -0.2158 -0.9181  0.1253
 5264SOL    HW227426   1.415   2.836   9.612  0.1342 -1.0370  0.1676
 5265SOL     OW27427   2.572   4.384  12.604  0.2662  0.3917  0.3427
 5265SOL    HW127428   2.515   4.391  12.528 -2.3062 -0.0882  2.2596
 5265SOL    HW227429   2.628   4.460  12.586 -0.2537  0.0824 -2.6891
 5266SOL     OW27430   2.625   4.108   5.984 -0.3115  0.2660  0.5007
 5266SOL    HW127431   2.686   4.093   5.912 -0.8673  1.1386 -0.1364
 5266SOL    HW227432   2.556   4.045   5.964  1.3455 -1.5009  0.3606
 5267SOL     OW27433   0.850   1.039   2.279 -0.1442 -0.2525 -0.0156
 5267SOL    HW127434   0.823   1.025   2.370 -2.1535  1.8126 -0.3176
 5267SOL    HW227435   0.937   1.000   2.292 -0.5133 -0.5306  1.6359
 5268SOL     OW27436   1.153   4.161   4.226 -0.1377 -0.6354 -0.4887
 5268SOL    HW127437   1.126   4.199   4.310 -0.5219 -3.8781  0.8474
 5268SOL    HW227438   1.245   4.188   4.230  0.1368 -2.0543  2.4428
 5269SOL     OW27439   1.401   3.167   2.804  0.5297  0.0076 -0.2432
 5269SOL    HW127440   1.332   3.147   2.868 -0.7424 -1.2537 -2.0364
 5269SOL    HW227441   1.449   3.085   2.796  1.3192  0.5275 -0.8576
 5270SOL     OW27442   1.533   4.386   9.642 -0.2869  0.3119  0.1656
 5270SOL    HW127443   1.438   4.389   9.631 -0.0680  1.1449 -1.4304
 5270SOL    HW227444   1.541   4.291   9.651 -2.7328  0.2316  1.4759
 5271SOL     OW27445   2.565   3.331  12.673 -0.0304 -0.0556  0.0936
 5271SOL    HW127446   2.618   3.301  12.747 -3.3163 -2.0292  1.6896
 5271SOL    HW227447   2.575   3.260  12.610  0.4535 -2.4008  2.7622
 5272SOL     OW27448   3.754   1.889   3.045  0.6953 -0.3139  0.1282
 5272SOL    HW127449   3.712   1.930   3.121 -0.5979  1.4639 -1.5241
 5272SOL    HW227450   3.840   1.871   3.083  0.5562 -0.3102  0.4477
 5273SOL     OW27451   0.211   3.952   1.925  0.2007  0.5905 -0.1220
 5273SOL    HW127452   0.147   3.933   1.995  1.4164 -0.1507  0.7945
 5273SOL    HW227453   0.172   4.036   1.902 -2.9145 -0.5296  0.9480
 5274SOL     OW27454   2.950   4.022   7.983  0.1541  0.2479 -0.1501
 5274SOL    HW127455   2.868   4.046   7.941 -0.7095 -1.7797  0.3412
 5274SOL    HW227456   2.955   4.083   8.056 -0.0078  0.8640 -0.6569
 5275SOL     OW27457   1.037   1.586   7.387  0.1408  0.2107  1.0632
 5275SOL    HW127458   0.991   1.520   7.439 -0.4959 -1.1505 -1.2348
 5275SOL    HW227459   1.126   1.572   7.419  0.2238 -1.2247  0.1923
 5276SOL     OW27460   0.034   2.195   9.732  0.3396 -0.3826 -0.3408
 5276SOL    HW127461   4.702   2.199   9.800  2.8564 -3.3731  2.2750
 5276SOL    HW227462   0.010   2.110   9.694  0.1365 -1.7125  2.7870
 5277SOL     OW27463   2.450   1.885  11.091 -0.5680  0.5670  0.1686
 5277SOL    HW127464   2.540   1.869  11.121 -0.8948 -0.3335  0.6641
 5277SOL    HW227465   2.445   1.979  11.075 -0.9778  0.4548 -0.3434
 5278SOL     OW27466   3.495   0.866   6.170  0.0273 -0.0305  0.2711
 5278SOL    HW127467   3.457   0.779   6.184 -0.7055 -0.3819 -3.8775
 5278SOL    HW227468   3.514   0.859   6.076  3.2681  1.7437  0.8053
 5279SOL     OW27469   2.391   3.760  16.201 -0.0249  0.0442  0.5448
 5279SOL    HW127470   2.424   3.849  16.186  0.5996 -0.4749 -1.1208
 5279SOL    HW227471   2.440   3.732  16.279 -2.2807 -1.9728  1.2374
 5280SOL     OW27472   0.307   0.837   5.673 -0.2168  0.2050 -0.8507
 5280SOL    HW127473   0.374   0.886   5.721 -1.9795  0.8023  1.0240
 5280SOL    HW227474   0.327   0.876   5.589 -1.3788 -0.6100 -1.5076
 5281SOL     OW27475   2.121   4.212   4.222 -0.0671 -0.3431 -0.2850
 5281SOL    HW127476   2.156   4.139   4.273  0.3644  0.5872  0.7434
 5281SOL    HW227477   2.157   4.286   4.271 -2.3481 -0.8575  2.1960
 5282SOL     OW27478   2.154   0.401   5.289 -0.1147 -0.8050 -0.9274
 5282SOL    HW127479   2.095   0.433   5.221 -1.5726 -1.1076  0.1828
 5282SOL    HW227480   2.114   0.316   5.305 -0.8356  0.1613  2.4690
 5283SOL     OW27481   4.128   1.182   1.750  0.5876 -0.2017 -0.4061
 5283SOL    HW127482   4.062   1.183   1.819  3.1081  1.4441  1.9729
 5283SOL    HW227483   4.204   1.175   1.808 -0.9670 -0.9914  1.5311
 5284SOL     OW27484   4.504   0.914   9.389 -0.0347  0.3459 -0.2788
 5284SOL    HW127485   4.591   0.888   9.419  1.1548  3.6955 -0.7206
 5284SOL    HW227486   4.461   0.870   9.462 -0.4076  0.5330 -0.3870
 5285SOL     OW27487   0.363   3.534  12.539 -0.2265  0.6579 -0.0701
 5285SOL    HW127488   0.449   3.510  12.574  0.9056  1.4982 -2.3061
 5285SOL    HW227489   0.330   3.445  12.548 -0.8615  0.8103 -0.9623
 5286SOL     OW27490   0.917   2.358  16.801 -0.1770 -0.4530  0.4209
 5286SOL    HW127491   0.876   2.420  16.740  1.5918  0.2868 -0.0274
 5286SOL    HW227492   0.908   2.407  16.883  0.2170  2.5577 -1.3245
 5287SOL     OW27493   4.355   0.498   8.418 -0.4657 -0.1761 -0.2902
 5287SOL    HW127494   4.374   0.433   8.486 -0.9380 -0.7427 -0.7089
 5287SOL    HW227495   4.280   0.453   8.380 -1.0085  2.0372 -1.8230
 5288SOL     OW27496   2.707   1.925   3.967 -0.1032  0.4065 -0.5464
 5288SOL    HW127497   2.652   1.864   4.016  2.3882 -1.7548 -0.4194
 5288SOL    HW227498   2.650   2.001   3.966 -0.6002  0.0208 -2.4766
 5289SOL     OW27499   0.881   4.653   1.511 -0.0881  0.2707  0.2493
 5289SOL    HW127500   0.931   4.698   1.443 -1.9338  0.8482 -0.7183
 5289SOL    HW227501   0.842   4.728   1.556 -3.4219 -1.9111  1.0361
 5290SOL     OW27502   1.067   4.708   0.478 -0.3304 -0.6633  0.1754
 5290SOL    HW127503   0.974   4.685   0.472 -0.4421 -0.3503  0.7265
 5290SOL    HW227504   1.072   0.066   0.457 -2.2030 -0.8553 -1.1017
 5291SOL     OW27505   1.005   4.183  12.991 -0.3168 -0.3070 -0.1830
 5291SOL    HW127506   0.992   4.088  12.990  0.2572 -0.3935  1.0528
 5291SOL    HW227507   0.933   4.205  13.050  0.3118  0.1928  0.3914
 5292SOL     OW27508   0.142   4.338   4.397 -0.8195  0.6121  0.2079
 5292SOL    HW127509   0.196   4.300   4.327  0.2343  0.8727  0.8791
 5292SOL    HW227510   0.158   4.432   4.389 -0.5653  0.5667  0.1563
 5293SOL     OW27511   4.225   4.368   4.793 -0.3146 -0.5439 -0.3390
 5293SOL    HW127512   4.143   4.409   4.766  1.1580  1.3369 -1.9295
 5293SOL    HW227513   4.286   4.384   4.721 -1.1368 -0.7023 -1.0732
 5294SOL     OW27514   3.030   1.520   0.891  0.0008 -0.5329 -0.3203
 5294SOL    HW127515   3.006   1.469   0.813  0.3795 -3.0039  1.1748
 5294SOL    HW227516   3.011   1.611   0.868  2.6546 -0.5550 -2.6550
 5295SOL     OW27517   1.933   3.836  15.022 -0.1564  0.2023 -0.1766
 5295SOL    HW127518   1.953   3.914  15.074  3.4621  0.4497 -1.9206
 5295SOL    HW227519   1.838   3.828  15.032 -0.0594 -1.2401 -0.4662
 5296SOL     OW27520   2.978   1.558  15.985 -0.3767 -0.3521 -0.0550
 5296SOL    HW127521   2.934   1.550  16.070  2.6540  2.2344  1.7533
 5296SOL    HW227522   2.906   1.561  15.922  1.1783  1.4494 -1.7646
 5297SOL     OW27523   1.561   1.486  15.738 -0.0963  0.2501  0.5816
 5297SOL    HW127524   1.558   1.419  15.807  0.8790  0.1216  0.5043
 5297SOL    HW227525   1.651   1.488  15.705 -0.5554  0.1259 -0.6718
 5298SOL     OW27526   3.543   3.089   6.413  0.8598  0.5656 -0.0886
 5298SOL    HW127527   3.631   3.053   6.422  0.6611 -0.1111 -0.8054
 5298SOL    HW227528   3.566   3.176   6.382 -0.0820  0.3406 -1.4455
 5299SOL     OW27529   4.635   1.745  16.544  0.2710  0.2542  0.7964
 5299SOL    HW127530   4.559   1.688  16.547  0.2465  0.2614  0.3531
 5299SOL    HW227531   4.618   1.795  16.463  1.3578 -0.7372 -0.0509
 5300SOL     OW27532   4.280   2.275   1.920  0.4245  0.0184 -0.0277
 5300SOL    HW127533   4.216   2.225   1.870  0.8481 -2.4827  1.9551
 5300SOL    HW227534   4.357   2.234   1.882  0.6696  0.1985  0.2681
 5301SOL     OW27535   1.094   4.609   2.600 -0.3071 -0.3951 -0.1133
 5301SOL    HW127536   1.131   4.569   2.522  1.6979 -1.4178  1.3771
 5301SOL    HW227537   1.075   4.695   2.562 -2.2072 -0.4193  0.7866
 5302SOL     OW27538   2.104   2.900   9.186  0.2760 -0.2223  0.2890
 5302SOL    HW127539   2.151   2.875   9.266  0.2309  0.1018  0.4161
 5302SOL    HW227540   2.021   2.858   9.209 -0.6116  1.4433  0.1120
 5303SOL     OW27541   3.075   1.942   4.326  0.1274  0.2375 -0.0093
 5303SOL    HW127542   2.985   1.969   4.307  0.3567  0.9892 -0.0667
 5303SOL    HW227543   3.106   1.927   4.237 -1.6901  0.3445 -0.6604
 5304SOL     OW27544   0.787   1.245   4.922  0.1605 -0.0274  0.5277
 5304SOL    HW127545   0.771   1.260   5.015 -0.8286 -0.2433  0.3956
 5304SOL    HW227546   0.695   1.231   4.898  0.1065 -1.7411  1.7301
 5305SOL     OW27547   4.350   1.016   4.923 -0.3418  0.3332  0.3367
 5305SOL    HW127548   4.343   1.074   4.848  0.7518 -1.0974 -0.8963
 5305SOL    HW227549   4.366   0.937   4.872  2.2660  1.0000  0.1217
 5306SOL     OW27550   2.882   0.616   9.351 -0.0072  0.0948  0.1752
 5306SOL    HW127551   2.819   0.606   9.422  0.7659  0.4337  0.8982
 5306SOL    HW227552   2.951   0.562   9.390 -0.5516  0.2419  1.3377
 5307SOL     OW27553   2.299   3.827   6.840  0.0707 -0.3054 -0.3175
 5307SOL    HW127554   2.234   3.878   6.887 -1.1354 -1.5455 -0.6390
 5307SOL    HW227555   2.348   3.791   6.914  0.3641 -2.2229 -1.4260
 5308SOL     OW27556   4.553   2.309   6.375  0.1639  0.7706  0.3389
 5308SOL    HW127557   4.533   2.378   6.312  0.3112  0.1984 -0.3320
 5308SOL    HW227558   4.469   2.301   6.421 -0.1180  0.9648 -0.1333
 5309SOL     OW27559   4.259   2.007   5.002  0.6198  0.3064 -0.2734
 5309SOL    HW127560   4.225   1.926   4.962 -0.9247  0.9189 -0.1795
 5309SOL    HW227561   4.177   2.055   5.008  0.1909 -0.1857 -2.0726
 5310SOL     OW27562   3.324   3.597   8.861 -0.4860  0.0131  0.2638
 5310SOL    HW127563   3.368   3.551   8.932 -0.8776 -0.3470  0.2751
 5310SOL    HW227564   3.342   3.535   8.791 -0.8604 -0.6110  0.7198
 5311SOL     OW27565   3.244   3.926   7.120 -0.6612  0.0565 -0.8898
 5311SOL    HW127566   3.161   3.969   7.141  0.8905  2.4982  0.2340
 5311SOL    HW227567   3.273   3.977   7.044 -2.7834 -0.7518 -2.2406
 5312SOL     OW27568   2.232   0.451   4.678  0.4235 -0.7247 -0.0550
 5312SOL    HW127569   2.140   0.463   4.702  1.1889 -0.0338  2.5614
 5312SOL    HW227570   2.271   0.539   4.674 -1.1604 -0.1304 -2.5559
 5313SOL     OW27571   4.262   2.043   9.122 -0.2693  0.0324 -0.2996
 5313SOL    HW127572   4.232   1.957   9.153  1.6073 -0.2166  0.8136
 5313SOL    HW227573   4.353   2.021   9.102  0.5716  2.1425  1.1904
 5314SOL     OW27574   1.684   1.157   7.021  0.6843 -0.3161 -0.5478
 5314SOL    HW127575   1.662   1.100   7.095 -1.3032 -0.5769 -1.3380
 5314SOL    HW227576   1.646   1.240   7.047 -0.3824 -1.3954  1.3242
 5315SOL     OW27577   0.543   2.949   1.690  0.3571 -0.2266  0.7988
 5315SOL    HW127578   0.523   3.029   1.740  0.8201  0.5619 -0.2668
 5315SOL    HW227579   0.610   2.988   1.634 -1.6592 -0.7511 -1.9776
 5316SOL     OW27580   1.682   4.217   3.053  0.1510 -0.0258 -0.4704
 5316SOL    HW127581   1.624   4.197   3.126  2.8453  1.1293  2.0170
 5316SOL    HW227582   1.731   4.135   3.052  0.7494  0.3070  0.9712
 5317SOL     OW27583   0.820   0.304   5.250  0.7554  0.1596 -0.0134
 5317SOL    HW127584   0.822   0.226   5.304 -2.9135 -0.3494 -0.6319
 5317SOL    HW227585   0.729   0.326   5.271  0.5897 -0.3568 -0.2065
 5318SOL     OW27586   1.428   3.085   3.883  0.1286 -0.0405 -0.4900
 5318SOL    HW127587   1.486   3.153   3.916  1.2124 -0.5086 -1.4540
 5318SOL    HW227588   1.345   3.124   3.913 -0.7938 -1.9968 -0.5047
 5319SOL     OW27589   1.955   4.468   4.679 -0.0866  0.3426 -0.6996
 5319SOL    HW127590   2.004   4.405   4.626 -0.1725  1.0434 -1.6133
 5319SOL    HW227591   1.894   4.404   4.715 -2.0480  0.9415 -3.0224
 5320SOL     OW27592   4.367   1.125   2.848  0.1967  0.4061  0.1307
 5320SOL    HW127593   4.410   1.114   2.763 -0.8271 -2.3458 -0.0361
 5320SOL    HW227594   4.442   1.105   2.904 -1.2905 -2.1355  1.1888
 5321SOL     OW27595   4.465   0.856   2.892 -0.1274 -0.0967  0.1302
 5321SOL    HW127596   4.444   0.862   2.986 -1.2957 -1.3946 -0.0526
 5321SOL    HW227597   4.552   0.895   2.892 -0.9665  1.7439  0.5622
 5322SOL     OW27598   2.044   0.966   2.396  0.7487  0.0521  0.1239
 5322SOL    HW127599   1.978   1.034   2.411 -1.0411 -1.2139 -1.8695
 5322SOL    HW227600   2.006   0.914   2.325  1.9602  0.2624 -0.6705
 5323SOL     OW27601   1.234   0.152   7.053  0.1658 -0.5733  0.7386
 5323SOL    HW127602   1.300   0.130   6.987 -0.3210 -0.1560  0.1244
 5323SOL    HW227603   1.194   0.067   7.069  0.6973 -0.8091  0.8300
 5324SOL     OW27604   2.259   2.040   7.018  0.5123 -0.5757  0.0186
 5324SOL    HW127605   2.251   2.095   7.096 -2.1954 -0.2977 -0.4667
 5324SOL    HW227606   2.299   2.107   6.962  0.1711  0.3004  0.8141
 5325SOL     OW27607   4.363   0.428   3.645 -0.7015  0.3689  0.0091
 5325SOL    HW127608   4.332   0.437   3.735 -0.0653 -0.6090  0.3311
 5325SOL    HW227609   4.304   0.358   3.617  0.3739  0.7855 -3.2911
 5326SOL     OW27610   1.599   0.251   8.448 -0.6157  0.2766  0.2863
 5326SOL    HW127611   1.546   0.320   8.488 -1.9590  0.1327 -1.2329
 5326SOL    HW227612   1.589   0.186   8.517  1.1888 -1.0774 -0.7129
 5327SOL     OW27613   1.427   4.542  13.403  0.4566 -0.1308  0.3566
 5327SOL    HW127614   1.335   4.514  13.398  1.0692 -1.6279 -2.5008
 5327SOL    HW227615   1.425   4.600  13.327  0.6242 -1.3980 -0.6191
 5328SOL     OW27616   1.854   1.208  16.413 -0.3242 -0.3261  0.1303
 5328SOL    HW127617   1.872   1.274  16.479 -0.3643  0.2530 -0.4376
 5328SOL    HW227618   1.935   1.213  16.361 -1.8884  1.3225 -2.1500
 5329SOL     OW27619   3.304   0.688  12.059 -0.2969  0.3497 -0.0425
 5329SOL    HW127620   3.235   0.622  12.050  1.3380 -1.1796 -1.1960
 5329SOL    HW227621   3.359   0.683  11.981  0.4471  1.1408  0.4306
 5330SOL     OW27622   1.253   0.408  15.974 -0.1909 -0.2712 -0.2441
 5330SOL    HW127623   1.230   0.315  15.978 -0.0395 -0.3154 -0.4160
 5330SOL    HW227624   1.234   0.435  16.064  0.9497  1.3161 -0.4856
 5331SOL     OW27625   4.150   0.442   3.003  0.3706  0.2092 -0.2993
 5331SOL    HW127626   4.098   0.372   2.963  1.3255 -0.0583 -1.0619
 5331SOL    HW227627   4.223   0.389   3.032 -2.2692 -2.6732  1.1078
 5332SOL     OW27628   1.651   1.218  13.719  0.4623 -0.2793  0.4371
 5332SOL    HW127629   1.662   1.202  13.812 -0.3440 -2.8300  0.0974
 5332SOL    HW227630   1.702   1.142  13.688 -1.8486 -0.5965 -2.6447
 5333SOL     OW27631   2.352   1.965   5.029 -0.3875  0.0646  0.5848
 5333SOL    HW127632   2.278   1.936   5.083 -0.0823  0.8884  1.4625
 5333SOL    HW227633   2.332   1.905   4.958  0.6552 -0.4560  0.7298
 5334SOL     OW27634   0.767   0.948   0.162  0.2203 -0.5862 -0.1197
 5334SOL    HW127635   0.858   0.934   0.136 -0.1214 -2.9775 -0.0516
 5334SOL    HW227636   0.763   1.044   0.164 -2.4293 -0.7128  0.8920
 5335SOL     OW27637   2.268   4.103   5.231 -0.3486  0.0354 -0.3068
 5335SOL    HW127638   2.299   4.063   5.313  2.4069  4.0136  0.6115
 5335SOL    HW227639   2.314   4.186   5.241 -2.3979  1.2558 -0.9085
 5336SOL     OW27640   3.051   0.596   8.251 -0.0466 -0.2744 -0.0709
 5336SOL    HW127641   3.004   0.523   8.211 -0.2101 -0.4673  0.4746
 5336SOL    HW227642   3.007   0.664   8.200 -0.0952  1.1941  1.8947
 5337SOL     OW27643   3.448   0.290   1.605  0.7015  0.5254 -0.3435
 5337SOL    HW127644   3.506   0.264   1.533 -1.5585 -1.8949 -1.2876
 5337SOL    HW227645   3.515   0.330   1.661  0.7379 -3.8703  2.7213
 5338SOL     OW27646   4.660   3.121   7.114 -0.8074 -0.1309  0.0454
 5338SOL    HW127647   0.002   3.133   7.059 -1.6233 -0.1804 -1.1131
 5338SOL    HW227648   4.590   3.143   7.053 -0.3759 -0.6186 -0.6141
 5339SOL     OW27649   2.609   0.404   5.166  0.0878 -0.0577  0.1007
 5339SOL    HW127650   2.548   0.354   5.220 -1.0204  1.3487  0.1285
 5339SOL    HW227651   2.543   0.447   5.112 -1.3973 -1.9297  0.4255
 5340SOL     OW27652   0.299   2.755   4.604  0.0938  0.5935 -0.2137
 5340SOL    HW127653   0.332   2.732   4.691 -1.3102 -1.9353 -0.3368
 5340SOL    HW227654   0.262   2.840   4.628 -0.1794  0.8536 -1.5973
 5341SOL     OW27655   1.215   0.698  12.989 -0.8682  0.9172 -0.2850
 5341SOL    HW127656   1.248   0.788  12.986  0.9390  0.2973  1.4151
 5341SOL    HW227657   1.195   0.679  12.897 -0.0981 -1.1382 -0.0246
 5342SOL     OW27658   1.204   1.730   2.508 -0.7570 -0.7298  0.3459
 5342SOL    HW127659   1.253   1.654   2.475  1.3089  1.5219 -1.7704
 5342SOL    HW227660   1.241   1.765   2.588  0.7071 -0.1400 -0.5929
 5343SOL     OW27661   4.512   1.874   4.440  0.3823  0.3843  0.1455
 5343SOL    HW127662   4.542   1.876   4.349 -0.3192 -4.3568 -0.1739
 5343SOL    HW227663   4.425   1.915   4.436  0.6439  0.9429  0.0795
 5344SOL     OW27664   4.208   1.458   7.444 -0.2007  0.0630 -0.3690
 5344SOL    HW127665   4.230   1.449   7.351 -2.8153 -1.1768 -0.8641
 5344SOL    HW227666   4.270   1.525   7.474  0.2271  0.6316 -2.5204
 5345SOL     OW27667   2.037   2.614   3.216 -0.3189 -0.2886  0.4339
 5345SOL    HW127668   2.047   2.599   3.310 -3.2468  2.2445  1.1623
 5345SOL    HW227669   1.979   2.690   3.214 -0.1363 -0.2158 -2.1529
 5346SOL     OW27670   3.474   0.133   7.795  0.3632  0.8396 -0.0805
 5346SOL    HW127671   3.519   0.077   7.731 -0.7209 -1.9482  1.5935
 5346SOL    HW227672   3.398   0.077   7.810  1.0628 -0.5731 -1.7417
 5347SOL     OW27673   0.555   0.036   4.523  0.2761 -0.1229 -0.1120
 5347SOL    HW127674   0.526   4.686   4.555 -0.3987  0.3406  0.5020
 5347SOL    HW227675   0.472   0.079   4.504  0.4910  0.5301  0.3987
 5348SOL     OW27676   1.502   4.550   3.116 -0.2094 -0.3639 -0.6552
 5348SOL    HW127677   1.407   4.534   3.117 -0.1410 -0.8113 -1.2507
 5348SOL    HW227678   1.505   4.613   3.044  0.9869 -1.6229 -1.6869
 5349SOL     OW27679   2.186   3.439  15.228 -0.0087  0.0731 -0.1199
 5349SOL    HW127680   2.096   3.469  15.221 -0.3012 -0.4893  1.2532
 5349SOL    HW227681   2.237   3.490  15.165  1.2691  0.9975  1.6738
 5350SOL     OW27682   0.042   2.970   6.626 -0.4276  0.4543 -0.1738
 5350SOL    HW127683   4.723   3.040   6.589 -0.5171  0.0549 -0.8000
 5350SOL    HW227684   4.713   2.901   6.646  0.6788 -0.0811  1.5280
 5351SOL     OW27685   1.937   3.195   3.036  0.3479  0.4863  0.0854
 5351SOL    HW127686   1.978   3.146   2.965  0.5737 -0.7208  1.0459
 5351SOL    HW227687   1.855   3.149   3.053  0.4286 -0.1006 -1.0839
 5352SOL     OW27688   3.910   3.200  14.751  0.0831  0.6432 -0.2922
 5352SOL    HW127689   4.003   3.206  14.729  0.6475  0.0414  1.9393
 5352SOL    HW227690   3.905   3.243  14.836  1.3662  1.1411 -0.4726
 5353SOL     OW27691   4.470   4.648   0.762  0.0588  0.0885 -0.1270
 5353SOL    HW127692   4.560   4.641   0.794  0.1700 -0.6379 -0.6074
 5353SOL    HW227693   4.457   4.559   0.729 -2.2219 -0.3587  1.9032
 5354SOL     OW27694   2.640   3.692   2.646  0.7887 -0.1701 -0.0487
 5354SOL    HW127695   2.669   3.667   2.558 -1.6209 -0.6279 -0.6929
 5354SOL    HW227696   2.664   3.610   2.688 -0.5230 -0.1102  0.8218
 5355SOL     OW27697   2.106   3.901   4.272  0.0951  0.1491  0.5032
 5355SOL    HW127698   2.099   3.930   4.181  3.8928 -1.4014 -0.2455
 5355SOL    HW227699   2.074   3.812   4.260  1.5166 -0.2076 -0.5999
 5356SOL     OW27700   0.180   3.651  14.031 -0.3393 -0.5611 -0.2732
 5356SOL    HW127701   0.085   3.661  14.031 -0.1714  1.1928  1.1502
 5356SOL    HW227702   0.205   3.740  14.006 -0.8898 -0.8981 -2.0054
 5357SOL     OW27703   2.153   0.972  13.567  0.1026 -0.0542  0.4417
 5357SOL    HW127704   2.221   1.039  13.573  0.2735 -0.0665 -1.4918
 5357SOL    HW227705   2.181   0.924  13.489  0.2999 -0.1977  0.6007
 5358SOL     OW27706   0.044   1.721   3.080 -0.0917  0.4141 -0.3578
 5358SOL    HW127707   4.725   1.714   3.002 -0.6719 -0.3250  0.1083
 5358SOL    HW227708   4.728   1.764   3.149  0.5204  1.2941 -0.4417
 5359SOL     OW27709   4.038   1.361   8.313 -0.5126 -0.1022  0.6476
 5359SOL    HW127710   4.073   1.445   8.342  1.2869 -0.7828  0.4028
 5359SOL    HW227711   4.085   1.346   8.232  1.9050  0.5105  1.9454
 5360SOL     OW27712   3.962   1.048   5.522  0.1346  0.7191 -0.4734
 5360SOL    HW127713   3.882   1.097   5.541  0.1627  0.1128  1.2295
 5360SOL    HW227714   4.027   1.106   5.561  0.3252  0.6504 -0.6894
 5361SOL     OW27715   2.094   1.656   7.291  0.1346  0.8574 -0.2074
 5361SOL    HW127716   2.067   1.699   7.211 -0.2021  0.5560 -0.2554
 5361SOL    HW227717   2.188   1.675   7.290  0.4246 -0.5573 -0.7718
 5362SOL     OW27718   4.406   0.614  14.085 -0.2013  0.0506 -0.1151
 5362SOL    HW127719   4.316   0.645  14.075 -1.4765 -3.2016  1.4313
 5362SOL    HW227720   4.415   0.661  14.168 -2.9677  0.7924 -0.2218
 5363SOL     OW27721   0.714   4.212  12.575 -0.0063  0.3365 -0.2458
 5363SOL    HW127722   0.751   4.299  12.558 -0.3005  0.2456 -1.3546
 5363SOL    HW227723   0.786   4.171  12.623 -0.2983 -2.3236 -2.0715
 5364SOL     OW27724   1.602   0.668   5.301 -0.1499 -0.2347  0.3246
 5364SOL    HW127725   1.601   0.692   5.394  0.5753  1.3040 -0.0694
 5364SOL    HW227726   1.657   0.590   5.307 -0.7751 -0.5908  1.5169
 5365SOL     OW27727   1.626   3.642   6.773 -0.3431  0.5634  0.1497
 5365SOL    HW127728   1.613   3.549   6.793  0.7213  0.3905  0.0613
 5365SOL    HW227729   1.572   3.645   6.694  0.9144 -1.5828 -0.8044
 5366SOL     OW27730   4.440   1.009  12.459  0.3837 -0.0613  0.0467
 5366SOL    HW127731   4.491   0.957  12.520 -0.0994 -1.4750 -0.7393
 5366SOL    HW227732   4.473   1.096  12.481 -1.2934  0.3672  0.8728
 5367SOL     OW27733   0.120   3.666   1.543  0.2389  0.4259  0.5863
 5367SOL    HW127734   0.107   3.756   1.571  0.8452  0.1133  1.8721
 5367SOL    HW227735   0.210   3.659   1.512  0.0013  2.5806 -0.5850
 5368SOL     OW27736   0.916   4.026  12.005 -0.5379 -0.2943 -0.0011
 5368SOL    HW127737   0.959   4.022  12.091  1.1563  1.6269 -0.7698
 5368SOL    HW227738   0.927   3.935  11.980  0.5147 -0.3569  0.6892
 5369SOL     OW27739   0.067   3.142   9.160  0.0826  0.2540 -0.2369
 5369SOL    HW127740   0.028   3.229   9.148 -1.2902 -0.7134 -2.8202
 5369SOL    HW227741   0.155   3.161   9.126  0.5038 -2.2046 -0.5279
 5370SOL     OW27742   2.530   2.526   4.918  0.1823  0.0697 -0.2116
 5370SOL    HW127743   2.571   2.526   4.831 -1.2739  0.3143 -0.8953
 5370SOL    HW227744   2.540   2.618   4.943  1.0146  0.2877 -1.3091
 5371SOL     OW27745   1.520   1.697  17.616 -0.0942 -0.0102 -0.3561
 5371SOL    HW127746   1.475   1.662  17.539  2.0183 -0.0316 -1.5531
 5371SOL    HW227747   1.607   1.715  17.582 -0.9747  1.3882 -1.8622
 5372SOL     OW27748   4.529   4.729   7.602 -0.3008  0.3034  0.4705
 5372SOL    HW127749   4.589   4.680   7.545  0.6149  0.8475  0.9665
 5372SOL    HW227750   4.519   4.681   7.683  1.4223  1.7382  1.5380
 5373SOL     OW27751   1.925   2.125   4.543  0.0594 -0.2874  0.2444
 5373SOL    HW127752   1.831   2.129   4.523  0.4232 -0.2087 -1.4016
 5373SOL    HW227753   1.945   2.033   4.562  0.2797 -0.0856  1.0154
 5374SOL     OW27754   4.118   0.804   5.882 -0.0846 -0.3798 -0.1966
 5374SOL    HW127755   4.024   0.814   5.894 -0.3311  0.8218 -3.0049
 5374SOL    HW227756   4.135   0.775   5.971 -0.7771  1.6473  0.5899
 5375SOL     OW27757   4.386   2.243   4.453  0.2925  0.0617 -0.1548
 5375SOL    HW127758   4.451   2.207   4.512 -1.1862 -1.7877  0.3428
 5375SOL    HW227759   4.373   2.323   4.503  1.8936  0.4711 -0.4071
 5376SOL     OW27760   2.940   3.569   5.177 -0.2827  0.3386  0.1325
 5376SOL    HW127761   2.851   3.594   5.153 -0.3352  1.4528  1.4681
 5376SOL    HW227762   2.987   3.633   5.124 -0.2483 -0.3902 -0.7185
 5377SOL     OW27763   0.453   1.163   0.639 -0.2222 -0.3428 -0.3595
 5377SOL    HW127764   0.459   1.185   0.732 -0.8412 -0.2157 -0.3459
 5377SOL    HW227765   0.545   1.156   0.613  0.3975  1.6063  1.2675
 5378SOL     OW27766   2.163   4.475  14.639  0.2400  0.3468 -0.0914
 5378SOL    HW127767   2.112   4.438  14.567  1.6576  1.4406 -1.6417
 5378SOL    HW227768   2.161   4.566  14.611  1.8292  0.8940  1.5904
 5379SOL     OW27769   0.111   0.537   8.795 -0.8934  0.9762  0.0862
 5379SOL    HW127770   0.102   0.537   8.700 -1.0639 -1.0114  0.1024
 5379SOL    HW227771   0.156   0.620   8.810 -0.3605  0.6499  0.2991
 5380SOL     OW27772   2.361   0.559   7.868  0.3060 -0.3132  0.4068
 5380SOL    HW127773   2.308   0.485   7.900  1.7625 -1.0986  0.9984
 5380SOL    HW227774   2.296   0.627   7.850  1.8598  0.4385 -2.2859
 5381SOL     OW27775   1.343   2.632   6.487 -0.0486 -0.0092 -0.0721
 5381SOL    HW127776   1.252   2.641   6.514  0.4143 -1.8734  2.1342
 5381SOL    HW227777   1.387   2.669   6.564 -1.1235  0.3845  0.3393
 5382SOL     OW27778   1.377   2.668  12.256 -0.3098  0.1717  0.8432
 5382SOL    HW127779   1.450   2.636  12.309 -0.7070 -1.4453  0.4149
 5382SOL    HW227780   1.409   2.631  12.174  0.8021 -2.3159  2.3835
 5383SOL     OW27781   0.514   2.401   6.305 -0.1151  0.2009  0.1065
 5383SOL    HW127782   0.452   2.474   6.310 -2.3173 -1.8337  2.5463
 5383SOL    HW227783   0.515   2.368   6.395  1.2312 -2.4370 -0.8578
 5384SOL     OW27784   1.683   0.410   7.366  0.5335  0.4409 -0.3813
 5384SOL    HW127785   1.687   0.487   7.309 -0.2003  0.0034 -1.0178
 5384SOL    HW227786   1.621   0.446   7.429 -0.5736 -1.6684 -0.2847
 5385SOL     OW27787   3.560   4.278   3.023 -0.4969  0.0503  0.0340
 5385SOL    HW127788   3.600   4.248   3.105 -0.1169 -1.7178 -0.8156
 5385SOL    HW227789   3.469   4.301   3.042  0.1648 -0.3768  3.8325
 5386SOL     OW27790   2.431   1.927   9.650 -0.0579  0.1535 -0.6975
 5386SOL    HW127791   2.364   1.970   9.596 -0.1172 -1.5247 -1.9654
 5386SOL    HW227792   2.493   1.896   9.584  0.0793 -1.2112  0.0855
 5387SOL     OW27793   2.684   0.876   5.731 -0.2900  0.4995  0.0833
 5387SOL    HW127794   2.614   0.914   5.678  1.2478 -0.1808 -2.4085
 5387SOL    HW227795   2.634   0.805   5.771  0.2536  0.3424  0.4792
 5388SOL     OW27796   1.976   2.604   6.268 -0.7255  0.2838 -0.0415
 5388SOL    HW127797   2.009   2.626   6.181 -2.3019  1.6209 -0.3116
 5388SOL    HW227798   1.942   2.688   6.301 -0.7187  0.7510 -1.2126
 5389SOL     OW27799   4.135   3.546   7.085  0.6894  0.3601  0.5150
 5389SOL    HW127800   4.042   3.564   7.069  0.9358  0.7572 -0.4697
 5389SOL    HW227801   4.162   3.495   7.009 -1.6864 -0.2620  0.0928
 5390SOL     OW27802   4.582   4.275   3.823 -0.1748 -0.0435 -0.9515
 5390SOL    HW127803   4.630   4.289   3.905 -1.1812  2.2567 -0.7494
 5390SOL    HW227804   4.497   4.311   3.849  0.3699  1.6799 -1.5556
 5391SOL     OW27805   3.799   0.052   8.485 -0.3220  0.2770 -0.1486
 5391SOL    HW127806   3.868   0.021   8.426  0.9209  0.2719  1.3230
 5391SOL    HW227807   3.784   0.134   8.438 -1.1386 -0.2620 -0.8433
 5392SOL     OW27808   4.191   3.014   2.897 -0.3574 -0.2287 -0.4772
 5392SOL    HW127809   4.240   3.069   2.836  0.9332 -1.8711 -0.9096
 5392SOL    HW227810   4.254   2.942   2.899  1.7745  1.6879  1.3461
 5393SOL     OW27811   3.001   2.743   8.377  0.3113  0.4074  0.1339
 5393SOL    HW127812   3.050   2.824   8.366  2.8856 -0.9757  1.3853
 5393SOL    HW227813   2.954   2.742   8.294  0.0306  0.3386  0.2928
 5394SOL     OW27814   0.315   1.833   7.367 -0.0895  0.2414 -0.0686
 5394SOL    HW127815   0.303   1.759   7.426  3.2052 -0.2448 -0.0145
 5394SOL    HW227816   0.242   1.809   7.309 -0.3504  2.0864 -0.5283
 5395SOL     OW27817   0.872   1.094  11.250  0.0610 -0.4119 -0.0173
 5395SOL    HW127818   0.927   1.026  11.213  1.2417  1.1902 -1.1609
 5395SOL    HW227819   0.792   1.045  11.273 -0.1947 -0.7282 -1.6186
 5396SOL     OW27820   3.642   2.091   6.719  0.0051  0.4289  0.0110
 5396SOL    HW127821   3.677   2.179   6.706  0.5946 -0.0145 -1.3833
 5396SOL    HW227822   3.572   2.125   6.774 -1.6886 -0.7165 -1.4475
 5397SOL     OW27823   0.190   4.592  12.507  0.3676  0.4394 -0.0273
 5397SOL    HW127824   0.234   4.531  12.566 -0.0009 -0.2044 -0.4110
 5397SOL    HW227825   0.113   4.600  12.564  0.5375  1.7872  0.0076
 5398SOL     OW27826   3.061   2.243   8.263 -0.0885 -0.1747 -0.5145
 5398SOL    HW127827   3.123   2.215   8.195 -2.0424  0.2732 -2.4483
 5398SOL    HW227828   3.118   2.303   8.310  0.3664 -1.2486  0.3113
 5399SOL     OW27829   3.193   0.041   2.487  0.1257  0.1458 -0.0854
 5399SOL    HW127830   3.173   4.713   2.418 -1.1885 -0.9092  1.2401
 5399SOL    HW227831   3.272   0.010   2.531  1.4834 -0.0415 -2.6660
 5400SOL     OW27832   4.594   0.222  10.695 -0.0135  0.6746 -0.1309
 5400SOL    HW127833   4.551   0.138  10.681  1.0403 -0.1790  1.8155
 5400SOL    HW227834   4.593   0.217  10.791  1.8677 -4.3938 -0.4226
 5401SOL     OW27835   0.010   4.378   0.206 -0.5055 -0.8202 -0.0098
 5401SOL    HW127836   0.090   4.415   0.243 -0.6767  1.0577 -1.4842
 5401SOL    HW227837   4.701   4.460   0.182 -0.7866 -0.8342  0.4406
 5402SOL     OW27838   3.589   2.629  16.840 -0.1336  0.1711 -0.0178
 5402SOL    HW127839   3.507   2.653  16.884  0.2735  0.3867  0.6212
 5402SOL    HW227840   3.550   2.581  16.767  1.4235  1.2357 -1.5275
 5403SOL     OW27841   0.129   1.343   5.237  0.7079 -0.2444  0.3221
 5403SOL    HW127842   0.091   1.318   5.153  3.2799 -0.2352 -0.8523
 5403SOL    HW227843   0.210   1.389   5.213 -0.5394  2.6013  1.5235
 5404SOL     OW27844   0.503   1.440   7.437  0.1069 -0.2484  0.0062
 5404SOL    HW127845   0.471   1.530   7.429  2.1143  0.5500  0.9563
 5404SOL    HW227846   0.573   1.452   7.501  0.0131 -0.8569  0.2200
 5405SOL     OW27847   2.240   4.502   4.896 -0.0122  0.5365  0.3695
 5405SOL    HW127848   2.236   4.432   4.962 -1.3092 -0.6988 -1.0375
 5405SOL    HW227849   2.242   4.459   4.811  1.6044  3.2437 -0.9777
 5406SOL     OW27850   1.879   0.006   1.801 -0.1412  0.3466  0.4635
 5406SOL    HW127851   1.917   4.673   1.856 -0.1793  0.0377  0.1114
 5406SOL    HW227852   1.941   0.017   1.729 -0.5988 -0.5187 -0.0589
 5407SOL     OW27853   1.572   0.443   5.988 -0.1742  0.3508  0.5873
 5407SOL    HW127854   1.638   0.501   6.024 -0.3696  0.5593  0.6143
 5407SOL    HW227855   1.597   0.359   6.027 -0.5481  0.6194  1.4000
 5408SOL     OW27856   3.188   3.498   6.699  1.0281 -0.5145  0.6647
 5408SOL    HW127857   3.123   3.433   6.725 -2.3445  2.3828 -0.4834
 5408SOL    HW227858   3.246   3.439   6.650  1.4175  0.4077  0.0077
 5409SOL     OW27859   0.676   2.982  15.490 -0.7592  0.1091 -0.2146
 5409SOL    HW127860   0.760   3.007  15.530 -2.5600  1.4255  2.7460
 5409SOL    HW227861   0.642   3.064  15.456  2.4915  2.3110  1.7804
 5410SOL     OW27862   3.876   2.593   8.896  0.2364 -0.1912 -0.3323
 5410SOL    HW127863   3.962   2.568   8.930 -0.5298 -0.0732  1.7190
 5410SOL    HW227864   3.904   2.646   8.821 -1.0940 -1.6730 -1.8677
 5411SOL     OW27865   0.378   3.459   5.091 -0.1702 -0.3574  0.3215
 5411SOL    HW127866   0.420   3.373   5.102  0.4103 -0.3777 -2.0294
 5411SOL    HW227867   0.299   3.433   5.045  0.6501 -1.9049 -0.2356
 5412SOL     OW27868   3.030   1.967   2.306 -0.4839  0.2328  0.0927
 5412SOL    HW127869   3.110   1.980   2.358 -0.7477  3.9718 -0.4670
 5412SOL    HW227870   2.977   1.903   2.353 -0.9030  2.3045  2.4513
 5413SOL     OW27871   3.228   1.022  10.259 -0.3554 -0.0562 -0.3637
 5413SOL    HW127872   3.212   0.954  10.194  0.6690  0.4094 -1.1087
 5413SOL    HW227873   3.280   1.088  10.211  0.6098 -1.1006 -0.7540
 5414SOL     OW27874   0.784   3.134   8.094 -0.3280  0.1578 -0.1412
 5414SOL    HW127875   0.824   3.173   8.017  0.3620  0.8822  0.5753
 5414SOL    HW227876   0.692   3.131   8.068 -0.6922 -0.1740  1.1877
 5415SOL     OW27877   0.240   2.619  14.968  0.3445 -0.3635  0.3257
 5415SOL    HW127878   0.167   2.558  14.964  0.6557 -0.7341  0.3420
 5415SOL    HW227879   0.221   2.660  14.884 -0.1303 -0.8907  0.1728
 5416SOL     OW27880   0.304   3.334  11.710 -0.4335 -0.4027  0.0026
 5416SOL    HW127881   0.358   3.275  11.658  1.2187 -0.1832  1.4758
 5416SOL    HW227882   0.247   3.266  11.745 -1.7685  1.0150  0.6050
 5417SOL     OW27883   2.915   3.257   3.199  0.7834  0.1798  0.3650
 5417SOL    HW127884   2.981   3.244   3.267 -0.2173  1.0053  1.4927
 5417SOL    HW227885   2.834   3.259   3.250 -0.2983  1.0568 -1.3721
 5418SOL     OW27886   2.208   1.276   4.798  0.7188 -0.2635  0.1777
 5418SOL    HW127887   2.280   1.336   4.780 -1.4356  2.0305 -0.8326
 5418SOL    HW227888   2.180   1.255   4.709 -0.2247  0.4393  0.3072
 5419SOL     OW27889   3.070   0.870   2.088 -0.4675  0.3900  0.1211
 5419SOL    HW127890   3.163   0.887   2.102  0.1187 -1.4052 -1.7460
 5419SOL    HW227891   3.053   0.890   1.996 -0.3189  3.2419  0.7157
 5420SOL     OW27892   2.677   0.908   3.155  0.1231  0.6958  0.3028
 5420SOL    HW127893   2.765   0.870   3.147 -0.6025 -0.9031 -0.2299
 5420SOL    HW227894   2.695   0.998   3.129 -2.9932  0.6876 -1.8186
 5421SOL     OW27895   2.517   3.402  15.391 -0.3218  0.3911  0.1136
 5421SOL    HW127896   2.463   3.326  15.370 -0.8624  0.7789  0.0934
 5421SOL    HW227897   2.583   3.401  15.322 -1.4144  1.1069 -0.9392
 5422SOL     OW27898   1.344   1.492   2.502  0.3271  0.2390  0.6639
 5422SOL    HW127899   1.335   1.455   2.590  1.1194 -2.6249 -0.4644
 5422SOL    HW227900   1.385   1.426   2.447 -1.1027  0.4145 -0.6321
 5423SOL     OW27901   3.143   2.620   4.874  0.1248 -0.0806  0.2727
 5423SOL    HW127902   3.056   2.645   4.905 -0.1985  1.6112 -1.9678
 5423SOL    HW227903   3.159   2.535   4.915  0.0502 -0.5902 -0.7470
 5424SOL     OW27904   2.187   2.902   7.509  0.3308  0.0949  0.1425
 5424SOL    HW127905   2.217   2.811   7.505  1.1582  0.5090 -3.0544
 5424SOL    HW227906   2.229   2.921   7.593  1.0583 -2.1766  0.2874
 5425SOL     OW27907   0.181   4.140  11.684  0.1435 -0.3546  1.5027
 5425SOL    HW127908   0.254   4.143  11.622 -0.7285 -0.6964  0.4807
 5425SOL    HW227909   0.114   4.096  11.633  1.4799 -1.4710  0.7146
 5426SOL     OW27910   1.628   1.558   0.839 -0.0964 -0.2012 -0.3595
 5426SOL    HW127911   1.569   1.512   0.779  1.7067 -2.0053 -0.7740
 5426SOL    HW227912   1.582   1.641   0.855  2.1415  1.0036 -0.2058
 5427SOL     OW27913   2.185   2.426  10.415 -0.0545 -0.1805  0.1835
 5427SOL    HW127914   2.261   2.460  10.463 -0.8926  0.8627  0.7548
 5427SOL    HW227915   2.199   2.331  10.415  0.1684 -0.1537 -0.6521
 5428SOL     OW27916   3.575   2.444   7.789 -0.0685  0.4712 -0.2141
 5428SOL    HW127917   3.556   2.382   7.719  1.6587 -2.5878  2.0800
 5428SOL    HW227918   3.670   2.451   7.779 -0.0639 -0.8101 -1.0866
 5429SOL     OW27919   3.428   4.313   7.178  0.2795  0.2869  0.0412
 5429SOL    HW127920   3.349   4.263   7.158 -0.9510  1.8656  0.9019
 5429SOL    HW227921   3.492   4.243   7.169 -1.2561 -1.5537  2.9934
 5430SOL     OW27922   4.709   3.101   9.416 -0.2803  0.0518  0.2316
 5430SOL    HW127923   0.001   3.009   9.417 -0.3320  0.0615  1.9948
 5430SOL    HW227924   0.009   3.123   9.330  0.3668  0.9931  0.7435
 5431SOL     OW27925   2.522   1.186  10.742  0.6448 -0.6398 -0.5502
 5431SOL    HW127926   2.569   1.234  10.810  2.5365 -2.5279 -0.5167
 5431SOL    HW227927   2.566   1.101  10.742 -2.7106 -2.3943  0.3127
 5432SOL     OW27928   4.219   2.705  13.589 -0.4640 -0.3461 -0.5733
 5432SOL    HW127929   4.210   2.663  13.504 -0.6619  1.4145 -1.4197
 5432SOL    HW227930   4.202   2.630  13.647  0.1924  0.4032  0.5907
 5433SOL     OW27931   2.616   2.350   5.359  0.1311  0.1091 -0.1460
 5433SOL    HW127932   2.635   2.421   5.421  1.9509  1.5396 -2.3339
 5433SOL    HW227933   2.521   2.359   5.353 -0.0755 -2.0618 -0.3099
 5434SOL     OW27934   1.067   2.750   6.287  0.3711 -0.2209 -0.2834
 5434SOL    HW127935   1.076   2.658   6.262  0.3972 -0.3167  0.0934
 5434SOL    HW227936   1.129   2.782   6.221  2.0146  1.2632  1.9950
 5435SOL     OW27937   0.092   0.509   8.518 -0.1235 -0.5079  0.7446
 5435SOL    HW127938   0.139   0.427   8.532 -0.3846 -0.4089  2.2092
 5435SOL    HW227939   0.158   0.557   8.469  3.5410 -3.5356  2.6694
 5436SOL     OW27940   1.262   1.376   4.168 -0.4578 -1.1365  0.3497
 5436SOL    HW127941   1.253   1.323   4.248  0.2813 -0.5691  0.8065
 5436SOL    HW227942   1.175   1.357   4.133 -0.8375  0.2028  0.5606
 5437SOL     OW27943   4.515   2.412   7.564  0.3898  0.4128  0.2825
 5437SOL    HW127944   4.431   2.459   7.561 -0.5204 -1.2191  0.0553
 5437SOL    HW227945   4.487   2.321   7.572 -0.4846  0.7243  0.8159
 5438SOL     OW27946   4.534   3.398  15.165  0.3493 -0.2965  0.3792
 5438SOL    HW127947   4.526   3.462  15.236  0.7662 -1.2332  1.2607
 5438SOL    HW227948   4.444   3.367  15.158 -0.5140  2.5390 -1.3952
 5439SOL     OW27949   3.489   3.646   2.651  0.3454  0.9093  0.1613
 5439SOL    HW127950   3.501   3.551   2.642  0.1857  0.9385 -0.3503
 5439SOL    HW227951   3.577   3.677   2.630  1.3438 -1.7385  0.4580
 5440SOL     OW27952   0.455   3.366   7.692  0.1181  0.4759 -0.4136
 5440SOL    HW127953   0.402   3.441   7.721  1.0962  1.5272 -1.3299
 5440SOL    HW227954   0.408   3.357   7.609  1.0279  0.7532 -0.9613
 5441SOL     OW27955   2.152   2.156   8.055  0.4898 -0.2036  0.0278
 5441SOL    HW127956   2.174   2.121   7.968 -0.9838 -0.9330 -0.0662
 5441SOL    HW227957   2.159   2.077   8.110 -0.5902 -0.7033 -0.5474
 5442SOL     OW27958   3.822   1.375   1.650 -0.5089 -0.0422  0.5610
 5442SOL    HW127959   3.778   1.433   1.712  0.3035  2.1097 -0.8648
 5442SOL    HW227960   3.785   1.289   1.673 -2.1980  1.1076  2.1800
 5443SOL     OW27961   3.763   2.579  14.475 -0.1177  0.2462 -0.4685
 5443SOL    HW127962   3.714   2.521  14.417  1.2082 -2.2329  0.8348
 5443SOL    HW227963   3.697   2.633  14.519 -2.1507 -0.8602 -2.1279
 5444SOL     OW27964   2.493   2.260  10.339 -0.4605 -0.9303  0.1344
 5444SOL    HW127965   2.433   2.256  10.413 -1.1482 -0.9417 -0.4206
 5444SOL    HW227966   2.569   2.240  10.393  0.4199 -0.2957 -0.8707
 5445SOL     OW27967   3.158   0.365   9.337  0.1742  0.0329 -0.5837
 5445SOL    HW127968   3.131   0.288   9.388  0.8874  0.4599  0.4422
 5445SOL    HW227969   3.139   0.433   9.402  0.2144 -2.3352  1.9191
 5446SOL     OW27970   0.576   2.339   4.021 -0.4763  0.3431 -0.1783
 5446SOL    HW127971   0.516   2.413   4.028  0.4764  0.9289  1.6713
 5446SOL    HW227972   0.582   2.333   3.926 -1.7602 -0.7186 -0.1908
 5447SOL     OW27973   3.181   3.817   4.483  0.2735 -0.5659 -0.3949
 5447SOL    HW127974   3.257   3.866   4.515  0.6753  2.2436 -5.7759
 5447SOL    HW227975   3.134   3.887   4.439  1.2397 -1.1196 -2.3115
 5448SOL     OW27976   4.290   2.492  16.201  0.0402 -0.6912  0.6991
 5448SOL    HW127977   4.301   2.572  16.149  0.2723 -0.1869  1.4994
 5448SOL    HW227978   4.210   2.447  16.174 -0.7072  1.1076 -0.1173
 5449SOL     OW27979   1.414   0.805   4.730 -0.1843  0.2446 -0.8110
 5449SOL    HW127980   1.453   0.740   4.788  1.4942 -0.1208 -2.3491
 5449SOL    HW227981   1.323   0.778   4.723 -0.8538  2.8535 -2.2664
 5450SOL     OW27982   2.701   3.710   5.978  0.3922 -0.3384  0.3894
 5450SOL    HW127983   2.665   3.757   5.903 -0.7539 -0.1022  1.0776
 5450SOL    HW227984   2.657   3.626   5.971 -0.2949 -0.0035  0.6575
 5451SOL     OW27985   0.851   0.866   4.078  0.1361 -0.0417  0.5465
 5451SOL    HW127986   0.877   0.901   4.163  2.8070 -0.3362 -0.1520
 5451SOL    HW227987   0.759   0.851   4.103 -0.1757  2.0998  0.7266
 5452SOL     OW27988   4.110   4.107  11.435 -0.1942 -0.3427  0.1181
 5452SOL    HW127989   4.140   4.197  11.450 -2.0023  0.3926 -0.5876
 5452SOL    HW227990   4.189   4.070  11.396  0.6259  2.0221 -0.4734
 5453SOL     OW27991   3.472   0.310   8.944  0.1312  0.1411 -0.8139
 5453SOL    HW127992   3.443   0.351   8.863 -1.2709  0.3519 -0.1937
 5453SOL    HW227993   3.544   0.364   8.977 -1.4553  2.2717 -0.8437
 5454SOL     OW27994   4.349   4.729  13.227 -0.3448  0.3397  0.0129
 5454SOL    HW127995   4.306   0.020  13.146 -0.3732  2.1967  0.6214
 5454SOL    HW227996   4.387   0.078  13.254  1.2395 -0.6252  0.7860
 5455SOL     OW27997   1.053   2.755   3.972  0.2634 -0.2402 -0.0645
 5455SOL    HW127998   1.138   2.746   4.014  0.8278 -0.0561 -1.1611
 5455SOL    HW227999   1.074   2.815   3.901 -2.2673  1.3728  0.5539
 5456SOL     OW28000   1.707   3.902   7.584  0.3887  0.0255 -0.0108
 5456SOL    HW128001   1.679   3.961   7.513 -0.7076 -0.6433 -0.1421
 5456SOL    HW228002   1.627   3.849   7.587 -0.7077  1.6835  0.0659
 5457SOL     OW28003   3.054   1.414  15.723 -0.1979  0.0834  0.1366
 5457SOL    HW128004   3.017   1.462  15.798 -0.5851  0.3739 -0.2446
 5457SOL    HW228005   3.001   1.449  15.652 -0.2471  2.2794  1.2588
 5458SOL     OW28006   2.360   4.630  11.180  0.2511  1.0283  0.2579
 5458SOL    HW128007   2.354   4.725  11.163 -0.0487  1.0205  0.3227
 5458SOL    HW228008   2.388   4.623  11.271 -2.6727 -1.8210  0.9192
 5459SOL     OW28009   3.505   1.105   2.925 -0.1820 -0.4909  0.1146
 5459SOL    HW128010   3.451   1.166   2.874  0.7898  0.7558  0.6002
 5459SOL    HW228011   3.526   1.155   3.003 -0.3065 -0.8175  0.3561
 5460SOL     OW28012   2.385   3.929   0.973 -0.2949  0.3547  0.4112
 5460SOL    HW128013   2.358   3.890   0.890 -1.9554 -0.9682  1.5611
 5460SOL    HW228014   2.326   4.004   0.964  1.2168  1.2248 -2.1470
 5461SOL     OW28015   3.581   0.430   2.987  0.6753 -0.4787  0.3124
 5461SOL    HW128016   3.616   0.439   2.899  2.0703 -0.7412  0.8405
 5461SOL    HW228017   3.516   0.501   2.992  0.3071 -0.7581 -0.6780
 5462SOL     OW28018   2.294   0.524   7.348 -0.4473 -0.7167 -0.4291
 5462SOL    HW128019   2.372   0.577   7.335 -0.3596 -0.5626  0.6541
 5462SOL    HW228020   2.292   0.512   7.443  1.9104 -1.0089 -0.4280
 5463SOL     OW28021   1.968   4.200   2.248  0.3978 -0.9868 -0.1614
 5463SOL    HW128022   1.894   4.143   2.226 -0.3541 -0.5745  1.2533
 5463SOL    HW228023   2.003   4.225   2.163 -1.3670  0.5947 -0.4073
 5464SOL     OW28024   1.450   3.817  10.501 -0.0312  0.6165  0.1351
 5464SOL    HW128025   1.530   3.852  10.540  1.0425 -0.2386 -1.3043
 5464SOL    HW228026   1.383   3.856  10.556 -0.4897 -0.8057  0.5907
 5465SOL     OW28027   1.959   1.101   2.980  0.2563  0.5384 -0.2321
 5465SOL    HW128028   1.931   1.071   2.894 -0.4459  1.5180 -0.3501
 5465SOL    HW228029   2.054   1.090   2.989  0.1045 -0.1288  0.5287
 5466SOL     OW28030   1.555   2.829   1.421  0.0843  0.4733 -0.3690
 5466SOL    HW128031   1.613   2.860   1.351 -1.6247 -0.5260 -2.2045
 5466SOL    HW228032   1.594   2.871   1.498  0.2559  1.6547 -1.1158
 5467SOL     OW28033   3.812   4.340   6.469  0.0669 -0.2487  0.0460
 5467SOL    HW128034   3.802   4.435   6.471 -0.1744 -0.2781  0.1564
 5467SOL    HW228035   3.728   4.308   6.500  0.3037 -1.3581 -0.4811
 5468SOL     OW28036   4.563   4.369  13.325 -0.4221  0.0286 -0.4540
 5468SOL    HW128037   4.627   4.304  13.295 -0.5884 -0.8329  1.0521
 5468SOL    HW228038   4.547   4.421  13.246  1.5334 -0.5043 -1.1899
 5469SOL     OW28039   2.499   2.365  14.907  0.2110  0.5246 -0.4647
 5469SOL    HW128040   2.493   2.390  14.999  1.8490 -0.1640 -0.1715
 5469SOL    HW228041   2.587   2.395  14.888 -0.0423  1.9644  0.6455
 5470SOL     OW28042   1.115   2.135  10.209  0.1779  0.1974 -0.3929
 5470SOL    HW128043   1.051   2.065  10.214 -0.2025  0.4864 -1.1797
 5470SOL    HW228044   1.065   2.181  10.142  0.6101  1.5181  0.1942
 5471SOL     OW28045   3.793   1.664   9.935 -0.1956  0.4630  0.0910
 5471SOL    HW128046   3.730   1.603   9.894  1.8125 -0.2376 -1.9849
 5471SOL    HW228047   3.736   1.736   9.962 -1.8313 -0.5826 -0.5499
 5472SOL     OW28048   0.517   3.640   8.036 -0.3014 -0.3950  0.0258
 5472SOL    HW128049   0.555   3.560   8.001  1.4238  0.2251  0.4932
 5472SOL    HW228050   0.497   3.605   8.122 -0.5456  0.8328  0.4700
 5473SOL     OW28051   1.327   2.061   9.248  0.2091  0.1185  0.0091
 5473SOL    HW128052   1.232   2.060   9.238  0.3167  0.0834 -1.0017
 5473SOL    HW228053   1.345   2.155   9.245 -1.0618  0.3847  0.5793
 5474SOL     OW28054   2.632   1.472   1.776 -0.3016 -0.2345  0.3531
 5474SOL    HW128055   2.645   1.497   1.684 -2.6932  0.3894  0.1652
 5474SOL    HW228056   2.552   1.425   1.751 -0.3621 -0.5176  1.0983
 5475SOL     OW28057   3.369   3.117   5.023 -0.1863  0.0228  1.0077
 5475SOL    HW128058   3.413   3.140   4.941  1.0793 -1.2857  1.3270
 5475SOL    HW228059   3.335   3.036   4.985  0.5509 -0.8280  2.1351
 5476SOL     OW28060   1.489   2.580   8.140  0.3444 -0.1028 -0.0641
 5476SOL    HW128061   1.560   2.568   8.076 -0.0537 -2.5867 -0.0271
 5476SOL    HW228062   1.413   2.588   8.082  0.2498  1.0605  0.2149
 5477SOL     OW28063   2.624   1.486  10.351  0.4404  0.3646  0.3470
 5477SOL    HW128064   2.688   1.553  10.375 -1.5209  1.8625  1.3521
 5477SOL    HW228065   2.644   1.468  10.259  0.3450 -0.7186  0.5450
 5478SOL     OW28066   3.240   0.540  11.531  0.3165 -0.2652  0.0862
 5478SOL    HW128067   3.229   0.582  11.445  0.2853  1.4075  0.9003
 5478SOL    HW228068   3.303   0.472  11.506 -1.0791 -1.9080  1.0866
 5479SOL     OW28069   1.794   0.464   5.339 -0.1954 -0.2301 -0.5945
 5479SOL    HW128070   1.787   0.434   5.430  0.5858  2.0455  0.2390
 5479SOL    HW228071   1.866   0.411   5.305 -1.3976 -1.8022 -0.6509
 5480SOL     OW28072   0.785   4.179   5.512 -0.0819 -0.0571  0.1171
 5480SOL    HW128073   0.879   4.165   5.512  0.2051  1.9271 -0.0195
 5480SOL    HW228074   0.764   4.135   5.430 -2.9386 -0.6629  1.1730
 5481SOL     OW28075   0.723   3.750   2.208 -0.1418 -0.1172 -0.0627
 5481SOL    HW128076   0.699   3.824   2.264 -1.4798 -0.1357 -0.6321
 5481SOL    HW228077   0.809   3.734   2.248 -0.7806 -1.9076  0.6177
 5482SOL     OW28078   2.322   2.616   4.566  0.1228 -0.2812  0.2025
 5482SOL    HW128079   2.263   2.618   4.490 -0.8420  0.4252  0.9773
 5482SOL    HW228080   2.347   2.524   4.576  1.9496  0.2330  0.1817
 5483SOL     OW28081   0.361   2.114   8.278 -0.2901 -0.0270 -0.4911
 5483SOL    HW128082   0.299   2.113   8.350  1.1789 -0.7399  0.7567
 5483SOL    HW228083   0.424   2.052   8.314  0.0122  1.3032  1.2442
 5484SOL     OW28084   2.239   0.182   6.474  0.1594  0.0053 -0.0171
 5484SOL    HW128085   2.231   0.214   6.564  0.8828  1.2764 -0.4065
 5484SOL    HW228086   2.313   0.122   6.480  1.0221  1.1626  0.9487
 5485SOL     OW28087   2.407   3.299  16.756 -0.2827 -0.1022 -0.0059
 5485SOL    HW128088   2.347   3.237  16.798 -0.9339 -0.3218 -1.2344
 5485SOL    HW228089   2.378   3.279  16.667  0.7374 -0.2860 -0.2996
 5486SOL     OW28090   4.194   1.521   3.980  0.3351 -0.3868 -0.0148
 5486SOL    HW128091   4.116   1.522   4.035 -0.2031 -1.9859 -0.7486
 5486SOL    HW228092   4.156   1.521   3.892 -1.0442 -3.5659  0.5951
 5487SOL     OW28093   2.208   0.930   5.414  0.1233  0.1782  0.0579
 5487SOL    HW128094   2.119   0.941   5.383 -0.2941  0.9250  1.5113
 5487SOL    HW228095   2.214   0.835   5.402 -0.6141  0.5851 -3.5292
 5488SOL     OW28096   4.423   2.755   4.699  0.7945  0.0117 -0.6660
 5488SOL    HW128097   4.426   2.788   4.610 -2.4508 -0.1559 -0.8204
 5488SOL    HW228098   4.421   2.842   4.740 -2.3628 -0.4950  0.2505
 5489SOL     OW28099   2.724   3.243   0.052  0.3231  0.0202 -0.0496
 5489SOL    HW128100   2.659   3.271  17.727  0.1102 -1.5256 -0.5076
 5489SOL    HW228101   2.783   3.196  17.733  0.1196 -0.5175  0.1827
 5490SOL     OW28102   3.907   2.266   2.892  0.2214  0.2379 -0.0189
 5490SOL    HW128103   3.928   2.207   2.964 -1.6656 -2.3893 -1.6020
 5490SOL    HW228104   3.957   2.222   2.824  0.0498  2.0403 -1.3207
 5491SOL     OW28105   2.073   4.043   1.436  0.4598  0.2549 -0.0905
 5491SOL    HW128106   2.113   4.001   1.360  1.1413  0.3891  0.1980
 5491SOL    HW228107   2.140   4.106   1.462  0.7020 -0.7213  1.6567
 5492SOL     OW28108   3.993   1.373   4.487 -0.0579 -0.0724  0.1778
 5492SOL    HW128109   4.063   1.436   4.505 -0.5244  0.5864 -0.2899
 5492SOL    HW228110   4.017   1.359   4.396 -1.9075  2.2724 -0.6749
 5493SOL     OW28111   4.336   3.579   8.642 -0.2716  0.3223 -0.7495
 5493SOL    HW128112   4.350   3.495   8.686 -0.1003 -0.0183 -1.4644
 5493SOL    HW228113   4.313   3.645   8.706  0.8845  0.5544 -0.5678
 5494SOL     OW28114   1.364   3.106   1.974 -0.0656  0.0450  0.2877
 5494SOL    HW128115   1.317   3.176   2.019  0.0031 -1.1224  2.2022
 5494SOL    HW228116   1.298   3.037   1.975 -0.6110  0.5752  1.3816
 5495SOL     OW28117   2.327   0.947   4.724  0.0572 -0.6682 -0.1431
 5495SOL    HW128118   2.276   0.970   4.647 -1.0629 -0.8757  0.5381
 5495SOL    HW228119   2.398   1.007   4.700 -0.4167 -0.4661 -1.0330
 5496SOL     OW28120   1.276   0.447   6.293 -1.0742  0.4151 -0.3997
 5496SOL    HW128121   1.329   0.367   6.300 -0.1431  0.8995 -1.8443
 5496SOL    HW228122   1.225   0.426   6.214 -1.0461 -2.2021  0.2584
 5497SOL     OW28123   2.304   2.281   3.725  0.2498  0.6308  0.0678
 5497SOL    HW128124   2.261   2.284   3.810  0.7207 -3.8130  0.4657
 5497SOL    HW228125   2.373   2.347   3.723  1.6562 -0.8562 -0.9630
 5498SOL     OW28126   2.570   0.717   8.008 -0.4868 -0.0728  0.0835
 5498SOL    HW128127   2.542   0.790   7.952  2.5889  0.1245 -1.2188
 5498SOL    HW228128   2.503   0.653   7.984  1.1489 -1.8672  0.2995
 5499SOL     OW28129   0.720   1.862   7.711  0.0384  0.3011  0.1002
 5499SOL    HW128130   0.811   1.854   7.682  0.3051  0.1084  1.0133
 5499SOL    HW228131   0.720   1.888   7.803  1.8155 -0.2882  0.2730
 5500SOL     OW28132   1.051   3.985   1.681 -0.0092  0.3842 -0.2099
 5500SOL    HW128133   0.973   3.952   1.726  1.8091  1.8149  4.0663
 5500SOL    HW228134   1.000   4.027   1.612  0.1645 -1.3966 -1.4055
 5501SOL     OW28135   1.954   2.969   1.155  0.0383 -0.3362  0.4821
 5501SOL    HW128136   1.951   3.009   1.241  0.6447  0.3180  0.1971
 5501SOL    HW228137   1.858   2.965   1.157  0.0333  0.6144  2.2686
 5502SOL     OW28138   3.505   1.984   7.088 -0.2163 -0.5171  0.3644
 5502SOL    HW128139   3.544   2.061   7.047  0.2131 -0.4101  0.9788
 5502SOL    HW228140   3.577   1.921   7.079  0.0624 -0.5367  2.8221
 5503SOL     OW28141   3.701   0.831   3.241  0.0702 -0.0127  0.2419
 5503SOL    HW128142   3.704   0.757   3.301  2.4697  1.1695  1.6132
 5503SOL    HW228143   3.753   0.897   3.288  0.7743 -0.3851 -0.0037
 5504SOL     OW28144   2.791   0.715   5.504  0.3932  0.0304 -0.6119
 5504SOL    HW128145   2.875   0.759   5.517  0.8306 -0.8494 -0.4127
 5504SOL    HW228146   2.757   0.726   5.593  0.4966  1.7417 -0.7862
 5505SOL     OW28147   3.093   1.147   0.990 -0.3160  0.0364 -0.0016
 5505SOL    HW128148   3.113   1.060   1.025  1.4366  0.2008 -0.5724
 5505SOL    HW228149   3.104   1.125   0.898  2.0889 -1.4828  0.6429
 5506SOL     OW28150   2.244   4.706   7.293  0.0539 -0.1581 -0.5067
 5506SOL    HW128151   2.180   4.732   7.360  0.5294 -0.3703  0.0321
 5506SOL    HW228152   2.199   4.634   7.249  0.1357 -0.3023 -0.3529
 5507SOL     OW28153   0.724   1.845   6.864  0.3587  0.3269  0.0046
 5507SOL    HW128154   0.713   1.768   6.920  1.2873  0.6148  0.5942
 5507SOL    HW228155   0.741   1.816   6.775 -1.1891  1.6708 -0.7322
 5508SOL     OW28156   1.961   0.182   1.073 -0.4899 -0.0085 -0.1528
 5508SOL    HW128157   1.922   0.109   1.120 -1.1724  0.0983 -0.5526
 5508SOL    HW228158   1.888   0.242   1.056  0.0746  1.2739  1.9614
 5509SOL     OW28159   3.564   0.066   4.997  0.2531 -0.0446 -0.5435
 5509SOL    HW128160   3.481   0.111   5.010  0.1867 -0.5658  0.8692
 5509SOL    HW228161   3.602   0.083   5.084  1.2822 -1.9763 -0.6091
 5510SOL     OW28162   1.271   3.818   7.266  0.1230  0.6728  0.2013
 5510SOL    HW128163   1.207   3.853   7.328 -0.0048 -0.6307  0.7989
 5510SOL    HW228164   1.214   3.784   7.197  1.4470  0.7329 -0.9218
 5511SOL     OW28165   1.898   2.104   9.315 -0.4638  0.1187  0.1173
 5511SOL    HW128166   1.951   2.025   9.328 -3.2564 -2.2440 -2.6136
 5511SOL    HW228167   1.819   2.075   9.360 -1.1755  1.6561 -0.1321
 5512SOL     OW28168   1.666   0.166   5.819 -0.5738 -0.1040  0.1275
 5512SOL    HW128169   1.702   0.164   5.907 -2.6337 -2.7343  0.8928
 5512SOL    HW228170   1.596   0.101   5.815 -1.4471  0.8132  0.5332
 5513SOL     OW28171   2.158   2.604   4.358  0.1056 -0.6418  0.0803
 5513SOL    HW128172   2.140   2.510   4.350 -0.6146 -0.5787  0.9553
 5513SOL    HW228173   2.154   2.624   4.265 -0.1988 -0.8129  0.0591
 5514SOL     OW28174   4.709   3.886   5.760 -0.0064 -0.2440  0.8090
 5514SOL    HW128175   4.714   3.950   5.689 -0.6152 -1.3652 -0.2535
 5514SOL    HW228176   4.687   3.805   5.713  0.6183  0.8224 -1.3060
 5515SOL     OW28177   1.505   4.221   1.727 -0.4288  0.4909 -0.1608
 5515SOL    HW128178   1.510   4.252   1.637 -0.3117  1.6276  0.2443
 5515SOL    HW228179   1.412   4.196   1.731 -0.2925  0.0546  0.2614
 5516SOL     OW28180   3.668   1.118   7.502  0.0141 -0.0194 -0.0676
 5516SOL    HW128181   3.651   1.058   7.429 -1.7395  1.1742 -0.6474
 5516SOL    HW228182   3.680   1.198   7.451  1.1867  0.2752  0.6793
 5517SOL     OW28183   0.730   2.229   4.219 -0.2792 -0.5405 -0.1673
 5517SOL    HW128184   0.751   2.306   4.271  1.3755 -0.5845 -0.7737
 5517SOL    HW228185   0.677   2.272   4.151  1.1994 -0.4141 -1.2501
 5518SOL     OW28186   3.715   1.443   3.944  0.0767 -0.0103 -0.0763
 5518SOL    HW128187   3.652   1.503   3.905 -0.0593 -0.0654  0.0596
 5518SOL    HW228188   3.665   1.362   3.941 -1.2874  0.8715 -1.0104
 5519SOL     OW28189   2.422   1.497  13.295 -0.5252 -0.1391  0.2659
 5519SOL    HW128190   2.459   1.582  13.321  0.2170 -0.3291 -0.1663
 5519SOL    HW228191   2.331   1.522  13.284 -0.4135  0.8047  1.3473
 5520SOL     OW28192   1.280   3.253   1.759  0.1459  0.4926  0.1011
 5520SOL    HW128193   1.332   3.316   1.709  1.6703 -1.5647 -0.8903
 5520SOL    HW228194   1.351   3.199   1.794  0.6799  0.6197 -0.7809
 5521SOL     OW28195   1.180   0.627   7.874 -0.5038 -0.0758 -0.1315
 5521SOL    HW128196   1.127   0.547   7.875 -2.4668  1.2534  2.5627
 5521SOL    HW228197   1.254   0.596   7.926 -1.2752 -1.8985 -0.1281
 5522SOL     OW28198   1.272   3.941  15.175 -0.1253 -0.2263  0.1813
 5522SOL    HW128199   1.259   3.949  15.270 -0.9152 -0.7151  0.1132
 5522SOL    HW228200   1.303   4.029  15.152 -1.6918  0.3675  0.3412
 5523SOL     OW28201   0.112   4.513   6.878  0.3290 -0.8376  0.1312
 5523SOL    HW128202   0.036   4.473   6.922  1.2103 -2.1980  0.4262
 5523SOL    HW228203   0.171   4.518   6.952  0.5140  2.2887 -0.2266
 5524SOL     OW28204   4.183   4.689  10.996 -0.2327  0.3958  0.4661
 5524SOL    HW128205   4.277   4.693  11.011 -0.0507 -0.6442 -0.3623
 5524SOL    HW228206   4.156   4.641  11.075 -0.2434 -1.6077 -0.7432
 5525SOL     OW28207   4.417   3.149   4.124 -0.2624 -0.0106 -0.6658
 5525SOL    HW128208   4.383   3.065   4.153 -2.5870  1.0179 -0.4317
 5525SOL    HW228209   4.412   3.201   4.205 -0.0532 -1.2679  0.1486
 5526SOL     OW28210   1.293   1.856   1.764  1.0501 -0.2563 -0.1562
 5526SOL    HW128211   1.264   1.766   1.775 -0.7261  0.5643  1.8662
 5526SOL    HW228212   1.309   1.870   1.670 -1.5620  1.1620 -0.3951
 5527SOL     OW28213   3.272   2.176   1.628  0.0690  0.2856  0.2450
 5527SOL    HW128214   3.234   2.261   1.606  0.0659  0.3096  0.3414
 5527SOL    HW228215   3.193   2.124   1.613  0.5414 -0.3833  0.0665
 5528SOL     OW28216   2.197   2.500  15.690 -0.5960  0.1296 -0.4505
 5528SOL    HW128217   2.278   2.521  15.737 -0.1788 -0.0835 -1.0768
 5528SOL    HW228218   2.204   2.539  15.603  2.3905 -0.7174 -0.6051
 5529SOL     OW28219   3.610   1.056   5.240 -0.0764 -0.0743 -0.1268
 5529SOL    HW128220   3.553   1.038   5.315  1.2897  1.6613  1.3108
 5529SOL    HW228221   3.551   1.017   5.175  0.2818 -0.8172 -0.0036
 5530SOL     OW28222   3.686   4.322   1.901  0.3783  0.6723  0.0440
 5530SOL    HW128223   3.617   4.318   1.835  1.3045 -2.3426 -0.7365
 5530SOL    HW228224   3.751   4.373   1.854 -0.9344  2.0686 -0.2579
 5531SOL     OW28225   4.293   3.647   5.608 -0.2499 -0.0672 -0.6248
 5531SOL    HW128226   4.334   3.713   5.664  0.8675 -0.8320 -0.5426
 5531SOL    HW228227   4.362   3.584   5.589 -1.7389 -1.6356 -0.8750
 5532SOL     OW28228   4.072   0.555   2.378  0.0233  0.1185  0.5423
 5532SOL    HW128229   4.046   0.644   2.355 -0.7721  0.2093  1.7729
 5532SOL    HW228230   4.020   0.504   2.316 -0.2889  0.2199  0.7179
 5533SOL     OW28231   4.689   0.182   4.662 -0.8514  0.2291  0.0888
 5533SOL    HW128232   4.633   0.174   4.739 -1.6714  0.5449 -0.4789
 5533SOL    HW228233   0.036   0.150   4.700 -0.3143 -1.4736 -2.5109
 5534SOL     OW28234   1.792   4.422  12.799  0.4060 -0.6781  0.0262
 5534SOL    HW128235   1.855   4.490  12.774  0.5834 -0.2133  1.7345
 5534SOL    HW228236   1.841   4.368  12.861  1.0928  0.4603  0.4876
 5535SOL     OW28237   1.431   1.296   2.082 -0.2011 -0.2655 -0.0009
 5535SOL    HW128238   1.391   1.210   2.090 -0.8997  0.2810  2.3463
 5535SOL    HW228239   1.356   1.355   2.077  0.2742  0.1378 -2.7516
 5536SOL     OW28240   4.559   0.083   9.086  0.2721  0.4755 -0.1030
 5536SOL    HW128241   4.489   0.145   9.105  1.2540  1.0129  1.7227
 5536SOL    HW228242   4.585   0.062   9.175  1.0804 -4.5430 -1.4968
 5537SOL     OW28243   2.471   0.172   6.778  0.3913  0.4705  0.2664
 5537SOL    HW128244   2.471   0.131   6.692 -1.2878  0.3861  0.3075
 5537SOL    HW228245   2.378   0.191   6.790  0.0884 -0.0145 -1.2957
 5538SOL     OW28246   3.361   2.820  11.252 -0.1418  0.1739  0.7422
 5538SOL    HW128247   3.296   2.777  11.308 -2.1847 -1.3212 -2.7447
 5538SOL    HW228248   3.349   2.909  11.285 -0.0502  0.1547  0.8272
 5539SOL     OW28249   1.459   0.033  14.642 -0.3053  0.3664 -0.3938
 5539SOL    HW128250   1.442   0.127  14.651 -1.4068  0.1469 -0.2851
 5539SOL    HW228251   1.453   0.024  14.547 -0.9837 -0.5489 -0.2637
 5540SOL     OW28252   4.084   0.656   3.177  0.0127  0.0217  0.5950
 5540SOL    HW128253   4.069   0.654   3.083 -0.2566 -2.1164  0.6616
 5540SOL    HW228254   4.125   0.570   3.189  0.3945 -0.0155 -1.0639
 5541SOL     OW28255   1.815   2.278   9.085 -0.1093 -0.4910 -0.1655
 5541SOL    HW128256   1.882   2.233   9.034  0.9299 -1.5557  2.1420
 5541SOL    HW228257   1.810   2.226   9.165 -1.4344 -0.3471 -0.1640
 5542SOL     OW28258   0.759   1.155   8.395 -0.1388  0.5794 -0.1562
 5542SOL    HW128259   0.669   1.175   8.417  0.4659  1.7589  1.2151
 5542SOL    HW228260   0.793   1.108   8.471 -2.9470 -0.2670  0.5644
 5543SOL     OW28261   0.997   1.277   4.212  0.0569 -0.1197  0.7836
 5543SOL    HW128262   1.011   1.216   4.284  1.9748 -0.7170 -0.0790
 5543SOL    HW228263   0.925   1.328   4.248 -0.1441  1.2027 -1.4608
 5544SOL     OW28264   3.327   0.255  12.729 -0.3677  0.4291  0.0931
 5544SOL    HW128265   3.260   0.311  12.766 -0.8325  0.1126 -0.2665
 5544SOL    HW228266   3.368   0.312  12.664  1.3817 -0.2553  0.5906
 5545SOL     OW28267   1.614   2.477   9.025  0.4937  0.2516 -0.3165
 5545SOL    HW128268   1.638   2.464   8.933 -1.7490  0.3456 -0.9174
 5545SOL    HW228269   1.692   2.430   9.055  0.5582  0.5239 -0.0612
 5546SOL     OW28270   3.208   0.037   2.960 -0.1774 -0.0096  0.1326
 5546SOL    HW128271   3.283   0.093   2.941 -0.4092  0.3981  0.4192
 5546SOL    HW228272   3.238   4.732   3.042 -1.5118  2.4718  1.8293
 5547SOL     OW28273   0.975   0.147   3.190  0.8827 -0.4861  1.0664
 5547SOL    HW128274   0.946   0.178   3.104  2.2539 -1.5441  0.2259
 5547SOL    HW228275   0.914   0.201   3.240  0.8388  0.5539 -0.1089
 5548SOL     OW28276   3.963   1.084   9.291  0.2606 -0.1219 -0.2935
 5548SOL    HW128277   4.050   1.045   9.280  0.3848 -0.1669  0.8578
 5548SOL    HW228278   3.898   1.014   9.292  0.9745 -0.7719  0.3712
 5549SOL     OW28279   1.669   4.591  14.256 -0.0961 -0.3728 -0.2131
 5549SOL    HW128280   1.678   4.606  14.162  0.8087 -1.0583 -0.2460
 5549SOL    HW228281   1.668   4.684  14.278  0.0414 -0.1975 -0.9367
 5550SOL     OW28282   3.215   2.488   1.792  0.2331  0.8568  0.4327
 5550SOL    HW128283   3.217   2.457   1.882 -0.9975  0.5752  0.3563
 5550SOL    HW228284   3.122   2.474   1.775  0.2901  2.1937 -1.0584
 5551SOL     OW28285   2.540   3.527  16.793 -0.3025 -0.6497 -0.7538
 5551SOL    HW128286   2.505   3.442  16.768  2.2161 -1.5864 -1.0615
 5551SOL    HW228287   2.631   3.515  16.768  0.4986  0.6881  1.4772
 5552SOL     OW28288   4.658   4.680  16.634 -0.3228 -0.4410  0.5480
 5552SOL    HW128289   4.649   4.661  16.727  0.8417  0.1237  0.7788
 5552SOL    HW228290   4.674   4.593  16.597  1.0613 -0.1121  0.3936
 5553SOL     OW28291   4.629   1.897   3.743 -0.2640  0.4174  0.9195
 5553SOL    HW128292   4.689   1.941   3.683 -0.1598  0.7565  1.2746
 5553SOL    HW228293   4.548   1.949   3.742 -0.9902 -0.7210  0.8772
 5554SOL     OW28294   4.549   4.433   5.151 -0.1396 -0.3303  0.1334
 5554SOL    HW128295   4.629   4.430   5.203  0.2907 -1.6679 -0.6141
 5554SOL    HW228296   4.485   4.457   5.218 -0.2905 -0.0662 -0.1036
 5555SOL     OW28297   3.659   4.568  12.796 -0.0273  0.0816 -0.3070
 5555SOL    HW128298   3.716   4.497  12.826 -0.9387 -0.6969 -0.4118
 5555SOL    HW228299   3.618   4.529  12.719 -0.6259 -0.7517  0.4247
 5556SOL     OW28300   2.612   4.255  17.309  0.2818 -0.1821 -0.8670
 5556SOL    HW128301   2.604   4.321  17.240 -1.0748  0.9058  0.3337
 5556SOL    HW228302   2.595   4.314  17.383 -1.1122  0.1862 -1.4835
 5557SOL     OW28303   0.225   0.986   5.974 -0.1412  0.1798 -0.6621
 5557SOL    HW128304   0.285   1.051   5.937 -0.3950  1.5316  1.2840
 5557SOL    HW228305   0.187   0.953   5.893 -1.7654 -1.6706  0.8441
 5558SOL     OW28306   0.763   4.186   2.177  0.0837  0.1901  0.1390
 5558SOL    HW128307   0.764   4.266   2.230 -2.6505  0.9098 -0.8651
 5558SOL    HW228308   0.828   4.204   2.109 -1.1027 -1.3817 -1.4220
 5559SOL     OW28309   2.165   1.633   2.340 -0.2809  0.0150 -0.3078
 5559SOL    HW128310   2.093   1.646   2.278 -2.3805 -1.8128  1.7386
 5559SOL    HW228311   2.151   1.709   2.396  0.1208 -0.0933 -0.0613
 5560SOL     OW28312   3.879   4.645  14.518 -0.6132 -0.2544  0.0469
 5560SOL    HW128313   3.918   4.640  14.605 -1.0117 -1.0151  0.1797
 5560SOL    HW228314   3.787   4.669  14.531 -0.5155  1.1650 -1.8765
 5561SOL     OW28315   1.003   2.846   7.223 -0.6207 -0.9153 -0.1567
 5561SOL    HW128316   1.052   2.864   7.142 -0.7422 -2.1950 -0.5135
 5561SOL    HW228317   0.954   2.768   7.198  0.2806 -2.4144  2.7324
 5562SOL     OW28318   0.844   1.770  16.142  0.4648 -0.2517 -0.1364
 5562SOL    HW128319   0.827   1.818  16.060  1.3484 -0.3687 -0.3875
 5562SOL    HW228320   0.777   1.803  16.202  1.2732 -1.7255  1.5615
 5563SOL     OW28321   0.502   0.922   5.116  0.0601 -0.1620  0.1876
 5563SOL    HW128322   0.580   0.868   5.117  0.1163 -0.0854 -0.0771
 5563SOL    HW228323   0.548   1.006   5.106 -0.0612 -0.1708 -0.4514
 5564SOL     OW28324   4.014   2.836   6.077  0.3370  0.0472 -0.1421
 5564SOL    HW128325   4.007   2.915   6.024  1.3830  1.3380  1.6243
 5564SOL    HW228326   4.107   2.848   6.098  0.6258  1.0921 -2.0311
 5565SOL     OW28327   1.983   1.448   7.922  0.3261 -0.6695  0.1230
 5565SOL    HW128328   1.897   1.425   7.888  0.0675  1.0506 -0.3804
 5565SOL    HW228329   1.979   1.422   8.014  3.3016 -1.6493 -0.0136
 5566SOL     OW28330   2.381   2.097   3.576  0.0831  0.5480  0.1344
 5566SOL    HW128331   2.343   2.152   3.643 -0.3547 -1.5282  1.5906
 5566SOL    HW228332   2.335   2.131   3.499 -2.1192 -0.4815  0.9996
 5567SOL     OW28333   0.646   3.659   5.213  0.2697  0.1827 -0.4869
 5567SOL    HW128334   0.710   3.703   5.270  1.3146 -0.1385 -1.4140
 5567SOL    HW228335   0.594   3.728   5.173 -0.7044  0.7256  1.7143
 5568SOL     OW28336   4.598   3.675   9.119  0.5443 -0.5823  0.3913
 5568SOL    HW128337   4.601   3.737   9.047 -2.0073 -0.0897  0.7185
 5568SOL    HW228338   4.505   3.669   9.143  0.3097 -2.2365 -0.9162
 5569SOL     OW28339   2.939   1.056   7.283  0.3005 -0.1479 -0.0434
 5569SOL    HW128340   2.914   1.074   7.374 -0.1163 -2.5495  0.3440
 5569SOL    HW228341   2.861   1.006   7.257  0.3159 -0.6714  0.9152
 5570SOL     OW28342   0.157   2.152   7.438  0.0698  0.0912  0.4788
 5570SOL    HW128343   0.133   2.235   7.479 -0.2732  1.3741 -2.2787
 5570SOL    HW228344   0.092   2.154   7.367 -1.3475  1.8133  1.8168
 5571SOL     OW28345   0.650   2.135  13.843  0.0973 -0.5880  0.4361
 5571SOL    HW128346   0.711   2.092  13.783 -1.8428 -1.4924 -0.8694
 5571SOL    HW228347   0.572   2.131  13.789 -0.3597 -1.0424  1.1383
 5572SOL     OW28348   2.421   2.434  16.950 -0.4137 -0.2136  0.0231
 5572SOL    HW128349   2.428   2.377  17.027 -1.3677 -0.9328 -0.4243
 5572SOL    HW228350   2.416   2.381  16.871  0.0841 -0.7892  0.3750
 5573SOL     OW28351   1.758   3.836   5.790 -0.3723  0.3188  0.0768
 5573SOL    HW128352   1.820   3.897   5.751 -0.1369  0.2230  0.3016
 5573SOL    HW228353   1.696   3.840   5.717  0.5255  2.1568 -0.5883
 5574SOL     OW28354   4.021   2.443   5.051  0.2824  0.1625 -0.3333
 5574SOL    HW128355   3.962   2.484   5.114  2.3033  0.5209  1.3294
 5574SOL    HW228356   3.986   2.355   5.040 -1.5179  0.5675  2.1099
 5575SOL     OW28357   0.463   2.444  12.230  0.4216  0.2493 -0.2103
 5575SOL    HW128358   0.528   2.388  12.271  1.2052  0.2534 -1.4502
 5575SOL    HW228359   0.501   2.526  12.263  3.4016 -0.6463 -1.3926
 5576SOL     OW28360   0.716   1.816  13.981  0.2239 -0.4278  0.1546
 5576SOL    HW128361   0.675   1.812  13.894  1.8821  3.8312 -0.8220
 5576SOL    HW228362   0.643   1.785  14.034 -0.3122  2.0254  0.8598
 5577SOL     OW28363   2.339   3.104   3.466  0.0564  0.2639  0.1630
 5577SOL    HW128364   2.392   3.035   3.507 -0.8416 -0.7557 -0.3706
 5577SOL    HW228365   2.311   3.061   3.385  1.3406 -0.4327  0.0900
 5578SOL     OW28366   1.130   4.155   1.192 -0.3061  0.3845  0.2545
 5578SOL    HW128367   1.204   4.211   1.214 -1.2194  0.1750  3.7911
 5578SOL    HW228368   1.101   4.151   1.283  1.2231  4.3883  0.9305
 5579SOL     OW28369   1.779   2.485   9.474  0.5617 -0.2666  0.0798
 5579SOL    HW128370   1.776   2.506   9.380 -1.0446  0.0071  0.1965
 5579SOL    HW228371   1.855   2.428   9.482  0.9484  0.2739  0.2868
 5580SOL     OW28372   1.157   1.075   5.952 -0.2004  0.1573 -0.0118
 5580SOL    HW128373   1.186   0.988   5.979  0.3122  0.1085 -0.7163
 5580SOL    HW228374   1.190   1.075   5.862 -2.0788 -0.0232 -0.7001
 5581SOL     OW28375   3.408   4.615   7.579 -0.2057 -0.0948 -1.3357
 5581SOL    HW128376   3.493   4.597   7.540  0.4865 -2.4976  1.2553
 5581SOL    HW228377   3.356   4.635   7.502 -2.3957  3.5772  1.0813
 5582SOL     OW28378   3.851   0.689  12.665  0.2255  0.0966  0.3538
 5582SOL    HW128379   3.782   0.647  12.613 -0.4480  1.5052  0.1284
 5582SOL    HW228380   3.795   0.745  12.719  0.5894  2.1723 -1.4408
 5583SOL     OW28381   4.685   4.326   1.671 -0.5771  0.3738 -0.0547
 5583SOL    HW128382   4.709   4.260   1.736 -2.8840 -4.0584 -3.6779
 5583SOL    HW228383   0.020   4.390   1.681 -0.5278  0.1167  1.1528
 5584SOL     OW28384   4.157   2.041   6.558 -0.4610  0.5041 -0.7775
 5584SOL    HW128385   4.100   2.000   6.493 -0.8797 -1.8350  1.0607
 5584SOL    HW228386   4.204   2.109   6.510  1.0726 -1.9387 -2.7175
 5585SOL     OW28387   3.313   1.874  11.951  0.6799 -0.1532  0.2025
 5585SOL    HW128388   3.271   1.956  11.926  0.4112 -1.0547 -2.2978
 5585SOL    HW228389   3.234   1.829  11.981  0.1465  0.6347 -0.0027
 5586SOL     OW28390   2.963   1.610  17.321  0.3331  0.3600 -0.3379
 5586SOL    HW128391   2.914   1.528  17.328 -0.2820  0.9747  2.3764
 5586SOL    HW228392   3.050   1.599  17.359 -0.1490  1.0622  0.9527
 5587SOL     OW28393   0.488   3.945  12.467  0.4776 -0.5697  0.1610
 5587SOL    HW128394   0.414   3.920  12.411 -0.4602  0.7461  0.7976
 5587SOL    HW228395   0.466   4.037  12.485 -0.0005 -0.6563  0.0155
 5588SOL     OW28396   1.629   0.246   4.332  0.3184  0.1336  0.1007
 5588SOL    HW128397   1.617   0.335   4.298 -0.9310 -0.8620 -2.0771
 5588SOL    HW228398   1.604   0.255   4.424 -1.0110  1.3891 -0.3930
 5589SOL     OW28399   4.335   4.450   5.407 -0.0435 -0.0580  0.2069
 5589SOL    HW128400   4.329   4.467   5.501 -0.7377  0.2412  0.1131
 5589SOL    HW228401   4.252   4.409   5.381  0.5115  0.1688 -1.9325
 5590SOL     OW28402   0.302   0.049  12.016 -0.1417 -0.4503 -0.6014
 5590SOL    HW128403   0.393   0.060  11.989  0.6905 -1.2272  1.9202
 5590SOL    HW228404   0.315   0.053  12.111  2.2787  0.9541 -0.9886
 5591SOL     OW28405   3.318   4.049   4.146 -0.5722 -0.0978 -0.5937
 5591SOL    HW128406   3.369   3.968   4.138 -0.7009 -0.5398  2.8860
 5591SOL    HW228407   3.257   4.022   4.215  0.3214  0.6994  0.5276
 5592SOL     OW28408   2.447   3.151  14.148 -0.4304 -0.0601 -0.4158
 5592SOL    HW128409   2.428   3.105  14.230  0.1355  0.5330  0.0478
 5592SOL    HW228410   2.539   3.156  14.173 -0.4841  2.6737 -0.7665
 5593SOL     OW28411   0.301   3.012  11.910 -0.2754  0.3132  0.3226
 5593SOL    HW128412   0.255   2.948  11.964 -1.2539  0.0670 -0.7953
 5593SOL    HW228413   0.373   3.043  11.965 -0.3476 -2.2367  1.8291
 5594SOL     OW28414   0.341   0.915   6.862 -0.2421  0.1621 -0.0124
 5594SOL    HW128415   0.369   0.899   6.772  0.2258 -0.8777  0.3187
 5594SOL    HW228416   0.406   0.890   6.928 -1.5184 -1.3577  0.6683
 5595SOL     OW28417   2.249   2.218   2.416  0.4653  0.3518  0.3384
 5595SOL    HW128418   2.178   2.159   2.389  0.4895  0.5618 -0.1919
 5595SOL    HW228419   2.326   2.162   2.420 -0.5204 -1.1505 -1.6007
 5596SOL     OW28420   3.032   4.391  12.531  0.5823  0.5369 -0.3093
 5596SOL    HW128421   3.010   4.299  12.541 -0.1035  0.8132  0.7270
 5596SOL    HW228422   2.988   4.409  12.448 -0.1603  2.3885  0.4917
 5597SOL     OW28423   2.493   2.985   6.837 -0.6915 -0.6175 -0.2973
 5597SOL    HW128424   2.520   2.971   6.746  0.4588 -0.7791  0.0768
 5597SOL    HW228425   2.567   3.041   6.860 -1.1306  0.0171 -0.4241
 5598SOL     OW28426   1.167   1.715  14.250 -0.9197 -0.7863  0.0793
 5598SOL    HW128427   1.155   1.807  14.275 -0.2462 -0.2199 -1.6539
 5598SOL    HW228428   1.078   1.682  14.263 -1.0611  0.6248  2.6493
 5599SOL     OW28429   0.578   3.441   1.746  0.2031 -0.3220 -0.0499
 5599SOL    HW128430   0.630   3.463   1.669 -1.1673  0.0511 -0.8629
 5599SOL    HW228431   0.538   3.525   1.768  0.3404 -0.0551 -0.8457
 5600SOL     OW28432   3.751   1.326  10.025  0.1974  0.1226 -0.1174
 5600SOL    HW128433   3.797   1.398  10.068 -3.3815  2.5114 -0.2145
 5600SOL    HW228434   3.704   1.375   9.957  0.6041  0.2577 -0.3025
 5601SOL     OW28435   1.682   2.506   7.585 -0.1249 -0.7661  0.3345
 5601SOL    HW128436   1.649   2.595   7.589  1.1459 -0.3298  0.9958
 5601SOL    HW228437   1.615   2.453   7.629 -1.6656  1.8683  1.1652
 5602SOL     OW28438   2.484   0.967  11.659  0.0023  0.7069  0.1555
 5602SOL    HW128439   2.474   1.061  11.672 -1.6878  0.1925  2.4955
 5602SOL    HW228440   2.493   0.936  11.749  1.6316 -1.7427 -0.8262
 5603SOL     OW28441   3.304   4.318   7.962 -0.6458  0.0395 -0.2244
 5603SOL    HW128442   3.246   4.372   8.017  0.0602  1.1818 -0.5892
 5603SOL    HW228443   3.316   4.384   7.894  1.9197  0.2635  0.4499
 5604SOL     OW28444   4.623   0.006   2.842 -0.3987 -0.3568 -0.7050
 5604SOL    HW128445   4.545   0.055   2.870 -2.0209 -2.3312 -1.7366
 5604SOL    HW228446   4.697   0.066   2.846 -2.0878  1.5173  2.1775
 5605SOL     OW28447   0.456   0.397  14.980 -0.1993 -0.2480  0.6193
 5605SOL    HW128448   0.489   0.440  14.901  0.9326  0.4423  1.4606
 5605SOL    HW228449   0.362   0.410  14.977 -0.1428  0.3205  1.2097
 5606SOL     OW28450   3.231   1.419   1.051  0.0358  0.1724  0.2780
 5606SOL    HW128451   3.187   1.485   0.997  0.9325  0.0968 -0.5401
 5606SOL    HW228452   3.199   1.334   1.022  0.6513  0.4697 -1.3040
 5607SOL     OW28453   4.223   4.489   8.606 -1.1046  0.2962  0.1919
 5607SOL    HW128454   4.306   4.494   8.558 -0.2915  0.3328  1.6249
 5607SOL    HW228455   4.155   4.504   8.540 -0.7205 -0.1407 -0.3030
 5608SOL     OW28456   4.444   3.156   9.418  0.3502  0.2055 -0.6171
 5608SOL    HW128457   4.442   3.238   9.468 -0.9797  0.1546 -0.5806
 5608SOL    HW228458   4.538   3.143   9.413  0.0389 -1.8321 -1.3368
 5609SOL     OW28459   4.380   4.722  11.561  0.1207  0.0591  0.3593
 5609SOL    HW128460   4.317   0.022  11.624 -0.3034 -0.5811  0.2863
 5609SOL    HW228461   4.422   4.654  11.614  1.0606  0.9384  0.7437
 5610SOL     OW28462   4.132   2.340  13.951 -0.1818  0.2076 -0.1228
 5610SOL    HW128463   4.199   2.308  14.012  0.8173  1.3287 -0.6476
 5610SOL    HW228464   4.097   2.415  14.000 -1.4670 -1.0173  0.8420
 5611SOL     OW28465   4.551   2.847   0.036  0.6320 -0.1479  0.3776
 5611SOL    HW128466   4.565   2.914   0.104  0.5902  1.4855 -1.2371
 5611SOL    HW228467   4.607   2.777   0.071  1.9184  0.8254  0.2730
 5612SOL     OW28468   2.752   1.408   5.853  0.4419 -0.1741 -0.1821
 5612SOL    HW128469   2.813   1.445   5.916  0.8805 -0.7266 -0.2778
 5612SOL    HW228470   2.669   1.427   5.898  1.2309 -1.4644  1.8506
 5613SOL     OW28471   1.461   1.244  15.169  0.2782  0.4139 -0.5200
 5613SOL    HW128472   1.378   1.197  15.169  2.9626 -4.3393  2.5856
 5613SOL    HW228473   1.470   1.289  15.253 -1.3039  3.0170 -1.7442
 5614SOL     OW28474   3.496   0.217  16.152 -0.7693 -0.0669  0.3771
 5614SOL    HW128475   3.434   0.208  16.080 -0.2652  0.7226 -0.1618
 5614SOL    HW228476   3.460   0.291  16.201 -1.5275  0.0723 -0.3947
 5615SOL     OW28477   3.385   2.704   5.660  0.1602 -0.5707 -0.4111
 5615SOL    HW128478   3.291   2.686   5.657 -0.5224  3.2583 -1.5346
 5615SOL    HW228479   3.389   2.759   5.738 -0.1331 -0.2869 -0.5996
 5616SOL     OW28480   0.258   1.862   3.143  0.4204  0.3866 -0.0566
 5616SOL    HW128481   0.217   1.883   3.226 -1.7402  0.5602 -1.1691
 5616SOL    HW228482   0.194   1.802   3.105  1.0283 -1.2980  1.5749
 5617SOL     OW28483   3.612   1.757   6.186  0.0546 -0.1428 -0.1308
 5617SOL    HW128484   3.564   1.755   6.103  1.1857  0.8222 -0.8099
 5617SOL    HW228485   3.547   1.735   6.253  0.5285 -0.6055  0.1693
 5618SOL     OW28486   0.583   1.683   7.566  0.3672 -0.2173 -0.4636
 5618SOL    HW128487   0.526   1.738   7.620  0.1532 -0.8539 -0.0542
 5618SOL    HW228488   0.660   1.698   7.619  0.5846 -2.0503 -0.2668
 5619SOL     OW28489   1.049   1.238  17.696 -0.5694 -0.0527  0.0481
 5619SOL    HW128490   0.986   1.309  17.706  0.8619  0.7590  3.4492
 5619SOL    HW228491   1.104   1.271  17.625 -1.2426 -0.6100 -0.7390
 5620SOL     OW28492   4.627   2.453  16.874 -0.3040 -0.1625  0.1069
 5620SOL    HW128493   4.561   2.444  16.804  1.0709  2.2968 -1.4985
 5620SOL    HW228494   4.584   2.403  16.943 -0.4027  0.3959  0.4479
 5621SOL     OW28495   2.614   2.215  12.575 -0.5247  0.4023  0.6110
 5621SOL    HW128496   2.660   2.195  12.657  0.9738 -0.9227 -0.5415
 5621SOL    HW228497   2.551   2.283  12.598 -1.1558  0.4027 -1.1785
 5622SOL     OW28498   4.690   3.111   4.649 -0.3946  0.3188  0.4052
 5622SOL    HW128499   4.634   3.098   4.725  1.3921  0.9704  1.8423
 5622SOL    HW228500   4.650   3.190   4.613  0.0828  0.2171 -0.3445
 5623SOL     OW28501   0.328   1.815   3.964 -0.1070 -0.4243  0.2211
 5623SOL    HW128502   0.298   1.726   3.981 -0.3474 -0.9045 -2.6627
 5623SOL    HW228503   0.355   1.805   3.872  0.9978 -2.2582  0.7641
 5624SOL     OW28504   3.169   2.661  10.320  0.0572  0.0446  0.0221
 5624SOL    HW128505   3.090   2.709  10.345 -0.3091 -1.0820  0.9735
 5624SOL    HW228506   3.142   2.600  10.251  0.4788 -0.2209  0.0889
 5625SOL     OW28507   2.238   2.732   8.792 -0.5097  0.3631 -0.5897
 5625SOL    HW128508   2.258   2.772   8.876  2.4611  0.1398 -1.1986
 5625SOL    HW228509   2.197   2.804   8.743 -1.6686 -0.3939 -0.7528
 5626SOL     OW28510   0.159   2.022   4.617 -0.4376  0.0824  0.0193
 5626SOL    HW128511   0.152   2.091   4.683 -2.0672 -0.3105  0.2541
 5626SOL    HW228512   0.104   1.954   4.655 -0.1078  1.0701  2.2645
 5627SOL     OW28513   3.490   1.233   5.878 -0.2593  0.0618  0.4967
 5627SOL    HW128514   3.490   1.316   5.830  0.8761  0.4817  1.2303
 5627SOL    HW228515   3.584   1.220   5.878 -0.2758 -0.0407 -0.2527
 5628SOL     OW28516   1.713   0.633   2.486  0.3355  0.1890 -0.2545
 5628SOL    HW128517   1.806   0.627   2.506  0.5327 -1.3892 -1.6058
 5628SOL    HW228518   1.699   0.726   2.466 -1.2176 -0.4660 -2.2456
 5629SOL     OW28519   0.039   2.770   2.587 -0.0628  0.5205 -0.2097
 5629SOL    HW128520   4.732   2.691   2.552  0.4638  0.0696  0.1591
 5629SOL    HW228521   0.070   2.748   2.675 -1.2272 -0.3009 -0.0019
 5630SOL     OW28522   4.517   1.943   6.294 -0.5873  0.1097  0.4183
 5630SOL    HW128523   4.605   1.980   6.287  0.1837 -1.8073 -0.2995
 5630SOL    HW228524   4.539   1.852   6.317 -1.8398  0.0214  1.2432
 5631SOL     OW28525   0.087   3.010   3.254 -0.2395 -0.2043 -0.2548
 5631SOL    HW128526   0.180   3.010   3.275 -0.5896  2.4651  1.2676
 5631SOL    HW228527   0.049   2.974   3.334 -1.2246  1.3236 -0.0246
 5632SOL     OW28528   0.814   2.903   1.184 -0.2895  0.9138  0.5592
 5632SOL    HW128529   0.838   2.993   1.163 -1.0550  1.1605  0.7401
 5632SOL    HW228530   0.844   2.899   1.274  1.2879  0.4676  0.0141
 5633SOL     OW28531   3.772   2.330   3.346  0.2436  0.3909 -0.3580
 5633SOL    HW128532   3.759   2.252   3.292  1.2182 -0.1926  0.2345
 5633SOL    HW228533   3.715   2.394   3.303 -0.8313  0.5266  1.2981
 5634SOL     OW28534   0.400   1.514   5.960  0.1855  0.8165 -0.0872
 5634SOL    HW128535   0.495   1.502   5.958  0.1862  0.4397  3.0560
 5634SOL    HW228536   0.383   1.508   5.866 -1.0641 -0.2551  0.2030
 5635SOL     OW28537   4.375   2.204   7.022  0.4093 -0.6495  0.3786
 5635SOL    HW128538   4.403   2.121   6.984  0.2586 -0.2522 -0.5744
 5635SOL    HW228539   4.426   2.271   6.976  0.5797 -1.7186 -0.9746
 5636SOL     OW28540   0.229   4.653   2.293  0.0314  0.9783 -0.4117
 5636SOL    HW128541   0.311   4.704   2.296  0.6379  0.0096 -0.5686
 5636SOL    HW228542   0.167   4.723   2.314  1.0154  0.8735  2.7427
 5637SOL     OW28543   3.375   2.377   7.981  0.1056 -0.5680  0.1233
 5637SOL    HW128544   3.446   2.410   7.924  1.2898 -1.7065  0.9445
 5637SOL    HW228545   3.364   2.449   8.043  2.2717 -1.2786  1.3198
 5638SOL     OW28546   1.597   0.338  11.428  0.2085 -0.6609 -0.1864
 5638SOL    HW128547   1.623   0.430  11.427 -1.4780 -0.1895 -0.4402
 5638SOL    HW228548   1.680   0.294  11.448  1.0419  0.9245 -0.1131
 5639SOL     OW28549   2.884   2.006   5.484 -0.1170  0.4275  0.1985
 5639SOL    HW128550   2.880   1.911   5.494  0.7174  0.2937 -0.6563
 5639SOL    HW228551   2.955   2.022   5.421  0.0968  0.6218  0.4871
 5640SOL     OW28552   3.554   2.465   5.660 -0.0822  0.2039 -0.0647
 5640SOL    HW128553   3.492   2.392   5.666  0.0110 -0.0006 -1.3833
 5640SOL    HW228554   3.483   2.523   5.686 -0.8646 -0.2511 -1.1292
 5641SOL     OW28555   1.899   2.601   7.391  0.6451  0.3364 -0.1906
 5641SOL    HW128556   1.845   2.562   7.323  1.2414  0.5732 -0.8042
 5641SOL    HW228557   1.846   2.591   7.470 -2.0894  1.7318 -1.8864
 5642SOL     OW28558   0.915   0.321   4.175 -0.2087  0.0455  0.3467
 5642SOL    HW128559   0.909   0.348   4.083  1.5634 -0.6049  0.0380
 5642SOL    HW228560   1.001   0.281   4.180  0.4770  1.5311  0.3665
 5643SOL     OW28561   1.775   3.708  15.724  0.1206  0.1255  0.2110
 5643SOL    HW128562   1.789   3.792  15.769 -0.2411  0.5195 -0.4072
 5643SOL    HW228563   1.738   3.749  15.646 -0.7672  1.2810  1.2214
 5644SOL     OW28564   0.370   2.408   0.181 -0.3655  0.0408 -0.1755
 5644SOL    HW128565   0.421   2.414   0.262 -1.9512 -0.8579  0.9001
 5644SOL    HW228566   0.404   2.473   0.120  2.4347 -0.4248  0.8714
 5645SOL     OW28567   1.204   4.683   5.945  0.3824 -0.3248  0.1416
 5645SOL    HW128568   1.137   0.016   5.942 -0.1707 -0.7929  1.7188
 5645SOL    HW228569   1.281   0.003   5.954 -0.6635  1.0567  0.7263
 5646SOL     OW28570   1.430   0.439   2.764 -0.6028  0.0197 -0.2764
 5646SOL    HW128571   1.525   0.421   2.762 -1.2302 -3.3928  0.2180
 5646SOL    HW228572   1.414   0.431   2.858 -2.3235  0.1063 -0.5806
 5647SOL     OW28573   0.644   2.935   2.845 -0.5106  0.2650 -0.0447
 5647SOL    HW128574   0.658   2.915   2.938  1.8259  0.2786 -0.3967
 5647SOL    HW228575   0.590   2.857   2.826  1.9925 -1.3717 -0.4816
 5648SOL     OW28576   4.158   0.039   5.961 -0.2896  0.0951 -0.1572
 5648SOL    HW128577   4.090   0.053   5.895  1.3425  2.1344 -1.3953
 5648SOL    HW228578   4.230   0.086   5.919  1.5592 -0.2052  2.6755
 5649SOL     OW28579   2.660   0.312  12.942  0.0007  0.1264 -0.1563
 5649SOL    HW128580   2.626   0.241  12.887  0.9104 -0.7134  0.3637
 5649SOL    HW228581   2.587   0.310  13.003  2.0151 -1.2469  2.2515
 5650SOL     OW28582   2.975   3.061  16.323 -0.0440 -0.4881  0.1588
 5650SOL    HW128583   2.924   3.139  16.302 -1.2032 -0.5525  2.6465
 5650SOL    HW228584   3.056   3.076  16.274  0.4592 -0.4579  0.9967
 5651SOL     OW28585   1.000   2.235   6.066  0.5304 -0.1097  0.3712
 5651SOL    HW128586   0.979   2.179   5.992  0.8631 -0.0742  0.2465
 5651SOL    HW228587   0.931   2.222   6.130  0.6647  0.6833  0.6724
 5652SOL     OW28588   4.075   4.127   7.773  0.5982 -0.0209  0.1488
 5652SOL    HW128589   4.150   4.068   7.775 -0.2143 -1.0233  0.5339
 5652SOL    HW228590   4.055   4.124   7.679 -0.5042 -0.6804  0.4211
 5653SOL     OW28591   1.365   3.603   2.401  0.1066 -0.7524  0.0378
 5653SOL    HW128592   1.409   3.530   2.358  0.1335 -1.5742  1.4973
 5653SOL    HW228593   1.414   3.617   2.482 -0.7375 -3.0553  0.9258
 5654SOL     OW28594   3.310   4.634   8.634 -0.2190  0.3303  0.1066
 5654SOL    HW128595   3.330   4.690   8.558  1.3323  0.9653  0.9865
 5654SOL    HW228596   3.394   4.589   8.646 -0.5727 -0.1931  0.5876
 5655SOL     OW28597   3.052   4.243   5.108  0.4532  0.6801 -0.3700
 5655SOL    HW128598   3.124   4.307   5.109 -0.6928  1.9110  1.3115
 5655SOL    HW228599   3.092   4.171   5.058  0.9864  0.5498  0.2469
 5656SOL     OW28600   2.760   0.811   1.657 -0.0816  0.4794 -0.3320
 5656SOL    HW128601   2.668   0.788   1.673  0.2597  0.3785  1.5694
 5656SOL    HW228602   2.752   0.906   1.667 -0.5151  0.3026  1.1005
 5657SOL     OW28603   2.545   1.343   5.471 -0.4080 -0.1794  0.2084
 5657SOL    HW128604   2.566   1.436   5.468 -1.0159 -0.1139 -2.2663
 5657SOL    HW228605   2.626   1.299   5.496 -0.9946 -1.1865  0.3413
 5658SOL     OW28606   3.599   4.277   3.324 -0.4363 -0.0251  0.4790
 5658SOL    HW128607   3.670   4.306   3.381 -0.6792  0.2110  0.6548
 5658SOL    HW228608   3.521   4.287   3.378  0.2958  0.8112  1.3676
 5659SOL     OW28609   1.421   0.189   1.191  0.0199 -0.2398 -0.3336
 5659SOL    HW128610   1.479   0.259   1.220 -0.0676  0.1194 -1.0288
 5659SOL    HW228611   1.352   0.194   1.258  0.6866 -2.4325  0.5250
 5660SOL     OW28612   0.775   2.249   9.879 -0.3089 -0.1709 -0.5113
 5660SOL    HW128613   0.727   2.167   9.885 -1.7567  0.6022 -1.5716
 5660SOL    HW228614   0.831   2.247   9.957 -1.6374 -0.0592  0.4588
 5661SOL     OW28615   1.998   2.892   3.108  0.2447  0.8637 -0.2221
 5661SOL    HW128616   2.002   2.916   3.015  0.2089  0.0629 -0.4359
 5661SOL    HW228617   1.926   2.938   3.151 -0.0210 -0.2556  0.5182
 5662SOL     OW28618   2.658   3.145   2.342  0.0054 -0.1067 -0.3679
 5662SOL    HW128619   2.665   3.206   2.415  1.1374  0.7498 -1.1951
 5662SOL    HW228620   2.708   3.186   2.271 -2.2462  2.9501 -0.1927
 5663SOL     OW28621   0.474   3.531   5.528  0.0903  0.4776  0.3688
 5663SOL    HW128622   0.420   3.596   5.483 -1.5952 -1.9475 -1.1161
 5663SOL    HW228623   0.548   3.513   5.469 -0.5195  0.5392 -0.4108
 5664SOL     OW28624   1.084   4.141   8.136 -0.2088  0.2515 -0.1953
 5664SOL    HW128625   0.995   4.120   8.163 -0.5423  0.8691 -0.8128
 5664SOL    HW228626   1.135   4.079   8.188 -0.1538 -1.2982 -2.1194
 5665SOL     OW28627   1.603   0.352  10.832  0.3757  0.0729 -0.1518
 5665SOL    HW128628   1.685   0.303  10.840  0.2675 -0.0151  0.4694
 5665SOL    HW228629   1.629   0.412  10.763  0.3340  1.9203  1.4133
 5666SOL     OW28630   3.462   4.165  16.644  0.5253 -0.0803  0.4210
 5666SOL    HW128631   3.530   4.166  16.577  0.2142  1.7015  0.1326
 5666SOL    HW228632   3.516   4.200  16.715  0.1928  2.5768 -0.6371
 5667SOL     OW28633   0.471   2.281   3.388 -0.2995 -0.0636  0.8603
 5667SOL    HW128634   0.455   2.227   3.310  1.2850 -2.3096  2.1144
 5667SOL    HW228635   0.559   2.310   3.367  0.1031 -2.1713 -0.3871
 5668SOL     OW28636   4.034   0.619   6.736 -0.0804  0.0057  0.3866
 5668SOL    HW128637   4.076   0.687   6.788 -0.7212  0.7676 -0.0986
 5668SOL    HW228638   4.109   0.562   6.717  0.7171  1.0618  0.3924
 5669SOL     OW28639   2.090   2.184   5.189  0.5441 -0.4417 -0.0842
 5669SOL    HW128640   2.136   2.113   5.144  4.4157  2.5555 -0.8943
 5669SOL    HW228641   2.051   2.231   5.115  0.2713 -0.2945  0.1548
 5670SOL     OW28642   4.458   2.858   5.071  0.0094  0.3883  0.2753
 5670SOL    HW128643   4.534   2.859   5.129  1.0945  0.9998 -1.1588
 5670SOL    HW228644   4.446   2.952   5.061 -2.6165  0.2688  2.1720
 5671SOL     OW28645   1.049   4.579   4.381  0.2392  0.5408 -0.2930
 5671SOL    HW128646   0.962   4.614   4.397  0.3532  1.3130 -1.4057
 5671SOL    HW228647   1.071   4.635   4.307 -2.1923  0.4891 -1.0376
 5672SOL     OW28648   0.066   2.220  13.047  0.5313 -0.7012  0.1188
 5672SOL    HW128649   0.087   2.152  13.111 -0.4096 -1.1968 -0.1079
 5672SOL    HW228650   0.152   2.262  13.038  0.9250 -1.0605  2.1938
 5673SOL     OW28651   2.325   0.051   1.685  0.3657 -0.3204 -0.2457
 5673SOL    HW128652   2.399   0.055   1.623 -0.4952  0.2077 -1.2404
 5673SOL    HW228653   2.358   0.101   1.759 -0.4248  0.6397 -0.5437
 5674SOL     OW28654   2.593   1.273   3.613  0.1769  0.2902 -0.2999
 5674SOL    HW128655   2.633   1.196   3.573  0.5790 -0.7881  2.1618
 5674SOL    HW228656   2.510   1.282   3.566  0.6937 -0.8042 -1.4048
 5675SOL     OW28657   3.531   1.083   4.516 -0.3463 -0.1716  0.0766
 5675SOL    HW128658   3.569   1.034   4.589  1.9775 -0.1910 -1.1287
 5675SOL    HW228659   3.511   1.165   4.561 -0.0078 -0.8890  1.5416
 5676SOL     OW28660   0.735   2.952   5.843  0.0867  0.2859 -0.5751
 5676SOL    HW128661   0.668   2.894   5.806  0.4668 -0.8224  0.4492
 5676SOL    HW228662   0.794   2.878   5.859  1.7319  1.5156 -1.0375
 5677SOL     OW28663   4.139   4.548   7.794  0.2453 -0.2290 -0.5150
 5677SOL    HW128664   4.196   4.509   7.728  1.7563 -0.1518  0.7429
 5677SOL    HW228665   4.137   4.637   7.759  0.7506 -0.1567 -0.3590
 5678SOL     OW28666   0.655   1.449  13.314 -0.9984  0.3293  0.1173
 5678SOL    HW128667   0.570   1.469  13.355 -1.2880 -1.1706  0.2247
 5678SOL    HW228668   0.645   1.508  13.239 -2.6522 -0.0803  0.0150
 5679SOL     OW28669   1.266   4.539   9.803  0.3550 -0.0218  0.1062
 5679SOL    HW128670   1.330   4.489   9.854 -1.2028 -1.2236  0.8851
 5679SOL    HW228671   1.212   4.573   9.875  1.9148  0.6508  0.9520
 5680SOL     OW28672   1.393   2.712   2.645  0.3015 -0.2429  0.5524
 5680SOL    HW128673   1.401   2.618   2.626 -0.9899 -0.2990  0.2573
 5680SOL    HW228674   1.485   2.734   2.630  0.0467 -1.5289 -2.8934
 5681SOL     OW28675   2.410   0.275   5.301  0.3765 -0.0122 -0.0866
 5681SOL    HW128676   2.401   0.234   5.387  1.2043  1.1243  0.5327
 5681SOL    HW228677   2.323   0.314   5.287  0.0881 -0.6994 -0.2461
 5682SOL     OW28678   3.455   3.701  17.695  0.3065 -0.0839 -0.3471
 5682SOL    HW128679   3.405   3.620  17.694  1.1736 -0.6169 -0.4752
 5682SOL    HW228680   3.533   3.673  17.648  0.3269  0.1079 -0.4281
 5683SOL     OW28681   2.608   4.501   5.056 -0.0090  0.1051 -0.3313
 5683SOL    HW128682   2.543   4.558   5.097 -0.1791  1.0357 -1.8849
 5683SOL    HW228683   2.669   4.500   5.130  0.2485 -0.2041 -0.5454
 5684SOL     OW28684   1.071   1.261   7.086 -0.3152 -0.0509  0.3549
 5684SOL    HW128685   1.047   1.257   6.994 -1.0943 -1.5471  0.6284
 5684SOL    HW228686   0.994   1.298   7.130  0.5507  2.9391 -0.6823
 5685SOL     OW28687   0.564   2.295   5.422  0.7346 -0.3429  0.4985
 5685SOL    HW128688   0.599   2.340   5.499  0.4831  1.0853 -0.2213
 5685SOL    HW228689   0.548   2.366   5.360  1.5856  1.7427  2.6457
 5686SOL     OW28690   0.475   3.404  12.105  0.2317  0.7115 -0.3815
 5686SOL    HW128691   0.439   3.477  12.156 -1.4107 -0.9877  0.8662
 5686SOL    HW228692   0.569   3.423  12.115  0.3185  1.4937 -2.5251
 5687SOL     OW28693   3.831   0.144   1.749 -0.2028  0.0231  0.2600
 5687SOL    HW128694   3.830   0.048   1.743  0.5366 -0.1061  2.1648
 5687SOL    HW228695   3.811   0.164   1.657  2.4165  2.0066  0.1482
 5688SOL     OW28696   1.540   3.463   4.613  0.2695 -0.2017  0.2629
 5688SOL    HW128697   1.548   3.368   4.600  0.5874 -0.5437  2.9562
 5688SOL    HW228698   1.481   3.482   4.686 -0.0620 -0.9677  0.1936
 5689SOL     OW28699   2.532   4.587   7.211  1.0237 -0.5456  0.3930
 5689SOL    HW128700   2.462   4.532   7.176  0.9230  0.7796 -1.4730
 5689SOL    HW228701   2.503   4.673   7.180  0.0660 -0.1085  2.5454
 5690SOL     OW28702   1.218   4.491   8.888 -0.3380  0.0002  0.2030
 5690SOL    HW128703   1.135   4.447   8.873  0.5891 -0.7263 -2.9438
 5690SOL    HW228704   1.209   4.517   8.979  0.3379 -0.6108  0.4468
 5691SOL     OW28705   2.648   0.840  13.985  0.0957  0.3221 -0.2714
 5691SOL    HW128706   2.562   0.869  14.016 -0.0922 -0.6238  0.0923
 5691SOL    HW228707   2.706   0.892  14.041 -1.0010  0.3288  0.8645
 5692SOL     OW28708   2.535   4.334   4.222 -0.3498  0.3983  0.0585
 5692SOL    HW128709   2.467   4.275   4.190 -0.2346 -0.7795  2.0480
 5692SOL    HW228710   2.613   4.279   4.213 -1.2716 -0.9240  0.1889
 5693SOL     OW28711   1.207   3.399  13.655 -0.1252 -0.1514 -0.7587
 5693SOL    HW128712   1.254   3.405  13.738  1.6468  1.0259 -1.8617
 5693SOL    HW228713   1.224   3.310  13.624  0.5279 -0.2123 -0.2208
 5694SOL     OW28714   3.172   3.881   6.618 -0.0832  0.2652  0.0862
 5694SOL    HW128715   3.160   3.973   6.641 -0.8631  0.0301  0.6080
 5694SOL    HW228716   3.083   3.854   6.641  0.6583 -1.3154  1.1225
 5695SOL     OW28717   2.571   3.365   7.382  0.6035  0.0357 -0.4524
 5695SOL    HW128718   2.511   3.427   7.425 -2.3125 -3.6163  0.6663
 5695SOL    HW228719   2.624   3.423   7.327  0.0527 -0.1362 -1.1520
 5696SOL     OW28720   1.119   1.313   8.493  0.1200 -0.4345  0.0108
 5696SOL    HW128721   1.209   1.314   8.524  0.0096  2.8920  0.1889
 5696SOL    HW228722   1.084   1.244   8.550 -1.9144  0.8192  0.2945
 5697SOL     OW28723   4.607   4.654   1.758  0.2814 -0.1593  0.2693
 5697SOL    HW128724   4.598   0.009   1.790 -0.1285 -0.0072 -0.2665
 5697SOL    HW228725   4.617   4.616   1.845  0.7705  2.3741  1.3340
 5698SOL     OW28726   3.501   2.350  16.680  0.2001 -0.3425 -0.1679
 5698SOL    HW128727   3.590   2.329  16.706  0.3861 -0.5086 -0.9182
 5698SOL    HW228728   3.449   2.271  16.694 -1.5299  0.3127 -2.7593
 5699SOL     OW28729   0.469   3.870   1.140  0.0708  0.0187  0.3053
 5699SOL    HW128730   0.381   3.833   1.146 -0.0088  0.4503  1.9349
 5699SOL    HW228731   0.454   3.933   1.070 -1.5407  0.2474  0.8688
 5700SOL     OW28732   2.356   0.102   5.515 -0.0028 -0.1599  0.0979
 5700SOL    HW128733   2.295   0.041   5.557  0.2923 -1.5493 -1.4837
 5700SOL    HW228734   2.426   0.097   5.580  0.2506 -2.7175 -0.3506
 5701SOL     OW28735   1.420   2.208   4.689  0.7351  0.7085  0.6467
 5701SOL    HW128736   1.419   2.284   4.747 -1.3821  0.1617  1.3334
 5701SOL    HW228737   1.480   2.154   4.740 -1.6841 -2.2280  0.3674
 5702SOL     OW28738   0.768   1.249   0.159 -0.7580  0.5453 -0.8688
 5702SOL    HW128739   0.691   1.304   0.141 -0.5789  0.4998 -1.7650
 5702SOL    HW228740   0.838   1.314   0.149 -0.1109 -0.1048 -0.4992
 5703SOL     OW28741   4.355   3.621   6.483  0.1401 -0.2834  0.3284
 5703SOL    HW128742   4.443   3.650   6.460  0.4995 -0.9048  0.9163
 5703SOL    HW228743   4.370   3.527   6.498  0.3791 -0.5633 -1.7074
 5704SOL     OW28744   2.914   4.727  13.263 -0.1999 -0.1526  0.8067
 5704SOL    HW128745   2.890   4.654  13.205  0.3783  0.8246 -0.6802
 5704SOL    HW228746   3.006   0.006  13.241 -0.1068 -1.2998  0.4149
 5705SOL     OW28747   1.971   0.020   2.400 -0.3431 -0.2652  0.0037
 5705SOL    HW128748   2.032   4.689   2.431 -0.8996 -0.4008  0.8138
 5705SOL    HW228749   2.028   0.096   2.414  0.6458 -0.9941 -0.0862
 5706SOL     OW28750   2.985   1.603   8.917 -0.3182  0.2343 -0.0469
 5706SOL    HW128751   2.975   1.612   8.822 -0.1749 -0.8230 -0.1636
 5706SOL    HW228752   2.972   1.694   8.940 -0.0393  0.4051 -0.5595
 5707SOL     OW28753   2.748   1.015  17.632  0.0883  0.2194  0.0576
 5707SOL    HW128754   2.739   1.033  17.726  0.8199 -0.5135  0.2721
 5707SOL    HW228755   2.671   1.062  17.599  0.0691 -0.4908 -0.8801
 5708SOL     OW28756   3.022   4.535   0.074  1.0366  0.0286  0.2368
 5708SOL    HW128757   2.932   4.548   0.104  0.7109 -0.0752 -0.7115
 5708SOL    HW228758   3.023   4.544  17.718 -1.8398  0.8985  0.2820
 5709SOL     OW28759   0.308   4.309   1.633 -0.3649  0.5385  0.1883
 5709SOL    HW128760   0.265   4.325   1.717  0.9381  0.8386  0.8003
 5709SOL    HW228761   0.332   4.398   1.607 -1.0934  1.0444  1.2495
 5710SOL     OW28762   0.065   3.399   8.729  0.0487 -0.3748 -1.0423
 5710SOL    HW128763   0.101   3.333   8.788 -0.6074 -1.0519 -1.3905
 5710SOL    HW228764   0.130   3.467   8.745 -0.5663 -0.6440  2.6014
 5711SOL     OW28765   2.467   0.702   7.261  0.2484 -0.7489  0.8623
 5711SOL    HW128766   2.424   0.786   7.277  0.1834 -0.9541  1.7668
 5711SOL    HW228767   2.433   0.676   7.175 -0.7569  0.5274  0.8781
 5712SOL     OW28768   4.362   0.696   3.658 -0.1984  0.2802 -0.2901
 5712SOL    HW128769   4.359   0.600   3.653 -1.0140  0.2329  1.0355
 5712SOL    HW228770   4.275   0.732   3.675 -1.3610 -2.7357  0.2381
 5713SOL     OW28771   2.369   3.187  16.461 -0.0016 -0.1922 -0.3440
 5713SOL    HW128772   2.287   3.158  16.420  0.5632  0.3866 -1.8745
 5713SOL    HW228773   2.437   3.155  16.402  0.8384  2.6967 -0.9072
 5714SOL     OW28774   2.897   3.345   0.224  0.1195 -0.2111 -0.4856
 5714SOL    HW128775   2.858   3.308   0.145 -0.9791 -3.7011  1.6940
 5714SOL    HW228776   2.981   3.374   0.189  0.0726 -0.1666 -0.5614
 5715SOL     OW28777   3.325   1.069  16.769  0.4381 -0.4465  0.4121
 5715SOL    HW128778   3.377   1.043  16.693 -0.6478  2.2607 -1.2622
 5715SOL    HW228779   3.379   1.045  16.843  0.4738 -6.0546 -1.4126
 5716SOL     OW28780   3.876   0.789   4.537  0.3496 -0.0321 -0.3114
 5716SOL    HW128781   3.867   0.879   4.505 -4.0773 -0.9946 -1.6959
 5716SOL    HW228782   3.858   0.797   4.631  2.0477  2.1125 -0.1439
 5717SOL     OW28783   2.464   0.268   2.447  0.1563  0.3745 -0.0436
 5717SOL    HW128784   2.494   0.182   2.476  0.8305  0.8213  0.6002
 5717SOL    HW228785   2.439   0.304   2.532 -2.1541 -1.6495  0.1292
 5718SOL     OW28786   4.119   2.468   4.445  0.2123 -0.1986  0.5627
 5718SOL    HW128787   4.177   2.401   4.409  0.2808  0.9311 -1.4567
 5718SOL    HW228788   4.173   2.507   4.514 -2.0526  0.8415  1.7631
 5719SOL     OW28789   4.318   1.520   6.343 -0.0818 -0.0478 -0.3422
 5719SOL    HW128790   4.343   1.551   6.430  1.2884  0.8516 -1.0636
 5719SOL    HW228791   4.232   1.561   6.335 -0.1793 -0.2803 -0.5050
 5720SOL     OW28792   4.097   2.310   8.706  0.1343  0.1738  0.4860
 5720SOL    HW128793   4.134   2.371   8.643  0.8641 -1.5892 -0.8143
 5720SOL    HW228794   4.162   2.240   8.713  0.5587  0.4500 -0.6546
 5721SOL     OW28795   1.770   3.744  17.573 -0.6376 -0.1027 -0.6966
 5721SOL    HW128796   1.777   3.716  17.665  3.1844 -0.4773 -1.0893
 5721SOL    HW228797   1.739   3.834  17.577  1.4865  0.6558 -1.0904
 5722SOL     OW28798   2.941   2.801   4.536  0.5884  0.2746 -0.0133
 5722SOL    HW128799   2.990   2.725   4.504  0.5630  0.4502 -0.4738
 5722SOL    HW228800   2.989   2.819   4.617 -0.2424 -0.2053  0.5861
 5723SOL     OW28801   1.850   3.368   9.641  0.1878  0.0124  0.5684
 5723SOL    HW128802   1.905   3.411   9.707  0.6404  1.0866 -0.5122
 5723SOL    HW228803   1.781   3.435   9.633  0.3360  0.0920  0.0001
 5724SOL     OW28804   2.654   1.172   5.185 -0.7417 -0.6982  0.2688
 5724SOL    HW128805   2.745   1.185   5.160 -0.8032  0.0087  0.4073
 5724SOL    HW228806   2.663   1.094   5.239 -2.2922 -0.8412  0.3416
 5725SOL     OW28807   0.513   1.124   8.214 -0.3232 -0.0104 -0.1050
 5725SOL    HW128808   0.439   1.141   8.272 -0.7081  1.2068 -0.9393
 5725SOL    HW228809   0.535   1.215   8.192  0.9107  0.4522  3.0550
 5726SOL     OW28810   4.111   2.517   9.928 -0.1399 -0.4053 -0.2098
 5726SOL    HW128811   4.016   2.509   9.932 -0.4239  1.7485 -2.7858
 5726SOL    HW228812   4.126   2.572   9.851 -1.5436 -0.4290 -0.5059
 5727SOL     OW28813   2.871   2.002   4.952 -0.5405 -0.0866  0.5302
 5727SOL    HW128814   2.902   2.079   4.905 -0.4010  1.0182  2.4338
 5727SOL    HW228815   2.778   2.018   4.969 -0.6440 -0.8849  0.7193
 5728SOL     OW28816   4.414   2.548   3.597  0.2792 -0.7611  0.1328
 5728SOL    HW128817   4.325   2.575   3.573 -0.4176 -1.3265  2.1391
 5728SOL    HW228818   4.406   2.550   3.692 -1.7865 -0.0199 -0.0458
 5729SOL     OW28819   3.770   0.485   3.899  0.3433  0.8516  0.7176
 5729SOL    HW128820   3.685   0.481   3.855  0.4794  0.4859  0.4949
 5729SOL    HW228821   3.749   0.461   3.990  0.7237  0.7045  0.7658
 5730SOL     OW28822   2.876   4.590  12.318 -0.2940 -0.0438 -0.2012
 5730SOL    HW128823   2.819   4.655  12.277  0.6069  0.3380 -0.8275
 5730SOL    HW228824   2.921   4.556  12.241 -1.0054  1.0731 -1.1177
 5731SOL     OW28825   3.759   3.022   6.015 -0.4456 -0.0504 -0.0694
 5731SOL    HW128826   3.678   3.069   5.999 -0.4766 -0.4102 -1.0023
 5731SOL    HW228827   3.785   2.992   5.927  4.3420  0.4395  1.1627
 5732SOL     OW28828   2.269   3.844  11.672  0.0746  0.2630 -0.1787
 5732SOL    HW128829   2.357   3.817  11.647  0.6803  0.7529  1.4352
 5732SOL    HW228830   2.287   3.937  11.689 -0.4700  0.6966 -1.9550
 5733SOL     OW28831   0.553   1.456   3.640  0.3182 -0.6251 -0.1167
 5733SOL    HW128832   0.531   1.530   3.697 -1.1136 -1.5406  0.5186
 5733SOL    HW228833   0.640   1.438   3.677 -0.2354 -1.0705  0.9710
 5734SOL     OW28834   1.705   3.188   6.076 -0.0686  0.4814  0.0992
 5734SOL    HW128835   1.798   3.207   6.087  0.7342 -1.7585 -2.9546
 5734SOL    HW228836   1.685   3.135   6.154 -3.9181  0.1945 -1.0927
 5735SOL     OW28837   0.431   1.415  16.204  0.5614  0.2622  0.2655
 5735SOL    HW128838   0.349   1.366  16.201  1.5013 -1.2735 -0.4074
 5735SOL    HW228839   0.479   1.332  16.215 -1.3786 -0.7383  1.1470
 5736SOL     OW28840   0.852   2.243   7.835 -0.4087 -0.4202  0.6743
 5736SOL    HW128841   0.812   2.328   7.818 -0.7712 -0.8509 -0.6526
 5736SOL    HW228842   0.789   2.182   7.798 -0.7215 -0.4872  1.3273
 5737SOL     OW28843   1.441   0.359   6.788 -0.5803  0.6344 -0.2085
 5737SOL    HW128844   1.439   0.453   6.806  0.2130 -0.0425  3.5460
 5737SOL    HW228845   1.532   0.330   6.789 -0.1301  1.9778 -1.0952
 5738SOL     OW28846   3.115   3.782   4.004 -0.1892 -0.9429  0.4265
 5738SOL    HW128847   3.208   3.780   3.982 -0.3746 -0.3484 -0.4175
 5738SOL    HW228848   3.075   3.788   3.918  0.5065  0.4621  0.2044
 5739SOL     OW28849   2.795   1.399   0.420  0.2660  0.2813  0.4022
 5739SOL    HW128850   2.723   1.413   0.358  0.8177  2.4717  0.2658
 5739SOL    HW228851   2.744   1.358   0.490  1.6659 -3.0444 -0.4851
 5740SOL     OW28852   2.074   3.036   8.953 -0.0548 -0.4669  0.0209
 5740SOL    HW128853   1.988   3.002   8.926 -0.7462  0.7757  0.6745
 5740SOL    HW228854   2.074   3.006   9.043 -1.3138 -0.3541  0.0595
 5741SOL     OW28855   2.029   2.548   8.839 -0.2301 -0.2393 -0.0610
 5741SOL    HW128856   2.103   2.604   8.816 -1.1124  1.5751  1.4969
 5741SOL    HW228857   1.953   2.598   8.810  0.4145 -0.0527 -1.4495
 5742SOL     OW28858   2.921   1.717  17.067 -0.6869  0.3008 -0.2436
 5742SOL    HW128859   2.925   1.688  17.158 -0.9483  0.2408 -0.2528
 5742SOL    HW228860   2.959   1.639  17.025 -2.9458 -2.2030  2.3256
 5743SOL     OW28861   3.699   0.296   4.784 -0.7863  0.2028 -0.2598
 5743SOL    HW128862   3.665   0.214   4.821  0.3183 -0.3946 -0.5816
 5743SOL    HW228863   3.626   0.358   4.791 -1.9524 -1.0576 -1.3710
 5744SOL     OW28864   0.545   1.174  16.254  0.1143 -0.2249  0.2113
 5744SOL    HW128865   0.506   1.155  16.339 -0.6624  0.4553  0.0008
 5744SOL    HW228866   0.616   1.109  16.244 -0.4219 -0.3469 -2.5415
 5745SOL     OW28867   0.437   3.101   4.791 -0.2353  0.1323  0.1979
 5745SOL    HW128868   0.473   3.029   4.740  0.4400 -0.0129  0.8899
 5745SOL    HW228869   0.388   3.052   4.857 -0.4936 -2.3424 -1.8089
 5746SOL     OW28870   3.491   4.180   4.446 -0.0879  0.5628  0.5096
 5746SOL    HW128871   3.518   4.168   4.356 -0.1195  1.1645  0.4202
 5746SOL    HW228872   3.459   4.097   4.480  0.0155 -0.3689 -1.6885
 5747SOL     OW28873   2.966   4.212   9.411  0.3105  0.8041 -0.4134
 5747SOL    HW128874   2.886   4.232   9.460  0.0307 -0.6038 -0.2734
 5747SOL    HW228875   2.944   4.127   9.372  0.9410 -1.0507  3.3128
 5748SOL     OW28876   3.114   0.446  12.171  0.5426  0.6345 -0.5206
 5748SOL    HW128877   3.056   0.503  12.120  0.5388 -1.1819 -2.5540
 5748SOL    HW228878   3.048   0.392  12.213  0.8329  1.7707  1.3792
 5749SOL     OW28879   4.577   1.109   7.606  0.0759  0.1103 -0.0792
 5749SOL    HW128880   4.495   1.125   7.559  0.3545 -2.2334 -1.3815
 5749SOL    HW228881   4.626   1.188   7.583  2.8839 -0.9647  2.1421
 5750SOL     OW28882   0.032   0.948   1.016 -0.5504  0.1238 -0.2018
 5750SOL    HW128883   4.730   0.956   0.928 -0.9195  1.3374  0.0625
 5750SOL    HW228884   0.121   0.980   1.003 -0.5237  1.2182  2.6264
 5751SOL     OW28885   4.629   0.657  17.071  0.0190  0.0604 -0.0749
 5751SOL    HW128886   4.616   0.621  16.984  2.3746 -1.6343  0.2858
 5751SOL    HW228887   4.690   0.728  17.052 -0.1584  0.7130  1.7345
 5752SOL     OW28888   3.545   1.795   0.466  0.5035 -0.3811  0.2960
 5752SOL    HW128889   3.589   1.713   0.485  0.4106 -0.6351 -0.5775
 5752SOL    HW228890   3.457   1.770   0.495 -0.1236  1.9564  0.4340
 5753SOL     OW28891   4.678   2.571   1.066 -0.2703 -0.2225 -0.2102
 5753SOL    HW128892   4.622   2.498   1.039 -1.9382  0.5962  1.0643
 5753SOL    HW228893   0.005   2.542   1.132 -0.2407  2.1791  0.8173
 5754SOL     OW28894   0.312   1.107   4.610 -0.3087  0.7769  0.7573
 5754SOL    HW128895   0.228   1.141   4.640 -1.8878 -2.2258 -0.2458
 5754SOL    HW228896   0.326   1.046   4.683 -0.8497 -0.8608 -0.5003
 5755SOL     OW28897   3.447   3.532  13.896  0.2088 -0.0949 -0.3080
 5755SOL    HW128898   3.513   3.601  13.883  1.2619 -0.7550  1.5882
 5755SOL    HW228899   3.475   3.467  13.831 -0.6838 -0.2408 -0.5487
 5756SOL     OW28900   0.590   3.067   4.343 -0.1138  0.0003  0.2792
 5756SOL    HW128901   0.562   3.158   4.354  0.5225  0.3887 -1.3630
 5756SOL    HW228902   0.658   3.062   4.410  0.4834 -1.0213 -0.4302
 5757SOL     OW28903   4.497   0.910   2.393 -0.0546  1.1526 -0.2903
 5757SOL    HW128904   4.457   0.972   2.333 -0.4257  0.2611 -0.9648
 5757SOL    HW228905   4.420   0.875   2.437  1.7577 -1.0455  1.1596
 5758SOL     OW28906   0.082   0.204   1.032  0.1285 -0.1178  0.3097
 5758SOL    HW128907   0.111   0.295   1.027  1.3497 -0.5223  0.1439
 5758SOL    HW228908   4.734   0.203   1.079  1.1263 -0.4977  2.0490
 5759SOL     OW28909   0.104   1.306  10.754  0.0892 -0.4448 -0.5927
 5759SOL    HW128910   0.144   1.340  10.835 -0.1933  1.4188 -1.2243
 5759SOL    HW228911   0.168   1.338  10.691  0.7772  0.4749  0.5601
 5760SOL     OW28912   3.466   3.025   2.156  0.0829  0.2727 -0.1218
 5760SOL    HW128913   3.485   3.119   2.163 -0.6230  0.3289  1.1036
 5760SOL    HW228914   3.534   2.993   2.215  1.5514  2.1990 -0.7416
 5761SOL     OW28915   1.909   1.407  13.609  0.3380 -0.1817 -0.1846
 5761SOL    HW128916   1.857   1.431  13.532  0.5674 -0.2749 -0.3708
 5761SOL    HW228917   1.874   1.319  13.617 -2.0639  0.7273 -0.6722
 5762SOL     OW28918   4.353   1.804  12.571 -0.0679 -0.1172 -0.0845
 5762SOL    HW128919   4.335   1.810  12.665 -0.9776  0.1000 -0.2695
 5762SOL    HW228920   4.435   1.852  12.566  0.4521 -0.8942  0.9549
 5763SOL     OW28921   4.564   2.191  15.504  0.3522 -0.5766  0.2159
 5763SOL    HW128922   4.501   2.148  15.562 -0.2279 -1.3625 -0.9949
 5763SOL    HW228923   4.647   2.145  15.509 -0.0296 -1.2747  0.1069
 5764SOL     OW28924   1.114   1.276   8.234  0.0316 -0.1424  0.1717
 5764SOL    HW128925   1.095   1.183   8.222  1.6148 -0.2460 -1.5502
 5764SOL    HW228926   1.111   1.294   8.328  2.5087 -0.6615  0.3494
 5765SOL     OW28927   4.238   1.526  16.794 -0.3120  0.1599 -0.2884
 5765SOL    HW128928   4.267   1.617  16.799  1.0355 -0.2631 -0.4608
 5765SOL    HW228929   4.251   1.498  16.703  2.4015  0.6577 -0.0277
 5766SOL     OW28930   0.013   4.491   2.864  0.1075 -0.0215 -0.3235
 5766SOL    HW128931   0.074   4.468   2.794  0.5377 -1.5167  0.5388
 5766SOL    HW228932   4.733   4.583   2.842  0.5735  0.5701  1.7453
 5767SOL     OW28933   2.771   4.288   4.786  0.3085  0.2865 -0.0397
 5767SOL    HW128934   2.803   4.374   4.758 -0.3204  0.6645  0.4009
 5767SOL    HW228935   2.750   4.310   4.877 -1.4200  0.4991 -0.4966
 5768SOL     OW28936   3.306   3.439   9.340 -0.2676 -0.2252 -0.5644
 5768SOL    HW128937   3.367   3.510   9.359  0.1580 -0.6031 -0.5273
 5768SOL    HW228938   3.295   3.452   9.245  0.9196  1.9683 -0.4142
 5769SOL     OW28939   3.980   4.323   4.606  0.2726 -0.0254  0.4288
 5769SOL    HW128940   4.011   4.241   4.645 -1.1058  0.0508  1.6777
 5769SOL    HW228941   3.887   4.300   4.604 -0.3606  2.2650  2.7197
 5770SOL     OW28942   1.511   0.103  15.521  0.1901 -0.3835 -0.4414
 5770SOL    HW128943   1.573   0.173  15.542 -0.6508 -0.0964  1.0759
 5770SOL    HW228944   1.539   0.075  15.434 -0.3347 -1.9803 -0.0932
 5771SOL     OW28945   4.507   3.426   1.439  0.3844 -0.1455  0.1655
 5771SOL    HW128946   4.489   3.460   1.351 -3.0711 -0.0245  0.9068
 5771SOL    HW228947   4.466   3.492   1.495  1.3164  1.2754 -0.8428
 5772SOL     OW28948   2.510   4.081   3.365  0.0071  0.2542  0.0129
 5772SOL    HW128949   2.565   4.068   3.288  0.2452 -0.1932  0.2568
 5772SOL    HW228950   2.547   4.021   3.430 -1.9633 -0.8077  0.1667
 5773SOL     OW28951   2.892   4.724   7.667 -0.4462  0.2937 -0.2948
 5773SOL    HW128952   2.853   4.688   7.587  1.2448 -0.1570 -0.9145
 5773SOL    HW228953   2.900   4.651   7.728  0.6392 -1.0256 -2.0135
 5774SOL     OW28954   1.755   2.567   7.960  0.5050 -0.1622  0.5321
 5774SOL    HW128955   1.828   2.596   8.015  0.6748  0.7692 -0.1908
 5774SOL    HW228956   1.744   2.636   7.895  2.6922 -0.1242  0.1847
 5775SOL     OW28957   0.455   3.302   4.047  0.4117  0.6038 -0.1505
 5775SOL    HW128958   0.407   3.343   4.119 -1.9740  1.0172 -1.9444
 5775SOL    HW228959   0.522   3.368   4.027  1.0757 -0.3431 -1.0738
 5776SOL     OW28960   2.578   1.824   5.248  0.0252  0.0128  0.4014
 5776SOL    HW128961   2.629   1.858   5.175 -0.1857  1.1350  0.7833
 5776SOL    HW228962   2.568   1.899   5.307 -0.2835 -1.2322  1.9548
 5777SOL     OW28963   3.292   2.943   5.858 -0.6533  0.1252  0.5052
 5777SOL    HW128964   3.344   3.017   5.826  0.1074 -0.6868 -0.1344
 5777SOL    HW228965   3.205   2.984   5.854  0.2193  2.0352  1.1135
 5778SOL     OW28966   1.212   0.515   0.244  0.2865 -0.3636 -0.0144
 5778SOL    HW128967   1.176   0.428   0.266  0.7034 -1.4876 -3.7514
 5778SOL    HW228968   1.217   0.568   0.323 -0.4191 -0.0905 -0.1515
 5779SOL     OW28969   2.344   2.786   9.080  0.1153  0.1806  0.4108
 5779SOL    HW128970   2.260   2.831   9.090  0.1930  0.7850 -1.5482
 5779SOL    HW228971   2.403   2.861   9.065  1.5054 -1.2511 -1.2376
 5780SOL     OW28972   4.152   4.032   3.429 -0.5371 -0.5951  0.8837
 5780SOL    HW128973   4.066   3.990   3.441 -0.8533 -0.4840 -0.9627
 5780SOL    HW228974   4.177   3.998   3.343 -0.4425  2.1614 -0.1807
 5781SOL     OW28975   2.748   2.958   4.623 -0.3154  0.1918 -0.1560
 5781SOL    HW128976   2.692   2.917   4.557 -1.2956 -0.9076  1.3685
 5781SOL    HW228977   2.828   2.909   4.609 -0.1068  0.2297  0.8805
 5782SOL     OW28978   3.599   3.874   4.757  0.6491 -0.5583 -0.3447
 5782SOL    HW128979   3.618   3.962   4.789  0.8022 -1.5021  2.1662
 5782SOL    HW228980   3.638   3.821   4.827 -3.7766 -2.0615  0.9941
 5783SOL     OW28981   4.515   2.849   5.687 -0.0027  0.2898 -0.3696
 5783SOL    HW128982   4.493   2.761   5.656  2.3885  0.2111 -1.8614
 5783SOL    HW228983   4.455   2.899   5.631 -1.2298 -0.6831  0.0753
 5784SOL     OW28984   2.149   3.325   8.527 -0.0840  0.3283 -0.4342
 5784SOL    HW128985   2.099   3.316   8.608  0.4256 -0.7364 -0.2329
 5784SOL    HW228986   2.184   3.236   8.516  0.0021  0.3915 -0.6885
 5785SOL     OW28987   0.931   1.138  13.520 -0.3001 -0.5110 -0.3553
 5785SOL    HW128988   0.914   1.211  13.459  0.9969  0.3130  0.2726
 5785SOL    HW228989   0.886   1.066  13.476 -0.1862 -0.4864 -0.5137
 5786SOL     OW28990   1.620   4.298   3.523  0.0699 -0.0743 -0.4537
 5786SOL    HW128991   1.661   4.384   3.519  0.0694 -0.0392  0.2469
 5786SOL    HW228992   1.575   4.293   3.608 -2.2627 -1.0543 -1.7285
 5787SOL     OW28993   1.606   1.190   4.836  0.4490  0.1858  0.0405
 5787SOL    HW128994   1.563   1.167   4.918  0.5023  0.7013  0.2111
 5787SOL    HW228995   1.697   1.185   4.864  0.8167  0.8334 -1.0340
 5788SOL     OW28996   1.008   2.065  11.281 -0.5547  0.0954  0.0154
 5788SOL    HW128997   1.009   2.035  11.372 -0.9384  1.7111  0.5465
 5788SOL    HW228998   1.099   2.094  11.283 -0.6564  0.5077 -1.1982
 5789SOL     OW28999   3.737   0.877   8.292  0.1731 -0.4047 -0.0942
 5789SOL    HW129000   3.818   0.905   8.335 -0.2477 -1.1194  1.1984
 5789SOL    HW229001   3.674   0.912   8.355 -0.2242 -2.2789  0.5717
 5790SOL     OW29002   3.989   3.566   2.975 -0.1876 -0.5308  0.1812
 5790SOL    HW129003   3.997   3.491   3.034  1.4933  0.3070  0.9992
 5790SOL    HW229004   4.020   3.642   3.025  1.1428 -0.8205 -0.2197
 5791SOL     OW29005   1.324   4.233   8.072  0.4351 -0.2065 -0.2013
 5791SOL    HW129006   1.235   4.205   8.094  1.2882 -1.5424  1.5015
 5791SOL    HW229007   1.363   4.242   8.159 -0.9256  0.4665  0.3499
 5792SOL     OW29008   3.089   1.483   5.068  0.4818  0.3902  0.1846
 5792SOL    HW129009   3.183   1.466   5.067  0.2541 -0.9139  0.7915
 5792SOL    HW229010   3.064   1.523   4.984  3.3822  1.8444  0.0111
 5793SOL     OW29011   0.439   0.875   2.116 -0.7156  0.5358 -0.0562
 5793SOL    HW129012   0.515   0.919   2.079 -0.7459  1.3087  0.7751
 5793SOL    HW229013   0.453   0.782   2.100 -1.0794  0.9081 -2.6399
 5794SOL     OW29014   3.119   0.841   5.045  0.0441  0.8327  0.6146
 5794SOL    HW129015   3.121   0.746   5.056 -1.5610  1.1190  3.0997
 5794SOL    HW229016   3.039   0.853   5.096 -0.0065 -1.3819  1.0681
 5795SOL     OW29017   1.572   4.205   4.951  0.5613  0.2655  0.5719
 5795SOL    HW129018   1.625   4.128   4.974  2.9554  1.9888  0.8307
 5795SOL    HW229019   1.485   4.166   4.953  0.7972 -0.3776 -1.6961
 5796SOL     OW29020   3.072   1.382   9.016 -0.0578 -0.0849  0.7615
 5796SOL    HW129021   3.149   1.439   9.022 -0.1813  0.3459 -2.1565
 5796SOL    HW229022   3.014   1.448   8.979  0.0365  0.0873  0.9194
 5797SOL     OW29023   2.425   1.346   3.033 -0.1597  0.0979  1.0299
 5797SOL    HW129024   2.356   1.371   2.972 -0.9283 -1.1035  1.4121
 5797SOL    HW229025   2.398   1.402   3.106  0.5960 -0.0356  1.4138
 5798SOL     OW29026   3.099   3.023  11.769  0.1575 -0.7605 -0.1171
 5798SOL    HW129027   3.043   2.973  11.828 -0.1815 -3.2344 -2.5033
 5798SOL    HW229028   3.117   3.100  11.823 -0.7663  0.9476 -2.2489
 5799SOL     OW29029   1.246   2.874   6.099  0.4670  0.3701 -0.3269
 5799SOL    HW129030   1.247   2.869   6.004 -0.1543  2.6483 -0.4650
 5799SOL    HW229031   1.217   2.964   6.118 -0.7585 -0.0766 -0.0708
 5800SOL     OW29032   1.065   2.231   2.208  0.1620  0.2614  0.2370
 5800SOL    HW129033   1.114   2.310   2.185  0.5078  0.6663  2.3550
 5800SOL    HW229034   0.985   2.256   2.163  1.4423  1.4852 -1.3913
 5801SOL     OW29035   2.512   1.092   8.605 -0.3094  0.2105  0.1644
 5801SOL    HW129036   2.573   1.043   8.549  1.1635  1.9712  0.2447
 5801SOL    HW229037   2.478   1.018   8.655 -0.7165 -0.9867 -1.8616
 5802SOL     OW29038   1.256   4.268   7.699 -0.6932  0.5981 -0.5057
 5802SOL    HW129039   1.333   4.284   7.643  0.8771  1.6932  1.9732
 5802SOL    HW229040   1.306   4.215   7.761  0.6031  0.4026 -1.7058
 5803SOL     OW29041   0.380   1.517  13.295 -0.2564 -0.7761  0.6703
 5803SOL    HW129042   0.367   1.449  13.229  0.9236 -0.2008 -0.1388
 5803SOL    HW229043   0.371   1.590  13.234  1.5457 -1.1695 -0.0571
 5804SOL     OW29044   3.330   1.547   9.355  0.3436 -0.1192  0.4017
 5804SOL    HW129045   3.399   1.481   9.348  0.2923 -0.1347 -0.0039
 5804SOL    HW229046   3.280   1.509   9.428 -0.4533  1.2221  0.5462
 5805SOL     OW29047   1.839   1.815   3.386 -0.4691  0.0448 -0.2890
 5805SOL    HW129048   1.865   1.797   3.476  0.0621 -0.4243 -0.5394
 5805SOL    HW229049   1.764   1.756   3.377  0.0466 -0.4629 -1.3662
 5806SOL     OW29050   2.350   3.750   8.426 -0.1934  0.0850  0.3709
 5806SOL    HW129051   2.357   3.668   8.377  2.2195  0.1495  0.5716
 5806SOL    HW229052   2.263   3.728   8.458  1.4573 -2.7330  2.9808
 5807SOL     OW29053   0.451   3.162   6.652  0.8336  0.7120 -0.5771
 5807SOL    HW129054   0.415   3.245   6.619 -1.3349  0.8697  2.2200
 5807SOL    HW229055   0.446   3.111   6.571 -2.5879 -0.1431  0.1671
 5808SOL     OW29056   0.024   4.659   1.418 -0.2000 -0.2555 -0.6144
 5808SOL    HW129057   0.028   4.604   1.496  0.5098  1.1958  0.3619
 5808SOL    HW229058   0.117   4.679   1.408 -0.0158 -2.1139 -2.6619
 5809SOL     OW29059   2.991   1.688   4.372  0.5663  0.1200 -0.0162
 5809SOL    HW129060   2.960   1.650   4.290  0.2529  0.2043  0.0640
 5809SOL    HW229061   2.993   1.783   4.356  1.4436 -0.0371 -0.7930
 5810SOL     OW29062   2.578   3.205   3.050  0.4581  0.0927 -0.3171
 5810SOL    HW129063   2.621   3.140   3.107  0.0150 -1.8945 -2.2633
 5810SOL    HW229064   2.509   3.149   3.015 -0.6152  2.3337 -1.7120
 5811SOL     OW29065   3.589   2.161   7.919  0.2936  0.3670  0.4034
 5811SOL    HW129066   3.558   2.082   7.874  1.1933  0.1132  0.2127
 5811SOL    HW229067   3.511   2.216   7.919  1.4501  2.0373 -1.5143
 5812SOL     OW29068   1.199   3.672   7.525 -0.5921  0.2378  0.3597
 5812SOL    HW129069   1.220   3.625   7.605 -3.0706 -1.3624  0.0635
 5812SOL    HW229070   1.210   3.617   7.448 -1.3448 -0.8520  1.0404
 5813SOL     OW29071   4.481   4.567   3.552 -0.5202  0.5397 -0.5795
 5813SOL    HW129072   4.535   4.506   3.602 -0.0935 -0.1704 -1.8950
 5813SOL    HW229073   4.531   4.649   3.551  1.3784 -0.6240 -0.5851
 5814SOL     OW29074   3.142   0.137   7.596  0.3651 -0.1623  0.3568
 5814SOL    HW129075   3.107   0.210   7.647  2.0812  0.8609  0.0563
 5814SOL    HW229076   3.069   0.076   7.607 -0.1855  0.4832  0.3531
 5815SOL     OW29077   3.359   1.576  12.957 -0.5672  0.0157  0.0694
 5815SOL    HW129078   3.420   1.568  12.884 -1.2328 -0.7286 -0.3896
 5815SOL    HW229079   3.328   1.488  12.977  0.1969 -0.2273  0.1652
 5816SOL     OW29080   1.866   1.263   0.144 -0.2072  0.1775  0.0388
 5816SOL    HW129081   1.849   1.195   0.080  1.3969  1.5619 -1.8490
 5816SOL    HW229082   1.883   1.333   0.081  2.8698 -2.9682 -2.5598
 5817SOL     OW29083   2.972   3.426   1.019  0.2051  0.3428 -0.3445
 5817SOL    HW129084   2.909   3.355   1.030 -0.1131  0.1356 -3.7819
 5817SOL    HW229085   2.918   3.501   0.993 -0.6240 -0.0361  0.2557
 5818SOL     OW29086   0.690   0.735  10.796 -0.6011  0.3949  0.4867
 5818SOL    HW129087   0.617   0.761  10.739  0.0649 -0.0248 -0.5499
 5818SOL    HW229088   0.718   0.822  10.825 -0.7187  2.0655 -4.4323
 5819SOL     OW29089   0.177   2.059   7.917  0.5850  0.0878 -0.0264
 5819SOL    HW129090   0.207   2.039   7.828  1.1321 -1.4015  0.4920
 5819SOL    HW229091   0.221   1.986   7.959  0.3076 -1.2093 -1.9837
 5820SOL     OW29092   2.719   1.634   9.545 -0.7407 -0.0549 -1.2150
 5820SOL    HW129093   2.728   1.540   9.555 -1.8375 -0.1330 -0.9231
 5820SOL    HW229094   2.691   1.653   9.455  1.8989  1.0097 -1.8302
 5821SOL     OW29095   4.206   0.216   2.246  0.0064 -0.0024 -0.0456
 5821SOL    HW129096   4.213   0.307   2.220 -1.0086  0.5333  1.5468
 5821SOL    HW229097   4.112   0.206   2.262 -0.3076 -0.0180 -2.0076
 5822SOL     OW29098   0.914   3.704  14.716  0.2705 -0.6115 -0.1813
 5822SOL    HW129099   0.970   3.781  14.712  3.0895 -2.5241  2.5034
 5822SOL    HW229100   0.979   3.644  14.681 -0.0128  0.0480 -1.8219
 5823SOL     OW29101   0.251   3.231   2.520  0.1204 -0.5398 -0.2844
 5823SOL    HW129102   0.276   3.321   2.539  0.9266 -0.3610 -2.1522
 5823SOL    HW229103   0.309   3.181   2.576 -0.6353  0.2894  1.2272
 5824SOL     OW29104   0.361   3.429  15.367 -0.0820  0.5318  0.5414
 5824SOL    HW129105   0.289   3.403  15.424 -0.8544  1.5534  0.0408
 5824SOL    HW229106   0.305   3.429  15.290  2.3372 -0.1302 -1.2342
 5825SOL     OW29107   1.097   0.444   5.648  0.2636 -0.3766  0.5773
 5825SOL    HW129108   1.079   0.356   5.615  1.8456 -0.4742 -0.0619
 5825SOL    HW229109   1.141   0.434   5.733 -0.2580  0.8074  0.9902
 5826SOL     OW29110   2.335   0.707   5.646 -0.0113 -0.4866  0.2177
 5826SOL    HW129111   2.326   0.675   5.556 -2.5678  0.4536  0.1270
 5826SOL    HW229112   2.357   0.799   5.633  3.1556 -1.1734  0.8265
 5827SOL     OW29113   3.328   3.249   7.210  0.1161  0.1704  0.4282
 5827SOL    HW129114   3.278   3.168   7.222  2.0628 -1.2034 -0.5220
 5827SOL    HW229115   3.261   3.315   7.224 -0.6071 -0.2487 -1.0095
 5828SOL     OW29116   4.599   1.793   3.998 -0.4183  0.4478 -0.4544
 5828SOL    HW129117   4.621   1.817   3.908 -0.6105 -0.5679 -0.7717
 5828SOL    HW229118   4.505   1.807   4.002 -0.4096  0.0260  1.2199
 5829SOL     OW29119   2.738   4.637   7.467  0.4106 -0.2678  0.3063
 5829SOL    HW129120   2.648   4.670   7.463  0.2518 -0.9811 -2.1716
 5829SOL    HW229121   2.741   4.566   7.402 -0.4796 -2.3916  2.6141
 5830SOL     OW29122   3.215   3.448   5.761  0.3412  0.4898  0.5589
 5830SOL    HW129123   3.266   3.408   5.832  0.4681 -0.1577  0.1115
 5830SOL    HW229124   3.134   3.467   5.807 -1.2316  0.3156 -2.1168
 5831SOL     OW29125   1.728   4.230   6.915  0.4472  0.5196  0.6315
 5831SOL    HW129126   1.640   4.265   6.930  0.7337  1.6984 -0.4392
 5831SOL    HW229127   1.701   4.139   6.920 -0.8678  0.9058  0.5654
 5832SOL     OW29128   1.916   1.988   4.869  0.3300  0.2883  0.7267
 5832SOL    HW129129   1.902   1.915   4.809 -0.1157  0.3166  0.7982
 5832SOL    HW229130   1.979   1.957   4.934  1.1917 -3.4732 -1.9354
 5833SOL     OW29131   0.655   2.287   6.071  0.4420  0.1755 -0.2635
 5833SOL    HW129132   0.603   2.350   6.122  0.0004  1.5517 -2.4317
 5833SOL    HW229133   0.733   2.262   6.121 -0.5032  0.6284  1.4367
 5834SOL     OW29134   0.205   1.920   2.757  0.0367  0.3677  0.0594
 5834SOL    HW129135   0.141   1.966   2.811 -0.0053  0.3825 -0.0031
 5834SOL    HW229136   0.157   1.839   2.740 -0.6406  1.0742 -1.3784
 5835SOL     OW29137   0.032   3.756   7.420 -0.5435  0.1478 -0.6446
 5835SOL    HW129138   0.042   3.758   7.516 -0.1909  0.5382 -0.6893
 5835SOL    HW229139   4.707   3.831   7.418  1.2971  1.6655  0.5698
 5836SOL     OW29140   0.914   3.220   8.609  0.2926  0.4613 -0.0863
 5836SOL    HW129141   0.968   3.148   8.639 -0.0401 -0.2700 -1.2382
 5836SOL    HW229142   0.871   3.184   8.531 -0.7083 -2.7256  1.9501
 5837SOL     OW29143   4.477   3.861  14.282  0.3670  0.2132 -0.2542
 5837SOL    HW129144   4.519   3.944  14.259 -0.8291  1.1943  1.1404
 5837SOL    HW229145   4.447   3.885  14.369  0.3912  0.1901 -0.2395
 5838SOL     OW29146   2.686   0.866   3.780 -0.3313  0.0705 -0.2000
 5838SOL    HW129147   2.759   0.911   3.822  0.4605  0.0590 -1.5753
 5838SOL    HW229148   2.639   0.834   3.857 -1.8580 -1.0952 -1.6199
 5839SOL     OW29149   2.534   4.508  17.440  0.3428  0.4077 -0.2910
 5839SOL    HW129150   2.611   4.505  17.496 -0.7494  1.2388  1.2475
 5839SOL    HW229151   2.524   4.602  17.427 -0.6456  0.2725 -0.4765
 5840SOL     OW29152   4.180   1.439   7.173 -0.2099  0.5743 -0.0226
 5840SOL    HW129153   4.143   1.371   7.117 -0.9315 -1.2558  2.6296
 5840SOL    HW229154   4.137   1.518   7.141 -1.2009 -0.6439 -1.6905
 5841SOL     OW29155   0.576   4.350   0.798  0.2167  0.7653  0.3509
 5841SOL    HW129156   0.622   4.312   0.724  3.3198  0.9497  2.2023
 5841SOL    HW229157   0.637   4.400   0.852  1.4209  1.5908 -1.7937
 5842SOL     OW29158   1.910   0.152   4.577 -0.3613 -0.5613 -0.1104
 5842SOL    HW129159   1.991   0.119   4.617 -0.9925 -0.6800  1.0540
 5842SOL    HW229160   1.949   0.201   4.505  1.3179  0.3756  1.4374
 5843SOL     OW29161   1.191   2.631  11.367  0.5067  0.2957  0.1904
 5843SOL    HW129162   1.116   2.682  11.398 -0.7659 -2.2221  1.2748
 5843SOL    HW229163   1.230   2.695  11.308  2.1883 -0.5437  0.3882
 5844SOL     OW29164   3.955   2.789   6.587 -0.3638 -0.1741 -0.4240
 5844SOL    HW129165   4.008   2.713   6.612  1.8716  2.0050  1.4647
 5844SOL    HW229166   3.870   2.754   6.560 -0.4004  0.1265 -0.7054
 5845SOL     OW29167   1.826   0.445   4.168 -0.4761 -0.0522 -0.0405
 5845SOL    HW129168   1.807   0.410   4.081 -0.1237 -1.2034  0.3430
 5845SOL    HW229169   1.751   0.504   4.168 -1.0955 -0.8435  0.0244
 5846SOL     OW29170   0.672   3.634   4.598  0.0547 -0.1413 -0.1315
 5846SOL    HW129171   0.687   3.541   4.611 -0.1489 -0.3558 -1.4463
 5846SOL    HW229172   0.634   3.647   4.511  1.8279 -0.1955 -0.9053
 5847SOL     OW29173   4.683   1.224   0.646 -0.1457  0.3046 -0.6822
 5847SOL    HW129174   0.014   1.249   0.582 -0.9887 -0.0125 -1.6984
 5847SOL    HW229175   4.659   1.307   0.687  0.7365  0.2110  0.0265
 5848SOL     OW29176   1.645   0.924   4.706  0.7172 -0.4219 -0.8796
 5848SOL    HW129177   1.614   1.011   4.732  1.0304 -0.5814  0.0136
 5848SOL    HW229178   1.563   0.875   4.697  1.4324 -1.5209 -1.4158
 5849SOL     OW29179   4.481   3.491   3.915  0.6489  0.2855 -0.6418
 5849SOL    HW129180   4.528   3.575   3.915 -0.3612  0.8474 -0.4313
 5849SOL    HW229181   4.464   3.476   3.822 -1.3171  1.9467 -0.5577
 5850SOL     OW29182   1.703   0.561  12.502 -0.5941 -0.0980 -0.4764
 5850SOL    HW129183   1.707   0.466  12.496  3.2922  0.1681 -1.9336
 5850SOL    HW229184   1.742   0.587  12.419  0.7918 -2.3255 -0.5258
 5851SOL     OW29185   0.651   2.494   2.969  0.7000 -0.5734  0.1012
 5851SOL    HW129186   0.732   2.460   3.008  1.1397  1.1697  0.7234
 5851SOL    HW229187   0.591   2.435   3.015  0.3546  0.7769  1.4063
 5852SOL     OW29188   2.238   0.316   5.629 -0.1835  0.0422 -0.2420
 5852SOL    HW129189   2.265   0.273   5.548 -0.4283 -1.4687  0.4897
 5852SOL    HW229190   2.306   0.382   5.648  1.0139 -0.7424 -1.8333
 5853SOL     OW29191   4.427   3.708   4.380  0.7332 -0.2883 -0.0327
 5853SOL    HW129192   4.416   3.800   4.357  0.9757  0.7641  3.9813
 5853SOL    HW229193   4.380   3.665   4.308  0.3160 -0.2095  0.1918
 5854SOL     OW29194   1.513   1.798  14.476 -0.3040  0.6160 -0.1744
 5854SOL    HW129195   1.441   1.758  14.427 -0.7024 -0.0194  0.9271
 5854SOL    HW229196   1.575   1.812  14.405  0.8690 -2.7012  0.2145
 5855SOL     OW29197   2.226   2.102  11.447  0.2987  0.3154 -0.5179
 5855SOL    HW129198   2.200   2.115  11.538 -0.0441 -0.0035 -0.5705
 5855SOL    HW229199   2.295   2.166  11.428 -0.2666  1.2395  0.5909
 5856SOL     OW29200   3.765   3.250   5.430 -0.3521 -0.8558 -0.0425
 5856SOL    HW129201   3.737   3.159   5.440 -0.5981 -0.5413  2.1084
 5856SOL    HW229202   3.784   3.256   5.336  0.0192 -0.1822  0.0738
 5857SOL     OW29203   3.125   3.052   1.949  0.3441  0.0585 -0.0189
 5857SOL    HW129204   3.050   3.059   1.891  1.0729  1.4814 -0.7869
 5857SOL    HW229205   3.144   3.146   1.961 -2.3803  0.7946 -1.7342
 5858SOL     OW29206   2.260   1.761  13.809 -0.4437 -0.0548 -0.2963
 5858SOL    HW129207   2.325   1.695  13.834  0.0472  0.0735 -1.2353
 5858SOL    HW229208   2.203   1.705  13.755 -0.2387 -0.1741 -0.3894
 5859SOL     OW29209   0.017   4.430   9.462 -0.4256 -0.4186 -0.1780
 5859SOL    HW129210   0.088   4.491   9.445 -1.7531  1.0119 -0.5447
 5859SOL    HW229211   0.051   4.361   9.405 -1.1701 -2.1033  1.4140
 5860SOL     OW29212   0.723   4.585  13.515  0.6144  0.3498 -0.4320
 5860SOL    HW129213   0.696   4.675  13.498 -2.0084 -0.7941 -2.2419
 5860SOL    HW229214   0.789   4.602  13.582 -0.5029  3.3323 -0.0839
 5861SOL     OW29215   4.384   2.239   7.965  0.2068  0.2391  0.1792
 5861SOL    HW129216   4.376   2.308   7.899 -1.1031  1.1674  1.2849
 5861SOL    HW229217   4.426   2.173   7.911 -0.8668 -0.6928  0.4782
 5862SOL     OW29218   2.826   2.541   7.602 -0.3903  0.2089 -0.1504
 5862SOL    HW129219   2.870   2.602   7.542 -0.7229 -1.7704 -2.3892
 5862SOL    HW229220   2.738   2.576   7.587 -1.3476 -1.5177  1.5026
 5863SOL     OW29221   2.700   3.512   8.763  0.0707  0.3261  0.6768
 5863SOL    HW129222   2.716   3.546   8.851 -1.6391  2.2699  0.2367
 5863SOL    HW229223   2.781   3.534   8.717 -0.1934 -0.7048 -0.2892
 5864SOL     OW29224   2.053   3.371   5.499  0.0526 -0.1500 -0.3965
 5864SOL    HW129225   1.998   3.370   5.577 -0.3335 -1.0244 -0.6891
 5864SOL    HW229226   1.994   3.343   5.429  2.1575  0.6869 -2.5021
 5865SOL     OW29227   1.101   3.568   4.643 -0.0411  0.1834 -0.0445
 5865SOL    HW129228   1.165   3.497   4.635  0.2048  0.5390 -1.2673
 5865SOL    HW229229   1.156   3.646   4.650  1.5600 -1.1106  1.7236
 5866SOL     OW29230   0.155   3.152   8.313  0.0742  0.3404 -0.2401
 5866SOL    HW129231   0.113   3.075   8.275  0.3752  0.8891 -1.6730
 5866SOL    HW229232   0.108   3.158   8.397  1.8069  1.5057  0.6459
 5867SOL     OW29233   2.096   4.717   5.866  0.1954 -0.2156  0.0315
 5867SOL    HW129234   2.063   4.712   5.776  2.2083  0.6841 -0.7502
 5867SOL    HW229235   2.139   0.067   5.873 -0.2685  0.0299 -0.1075
 5868SOL     OW29236   1.390   4.346  14.878  0.1154 -0.0645  0.1241
 5868SOL    HW129237   1.370   4.440  14.874  1.3416  0.2755  2.1616
 5868SOL    HW229238   1.389   4.319  14.786 -3.8800 -0.8683  0.3957
 5869SOL     OW29239   1.517   3.439   0.868 -0.0061 -1.0834  0.0499
 5869SOL    HW129240   1.501   3.522   0.912  1.6639  0.5442 -2.3353
 5869SOL    HW229241   1.468   3.381   0.926  0.0773 -0.8135  0.3874
 5870SOL     OW29242   1.748   4.533   3.155  0.0524  0.5534 -0.1279
 5870SOL    HW129243   1.793   4.599   3.103 -1.1776  1.9432  0.5771
 5870SOL    HW229244   1.660   4.548   3.120  1.2426 -0.5888 -3.6885
 5871SOL     OW29245   4.616   0.078   3.552  0.9034  0.2425  0.1233
 5871SOL    HW129246   4.677   0.122   3.611  0.4661  1.0814 -0.0408
 5871SOL    HW229247   4.530   0.103   3.586  0.1084 -1.0752 -0.9230
 5872SOL     OW29248   2.802   3.933   2.910  0.0655  0.5998 -0.1097
 5872SOL    HW129249   2.853   3.860   2.875  0.4354  0.2750  1.1144
 5872SOL    HW229250   2.741   3.939   2.836 -0.8771 -0.3836  0.5839
 5873SOL     OW29251   2.566   1.611   6.398 -0.0603  0.1156 -0.0221
 5873SOL    HW129252   2.549   1.659   6.317 -0.9735 -1.0005 -0.4765
 5873SOL    HW229253   2.544   1.676   6.465 -0.5309 -1.5678  1.4735
 5874SOL     OW29254   2.854   3.139   9.754 -0.3920 -0.7482  0.2376
 5874SOL    HW129255   2.774   3.121   9.802 -0.9668 -1.1378 -0.8661
 5874SOL    HW229256   2.866   3.230   9.779 -1.3589 -0.4834 -0.2932
 5875SOL     OW29257   3.086   1.957   4.592 -0.0594  0.1463  0.4694
 5875SOL    HW129258   2.993   1.946   4.607 -0.0433 -1.8956 -0.9653
 5875SOL    HW229259   3.083   1.906   4.511 -5.7570  1.7109 -0.2680
 5876SOL     OW29260   2.443   4.725   7.512 -0.1817  0.1182  0.4491
 5876SOL    HW129261   2.444   4.655   7.578 -1.5083 -0.0067  0.3416
 5876SOL    HW229262   2.410   4.690   7.429  1.5949  0.9915 -0.6280
 5877SOL     OW29263   2.620   1.800   3.402 -0.3520  0.4693 -0.3314
 5877SOL    HW129264   2.709   1.815   3.433 -0.7979  2.0349  0.1723
 5877SOL    HW229265   2.569   1.822   3.479  0.5875  1.6874 -0.0563
 5878SOL     OW29266   4.606   2.301   1.679 -0.1431  0.2433  0.2376
 5878SOL    HW129267   4.593   2.336   1.590  3.0731 -1.4948 -0.9290
 5878SOL    HW229268   4.539   2.232   1.682  2.5326 -2.2414  2.4903
 5879SOL     OW29269   0.012   0.085   5.227  0.0301  0.1885 -0.0825
 5879SOL    HW129270   0.044   0.035   5.302  3.3553  0.5137 -1.2693
 5879SOL    HW229271   4.697   0.157   5.265 -0.6788 -0.2486 -0.1795
 5880SOL     OW29272   1.114   3.242   4.383  0.6715 -0.2223 -0.2899
 5880SOL    HW129273   1.200   3.253   4.341 -0.2912  0.4793 -2.0997
 5880SOL    HW229274   1.104   3.158   4.338 -0.1912 -0.2249 -0.0936
 5881SOL     OW29275   2.576   3.239  17.553 -0.6277 -0.0665  0.2890
 5881SOL    HW129276   2.568   3.173  17.484 -2.3962  1.1874 -0.6932
 5881SOL    HW229277   2.483   3.262  17.555 -1.4081 -3.2183  0.4008
 5882SOL     OW29278   4.402   1.082  13.449  0.5008  0.4989  0.6410
 5882SOL    HW129279   4.377   1.014  13.386 -1.0159 -0.4305  2.2619
 5882SOL    HW229280   4.482   1.115  13.408  1.1382 -2.2455 -0.3518
 5883SOL     OW29281   3.484   2.413   8.271  0.2440  0.1924 -0.2697
 5883SOL    HW129282   3.452   2.481   8.211  0.7983  0.5573 -0.1502
 5883SOL    HW229283   3.421   2.415   8.343 -0.4141  0.8221 -0.8609
 5884SOL     OW29284   2.179   3.622  14.499 -0.0920 -0.0943 -0.0465
 5884SOL    HW129285   2.194   3.659  14.412  3.8436 -1.2275  0.1655
 5884SOL    HW229286   2.099   3.667  14.526 -0.2107 -0.7414  0.6850
 5885SOL     OW29287   1.793   2.246   7.615  0.6123 -0.4107  0.4454
 5885SOL    HW129288   1.778   2.337   7.590 -0.3439 -0.7558 -0.2486
 5885SOL    HW229289   1.786   2.249   7.710 -0.7289  1.8787  0.2753
 5886SOL     OW29290   1.820   1.378   8.650  0.3725 -0.4805  0.1798
 5886SOL    HW129291   1.810   1.292   8.691 -2.3834 -0.8857 -1.3459
 5886SOL    HW229292   1.895   1.382   8.590  0.0931  0.3931 -0.1141
 5887SOL     OW29293   1.401   3.270  10.766  0.2013 -0.1316 -0.5274
 5887SOL    HW129294   1.452   3.350  10.779 -0.2110 -0.5724  4.1103
 5887SOL    HW229295   1.459   3.218  10.711 -3.4835 -1.7241 -2.9124
 5888SOL     OW29296   0.937   0.064   8.059  0.8176 -0.3884 -0.2995
 5888SOL    HW129297   0.882   0.055   8.137 -1.3071  0.8716 -1.6780
 5888SOL    HW229298   0.988   0.144   8.075  1.3652 -0.7543 -0.2002
 5889SOL     OW29299   0.908   0.018  10.056 -0.0636  0.2649  0.4617
 5889SOL    HW129300   0.918   0.081  10.127 -2.0827 -0.3191  1.2510
 5889SOL    HW229301   0.851   4.686  10.092 -1.8272  1.8135  0.5427
 5890SOL     OW29302   0.400   4.068   6.439  0.0410  0.3475  0.7080
 5890SOL    HW129303   0.478   4.102   6.396 -0.5122  0.3718 -0.2824
 5890SOL    HW229304   0.359   4.150   6.464 -2.8560 -0.6100 -0.7949
 5891SOL     OW29305   0.883   3.624   9.083  0.4787 -0.0044 -0.6710
 5891SOL    HW129306   0.822   3.625   9.157 -0.5442 -3.3676 -1.4435
 5891SOL    HW229307   0.908   3.531   9.086  0.0976 -0.0754  0.2691
 5892SOL     OW29308   2.039   1.709   0.055  0.3585 -0.1061 -0.6611
 5892SOL    HW129309   2.085   1.791   0.038  0.7909  0.0278  1.1770
 5892SOL    HW229310   1.949   1.741   0.055  1.0994  1.9925 -2.2894
 5893SOL     OW29311   1.922   2.460  15.692 -0.5508  0.3089  0.0640
 5893SOL    HW129312   1.908   2.436  15.784 -1.1313 -1.1433 -0.3999
 5893SOL    HW229313   2.015   2.455  15.670 -0.8629 -1.5819 -0.7965
 5894SOL     OW29314   4.384   0.537   5.504 -0.3642 -0.2663 -0.5680
 5894SOL    HW129315   4.352   0.570   5.588  1.3466 -0.1045  0.0083
 5894SOL    HW229316   4.467   0.500   5.534 -0.6342 -1.3000 -1.0755
 5895SOL     OW29317   0.815   4.344   0.931 -0.1602 -0.1702 -0.0871
 5895SOL    HW129318   0.870   4.402   0.878 -0.3438  1.7215  1.7891
 5895SOL    HW229319   0.835   4.262   0.886 -0.7211 -0.4025  0.0793
 5896SOL     OW29320   1.617   0.355  14.378  0.1900 -0.1719  0.0660
 5896SOL    HW129321   1.663   0.396  14.305  0.1824 -0.5025 -0.1235
 5896SOL    HW229322   1.623   0.269  14.337  0.3197 -0.8573  1.5561
 5897SOL     OW29323   1.640   4.239   5.699  0.4079 -0.1894  0.3195
 5897SOL    HW129324   1.577   4.229   5.770 -0.7305  1.3247 -0.4844
 5897SOL    HW229325   1.630   4.333   5.710 -0.9047 -0.2913  0.0681
 5898SOL     OW29326   3.990   3.862   8.810 -0.1892  0.0488 -0.5191
 5898SOL    HW129327   3.966   3.953   8.827 -1.9272 -0.6436  0.6470
 5898SOL    HW229328   3.919   3.817   8.855 -1.0940  2.0259 -0.0027
 5899SOL     OW29329   2.582   2.276   2.949 -0.6488  0.2063  0.2795
 5899SOL    HW129330   2.610   2.196   2.993 -2.2430 -0.7131 -0.3643
 5899SOL    HW229331   2.556   2.246   2.862  0.1407  0.3616 -0.0102
 5900SOL     OW29332   1.380   4.633   0.337  0.3065 -0.1182 -0.4887
 5900SOL    HW129333   1.312   4.618   0.271  0.8785  0.3037 -1.1801
 5900SOL    HW229334   1.392   4.728   0.340 -1.4483  0.1248 -1.4036
 5901SOL     OW29335   2.569   2.622   7.564  0.1628 -0.7535  0.1510
 5901SOL    HW129336   2.506   2.571   7.512 -0.4768  0.3504 -0.1564
 5901SOL    HW229337   2.533   2.707   7.589  3.2772  0.6814 -0.3024
 5902SOL     OW29338   0.831   3.113   7.100  0.2421 -0.0713 -0.3462
 5902SOL    HW129339   0.889   3.172   7.053 -1.2207  0.9091 -0.8895
 5902SOL    HW229340   0.767   3.101   7.030 -0.2521 -1.7878  0.3876
 5903SOL     OW29341   2.540   3.481  11.693  0.1595 -0.0792 -0.1124
 5903SOL    HW129342   2.479   3.414  11.663 -0.4714  0.1655  0.6447
 5903SOL    HW229343   2.622   3.430  11.694  0.2951  0.1648  2.0216
 5904SOL     OW29344   4.591   2.209   5.342 -0.4002 -0.1394  0.0178
 5904SOL    HW129345   4.558   2.266   5.273 -2.4344 -1.2089  0.0947
 5904SOL    HW229346   4.625   2.138   5.287  0.0561  1.1300 -1.3599
 5905SOL     OW29347   0.609   2.270   2.261 -0.1033 -0.8048 -0.0907
 5905SOL    HW129348   0.596   2.193   2.318 -0.2705  0.6731  1.8820
 5905SOL    HW229349   0.637   2.337   2.323 -1.5223 -0.1850 -0.1376
 5906SOL     OW29350   2.483   0.410   2.673 -0.1110  0.3675  0.1361
 5906SOL    HW129351   2.488   0.358   2.753  2.8944  2.3483  1.2395
 5906SOL    HW229352   2.565   0.459   2.672 -0.3721  0.8668  3.4562
 5907SOL     OW29353   3.360   1.622  16.713  0.6715 -0.6715  0.1223
 5907SOL    HW129354   3.359   1.527  16.705 -1.4806 -0.5748 -0.7193
 5907SOL    HW229355   3.408   1.643  16.633 -0.8458  1.6144 -0.1996
 5908SOL     OW29356   2.032   3.825  17.085 -0.0711  0.0135 -0.0374
 5908SOL    HW129357   2.010   3.841  16.994 -1.7403  1.6700  0.6704
 5908SOL    HW229358   2.128   3.828  17.092 -0.0873  0.2851  0.0666
 5909SOL     OW29359   3.360   1.416   7.386  0.3543 -0.0483 -0.0279
 5909SOL    HW129360   3.345   1.381   7.298  0.2446  0.9427 -0.4010
 5909SOL    HW229361   3.448   1.451   7.374  0.1501 -0.0264 -1.5573
 5910SOL     OW29362   0.679   0.862  13.186  0.0240 -0.3850 -0.3066
 5910SOL    HW129363   0.640   0.949  13.200  0.5071 -0.4695  1.6118
 5910SOL    HW229364   0.763   0.885  13.148 -1.0553  1.4211 -1.5975
 5911SOL     OW29365   0.249   4.037   6.685 -0.3166 -0.6639  0.0575
 5911SOL    HW129366   0.316   4.044   6.618 -0.7630  1.5446 -0.1651
 5911SOL    HW229367   0.171   4.004   6.640 -0.3719 -1.3436  0.6417
 5912SOL     OW29368   4.580   1.777   8.444  0.6123  0.5957  0.0474
 5912SOL    HW129369   4.609   1.762   8.534 -2.0158  1.4966  1.0500
 5912SOL    HW229370   4.656   1.820   8.407  0.8395 -1.9623 -2.4783
 5913SOL     OW29371   3.414   2.622   7.692 -0.0092 -0.3491 -0.6835
 5913SOL    HW129372   3.485   2.677   7.658 -0.8645  0.6249 -0.8806
 5913SOL    HW229373   3.468   2.555   7.734  1.4135  0.4293 -1.2492
 5914SOL     OW29374   3.327   1.402   9.833  0.1580 -0.2044  0.7341
 5914SOL    HW129375   3.357   1.352   9.757 -0.7824 -0.2067  0.3539
 5914SOL    HW229376   3.241   1.359   9.843  0.0180 -0.0213  0.3210
 5915SOL     OW29377   3.555   4.398   8.146 -0.0525  0.0716  0.0509
 5915SOL    HW129378   3.567   4.334   8.216 -0.8696  0.5041  0.5900
 5915SOL    HW229379   3.483   4.360   8.095 -0.4711  0.7898  0.1020
 5916SOL     OW29380   2.530   1.469  11.128 -0.5729 -0.2183  0.4798
 5916SOL    HW129381   2.518   1.379  11.097 -0.3491  0.6361 -2.0520
 5916SOL    HW229382   2.575   1.458  11.212  0.6712 -0.6206 -0.2433
 5917SOL     OW29383   2.097   3.903  15.983 -0.3550 -0.2260  0.0317
 5917SOL    HW129384   2.029   3.968  15.967 -1.0440 -0.7315  0.8293
 5917SOL    HW229385   2.101   3.915  16.078 -2.4300 -0.5177  0.1694
 5918SOL     OW29386   4.677   0.884   3.434  0.1450  0.0201 -0.7308
 5918SOL    HW129387   4.703   0.803   3.477  1.0541  1.0733  0.7111
 5918SOL    HW229388   4.583   0.864   3.437  0.0046  0.3979 -2.6436
 5919SOL     OW29389   1.666   0.385  17.210 -0.6440 -0.4105 -0.0683
 5919SOL    HW129390   1.747   0.363  17.165 -0.1722 -0.1084  0.6420
 5919SOL    HW229391   1.598   0.339  17.161 -0.9487 -0.1433  0.1031
 5920SOL     OW29392   3.999   4.102   7.511  0.1107 -0.0421 -0.2247
 5920SOL    HW129393   4.018   4.082   7.419  0.5763 -0.8162  0.0459
 5920SOL    HW229394   3.913   4.074   7.540  0.8349 -0.7835  1.2170
 5921SOL     OW29395   4.538   0.721  12.627  0.4106 -0.6299  0.0828
 5921SOL    HW129396   4.562   0.670  12.550  3.1666  0.4972  0.1727
 5921SOL    HW229397   4.470   0.663  12.662 -0.9571 -0.0739 -1.6834
 5922SOL     OW29398   3.511   2.685   7.325  0.5925  0.9100  0.1599
 5922SOL    HW129399   3.522   2.770   7.368 -3.2082  0.5916  1.7111
 5922SOL    HW229400   3.572   2.628   7.372  1.4210  1.8695  0.2519
 5923SOL     OW29401   4.612   3.227   3.948  0.9564  0.4845  0.2653
 5923SOL    HW129402   4.537   3.201   4.000 -1.4392 -3.0938 -4.9423
 5923SOL    HW229403   4.612   3.316   3.982  1.8327  1.1002 -1.2979
 5924SOL     OW29404   0.741   0.575  11.488 -0.1792  0.3132 -0.3592
 5924SOL    HW129405   0.781   0.511  11.547 -0.9643 -2.8828 -3.2428
 5924SOL    HW229406   0.724   0.511  11.418 -1.7949 -0.3125  0.6003
 5925SOL     OW29407   3.809   0.208   2.029 -0.4457  0.2248 -0.1984
 5925SOL    HW129408   3.821   0.197   1.934  1.7715 -0.0379  0.1185
 5925SOL    HW229409   3.714   0.197   2.037 -0.0709  0.0665  3.7536
 5926SOL     OW29410   1.175   3.387   9.374 -0.1625 -0.2975  0.3461
 5926SOL    HW129411   1.128   3.330   9.435  1.6456 -3.4962 -1.2083
 5926SOL    HW229412   1.182   3.461   9.434  1.9793  1.0723 -1.5453
 5927SOL     OW29413   4.204   1.692   4.369 -0.0739 -0.2485 -0.6008
 5927SOL    HW129414   4.231   1.773   4.412  1.7961 -1.0485 -0.2609
 5927SOL    HW229415   4.211   1.623   4.435 -1.4190  0.8015  0.6299
 5928SOL     OW29416   1.055   4.147   9.045 -0.1601 -0.1000 -0.4118
 5928SOL    HW129417   0.998   4.192   9.108  2.2286  2.2829  0.0412
 5928SOL    HW229418   1.011   4.062   9.036 -0.0728 -0.1555 -0.3059
 5929SOL     OW29419   4.454   1.912   2.102 -0.2392 -0.1623  0.0687
 5929SOL    HW129420   4.363   1.886   2.117 -0.9720  2.4622  0.2191
 5929SOL    HW229421   4.448   2.000   2.139 -1.0554 -1.0701  2.0986
 5930SOL     OW29422   3.397   0.576   7.030  0.4068  0.0892 -0.2952
 5930SOL    HW129423   3.332   0.612   7.091  0.2854  0.5577 -0.7118
 5930SOL    HW229424   3.386   0.481   7.037  1.8922 -0.0178  0.5396
 5931SOL     OW29425   0.221   4.604   7.597 -0.1036 -0.2132  0.7429
 5931SOL    HW129426   0.157   4.674   7.585 -0.8604 -1.1218 -0.4245
 5931SOL    HW229427   0.184   4.531   7.548 -0.2346  1.1703 -1.2374
 5932SOL     OW29428   1.853   0.364  15.184 -0.1414 -0.4719 -0.4418
 5932SOL    HW129429   1.877   0.280  15.146 -1.5573 -1.4400  0.8407
 5932SOL    HW229430   1.809   0.416  15.117 -1.7226 -1.2515  0.0192
 5933SOL     OW29431   1.374   1.567   4.491  0.5807  0.1917 -0.1906
 5933SOL    HW129432   1.416   1.488   4.457  0.6772 -0.4612  1.4328
 5933SOL    HW229433   1.285   1.534   4.492  0.5777  0.1813 -0.8121
 5934SOL     OW29434   4.078   1.112  16.577 -0.1910  0.1653 -0.1067
 5934SOL    HW129435   4.170   1.122  16.599  0.3601  1.3598 -2.9714
 5934SOL    HW229436   4.048   1.148  16.661 -0.0206 -0.0169  0.0327
 5935SOL     OW29437   3.792   3.511  15.204  0.0133 -0.2010 -0.0470
 5935SOL    HW129438   3.827   3.594  15.172  1.6910 -1.1336 -0.6257
 5935SOL    HW229439   3.815   3.507  15.297 -0.6327 -0.3142  0.1110
 5936SOL     OW29440   2.032   4.525  12.169  0.0682 -0.2173  0.5799
 5936SOL    HW129441   1.967   4.545  12.237 -0.5759  0.4615 -0.2291
 5936SOL    HW229442   1.978   4.501  12.094  1.0178  1.8779 -0.7787
 5937SOL     OW29443   3.005   3.375   5.370 -0.2841  0.2974 -0.3443
 5937SOL    HW129444   3.084   3.417   5.405 -0.4486  0.3907 -0.0892
 5937SOL    HW229445   2.984   3.434   5.298  0.8910 -2.4368 -2.9272
 5938SOL     OW29446   1.685   4.677   5.380  0.3033  0.0040 -0.0099
 5938SOL    HW129447   1.720   4.631   5.457  2.0462  1.0192 -0.1707
 5938SOL    HW229448   1.703   4.616   5.309  2.5856  0.2561  0.3286
 5939SOL     OW29449   1.072   3.185   9.003  0.5297 -0.2072 -0.0528
 5939SOL    HW129450   1.014   3.151   8.935  1.1721 -0.5416 -0.4348
 5939SOL    HW229451   1.141   3.119   9.003  0.2016 -0.5636 -1.3152
 5940SOL     OW29452   0.439   4.338  12.438 -0.5157  0.3520 -0.0287
 5940SOL    HW129453   0.367   4.386  12.479  0.9031 -0.8377  3.8921
 5940SOL    HW229454   0.465   4.278  12.509  0.2327 -2.5022 -2.7423
 5941SOL     OW29455   0.068   0.328  10.574 -0.5859  0.1005 -0.0780
 5941SOL    HW129456   0.075   0.298  10.483 -1.1958 -2.8981  0.8541
 5941SOL    HW229457   4.730   0.287  10.619 -0.9629 -2.1929 -2.7438
 5942SOL     OW29458   0.579   2.218  16.397 -0.3722  0.7516  0.5745
 5942SOL    HW129459   0.628   2.142  16.366  1.1580  1.8705  0.2454
 5942SOL    HW229460   0.646   2.271  16.442 -0.5660 -0.4099  2.2390
 5943SOL     OW29461   1.478   3.136   6.946 -0.3656  0.4679  0.2828
 5943SOL    HW129462   1.562   3.115   6.988  0.2972  0.3995 -1.0885
 5943SOL    HW229463   1.421   3.130   7.023  0.8112  0.2529  1.1500
 5944SOL     OW29464   3.850   1.831   2.396  0.1753  0.0277  0.0515
 5944SOL    HW129465   3.901   1.825   2.476  1.2878  0.5691 -0.6210
 5944SOL    HW229466   3.842   1.739   2.370 -1.4888  0.5298 -1.2184
 5945SOL     OW29467   4.603   1.374   5.371 -0.0395  0.2373 -0.5479
 5945SOL    HW129468   4.599   1.468   5.358 -1.8807  0.2800  0.2209
 5945SOL    HW229469   4.685   1.370   5.323  0.3180 -1.0688  0.1454
 5946SOL     OW29470   3.253   2.837  10.660 -0.4865  0.1684 -0.4158
 5946SOL    HW129471   3.204   2.915  10.687 -0.3548  0.0589  0.1539
 5946SOL    HW229472   3.305   2.812  10.737 -1.2960  0.3397  0.1961
 5947SOL     OW29473   2.684   4.265  15.239 -0.0074  0.0635  0.3484
 5947SOL    HW129474   2.749   4.207  15.279  2.6049  2.9748  0.3484
 5947SOL    HW229475   2.677   4.339  15.299 -0.8524  2.3779 -2.6013
 5948SOL     OW29476   0.102   4.706   4.989 -0.2021 -0.3957 -0.2378
 5948SOL    HW129477   0.115   4.616   5.018 -0.5970 -0.1253  0.7495
 5948SOL    HW229478   0.063   0.001   5.071 -1.7252 -1.1068 -0.7075
 5949SOL     OW29479   2.499   1.158  17.638 -0.7383 -0.0539  1.0196
 5949SOL    HW129480   2.436   1.158  17.566 -0.4223  0.5034  0.7374
 5949SOL    HW229481   2.444   1.140  17.714  0.8981  1.0422  2.4659
 5950SOL     OW29482   1.251   2.317   5.942  0.0694  0.1398 -0.3901
 5950SOL    HW129483   1.172   2.280   5.981 -1.5298  3.6038 -0.4099
 5950SOL    HW229484   1.317   2.305   6.010  0.4235  2.4276 -0.3388
 5951SOL     OW29485   4.352   3.675  10.064 -0.4818 -0.6454  0.1732
 5951SOL    HW129486   4.325   3.715  10.146 -2.0540 -1.6269  0.1210
 5951SOL    HW229487   4.334   3.584  10.088  0.4223 -0.3188  2.0682
 5952SOL     OW29488   1.783   1.067   5.204  0.1204  0.0613 -0.0291
 5952SOL    HW129489   1.833   1.146   5.223  0.8144  0.1971 -2.4147
 5952SOL    HW229490   1.815   1.002   5.267  0.9252 -0.5467 -1.0851
 5953SOL     OW29491   2.541   4.276   6.970  0.0081  0.0102 -0.3172
 5953SOL    HW129492   2.567   4.368   6.957 -0.4982  0.0545 -0.9845
 5953SOL    HW229493   2.519   4.258   6.879 -0.8094  1.1821 -0.3555
 5954SOL     OW29494   1.059   1.818   6.167  0.6558 -0.5969  0.3562
 5954SOL    HW129495   1.130   1.755   6.175  1.1620  0.1044  1.3375
 5954SOL    HW229496   1.112   1.897   6.170 -1.3756  0.7676  0.1890
 5955SOL     OW29497   2.982   2.032   3.834 -0.1828  0.2484  0.2248
 5955SOL    HW129498   2.911   1.968   3.835 -1.6523  1.8091 -1.7767
 5955SOL    HW229499   2.935   2.115   3.820  1.5278  0.9975 -1.0671
 5956SOL     OW29500   1.005   2.990   8.686  0.7170  0.5990  0.2570
 5956SOL    HW129501   1.091   2.949   8.696  1.4124  1.2809 -2.8682
 5956SOL    HW229502   0.956   2.921   8.731  1.0919 -0.5974 -1.1600
 5957SOL     OW29503   3.687   2.691   8.482 -0.0859 -0.1915  0.6982
 5957SOL    HW129504   3.688   2.752   8.408 -0.2047 -1.6379 -0.4775
 5957SOL    HW229505   3.758   2.629   8.468 -0.7256 -0.2006 -2.5081
 5958SOL     OW29506   0.427   0.327   9.840  0.2138 -0.3736 -0.2197
 5958SOL    HW129507   0.405   0.244   9.798  1.7021 -0.6501 -0.4448
 5958SOL    HW229508   0.497   0.286   9.890  0.9875  0.2772 -0.7675
 5959SOL     OW29509   3.163   3.090   5.200  0.3728  0.3508  0.4810
 5959SOL    HW129510   3.246   3.076   5.155  1.1036 -3.0789  2.9642
 5959SOL    HW229511   3.181   3.141   5.279  0.0477 -2.2965  2.2519
 5960SOL     OW29512   0.781   1.385  12.275  0.1555  0.1031 -1.1377
 5960SOL    HW129513   0.847   1.427  12.219  2.1627  1.6894  2.3925
 5960SOL    HW229514   0.828   1.307  12.303  0.4990  0.2829 -1.2106
 5961SOL     OW29515   1.247   1.195  11.837  0.1075 -0.2877 -0.3674
 5961SOL    HW129516   1.250   1.164  11.746  1.9680  1.2439 -0.8237
 5961SOL    HW229517   1.264   1.111  11.880 -1.2697 -0.9499 -1.1027
 5962SOL     OW29518   4.191   0.529  15.031  0.4654 -0.0309 -0.4393
 5962SOL    HW129519   4.231   0.610  15.063  1.1584 -0.6773  0.3254
 5962SOL    HW229520   4.157   0.499  15.116 -1.6945  0.8603 -1.0032
 5963SOL     OW29521   4.586   3.671   2.948  0.2307 -0.3891 -0.3279
 5963SOL    HW129522   4.614   3.652   2.858  0.8206 -1.0372 -0.0072
 5963SOL    HW229523   4.668   3.692   2.993 -0.7502  0.9507  0.8640
 5964SOL     OW29524   2.314   1.642  11.140  0.1166 -0.0894  0.8585
 5964SOL    HW129525   2.382   1.576  11.151 -0.7275 -0.9721  0.7253
 5964SOL    HW229526   2.358   1.714  11.095 -0.4835 -0.6411 -0.5946
 5965SOL     OW29527   1.874   4.235   8.320 -0.6888 -0.4803  0.4945
 5965SOL    HW129528   1.912   4.148   8.309 -0.1750 -0.1773 -0.1624
 5965SOL    HW229529   1.784   4.205   8.310 -0.6565 -0.5672  0.4602
 5966SOL     OW29530   0.994   3.510  16.781 -0.2043 -0.7211 -0.5328
 5966SOL    HW129531   0.934   3.558  16.838  0.5022  0.0511 -0.4467
 5966SOL    HW229532   1.056   3.574  16.747 -1.2989  1.0520  0.8266
 5967SOL     OW29533   0.821   1.335   7.887 -0.0995  0.4896  0.0831
 5967SOL    HW129534   0.825   1.426   7.857  0.2479  0.3531 -0.2794
 5967SOL    HW229535   0.731   1.323   7.857 -0.5877  2.2951  0.8063
 5968SOL     OW29536   0.262   1.430   3.378 -0.6554  0.4883 -0.3890
 5968SOL    HW129537   0.356   1.442   3.369 -0.6782  2.2245  1.8608
 5968SOL    HW229538   0.253   1.437   3.473 -0.1604 -0.3357 -0.2872
 5969SOL     OW29539   2.320   2.315  13.862 -0.8132 -0.1114 -0.2266
 5969SOL    HW129540   2.320   2.231  13.907  0.8488  0.4531  0.8172
 5969SOL    HW229541   2.235   2.356  13.879 -1.3122 -0.0366 -2.8271
 5970SOL     OW29542   3.241   2.195   3.975  0.1441 -0.3237  0.9428
 5970SOL    HW129543   3.163   2.141   3.989 -0.0279 -0.4376 -0.4035
 5970SOL    HW229544   3.202   2.269   3.927 -0.2451  0.0052  1.7661
 5971SOL     OW29545   3.276   3.132  15.772 -0.3823  0.3728  0.0195
 5971SOL    HW129546   3.298   3.199  15.707 -2.8680  1.1793 -0.0123
 5971SOL    HW229547   3.230   3.068  15.718  1.4068 -0.0939 -0.9531
 5972SOL     OW29548   3.628   4.501  14.380  0.7579 -0.1083  0.2204
 5972SOL    HW129549   3.604   4.584  14.339  1.5574  0.4851  0.9380
 5972SOL    HW229550   3.603   4.529  14.468  1.9673 -3.9254  1.7877
 5973SOL     OW29551   0.993   0.325   6.483  0.1260  0.3156  0.0120
 5973SOL    HW129552   0.902   0.333   6.513 -0.4696 -2.7986 -1.0006
 5973SOL    HW229553   1.016   0.414   6.512 -1.0668  0.6540 -0.0874
 5974SOL     OW29554   1.297   1.107   5.727 -0.1430 -0.0807  0.2926
 5974SOL    HW129555   1.318   1.126   5.636 -0.4304 -1.6019 -0.0818
 5974SOL    HW229556   1.333   1.172   5.788  0.1476  0.0197  0.0128
 5975SOL     OW29557   3.179   0.450   5.454 -0.2148  0.6440  0.0204
 5975SOL    HW129558   3.102   0.408   5.492  1.3857 -1.8557  0.5243
 5975SOL    HW229559   3.249   0.412   5.506  0.9951 -0.7597 -2.6052
 5976SOL     OW29560   0.282   3.871   3.490  0.1182 -0.1754  0.0568
 5976SOL    HW129561   0.358   3.929   3.490 -0.6562  0.8283  0.6365
 5976SOL    HW229562   0.315   3.793   3.535  1.0322  0.9524  1.3256
 5977SOL     OW29563   3.010   1.365   3.966  0.5468  0.3453 -0.0188
 5977SOL    HW129564   2.971   1.347   3.881 -0.1537 -0.1178  0.3925
 5977SOL    HW229565   3.066   1.290   3.987 -1.2558 -0.9685  0.1398
 5978SOL     OW29566   2.174   3.281   8.971 -0.1977 -0.4662  0.3941
 5978SOL    HW129567   2.142   3.191   8.964 -1.3892 -0.0265  0.2210
 5978SOL    HW229568   2.129   3.304   9.053 -2.3949 -0.5476 -0.7968
 5979SOL     OW29569   3.398   3.224  16.187 -0.3857  0.7741  0.1807
 5979SOL    HW129570   3.445   3.218  16.271  0.1891 -1.0405 -0.2726
 5979SOL    HW229571   3.346   3.302  16.204 -2.4717 -0.9687  1.8405
 5980SOL     OW29572   3.539   3.076   2.603 -0.1135  0.2752  0.7961
 5980SOL    HW129573   3.462   3.088   2.547 -0.4776 -0.2930  1.1738
 5980SOL    HW229574   3.619   3.090   2.552  0.2475  1.4842  1.6990
 5981SOL     OW29575   2.564   0.053   1.543  0.0945  0.3154 -0.2927
 5981SOL    HW129576   2.601   0.004   1.616 -0.9285 -0.0244  0.0002
 5981SOL    HW229577   2.604   0.019   1.463 -0.1044  1.1338 -0.7386
 5982SOL     OW29578   2.559   1.911   9.392 -0.1577 -0.4117  0.0977
 5982SOL    HW129579   2.547   1.902   9.297  3.0847 -0.6779 -0.2857
 5982SOL    HW229580   2.652   1.887   9.397 -0.0877  0.0583  0.9269
 5983SOL     OW29581   4.669   3.881   2.672  0.4296  0.0866  0.1410
 5983SOL    HW129582   4.692   3.812   2.609  0.2640 -1.2624  1.5530
 5983SOL    HW229583   4.575   3.890   2.656  0.7967 -0.6098 -2.3368
 5984SOL     OW29584   0.085   4.451   2.531 -0.8563  0.0760 -0.4589
 5984SOL    HW129585   0.037   4.516   2.480 -0.4425  0.2185 -0.6721
 5984SOL    HW229586   0.130   4.408   2.458 -1.9959 -1.0992 -0.4599
 5985SOL     OW29587   1.860   3.738   7.142  0.3001  0.0400 -0.1813
 5985SOL    HW129588   1.839   3.687   7.220 -0.0196 -0.2609 -0.4674
 5985SOL    HW229589   1.909   3.678   7.084  1.0444  1.0454 -0.5921
 5986SOL     OW29590   2.252   3.387  14.585 -0.1916 -0.3190  0.4169
 5986SOL    HW129591   2.280   3.373  14.495 -0.5951 -2.4015  0.6087
 5986SOL    HW229592   2.210   3.472  14.575  0.2091  0.0119  1.5695
 5987SOL     OW29593   1.136   3.377  10.758  0.0878  0.0690  0.4611
 5987SOL    HW129594   1.202   3.441  10.785 -0.7317  0.9892  0.2526
 5987SOL    HW229595   1.166   3.287  10.771 -3.5459 -1.0670  0.8521
 5988SOL     OW29596   0.740   0.754   8.198  0.0295  0.6434  0.2932
 5988SOL    HW129597   0.674   0.794   8.254 -1.6231 -0.0135 -1.1672
 5988SOL    HW229598   0.771   0.830   8.148 -0.7421  0.6699 -0.1495
 5989SOL     OW29599   2.820   4.149   3.377  0.5068 -0.2231  0.4281
 5989SOL    HW129600   2.776   4.228   3.344  0.6794 -0.6747 -0.8997
 5989SOL    HW229601   2.807   4.097   3.298 -0.7473 -0.4100  0.7591
 5990SOL     OW29602   3.631   0.212   8.317 -0.2710 -0.0867 -0.2887
 5990SOL    HW129603   3.629   0.248   8.228  2.3250 -0.7205 -0.6203
 5990SOL    HW229604   3.574   0.139   8.296  0.3770 -0.9313  0.9242
 5991SOL     OW29605   0.800   3.486  17.132  0.1876  0.2538  0.3749
 5991SOL    HW129606   0.832   3.454  17.048  1.1183 -0.8174  1.1203
 5991SOL    HW229607   0.762   3.566  17.098  1.6650  0.0596 -1.7644
 5992SOL     OW29608   0.678   2.684   6.619  0.3101  0.3458 -0.2365
 5992SOL    HW129609   0.701   2.740   6.693  0.6830 -1.1267  0.7542
 5992SOL    HW229610   0.676   2.597   6.659  2.5289 -0.4214 -1.7965
 5993SOL     OW29611   3.153   1.172   9.903  0.5978  0.3131  0.0821
 5993SOL    HW129612   3.062   1.187   9.876  0.7945  2.9229  0.8823
 5993SOL    HW229613   3.186   1.151   9.815 -1.9404 -1.1805 -0.4949
 5994SOL     OW29614   4.530   4.072   1.903  0.3209  0.0579 -0.0560
 5994SOL    HW129615   4.546   4.053   1.811  0.1706  0.7053 -0.2150
 5994SOL    HW229616   4.516   3.985   1.939 -0.0704 -1.0827 -2.9425
 5995SOL     OW29617   4.685   3.705   9.875 -0.2510 -0.2734  0.2015
 5995SOL    HW129618   4.685   3.621   9.829 -0.4211  0.0800 -0.4495
 5995SOL    HW229619   0.018   3.700   9.942 -0.5515  0.3460  0.5561
 5996SOL     OW29620   3.062   2.365   1.561 -1.2570 -0.2495 -0.2470
 5996SOL    HW129621   3.018   2.339   1.642  1.0416 -0.9509  0.7760
 5996SOL    HW229622   3.069   2.461   1.565 -1.9904 -0.2609  1.5589
 5997SOL     OW29623   2.413   2.611   3.497 -0.4698 -0.1384 -0.3585
 5997SOL    HW129624   2.364   2.577   3.422 -0.8549 -0.7777  0.1851
 5997SOL    HW229625   2.367   2.692   3.518 -1.2227 -0.0753 -2.2601
 5998SOL     OW29626   2.149   2.715  11.366 -0.0638  0.8670  0.3181
 5998SOL    HW129627   2.106   2.641  11.323  0.1284  1.0041 -0.1102
 5998SOL    HW229628   2.166   2.679  11.453  0.1838  0.6850  0.1925
 5999SOL     OW29629   0.478   4.015   7.451 -0.6124  0.3859 -0.3292
 5999SOL    HW129630   0.464   3.964   7.531 -1.9236  0.2955 -0.6078
 5999SOL    HW229631   0.560   4.056   7.479 -1.0189  1.4146 -0.6756
 6000SOL     OW29632   1.550   3.257  16.960 -0.2117  0.3165 -0.1483
 6000SOL    HW129633   1.539   3.178  16.907  1.2517 -0.9943  1.4779
 6000SOL    HW229634   1.576   3.212  17.041 -1.2338  0.7261  0.4085
 6001SOL     OW29635   1.427   2.658   7.081  0.5076 -0.0143 -0.6333
 6001SOL    HW129636   1.374   2.665   7.161 -1.9687 -1.7342 -2.1093
 6001SOL    HW229637   1.449   2.565   7.072  3.4329  0.5050  1.4364
 6002SOL     OW29638   4.139   3.179   3.286  0.4641  0.5092 -0.5168
 6002SOL    HW129639   4.224   3.217   3.308  0.4465  0.2320  0.0378
 6002SOL    HW229640   4.172   3.099   3.245  0.4956  2.1930 -3.7415
 6003SOL     OW29641   0.102   3.810   8.671 -0.1324 -0.6355 -0.2105
 6003SOL    HW129642   0.015   3.773   8.653  0.3911 -1.5259 -0.9698
 6003SOL    HW229643   0.129   3.829   8.581  0.0479 -0.6156 -0.1505
 6004SOL     OW29644   0.271   0.914  13.661 -0.3695  0.1847 -0.7219
 6004SOL    HW129645   0.234   0.999  13.637 -1.6341 -0.1532  0.0351
 6004SOL    HW229646   0.305   0.914  13.750 -0.9479 -1.0737 -0.5004
 6005SOL     OW29647   4.302   4.102   4.233 -0.1050  0.0953 -0.1236
 6005SOL    HW129648   4.213   4.128   4.209 -1.3419 -2.3078  1.9017
 6005SOL    HW229649   4.350   4.185   4.227 -1.2996  0.7455 -0.8850
 6006SOL     OW29650   0.413   1.729   9.623  0.1100 -0.2188  0.4876
 6006SOL    HW129651   0.349   1.793   9.592  1.6150  1.0563  0.0355
 6006SOL    HW229652   0.406   1.733   9.719  0.5767  2.1619  0.4092
 6007SOL     OW29653   2.740   0.321   9.815  0.1136 -0.5970 -0.4119
 6007SOL    HW129654   2.653   0.307   9.851  0.6475  1.7237  1.7998
 6007SOL    HW229655   2.765   0.229   9.827 -0.0414 -0.6523 -0.5102
 6008SOL     OW29656   2.618   0.927   9.127 -0.3879  0.1680 -0.0225
 6008SOL    HW129657   2.568   0.989   9.074  0.3406 -2.1416 -3.3445
 6008SOL    HW229658   2.601   0.849   9.074  2.7927 -1.2539  1.0414
 6009SOL     OW29659   0.517   3.139   8.026 -0.0656  0.1962  0.0077
 6009SOL    HW129660   0.479   3.079   7.961 -1.0663  0.7608  0.0705
 6009SOL    HW229661   0.443   3.176   8.073  0.1044  0.9098 -0.2885
 6010SOL     OW29662   3.132   3.411   0.149 -0.3520 -0.2222  0.3952
 6010SOL    HW129663   3.227   3.400   0.150 -0.4442 -1.2332 -1.3545
 6010SOL    HW229664   3.129   3.491   0.095 -1.6582  0.9960  2.2653
 6011SOL     OW29665   2.316   1.442   4.390  0.1126  0.1401  0.3973
 6011SOL    HW129666   2.410   1.429   4.402 -0.0773 -1.7612 -0.1261
 6011SOL    HW229667   2.296   1.363   4.340  1.9533 -0.3851  0.4891
 6012SOL     OW29668   1.934   1.169   9.633 -0.1845 -0.1341 -0.0430
 6012SOL    HW129669   1.885   1.136   9.557 -2.3640  1.6461  0.5720
 6012SOL    HW229670   2.019   1.181   9.591  0.7367 -1.3688  1.4739
 6013SOL     OW29671   2.894   4.569  16.938 -0.1108 -0.0847  0.3311
 6013SOL    HW129672   2.802   4.589  16.921 -0.3390 -0.4523  1.1651
 6013SOL    HW229673   2.893   4.474  16.948  0.3594 -0.0406  0.8172
 6014SOL     OW29674   3.488   4.559   3.583 -0.7955  0.4283  0.2603
 6014SOL    HW129675   3.452   4.480   3.544 -2.3738  1.5206 -0.5104
 6014SOL    HW229676   3.412   4.617   3.588 -0.5088  1.0120 -1.8211
 6015SOL     OW29677   3.599   1.545   0.519 -0.0365 -0.2448 -0.2811
 6015SOL    HW129678   3.514   1.506   0.536 -0.4130  0.3131 -0.8614
 6015SOL    HW229679   3.658   1.472   0.501 -0.7391 -0.4150 -1.9462
 6016SOL     OW29680   2.429   0.737   1.310 -0.3703 -0.1433  0.3126
 6016SOL    HW129681   2.471   0.651   1.316  0.6566  0.3057 -0.4328
 6016SOL    HW229682   2.493   0.797   1.348  0.8013  0.0307 -1.9291
 6017SOL     OW29683   1.126   0.391   7.128 -0.0092 -0.0914 -0.6375
 6017SOL    HW129684   1.111   0.418   7.037  1.6729 -0.2673 -0.9714
 6017SOL    HW229685   1.169   0.308   7.108  0.7989  0.5557 -1.6226
 6018SOL     OW29686   1.330   3.130   5.763  0.1515 -0.0645  0.1281
 6018SOL    HW129687   1.270   3.104   5.693 -1.3228  1.2241  0.9219
 6018SOL    HW229688   1.281   3.114   5.844  0.6236  2.7561  0.9744
 6019SOL     OW29689   0.324   0.106  16.914  0.4891  0.4579 -0.2797
 6019SOL    HW129690   0.243   0.147  16.883  0.2527  0.5036  0.3909
 6019SOL    HW229691   0.282   0.037  16.967 -1.1229  1.0003 -0.8363
 6020SOL     OW29692   4.029   0.393   3.459 -0.0781 -0.2777 -0.3228
 6020SOL    HW129693   3.936   0.409   3.445 -0.5730 -1.5487  1.5504
 6020SOL    HW229694   4.070   0.479   3.465  0.6198 -0.5980 -0.4769
 6021SOL     OW29695   2.134   0.253   5.868 -0.3844 -0.2656  0.3366
 6021SOL    HW129696   2.168   0.290   5.787 -1.0500 -0.1187  0.1207
 6021SOL    HW229697   2.171   0.314   5.932 -0.0956  1.1073 -1.1423
 6022SOL     OW29698   2.133   3.235   4.611 -0.0699 -0.2077  0.3701
 6022SOL    HW129699   2.214   3.184   4.618  2.0238  3.1020  0.3729
 6022SOL    HW229700   2.081   3.161   4.579 -1.8849  1.0689  0.3940
 6023SOL     OW29701   1.078   3.549  17.489  0.0789 -0.1719 -0.4127
 6023SOL    HW129702   1.060   3.505  17.405 -2.0576 -2.8184  1.4088
 6023SOL    HW229703   1.164   3.583  17.467 -1.6817  2.1967 -3.6359
 6024SOL     OW29704   2.129   1.801   3.331 -0.3145 -0.2124 -0.8838
 6024SOL    HW129705   2.135   1.722   3.384 -1.1747  0.3411  0.0612
 6024SOL    HW229706   2.039   1.827   3.355 -0.0447  1.1111 -1.2778
 6025SOL     OW29707   1.008   1.217   4.690  0.3936 -0.0331  0.2230
 6025SOL    HW129708   0.928   1.267   4.674  0.5727  0.3457  0.5285
 6025SOL    HW229709   1.041   1.262   4.767  0.5322 -0.2912  0.3135
 6026SOL     OW29710   0.944   2.989   0.910  0.0652  0.4580 -0.4914
 6026SOL    HW129711   1.032   2.982   0.872  0.2435  1.5545 -0.2906
 6026SOL    HW229712   0.926   2.895   0.918 -1.1280  0.8994  2.1488
 6027SOL     OW29713   0.255   3.693   4.685  0.1227 -0.3392  0.0722
 6027SOL    HW129714   0.222   3.611   4.724  0.9928 -0.5255  0.4067
 6027SOL    HW229715   0.250   3.662   4.594  1.5106 -1.4370  0.3698
 6028SOL     OW29716   0.640   0.445   1.068  0.1666  0.2548  0.0146
 6028SOL    HW129717   0.551   0.431   1.036  0.7751 -2.2495 -0.5906
 6028SOL    HW229718   0.683   0.368   1.031 -2.2152 -0.6336 -0.8777
 6029SOL     OW29719   0.590   2.471   0.665  0.0097  0.5715 -0.3660
 6029SOL    HW129720   0.682   2.492   0.681 -0.1193  1.5485 -0.8854
 6029SOL    HW229721   0.548   2.557   0.675 -2.1223 -0.5966  0.7130
 6030SOL     OW29722   0.463   0.393   2.021  0.2266 -0.0846  0.0853
 6030SOL    HW129723   0.394   0.454   1.994  0.3479  0.7504  1.6757
 6030SOL    HW229724   0.441   0.357   2.107 -2.4043 -1.6929 -1.2470
 6031SOL     OW29725   0.893   1.208   0.416 -0.1762  0.0928 -0.6465
 6031SOL    HW129726   0.928   1.297   0.407 -0.7634  0.2996 -0.9153
 6031SOL    HW229727   0.863   1.193   0.326  0.8995  0.3261 -1.0470
 6032SOL     OW29728   3.957   3.965   8.345  0.3331  0.2219  0.1280
 6032SOL    HW129729   3.922   4.016   8.417 -2.0293 -1.1192 -0.0838
 6032SOL    HW229730   4.036   3.933   8.389  1.7345  3.4304 -0.0517
 6033SOL     OW29731   2.942   3.845  12.075  0.3771 -0.0500 -0.7449
 6033SOL    HW129732   2.854   3.825  12.108  0.0462 -1.0706 -2.2303
 6033SOL    HW229733   2.973   3.918  12.128 -0.4359 -0.6028  0.4977
 6034SOL     OW29734   0.156   3.131   7.907  0.4166  0.0502 -0.2809
 6034SOL    HW129735   0.114   3.203   7.860  0.7830  0.1162 -0.5112
 6034SOL    HW229736   0.238   3.119   7.859  0.5003 -0.6582  0.0289
 6035SOL     OW29737   0.941   0.604   8.128 -0.0790  0.4697  0.3723
 6035SOL    HW129738   1.020   0.657   8.134  0.6903 -0.3882 -2.1960
 6035SOL    HW229739   0.881   0.669   8.163  0.6174  1.2860  0.0391
 6036SOL     OW29740   4.689   3.346   0.668  0.0875 -0.2407  0.0498
 6036SOL    HW129741   4.715   3.256   0.691  0.3197 -0.8431 -2.5932
 6036SOL    HW229742   4.595   3.341   0.682  0.2152  0.1069  1.0410
 6037SOL     OW29743   1.774   2.796   3.987 -0.1284 -0.0772 -0.0564
 6037SOL    HW129744   1.733   2.846   3.917  0.9066  0.0545 -0.5784
 6037SOL    HW229745   1.851   2.851   4.006 -1.2611  1.3457  0.3971
 6038SOL     OW29746   3.574   3.937   6.771  0.3787  0.0206 -0.0954
 6038SOL    HW129747   3.524   3.856   6.760  0.1210  0.0291  1.0591
 6038SOL    HW229748   3.618   3.926   6.687  1.2364 -1.3773  0.5351
 6039SOL     OW29749   4.279   1.073   6.098 -0.1381 -0.5706 -0.6661
 6039SOL    HW129750   4.257   1.078   6.005  2.1287 -0.8343 -1.2016
 6039SOL    HW229751   4.332   1.152   6.112 -1.3413  0.4233 -1.7214
 6040SOL     OW29752   2.692   0.181   8.396 -0.1734 -0.2517  0.4848
 6040SOL    HW129753   2.601   0.150   8.389  0.3382 -1.8556  0.9570
 6040SOL    HW229754   2.702   0.192   8.491 -2.7386 -1.6172  0.9404
 6041SOL     OW29755   4.732   0.714   2.424  0.3985  0.1423  0.2264
 6041SOL    HW129756   4.684   0.637   2.455  0.3522  0.4725  0.9806
 6041SOL    HW229757   4.659   0.774   2.412  1.5757  1.1927 -1.6565
 6042SOL     OW29758   2.553   0.862   4.272 -0.3237  0.0997  0.0095
 6042SOL    HW129759   2.612   0.841   4.344  0.9747  1.1564 -0.7517
 6042SOL    HW229760   2.560   0.957   4.269 -4.1067  0.3614 -0.1552
 6043SOL     OW29761   4.610   2.108  10.155  1.1927 -0.2283  0.3420
 6043SOL    HW129762   4.698   2.110  10.118  0.3959 -0.3760 -1.5600
 6043SOL    HW229763   4.563   2.169  10.098  2.4082  1.1069  0.7796
 6044SOL     OW29764   3.545   3.491   3.463  0.1142 -0.3080  0.1847
 6044SOL    HW129765   3.540   3.568   3.520  1.0290 -0.5340  0.5693
 6044SOL    HW229766   3.621   3.509   3.409  0.9891 -1.8241  0.9173
 6045SOL     OW29767   2.679   2.287  16.752  0.0792  0.1613  0.2311
 6045SOL    HW129768   2.585   2.305  16.745 -0.0484  0.5482  2.7807
 6045SOL    HW229769   2.664   2.197  16.779 -1.2021  0.1352 -0.5634
 6046SOL     OW29770   4.551   3.569   3.303  0.1851  0.2217  0.0165
 6046SOL    HW129771   4.547   3.490   3.358  0.8960 -0.9957 -1.7156
 6046SOL    HW229772   4.594   3.534   3.226 -0.1141 -0.2606  0.0681
 6047SOL     OW29773   4.690   2.276  15.242 -0.0671  0.1899 -0.1124
 6047SOL    HW129774   4.642   2.249  15.321 -0.6143  0.6796 -0.2791
 6047SOL    HW229775   4.688   2.369  15.266  1.1748  0.1849 -0.0121
 6048SOL     OW29776   4.641   0.443   5.546  0.0195  0.1954  0.6178
 6048SOL    HW129777   4.643   0.388   5.624  0.4443  0.9398  1.1398
 6048SOL    HW229778   4.708   0.507   5.573 -0.2983  0.1167  1.5705
 6049SOL     OW29779   4.730   2.813   7.851 -0.0301 -0.6901  0.8278
 6049SOL    HW129780   4.722   2.811   7.946  2.8338  1.9245  1.1219
 6049SOL    HW229781   4.681   2.736   7.822  1.7666 -1.8421  0.8768
 6050SOL     OW29782   2.664   0.864   4.539 -0.1396 -0.2336 -0.0145
 6050SOL    HW129783   2.632   0.800   4.602 -1.0715  0.7667  0.5392
 6050SOL    HW229784   2.638   0.940   4.591  0.7986 -0.5499  0.9156
 6051SOL     OW29785   0.986   3.142   7.634  0.1736 -0.4906 -0.3045
 6051SOL    HW129786   1.070   3.165   7.595  1.7193 -2.6047  1.7101
 6051SOL    HW229787   0.962   3.056   7.600 -1.9124 -0.5854  1.3968
 6052SOL     OW29788   2.819   3.068   7.813  0.0928  0.1370 -0.2657
 6052SOL    HW129789   2.850   2.978   7.801 -0.6090 -0.1759  0.2331
 6052SOL    HW229790   2.864   3.090   7.894 -2.0442  1.4946  0.5569
 6053SOL     OW29791   3.835   0.117   7.979  0.3217 -0.4844 -0.1246
 6053SOL    HW129792   3.757   0.171   7.990  0.7821  0.4130 -1.3138
 6053SOL    HW229793   3.803   0.033   7.945 -1.1877  0.3466 -0.7327
 6054SOL     OW29794   1.286   0.528   8.310 -0.0772  0.1211  0.1681
 6054SOL    HW129795   1.365   0.517   8.363  0.3424 -1.9586 -0.9192
 6054SOL    HW229796   1.265   0.439   8.284 -2.5086  0.6801  0.2276
 6055SOL     OW29797   0.815   3.637   0.808  0.1052  0.4020 -0.0377
 6055SOL    HW129798   0.832   3.584   0.730  1.2362  0.7270 -0.0257
 6055SOL    HW229799   0.849   3.723   0.782 -1.3498  1.0934  0.3857
 6056SOL     OW29800   0.253   1.832  15.861 -0.2043 -0.4004  0.4639
 6056SOL    HW129801   0.249   1.740  15.884 -2.8419 -1.0200 -2.4043
 6056SOL    HW229802   0.190   1.872  15.921 -0.7896  0.2217 -0.5637
 6057SOL     OW29803   1.647   3.459  14.589  0.1124  0.0041  0.4756
 6057SOL    HW129804   1.618   3.539  14.544 -0.8197 -0.1468  0.8218
 6057SOL    HW229805   1.741   3.473  14.599 -0.0702  1.0872  0.6817
 6058SOL     OW29806   1.053   0.457  10.541  0.1065 -0.4430  0.0456
 6058SOL    HW129807   1.095   0.541  10.556 -1.7176  0.4148  0.3467
 6058SOL    HW229808   0.979   0.472  10.600  0.0023 -0.0911 -0.1784
 6059SOL     OW29809   0.579   1.448  17.338 -0.1447  0.2011  0.3795
 6059SOL    HW129810   0.570   1.372  17.396 -2.3535 -1.5766 -2.3041
 6059SOL    HW229811   0.610   1.519  17.394  0.6402  0.5685 -0.5217
 6060SOL     OW29812   1.592   3.923   7.091 -0.1562  0.1261  0.4485
 6060SOL    HW129813   1.577   3.833   7.120 -2.7171  1.1408  2.3270
 6060SOL    HW229814   1.683   3.944   7.109  0.4779 -1.7018 -0.5916
 6061SOL     OW29815   4.668   4.288   8.645  0.9070  0.0554 -0.2387
 6061SOL    HW129816   4.598   4.224   8.656 -0.1050  1.3557  0.7151
 6061SOL    HW229817   4.671   4.305   8.550 -0.7889 -1.1664 -0.5082
 6062SOL     OW29818   0.241   3.243   8.882  0.1856  0.0100 -0.1675
 6062SOL    HW129819   0.314   3.284   8.836  1.5320  0.0653  2.0733
 6062SOL    HW229820   0.253   3.296   8.960 -0.6353  0.7509 -0.5363
 6063SOL     OW29821   3.368   4.580   7.242 -0.3762  0.3858  0.2657
 6063SOL    HW129822   3.367   4.489   7.213 -1.6333  0.3688  0.3445
 6063SOL    HW229823   3.279   4.581   7.279 -1.3734  2.5568 -2.1921
 6064SOL     OW29824   4.123   4.306  10.102  0.7374 -0.5430  0.3286
 6064SOL    HW129825   4.097   4.310  10.194  1.6232  1.0151  0.5090
 6064SOL    HW229826   4.100   4.218  10.073  0.1498 -0.0413 -0.7305
 6065SOL     OW29827   0.140   4.497   0.786 -0.4218 -0.4371  0.4585
 6065SOL    HW129828   0.177   4.416   0.823  0.3977 -0.8176 -1.2139
 6065SOL    HW229829   0.097   4.465   0.706  1.7856 -0.8337 -0.5668
 6066SOL     OW29830   0.547   0.600  11.843  0.4210 -0.1241 -0.4497
 6066SOL    HW129831   0.583   0.559  11.765  2.9204  0.8532  0.1807
 6066SOL    HW229832   0.625   0.612  11.897  0.0162  2.2682 -0.4235
 6067SOL     OW29833   1.166   1.737   2.945 -0.3058 -0.3663 -0.6183
 6067SOL    HW129834   1.198   1.782   2.867  0.4297  1.8209  0.9559
 6067SOL    HW229835   1.112   1.675   2.896 -0.6585 -1.0614  0.6421
 6068SOL     OW29836   1.471   3.525   9.278  0.4345 -0.0281 -0.0233
 6068SOL    HW129837   1.521   3.599   9.244 -0.6715  0.9267  0.4024
 6068SOL    HW229838   1.462   3.548   9.370 -1.6024 -1.8327  0.2437
 6069SOL     OW29839   1.326   2.079   5.786 -0.0771  0.1008  0.0423
 6069SOL    HW129840   1.255   2.057   5.726 -1.3847  2.0815  0.8912
 6069SOL    HW229841   1.305   2.164   5.825  1.9614  1.2366 -1.3170
 6070SOL     OW29842   2.531   1.125   4.265 -0.3903 -0.7518  0.4125
 6070SOL    HW129843   2.565   1.194   4.209  2.3424 -1.0043  1.7500
 6070SOL    HW229844   2.448   1.111   4.220  0.6564 -2.5285 -0.9698
 6071SOL     OW29845   0.697   1.913   5.335  0.0613 -0.8369 -0.0821
 6071SOL    HW129846   0.713   2.007   5.348 -1.2478 -0.4639 -1.1716
 6071SOL    HW229847   0.654   1.903   5.250  3.0738 -1.0374 -1.5926
 6072SOL     OW29848   1.194   0.709  10.867 -0.9210  0.8512  0.7259
 6072SOL    HW129849   1.175   0.626  10.911  0.1768 -0.8841 -2.0240
 6072SOL    HW229850   1.142   0.768  10.921 -3.0258 -0.3303 -0.0047
 6073SOL     OW29851   2.379   3.996   5.479  0.6716 -0.2832  0.8564
 6073SOL    HW129852   2.412   3.921   5.528  1.2351 -0.3282  0.4047
 6073SOL    HW229853   2.447   4.019   5.415 -1.5863 -1.6968 -2.0218
 6074SOL     OW29854   4.278   2.047   3.469 -0.0977 -0.3379  0.1973
 6074SOL    HW129855   4.190   2.085   3.461 -1.2524 -2.8298  0.8867
 6074SOL    HW229856   4.306   2.087   3.551  0.4559 -1.5849  0.6190
 6075SOL     OW29857   1.400   4.444   4.747  0.5173  0.1669  0.1811
 6075SOL    HW129858   1.447   4.491   4.678  1.4418  0.1501  0.8044
 6075SOL    HW229859   1.316   4.490   4.736 -0.0846 -0.4075  2.4252
 6076SOL     OW29860   1.192   4.049   5.076 -0.1084 -0.1564 -0.0804
 6076SOL    HW129861   1.160   3.959   5.075 -0.4205 -0.0232 -1.3667
 6076SOL    HW229862   1.285   4.028   5.081  0.6797  3.1049 -1.2157
 6077SOL     OW29863   0.330   0.602  11.539  0.2452  0.3718 -0.0625
 6077SOL    HW129864   0.275   0.665  11.586 -1.1143  0.8905 -2.3247
 6077SOL    HW229865   0.275   0.560  11.472  1.1172 -2.4254  0.9476
 6078SOL     OW29866   1.535   2.037   9.510 -0.0915 -0.0183 -0.0361
 6078SOL    HW129867   1.471   1.973   9.541  0.2409  0.8222  2.4124
 6078SOL    HW229868   1.498   2.123   9.531  0.1679  0.8864 -3.2363
 6079SOL     OW29869   0.060   2.337   2.877  0.2481 -0.5755 -0.0198
 6079SOL    HW129870   0.044   2.315   2.785 -0.5070  0.1845 -0.0647
 6079SOL    HW229871   0.079   2.430   2.876 -2.4683 -0.0547 -1.5960
 6080SOL     OW29872   4.342   4.461   2.255  0.1491 -0.2812 -0.1907
 6080SOL    HW129873   4.329   4.535   2.195 -2.2607  0.2031  0.9452
 6080SOL    HW229874   4.248   4.443   2.266 -0.0782  1.1652  0.2133
 6081SOL     OW29875   2.096   4.590   7.716 -1.1219  0.1360  0.2208
 6081SOL    HW129876   2.054   4.504   7.719 -2.1896  0.7023  1.8258
 6081SOL    HW229877   2.058   4.630   7.638  2.1550 -1.2210 -2.0086
 6082SOL     OW29878   4.520   0.761   0.522  0.1816  0.2794  0.1510
 6082SOL    HW129879   4.447   0.819   0.543  1.5100  1.1527  2.3624
 6082SOL    HW229880   4.473   0.704   0.461 -0.8938  0.2108  1.0381
 6083SOL     OW29881   0.308   2.332   2.533  0.1847 -1.0621  0.5679
 6083SOL    HW129882   0.354   2.311   2.614  2.0112 -0.1115 -0.2230
 6083SOL    HW229883   0.253   2.254   2.521 -2.2823  1.0508 -1.7719
 6084SOL     OW29884   4.310   1.200   7.528  0.1240 -0.5061  0.2646
 6084SOL    HW129885   4.296   1.270   7.592 -0.6142  2.0689 -2.7398
 6084SOL    HW229886   4.222   1.167   7.513 -0.8809  2.7265 -0.8159
 6085SOL     OW29887   3.270   1.016   3.262  0.4203  0.2946 -0.2046
 6085SOL    HW129888   3.319   1.034   3.342  1.7308 -1.0610 -0.6928
 6085SOL    HW229889   3.308   0.931   3.239  0.6817  0.5908 -0.8982
 6086SOL     OW29890   0.284   4.199   3.505  0.7348  0.0462  0.1581
 6086SOL    HW129891   0.205   4.201   3.450  0.6133 -0.6623  0.3108
 6086SOL    HW229892   0.312   4.290   3.517  0.2323 -0.0380  2.0917
 6087SOL     OW29893   0.452   0.662  11.181  0.1643  0.5887  0.2137
 6087SOL    HW129894   0.404   0.585  11.209 -0.2594 -0.4555 -3.3125
 6087SOL    HW229895   0.453   0.655  11.085 -0.1233  0.2932  0.2346
 6088SOL     OW29896   3.601   3.901   4.425 -0.1691 -0.3832  0.1427
 6088SOL    HW129897   3.581   3.814   4.390 -2.2698 -0.3496  1.2322
 6088SOL    HW229898   3.517   3.913   4.470 -0.7851 -1.2416 -0.7827
 6089SOL     OW29899   3.872   0.993  14.036  0.3366 -0.5622 -0.2560
 6089SOL    HW129900   3.905   0.939  14.107  0.5798  0.3593  0.3256
 6089SOL    HW229901   3.951   1.001  13.982 -0.4840  0.1886 -1.3540
 6090SOL     OW29902   4.352   3.642   4.131 -0.6301 -0.0986 -0.5072
 6090SOL    HW129903   4.375   3.731   4.106  2.3319 -0.5374  0.7077
 6090SOL    HW229904   4.378   3.595   4.052  1.5650  0.9977 -0.4341
 6091SOL     OW29905   1.258   3.348   6.684 -0.1321  1.1477 -0.0141
 6091SOL    HW129906   1.234   3.429   6.730 -0.5804  2.4249 -2.4742
 6091SOL    HW229907   1.209   3.275   6.722  0.5326  1.6973  1.8805
 6092SOL     OW29908   3.159   0.660   8.812  0.6482  0.2934 -0.3027
 6092SOL    HW129909   3.122   0.641   8.726  1.2682 -1.1177 -0.2592
 6092SOL    HW229910   3.238   0.606   8.802  0.9411  0.1683  2.7967
 6093SOL     OW29911   0.925   2.385  17.301 -0.6472 -0.1479 -0.3838
 6093SOL    HW129912   0.971   2.432  17.371  0.9098  1.0433 -2.1943
 6093SOL    HW229913   0.932   2.294  17.331 -2.2033  0.1733  0.9951
 6094SOL     OW29914   4.620   1.668   6.329  0.1907 -0.4012 -0.3327
 6094SOL    HW129915   4.667   1.585   6.327 -1.7642 -1.4950 -1.2841
 6094SOL    HW229916   4.528   1.640   6.333  0.0854 -0.1792 -1.2065
 6095SOL     OW29917   4.394   3.329   7.994  0.3328 -0.0877 -0.0055
 6095SOL    HW129918   4.330   3.379   8.045  1.0360  2.4393 -1.5863
 6095SOL    HW229919   4.463   3.396   7.994  0.3347 -0.0993  1.2549
 6096SOL     OW29920   0.207   0.955   4.416 -0.6323 -0.0268  0.0180
 6096SOL    HW129921   0.238   1.039   4.452  3.1165 -0.9952 -0.9786
 6096SOL    HW229922   0.275   0.919   4.359  1.3357 -0.1850  2.4474
 6097SOL     OW29923   2.206   3.153  12.193 -0.2137 -0.2820 -0.3646
 6097SOL    HW129924   2.184   3.246  12.192  1.6663  0.1702  0.6038
 6097SOL    HW229925   2.134   3.114  12.242 -0.0621 -1.4569 -1.0884
 6098SOL     OW29926   2.633   2.839   6.115 -0.4530 -0.2741 -0.4706
 6098SOL    HW129927   2.630   2.762   6.171  0.1748  0.3859  0.4858
 6098SOL    HW229928   2.696   2.899   6.157 -2.0498  1.5027 -0.5949
 6099SOL     OW29929   1.862   3.784   3.476 -0.3385  0.3162  0.1283
 6099SOL    HW129930   1.938   3.841   3.489 -1.1316  0.9256  2.1435
 6099SOL    HW229931   1.799   3.847   3.441  0.8591  0.3146 -1.9673
 6100SOL     OW29932   4.460   2.539   6.275  0.0921  0.3514 -0.4215
 6100SOL    HW129933   4.396   2.560   6.207 -2.2412 -0.1684  1.6002
 6100SOL    HW229934   4.525   2.607   6.255  0.4340 -0.0678 -0.7290
 6101SOL     OW29935   1.927   1.423   8.200  0.2850  0.2973  0.0431
 6101SOL    HW129936   1.885   1.501   8.164  0.6121 -0.4176 -1.8799
 6101SOL    HW229937   1.852   1.364   8.205  0.1088  0.5007 -0.1726
 6102SOL     OW29938   0.304   4.326   5.729  0.1868  0.0978  0.7168
 6102SOL    HW129939   0.389   4.301   5.693 -1.6774 -1.8004 -2.3728
 6102SOL    HW229940   0.286   4.245   5.778  2.8162 -0.0657  1.3701
 6103SOL     OW29941   2.797   2.762   4.013  0.1533 -0.2776 -0.5679
 6103SOL    HW129942   2.855   2.835   4.030 -0.0464 -0.3278  0.3194
 6103SOL    HW229943   2.793   2.724   4.101  1.2909  1.6856  0.3174
 6104SOL     OW29944   0.402   4.038   7.871 -0.8760 -0.7097  0.2717
 6104SOL    HW129945   0.347   4.048   7.949  0.1071 -1.9057  1.1188
 6104SOL    HW229946   0.482   4.086   7.893 -0.2827 -1.0925 -1.0736
 6105SOL     OW29947   2.052   3.830   0.627  0.1963  0.8693  0.7759
 6105SOL    HW129948   1.990   3.758   0.639  0.9386 -0.1094 -1.2374
 6105SOL    HW229949   2.138   3.796   0.649 -0.3201 -0.4042  0.8201
 6106SOL     OW29950   3.139   4.090  17.722  0.0633 -0.7667 -0.1784
 6106SOL    HW129951   3.235   4.087  17.724  0.0860  1.0539  1.0927
 6106SOL    HW229952   3.122   4.015  17.664  0.6588 -2.5711  1.9971
 6107SOL     OW29953   4.470   3.178   7.607  0.0456  0.6331  0.3588
 6107SOL    HW129954   4.549   3.132   7.633 -0.1619  0.2840  0.3818
 6107SOL    HW229955   4.492   3.270   7.617  1.0408  0.6183 -1.8753
 6108SOL     OW29956   3.427   3.814   5.158  0.8056 -0.0558 -0.0502
 6108SOL    HW129957   3.373   3.863   5.220  0.8150  0.2535 -0.2822
 6108SOL    HW229958   3.508   3.856   5.188  2.0020 -0.9346 -2.0514
 6109SOL     OW29959   3.257   3.268  13.228 -0.8244  0.0855  0.2126
 6109SOL    HW129960   3.204   3.300  13.155 -0.4475  0.9442  0.3094
 6109SOL    HW229961   3.347   3.298  13.215 -2.1051  2.5396 -2.9901
 6110SOL     OW29962   4.326   1.714   7.842 -0.3726  0.0986  0.0812
 6110SOL    HW129963   4.330   1.769   7.921 -1.3185 -1.0998  0.9762
 6110SOL    HW229964   4.262   1.650   7.873  1.2742 -1.9597 -0.8545
 6111SOL     OW29965   2.719   0.571   1.837 -0.1475  0.3157 -0.0211
 6111SOL    HW129966   2.808   0.543   1.818 -0.6139 -1.0000 -0.2543
 6111SOL    HW229967   2.696   0.604   1.750  3.0089 -2.3206 -1.8608
 6112SOL     OW29968   3.863   2.706   4.592 -0.1953  0.3183 -0.5821
 6112SOL    HW129969   3.928   2.655   4.640 -0.7651 -0.1485 -0.3056
 6112SOL    HW229970   3.791   2.709   4.655  0.4108  0.6171  0.0892
 6113SOL     OW29971   3.565   3.599   7.686  0.0207 -0.2547 -0.2490
 6113SOL    HW129972   3.473   3.580   7.667 -1.0900  4.0488  0.8134
 6113SOL    HW229973   3.604   3.553   7.612 -1.4608  0.2036 -1.3200
 6114SOL     OW29974   0.471   2.991   7.471 -0.0407  0.0198 -0.3858
 6114SOL    HW129975   0.497   2.929   7.539 -0.4061  0.0954 -0.1802
 6114SOL    HW229976   0.538   2.982   7.403 -1.1609  0.0185 -1.4992
 6115SOL     OW29977   2.698   0.952   8.451  0.0334  0.4232 -0.1051
 6115SOL    HW129978   2.689   0.895   8.374  1.7252  0.1679 -0.1142
 6115SOL    HW229979   2.764   1.019   8.436  1.7191 -1.7387 -2.2880
 6116SOL     OW29980   4.616   3.227   8.126 -0.4279 -0.1067 -0.2402
 6116SOL    HW129981   4.523   3.237   8.103 -0.9536 -0.1476  1.8603
 6116SOL    HW229982   4.636   3.149   8.074 -1.8345 -1.4892  1.2793
 6117SOL     OW29983   0.038   0.238   9.906 -0.1361  0.1233 -0.0989
 6117SOL    HW129984   0.053   0.332   9.915  1.5542 -0.2642  0.9195
 6117SOL    HW229985   4.679   0.245   9.885 -0.5550 -1.2262  1.3187
 6118SOL     OW29986   1.754   4.293   4.747 -0.2139 -0.1111  0.6334
 6118SOL    HW129987   1.688   4.270   4.682  2.1730 -2.9348 -0.7921
 6118SOL    HW229988   1.706   4.310   4.827  0.2805 -0.4889  1.0095
 6119SOL     OW29989   1.742   4.710   8.766 -0.0217 -0.2201  0.2130
 6119SOL    HW129990   1.837   4.703   8.773  0.1230  0.7553 -0.7396
 6119SOL    HW229991   1.728   0.023   8.848 -1.4587  1.7467 -1.1721
 6120SOL     OW29992   1.091   2.256  12.077  0.3690 -0.9159 -0.3480
 6120SOL    HW129993   1.050   2.300  12.002  1.1012  0.6554  0.1720
 6120SOL    HW229994   1.172   2.228  12.034  0.0338  1.7313 -2.7402
 6121SOL     OW29995   0.970   3.814   6.252 -0.4211  0.4004  0.6798
 6121SOL    HW129996   1.011   3.780   6.331  0.3517 -2.2498 -0.8683
 6121SOL    HW229997   1.044   3.830   6.194 -0.9736  0.1374 -0.0942
 6122SOL     OW29998   0.300   0.206   5.159 -0.0261  0.2092 -0.1947
 6122SOL    HW129999   0.220   0.170   5.122 -0.4022  1.0936 -0.2376
 6122SOL    HW230000   0.353   0.127   5.146 -2.0730 -0.9676 -1.3832
 6123SOL     OW30001   3.057   4.733   1.088  0.2008  0.2021 -0.1642
 6123SOL    HW130002   3.072   0.058   1.015 -2.0930 -0.4162 -1.1379
 6123SOL    HW230003   3.140   0.004   1.135  0.8392 -2.4856 -0.9734
 6124SOL     OW30004   0.397   4.355   9.153 -0.1240  0.0574 -0.0868
 6124SOL    HW130005   0.405   4.260   9.138 -0.2950 -0.4399  3.1255
 6124SOL    HW230006   0.357   4.393   9.075  3.2629  2.3225 -0.7401
 6125SOL     OW30007   2.809   3.644   4.114  0.0517 -0.3055  0.2092
 6125SOL    HW130008   2.866   3.628   4.040  0.6713  0.5882  0.4914
 6125SOL    HW230009   2.756   3.714   4.076 -0.1333  0.1920  1.3821
 6126SOL     OW30010   4.588   3.562  17.451  0.6896 -0.1915 -0.1581
 6126SOL    HW130011   4.534   3.522  17.383  0.1883  0.3037 -0.0488
 6126SOL    HW230012   4.613   3.643  17.406  0.0054  1.1206  1.8108
 6127SOL     OW30013   3.774   2.319   5.766  0.0952  0.4062 -0.2794
 6127SOL    HW130014   3.748   2.228   5.754  0.3829  0.1363  1.1978
 6127SOL    HW230015   3.698   2.374   5.746  1.1040  1.3038 -1.6662
 6128SOL     OW30016   3.942   4.651   1.820 -0.3105 -0.3400 -0.2793
 6128SOL    HW130017   3.928   4.566   1.864  0.1790 -1.1086 -1.6085
 6128SOL    HW230018   4.037   4.656   1.822 -0.4520  1.8031  0.2423
 6129SOL     OW30019   0.166   0.963   7.188 -0.3239  0.5478  0.3894
 6129SOL    HW130020   0.228   0.931   7.123 -1.9855 -0.9215 -0.4708
 6129SOL    HW230021   0.208   0.942   7.272 -1.0116 -1.0099  0.3420
 6130SOL     OW30022   2.610   3.211   8.061  0.0956 -0.4746 -0.1641
 6130SOL    HW130023   2.706   3.202   8.057  0.1592 -0.6390  1.8680
 6130SOL    HW230024   2.588   3.137   8.118 -0.0261  1.3879  2.2199
 6131SOL     OW30025   1.086   1.177   3.002 -0.0144 -0.0734 -0.4228
 6131SOL    HW130026   1.028   1.240   2.958  0.0455  0.5517  0.3958
 6131SOL    HW230027   1.078   1.107   2.937  2.1743  1.5543 -2.4735
 6132SOL     OW30028   0.102   3.997   3.935  0.2878 -0.1588  0.0020
 6132SOL    HW130029   0.152   4.021   3.857  0.6056 -0.5267  0.0909
 6132SOL    HW230030   0.013   3.992   3.899 -0.8956 -0.6808  2.9898
 6133SOL     OW30031   1.514   3.508   5.868 -0.5142  0.3039  0.3339
 6133SOL    HW130032   1.535   3.416   5.850 -1.2908  0.1190  0.3492
 6133SOL    HW230033   1.566   3.542   5.795  0.8635  1.0413  1.6580
 6134SOL     OW30034   4.417   3.241   7.297 -0.4674 -0.2812 -0.1307
 6134SOL    HW130035   4.488   3.204   7.245  0.7390  0.8992  0.6828
 6134SOL    HW230036   4.430   3.196   7.381  1.0694  2.0464  0.8799
 6135SOL     OW30037   3.968   3.321   7.494 -0.5412  0.1461  0.1254
 6135SOL    HW130038   4.030   3.315   7.420 -1.7416 -2.9749 -0.6088
 6135SOL    HW230039   3.986   3.239   7.538  1.6166  0.1033 -0.8240
 6136SOL     OW30040   0.879   4.413   4.953  0.5739  0.0204  0.2554
 6136SOL    HW130041   0.927   4.435   4.874 -1.0741  0.5488 -0.6070
 6136SOL    HW230042   0.788   4.417   4.922 -0.0419  0.3052  2.0746
 6137SOL     OW30043   3.023   0.616   0.717 -0.0909  0.1382 -0.4644
 6137SOL    HW130044   2.943   0.565   0.729  0.8929 -1.1569  0.6827
 6137SOL    HW230045   3.028   0.643   0.808  0.7333  0.6964 -0.6781
 6138SOL     OW30046   3.985   1.006  10.108 -0.5439  1.1467  0.1934
 6138SOL    HW130047   4.002   1.090  10.064 -0.6510  0.0270 -1.9671
 6138SOL    HW230048   3.898   1.024  10.143 -1.0921  0.4444 -0.8175
 6139SOL     OW30049   1.378   1.495   6.470 -0.1812  0.3721  0.3994
 6139SOL    HW130050   1.431   1.415   6.478 -2.0360 -0.8001  0.8898
 6139SOL    HW230051   1.369   1.513   6.564 -0.7626 -0.7423  0.5531
 6140SOL     OW30052   3.020   0.744   3.389 -0.2408 -0.2990  1.1703
 6140SOL    HW130053   3.052   0.829   3.419  1.0973 -0.9166  1.5097
 6140SOL    HW230054   2.941   0.732   3.442 -1.4508 -1.3663 -0.8692
 6141SOL     OW30055   1.709   1.911   4.132 -0.1611  0.0080  0.3937
 6141SOL    HW130056   1.695   1.927   4.038  1.5604  0.5224  0.2398
 6141SOL    HW230057   1.618   1.889   4.152 -0.4902  0.8563 -0.1526
 6142SOL     OW30058   0.070   2.287   4.427  0.1620 -0.3396 -0.7189
 6142SOL    HW130059   0.050   2.364   4.374 -1.7992  0.6669  1.4725
 6142SOL    HW230060   0.148   2.250   4.386  0.6445  0.5952 -0.6586
 6143SOL     OW30061   3.171   4.077  16.122 -0.4362 -0.2846 -0.2846
 6143SOL    HW130062   3.113   4.118  16.187 -0.1431 -1.5585  0.7669
 6143SOL    HW230063   3.175   4.152  16.063  1.6683  0.7061  1.1223
 6144SOL     OW30064   0.158   3.039   6.915  0.2482  0.0918  0.4265
 6144SOL    HW130065   0.165   2.997   6.829 -0.7065  1.7981 -0.4870
 6144SOL    HW230066   0.188   3.128   6.899 -0.3984  0.5285  1.6226
 6145SOL     OW30067   3.529   0.800   2.916  0.0095  0.2719  0.0248
 6145SOL    HW130068   3.483   0.770   2.837  2.7119 -0.1054 -1.4205
 6145SOL    HW230069   3.506   0.893   2.916  0.5150  0.3990  3.2001
 6146SOL     OW30070   4.633   2.593   7.714  0.5292  0.2887 -0.5279
 6146SOL    HW130071   4.694   2.631   7.651 -0.3569  0.8132 -1.0727
 6146SOL    HW230072   4.610   2.510   7.673  2.1496 -1.6392  2.4407
 6147SOL     OW30073   1.306   2.565   9.707 -0.5965 -0.1513  0.6953
 6147SOL    HW130074   1.308   2.660   9.698 -1.0771 -0.2149 -0.1428
 6147SOL    HW230075   1.401   2.554   9.701 -0.4492  0.8007  1.3407
 6148SOL     OW30076   2.530   4.255  15.616  0.9324 -0.0599  0.1632
 6148SOL    HW130077   2.485   4.326  15.662  0.0699 -0.0163 -0.7663
 6148SOL    HW230078   2.570   4.201  15.685  0.9781 -0.4704 -0.1882
 6149SOL     OW30079   1.533   1.113   5.092 -0.2419 -0.2170 -0.0130
 6149SOL    HW130080   1.493   1.027   5.104  0.8563 -0.5362  1.3459
 6149SOL    HW230081   1.609   1.088   5.144 -0.7776  0.5985  1.1767
 6150SOL     OW30082   1.251   3.170   7.491 -0.2390  0.5192  0.0770
 6150SOL    HW130083   1.233   3.109   7.419  2.4329 -0.2523  0.0539
 6150SOL    HW230084   1.211   3.248   7.453 -2.9265 -1.3051 -0.8500
 6151SOL     OW30085   2.541   2.111   4.608 -0.4826  0.5216  0.7778
 6151SOL    HW130086   2.507   2.035   4.561 -1.8469  0.3098  2.0881
 6151SOL    HW230087   2.634   2.107   4.586 -0.9563  0.4444 -1.2201
 6152SOL     OW30088   2.513   2.358   8.176 -0.1309 -0.0002  0.1112
 6152SOL    HW130089   2.531   2.285   8.116 -2.8012  1.1013 -2.0430
 6152SOL    HW230090   2.419   2.373   8.168  0.0916 -0.5951 -3.5539
 6153SOL     OW30091   3.142   0.399  12.490  0.1029  0.0570 -0.7887
 6153SOL    HW130092   3.106   0.399  12.579  1.3324  0.0874 -0.2962
 6153SOL    HW230093   3.076   0.350  12.441  1.6870 -1.7373 -1.1640
 6154SOL     OW30094   1.707   2.699   2.133  0.4163 -0.2044 -0.1655
 6154SOL    HW130095   1.642   2.753   2.088 -0.4408 -0.8424  0.2922
 6154SOL    HW230096   1.662   2.614   2.140  1.1734 -0.6121 -0.2762
 6155SOL     OW30097   4.593   0.285  13.056 -0.2628 -0.1300 -0.2834
 6155SOL    HW130098   4.624   0.206  13.099 -1.7038 -0.9783 -0.8046
 6155SOL    HW230099   4.609   0.349  13.126  1.1006  1.0242 -1.6239
 6156SOL     OW30100   4.025   3.303  11.712  0.3824 -0.4540  0.0791
 6156SOL    HW130101   3.981   3.219  11.697 -0.9387  0.2233  0.1195
 6156SOL    HW230102   3.954   3.352  11.670  1.6778  1.4316  0.1342
 6157SOL     OW30103   3.189   2.651   5.215  0.2606  0.0840 -0.0444
 6157SOL    HW130104   3.138   2.731   5.206  0.2578 -0.0669 -1.3756
 6157SOL    HW230105   3.125   2.590   5.253 -1.8343  1.4066 -1.4448
 6158SOL     OW30106   4.088   3.614   4.198  0.4113  0.0385  0.5285
 6158SOL    HW130107   4.075   3.564   4.117 -1.5238 -0.8163  1.3738
 6158SOL    HW230108   4.182   3.625   4.182  0.0677 -0.2461 -1.7254
 6159SOL     OW30109   3.127   0.303  11.653 -0.0227 -0.4402 -0.1733
 6159SOL    HW130110   3.047   0.324  11.605  2.1072  1.1267 -3.0890
 6159SOL    HW230111   3.171   0.386  11.634 -1.3209 -0.9804 -5.4627
 6160SOL     OW30112   4.237   1.330   6.699 -0.1838  0.1579  0.4643
 6160SOL    HW130113   4.294   1.404   6.721 -0.0967  0.2437 -0.0462
 6160SOL    HW230114   4.268   1.302   6.613  3.0856  2.0254  0.9955
 6161SOL     OW30115   3.605   2.148   8.279  0.3470  0.2540  0.1236
 6161SOL    HW130116   3.626   2.097   8.201 -0.2185  0.7929 -0.3679
 6161SOL    HW230117   3.568   2.229   8.246 -1.3117 -0.2222  0.8433
 6162SOL     OW30118   3.964   3.176   7.884 -0.0246  0.6006 -0.0641
 6162SOL    HW130119   3.980   3.107   7.820 -0.0773  0.3282  0.2180
 6162SOL    HW230120   4.051   3.176   7.924 -0.4551 -4.2566  0.8858
 6163SOL     OW30121   3.106   0.553   9.518  0.3853  0.6648 -0.1841
 6163SOL    HW130122   3.154   0.630   9.548  1.3262  0.1786 -0.4590
 6163SOL    HW230123   3.042   0.541   9.588 -0.5501 -0.1118 -1.1579
 6164SOL     OW30124   3.897   1.020   3.022  0.2594 -0.4849  0.6140
 6164SOL    HW130125   3.893   0.925   3.022  0.7959 -0.5052  0.3300
 6164SOL    HW230126   3.991   1.020   3.005  0.6574  3.6816  2.7965
 6165SOL     OW30127   3.428   3.270  15.213  0.1000  0.2482  0.5644
 6165SOL    HW130128   3.456   3.211  15.283 -1.2424  1.9014  2.4700
 6165SOL    HW230129   3.423   3.204  15.144 -0.0435 -0.0684  0.8749
 6166SOL     OW30130   1.051   4.595   1.734  0.4634 -0.1314 -0.0922
 6166SOL    HW130131   1.137   4.583   1.693  1.3905  0.4705  1.7073
 6166SOL    HW230132   0.986   4.617   1.667  0.6558 -1.7258 -0.8047
 6167SOL     OW30133   1.907   3.280  12.276 -0.5424  0.2985  0.2615
 6167SOL    HW130134   1.927   3.313  12.364 -2.7811 -0.3281  1.0099
 6167SOL    HW230135   1.937   3.191  12.293  1.0701  0.7639 -0.1205
 6168SOL     OW30136   2.653   1.339   0.016 -0.0855  0.3101 -0.0529
 6168SOL    HW130137   2.674   1.265   0.073  1.1888  0.5637 -0.1850
 6168SOL    HW230138   2.596   1.289  17.697 -0.7031 -0.7381  1.4486
 6169SOL     OW30139   3.548   3.572   0.277  0.0677  0.6790  0.5467
 6169SOL    HW130140   3.503   3.488   0.287 -0.4308  1.0256  1.1939
 6169SOL    HW230141   3.475   3.630   0.257  2.8989  3.1513 -2.6558
 6170SOL     OW30142   3.770   2.804   6.185 -0.0385  0.1475 -0.0089
 6170SOL    HW130143   3.856   2.806   6.143 -0.3702 -1.8348 -0.8116
 6170SOL    HW230144   3.725   2.861   6.123  1.2070  1.7511  0.5495
 6171SOL     OW30145   0.648   3.910   4.192  0.1003  0.7015 -0.2037
 6171SOL    HW130146   0.715   3.976   4.173  0.2205  0.9574  1.1480
 6171SOL    HW230147   0.672   3.848   4.123  1.4645  2.1226 -1.0141
 6172SOL     OW30148   0.700   2.780   7.866  0.5056  0.3378 -0.3648
 6172SOL    HW130149   0.613   2.767   7.903  0.6390 -0.3747 -0.3085
 6172SOL    HW230150   0.755   2.783   7.944 -0.0955  1.0441  0.0355
 6173SOL     OW30151   2.318   3.743   0.673  0.5740  0.3914 -0.5103
 6173SOL    HW130152   2.399   3.735   0.622  0.9249  0.8300 -0.0180
 6173SOL    HW230153   2.341   3.674   0.736  0.4621  2.4270  1.7846
 6174SOL     OW30154   2.607   0.586  15.345 -0.2819 -0.4266 -0.0772
 6174SOL    HW130155   2.655   0.606  15.265 -0.6454  1.1084  0.0907
 6174SOL    HW230156   2.644   0.502  15.374 -0.3295 -1.3137 -2.5352
 6175SOL     OW30157   1.890   3.658   2.025  0.1736  0.1732  0.2866
 6175SOL    HW130158   1.825   3.646   2.093 -1.4437 -1.7826 -1.6023
 6175SOL    HW230159   1.953   3.712   2.072  1.0522 -2.6534  2.3640
 6176SOL     OW30160   1.712   0.538  10.599 -0.2230 -0.6455  0.5527
 6176SOL    HW130161   1.618   0.550  10.592 -0.1595 -1.3632 -1.4603
 6176SOL    HW230162   1.747   0.627  10.605 -0.7091 -0.4703  0.8290
 6177SOL     OW30163   0.394   1.434   5.217 -0.5248 -0.7982 -0.0755
 6177SOL    HW130164   0.471   1.420   5.273 -1.0315  1.0327  1.0738
 6177SOL    HW230165   0.416   1.379   5.142  0.7491 -0.6379  0.1704
 6178SOL     OW30166   1.815   0.117  16.525  0.3820 -0.5258  0.1722
 6178SOL    HW130167   1.849   0.123  16.614 -2.6867  0.1064  1.3035
 6178SOL    HW230168   1.722   0.140  16.527  0.7909  1.1696 -0.6868
 6179SOL     OW30169   0.896   0.225   2.211  0.1914 -0.4570  0.2266
 6179SOL    HW130170   0.872   0.160   2.146 -1.7389  0.5383 -0.0505
 6179SOL    HW230171   0.811   0.236   2.254 -0.3105 -0.1818 -0.8473
 6180SOL     OW30172   2.144   0.431   2.456  0.3487 -0.2501  0.0910
 6180SOL    HW130173   2.150   0.487   2.378  1.0777 -0.4397  0.0044
 6180SOL    HW230174   2.069   0.469   2.501  0.4791 -0.3343  0.3764
 6181SOL     OW30175   3.607   0.594   4.565  0.0686 -0.0570  0.1979
 6181SOL    HW130176   3.606   0.677   4.613 -1.1775 -0.2049  0.4266
 6181SOL    HW230177   3.532   0.547   4.603 -0.4489 -1.0834 -2.1013
 6182SOL     OW30178   0.609   1.733   3.403  0.1713 -0.1967  0.1604
 6182SOL    HW130179   0.601   1.667   3.334  0.3544 -0.6056  0.5363
 6182SOL    HW230180   0.703   1.749   3.413  0.7126 -3.3334  0.0636
 6183SOL     OW30181   2.141   2.352  16.521  0.1462 -0.3717  0.1551
 6183SOL    HW130182   2.075   2.370  16.588  0.6094  2.1657 -0.0914
 6183SOL    HW230183   2.151   2.257  16.525 -0.9273 -0.4601  0.7894
 6184SOL     OW30184   2.275   3.597  14.231 -0.4662 -0.0794 -0.5585
 6184SOL    HW130185   2.353   3.573  14.181 -1.7448  1.2550 -3.2156
 6184SOL    HW230186   2.249   3.512  14.266 -0.5482  0.5455  0.8761
 6185SOL     OW30187   0.038   1.505   9.911  0.1797 -0.4266  0.4056
 6185SOL    HW130188   4.701   1.443   9.920  0.0193 -0.4607 -1.0703
 6185SOL    HW230189   0.106   1.438   9.903  0.9867  0.8472 -3.3263
 6186SOL     OW30190   1.767   0.104   8.252  0.6551 -0.3144 -0.0469
 6186SOL    HW130191   1.764   0.179   8.193 -1.3821 -1.2061 -1.0898
 6186SOL    HW230192   1.735   0.132   8.338 -0.7235  0.2632 -0.7516
 6187SOL     OW30193   1.890   2.950   3.704  0.2011 -0.7648  0.1581
 6187SOL    HW130194   1.896   2.953   3.609  1.5860 -1.0873  0.2372
 6187SOL    HW230195   1.799   2.936   3.732  0.5693 -0.2558  1.6056
 6188SOL     OW30196   1.557   0.635   4.895 -0.7992  0.0255  0.1824
 6188SOL    HW130197   1.631   0.680   4.936 -0.2618  1.9270 -2.8692
 6188SOL    HW230198   1.553   0.562   4.956  1.2964 -1.4824 -1.4869
 6189SOL     OW30199   0.547   0.377   4.262  0.3493 -0.1426 -0.6647
 6189SOL    HW130200   0.549   0.419   4.349  1.3298 -1.1223 -0.2167
 6189SOL    HW230201   0.607   0.441   4.225  0.7764 -1.0358 -1.5039
 6190SOL     OW30202   1.533   0.317  16.785  0.6068  0.1218 -0.1363
 6190SOL    HW130203   1.611   0.350  16.742  0.6571  0.3675  0.1417
 6190SOL    HW230204   1.551   0.227  16.811  2.0856  0.5555  0.3125
 6191SOL     OW30205   3.710   1.854   4.405 -0.3911 -0.3531 -0.0774
 6191SOL    HW130206   3.633   1.805   4.434 -1.3034  0.2072 -1.5257
 6191SOL    HW230207   3.768   1.786   4.371 -2.8883 -2.8313  0.6405
 6192SOL     OW30208   4.069   0.659  15.755 -0.2834 -0.1270  0.3408
 6192SOL    HW130209   4.074   0.626  15.665 -1.7414 -2.2140  1.0048
 6192SOL    HW230210   4.158   0.692  15.761 -0.9758  2.0360 -1.4903
 6193SOL     OW30211   3.824   3.153   6.448 -0.5523 -0.2165 -0.6296
 6193SOL    HW130212   3.904   3.108   6.419 -0.5405 -0.7779  0.2594
 6193SOL    HW230213   3.829   3.244   6.422 -0.3565 -0.1425 -0.3372
 6194SOL     OW30214   0.240   1.915   5.441 -0.0772  0.1522  0.1538
 6194SOL    HW130215   0.238   1.830   5.397  1.2943  0.5524 -0.6970
 6194SOL    HW230216   0.300   1.884   5.509 -1.3347  0.4971  1.3968
 6195SOL     OW30217   2.174   2.390   6.788 -0.3026 -0.0177 -0.3240
 6195SOL    HW130218   2.159   2.449   6.713  1.2926 -1.3972 -1.7113
 6195SOL    HW230219   2.185   2.456   6.857  0.7911 -1.5927  0.9900
 6196SOL     OW30220   3.936   3.613   5.956 -0.1139  0.0145 -0.9494
 6196SOL    HW130221   3.892   3.602   5.872  0.1808  0.9640 -1.2266
 6196SOL    HW230222   3.876   3.567   6.015  1.7512 -1.0772  0.0860
 6197SOL     OW30223   0.529   2.750  11.865 -0.0035  0.1422 -0.6626
 6197SOL    HW130224   0.434   2.759  11.880 -0.3969 -1.5294 -2.2115
 6197SOL    HW230225   0.544   2.712  11.778 -1.0353 -1.2363 -0.2427
 6198SOL     OW30226   3.835   0.577   4.826 -0.6293  0.0312  0.4933
 6198SOL    HW130227   3.918   0.549   4.863  0.4632  1.9229 -0.5505
 6198SOL    HW230228   3.807   0.493   4.790 -1.7779  0.5926  0.0781
 6199SOL     OW30229   0.408   0.543   5.586 -0.3088 -0.0021  0.1486
 6199SOL    HW130230   0.353   0.491   5.645  0.9304  0.5534  1.7950
 6199SOL    HW230231   0.454   0.606   5.641  1.3148  1.6679 -3.1466
 6200SOL     OW30232   0.938   2.123   5.829  0.0678  0.3350 -0.4247
 6200SOL    HW130233   0.855   2.092   5.865  0.1729 -1.3394 -1.6309
 6200SOL    HW230234   0.951   2.090   5.740 -0.5511 -0.1596 -0.3294
 6201SOL     OW30235   2.923   4.674   2.514 -0.0290 -0.4187  0.1694
 6201SOL    HW130236   2.937   0.016   2.569 -0.0935 -1.8711  2.1881
 6201SOL    HW230237   2.998   4.677   2.455 -0.4287 -2.5585 -0.4366
 6202SOL     OW30238   1.339   2.843   4.010  0.4701  0.2797 -0.2451
 6202SOL    HW130239   1.385   2.916   3.968 -0.3962  1.6068  1.1049
 6202SOL    HW230240   1.370   2.780   3.945  1.7069 -0.9622  1.5300
 6203SOL     OW30241   2.195   0.585   3.144  0.4917 -0.1558 -0.5615
 6203SOL    HW130242   2.164   0.671   3.172  0.7026  0.3947 -2.0010
 6203SOL    HW230243   2.285   0.600   3.171 -0.0845  3.7702 -0.8077
 6204SOL     OW30244   4.634   0.272   7.495 -0.0120 -0.2845  0.4331
 6204SOL    HW130245   4.564   0.219   7.534 -0.6299  2.0519  2.4567
 6204SOL    HW230246   4.698   0.208   7.465  0.4702 -0.6781  2.3064
 6205SOL     OW30247   3.446   2.968   6.647 -0.1765 -0.7345 -0.4149
 6205SOL    HW130248   3.459   2.876   6.621  3.0387 -0.5019  0.2771
 6205SOL    HW230249   3.457   3.010   6.562  1.4990  2.1563  1.2454
 6206SOL     OW30250   2.360   1.007  10.326 -0.5718  0.0194  0.0170
 6206SOL    HW130251   2.436   0.957  10.356 -0.2357  0.2524 -0.4460
 6206SOL    HW230252   2.388   1.098  10.336 -0.2643 -0.1976  1.1451
 6207SOL     OW30253   4.699   1.832   6.814 -0.8397  0.2445 -0.5243
 6207SOL    HW130254   4.708   1.922   6.785 -0.3100  0.1724 -0.5738
 6207SOL    HW230255   4.613   1.841   6.855  0.3129 -1.0077  2.1901
 6208SOL     OW30256   1.891   3.863   1.149  0.3637  0.2890 -0.5656
 6208SOL    HW130257   1.826   3.792   1.150 -1.6347  2.1474 -0.4740
 6208SOL    HW230258   1.967   3.813   1.120  0.3866  0.9093 -1.5766
 6209SOL     OW30259   2.721   4.109   4.387 -1.2474 -0.8057  0.3840
 6209SOL    HW130260   2.764   4.063   4.316 -2.8876 -3.7102  1.2610
 6209SOL    HW230261   2.774   4.185   4.412 -0.2880 -1.1592 -0.6116
 6210SOL     OW30262   2.023   3.492   6.345  0.2726  0.8832 -0.1062
 6210SOL    HW130263   2.009   3.584   6.368  0.1201  1.0535 -0.8798
 6210SOL    HW230264   1.932   3.463   6.358  0.1077  0.4535 -2.3557
 6211SOL     OW30265   0.200   4.216  17.193 -0.5674 -0.2184 -0.0583
 6211SOL    HW130266   0.225   4.129  17.224 -0.0389 -0.0252  0.0616
 6211SOL    HW230267   0.285   4.259  17.181  0.2510 -1.4904  1.2344
 6212SOL     OW30268   1.370   0.058  17.395 -0.4254  0.3608  0.1433
 6212SOL    HW130269   1.319   0.132  17.361 -0.4545 -1.0871 -3.0213
 6212SOL    HW230270   1.433   0.033  17.327 -0.7796 -2.2860  0.7940
 6213SOL     OW30271   2.846   1.888   9.503 -0.0976  0.0584  0.0230
 6213SOL    HW130272   2.870   1.828   9.573  1.2036 -0.9394 -1.2724
 6213SOL    HW230273   2.834   1.970   9.551  1.7519 -0.4685  1.3987
 6214SOL     OW30274   2.249   3.612   2.227  0.1885  0.8374  0.2226
 6214SOL    HW130275   2.325   3.557   2.214  0.8257  1.4374  1.3407
 6214SOL    HW230276   2.276   3.665   2.302 -0.9505 -0.8222  1.8230
 6215SOL     OW30277   4.311   4.382   8.127  0.0917 -0.3150 -0.6653
 6215SOL    HW130278   4.340   4.295   8.156  4.9367  0.7922 -2.1931
 6215SOL    HW230279   4.220   4.368   8.102  0.2498 -1.9984 -0.3004
 6216SOL     OW30280   3.996   1.910   3.263  0.0142 -0.0141  0.2724
 6216SOL    HW130281   4.033   1.831   3.303 -1.7717 -1.3054 -0.6301
 6216SOL    HW230282   4.000   1.965   3.342 -2.3074  0.4838  0.0529
 6217SOL     OW30283   0.003   2.284  17.174 -0.1966  0.6050  0.3585
 6217SOL    HW130284   4.653   2.305  17.135 -0.1141 -0.8937 -0.6467
 6217SOL    HW230285   0.003   2.188  17.175  1.9987  0.6232  2.0453
 6218SOL     OW30286   1.175   4.484   3.285 -0.2634 -0.2629  0.2507
 6218SOL    HW130287   1.175   4.531   3.202  2.1065 -2.1064 -0.7729
 6218SOL    HW230288   1.136   4.553   3.340  0.5251 -0.7984  1.4844
 6219SOL     OW30289   2.335   3.225  15.266 -0.0554 -0.4088 -0.1132
 6219SOL    HW130290   2.358   3.196  15.178 -0.5605  0.1305 -0.4132
 6219SOL    HW230291   2.311   3.315  15.247  0.1123  0.0824  1.9434
 6220SOL     OW30292   3.863   1.529   3.024 -0.4098  0.3833  0.3273
 6220SOL    HW130293   3.944   1.580   3.027 -0.6587  0.8935 -1.5819
 6220SOL    HW230294   3.853   1.498   2.934  0.0969 -0.3724  0.5286
 6221SOL     OW30295   3.000   3.795   5.543  0.7113 -0.0458  0.1695
 6221SOL    HW130296   2.930   3.780   5.479 -1.1709  0.1476  2.1998
 6221SOL    HW230297   3.073   3.746   5.505  0.3360 -1.3818  1.1875
 6222SOL     OW30298   0.856   0.502   2.132 -0.2757 -0.3237  0.5875
 6222SOL    HW130299   0.801   0.516   2.208 -1.6429 -1.0263 -0.2711
 6222SOL    HW230300   0.870   0.407   2.136  3.7710  0.1580 -1.8717
 6223SOL     OW30301   3.711   0.465   8.347  0.0538 -0.5737  0.1429
 6223SOL    HW130302   3.680   0.383   8.386  3.5184 -2.1169 -0.4155
 6223SOL    HW230303   3.797   0.439   8.313 -0.7537  0.0464 -2.3922
 6224SOL     OW30304   1.467   4.110   7.504  0.1123  0.3865 -0.1653
 6224SOL    HW130305   1.431   4.089   7.418  0.8274 -0.8132 -0.1820
 6224SOL    HW230306   1.485   4.203   7.510  0.5938  0.3619 -1.1299
 6225SOL     OW30307   4.235   4.082   4.989 -0.7320  0.4100 -0.1454
 6225SOL    HW130308   4.301   4.149   4.970 -2.0185  1.6954 -0.1523
 6225SOL    HW230309   4.263   4.001   4.948  2.6613  1.6736 -0.3101
 6226SOL     OW30310   1.459   3.154  17.227  0.1763  0.1571 -0.2442
 6226SOL    HW130311   1.554   3.151  17.238  0.2191  2.0444 -0.1344
 6226SOL    HW230312   1.431   3.068  17.260 -0.0132 -0.6433 -2.5087
 6227SOL     OW30313   1.442   2.374   4.916  0.1157  0.7434  0.2711
 6227SOL    HW130314   1.490   2.314   4.973  0.6635 -0.1068 -1.0798
 6227SOL    HW230315   1.486   2.455   4.943  0.9373 -0.2477  1.9438
 6228SOL     OW30316   0.382   4.053   4.967 -0.2589 -0.3680 -0.1084
 6228SOL    HW130317   0.399   3.992   4.896 -1.2617 -2.3907  1.4073
 6228SOL    HW230318   0.305   4.097   4.931  0.4569 -0.9633 -2.3807
 6229SOL     OW30319   2.117   2.311  14.826  0.2857  0.5041  0.4076
 6229SOL    HW130320   2.058   2.244  14.859  0.5836  0.9714  1.8878
 6229SOL    HW230321   2.047   2.376  14.822 -0.0805  0.0597 -0.2250
 6230SOL     OW30322   2.051   1.861   2.790 -0.2699  0.0742  0.3669
 6230SOL    HW130323   2.094   1.892   2.869 -0.1824 -1.1308  0.7889
 6230SOL    HW230324   1.997   1.937   2.769  0.8813  0.6524 -0.4758
 6231SOL     OW30325   1.371   0.378   3.042  0.0132 -0.7445  0.4097
 6231SOL    HW130326   1.410   0.425   3.115 -0.0028 -0.8660  0.4978
 6231SOL    HW230327   1.278   0.378   3.066  0.6023 -0.1376  2.6500
 6232SOL     OW30328   0.237   3.791   8.109 -0.4087 -0.3629 -1.1758
 6232SOL    HW130329   0.305   3.732   8.077  0.4111  0.7353 -1.4568
 6232SOL    HW230330   0.240   3.868   8.052 -1.6671  0.7013  0.1742
 6233SOL     OW30331   2.355   3.085   7.396 -0.5847 -0.1300 -0.2334
 6233SOL    HW130332   2.282   3.034   7.432 -0.1779 -0.1475  0.5584
 6233SOL    HW230333   2.422   3.021   7.418  0.7848  0.9100 -1.4153
 6234SOL     OW30334   0.833   3.553   1.083 -0.4114 -0.4972 -0.0892
 6234SOL    HW130335   0.928   3.543   1.081 -0.4896 -1.1315 -0.6875
 6234SOL    HW230336   0.837   3.625   1.019  2.3548 -0.0808  0.5566
 6235SOL     OW30337   1.292   0.927  10.592  0.0237 -0.8319 -0.0982
 6235SOL    HW130338   1.265   1.002  10.539  1.0021  0.0205  0.5906
 6235SOL    HW230339   1.377   0.966  10.615 -0.7008 -0.6686  2.3367
 6236SOL     OW30340   1.211   2.165  15.934  0.0820 -0.2249 -0.3573
 6236SOL    HW130341   1.298   2.168  15.894 -0.6329  1.1378 -1.7881
 6236SOL    HW230342   1.236   2.201  16.019 -2.2658  1.4375 -0.3616
 6237SOL     OW30343   0.412   0.548   2.449  0.5897 -0.4492  0.1170
 6237SOL    HW130344   0.462   0.619   2.409 -0.1804 -0.2156 -0.4341
 6237SOL    HW230345   0.342   0.550   2.384 -1.3143 -3.2545  2.0734
 6238SOL     OW30346   3.306   4.350   5.448  0.0926  0.6340 -0.4628
 6238SOL    HW130347   3.333   4.294   5.520 -0.6123  0.8595 -0.0238
 6238SOL    HW230348   3.386   4.355   5.395  0.2619 -2.6415 -0.5054
 6239SOL     OW30349   2.121   1.354   7.244  0.3314 -0.0281  0.0176
 6239SOL    HW130350   2.163   1.436   7.218  0.7799  0.8126  3.4166
 6239SOL    HW230351   2.032   1.371   7.212  0.0118  3.0052  2.5127
 6240SOL     OW30352   3.442   3.920   3.003 -0.4349 -0.7313 -0.2826
 6240SOL    HW130353   3.463   3.984   2.935 -2.4687  0.9185  0.6325
 6240SOL    HW230354   3.360   3.950   3.042  0.3499 -0.9424  1.5256
 6241SOL     OW30355   3.727   4.618   7.860 -0.0832  0.2348  0.2011
 6241SOL    HW130356   3.639   4.582   7.872  0.4238 -1.2862 -0.6322
 6241SOL    HW230357   3.771   4.543   7.899  0.6201  1.2203  1.2864
 6242SOL     OW30358   3.909   3.118  17.056 -0.2326  0.1788  0.0428
 6242SOL    HW130359   3.953   3.117  17.141 -0.1363  1.4604 -0.0048
 6242SOL    HW230360   3.952   3.048  17.006  0.3374  1.3586 -1.1046
 6243SOL     OW30361   2.891   1.719  14.749 -0.2716  0.3402 -0.4188
 6243SOL    HW130362   2.826   1.788  14.737  1.3772  2.0537  0.5521
 6243SOL    HW230363   2.925   1.742  14.835  0.9330 -0.1915 -0.7516
 6244SOL     OW30364   3.285   1.063  14.188 -0.5122  0.3936  0.6057
 6244SOL    HW130365   3.218   1.057  14.119 -1.9862  0.5883  2.0220
 6244SOL    HW230366   3.363   1.042  14.137 -1.4732 -1.6424 -0.0383
 6245SOL     OW30367   2.793   1.089   9.514  0.3098  0.1712  0.2281
 6245SOL    HW130368   2.776   0.994   9.509 -1.5636  0.6169 -1.7129
 6245SOL    HW230369   2.797   1.122   9.424  0.4363  2.2062  0.9891
 6246SOL     OW30370   2.548   0.899  11.373  0.3806 -0.0762  0.4676
 6246SOL    HW130371   2.525   0.941  11.456  0.0709  1.7197 -0.5152
 6246SOL    HW230372   2.634   0.867  11.401  0.5937  0.0563 -0.0296
 6247SOL     OW30373   1.242   1.504   5.429 -0.1046  0.7121  1.1037
 6247SOL    HW130374   1.158   1.460   5.441  0.6757 -0.5821  1.7959
 6247SOL    HW230375   1.232   1.569   5.499 -0.8750  0.8833  0.8387
 6248SOL     OW30376   0.937   1.813   7.532 -0.1010 -0.6596  0.3197
 6248SOL    HW130377   1.008   1.873   7.553 -0.1804 -0.4195 -0.0949
 6248SOL    HW230378   0.987   1.746   7.486  2.2260  0.5926  1.0476
 6249SOL     OW30379   3.021   2.588   6.475 -0.2526 -0.0858  0.1121
 6249SOL    HW130380   3.007   2.657   6.410  0.4916  1.0209  1.1302
 6249SOL    HW230381   2.981   2.620   6.556 -2.4391 -0.7091 -0.7148
 6250SOL     OW30382   3.408   1.405  15.824  0.3308  0.2113 -0.0852
 6250SOL    HW130383   3.405   1.485  15.771  0.5696  0.3972  0.1826
 6250SOL    HW230384   3.374   1.445  15.904  1.1058  0.1847  0.2478
 6251SOL     OW30385   4.013   1.839   2.630 -0.5246  0.4253  0.2201
 6251SOL    HW130386   4.064   1.800   2.701  0.3089  0.9617 -0.0815
 6251SOL    HW230387   4.015   1.930   2.658 -2.7180  0.8307 -0.9045
 6252SOL     OW30388   0.487   0.217  17.079  0.7668  0.2710 -0.0735
 6252SOL    HW130389   0.462   0.309  17.069  0.3355  0.1102 -0.4835
 6252SOL    HW230390   0.425   0.174  17.020 -0.5957  0.7695  0.9740
 6253SOL     OW30391   1.350   0.428   5.835  0.2341 -0.5858 -0.6203
 6253SOL    HW130392   1.385   0.429   5.746  1.0754 -1.0571 -0.2943
 6253SOL    HW230393   1.431   0.429   5.886  0.1256 -1.6127 -0.4409
 6254SOL     OW30394   2.568   1.405   4.789  0.2681  0.2070 -0.3181
 6254SOL    HW130395   2.530   1.404   4.876  1.2232 -3.1772  0.0444
 6254SOL    HW230396   2.659   1.418   4.814 -0.2379  0.8422  1.1610
 6255SOL     OW30397   2.598   3.606   3.028 -0.0024 -0.3876  0.7379
 6255SOL    HW130398   2.685   3.578   2.999  0.1513  0.2731  0.5472
 6255SOL    HW230399   2.552   3.523   3.021 -0.1721 -0.1232 -1.3271
 6256SOL     OW30400   4.475   3.996   6.386  0.4741 -0.2457  0.5855
 6256SOL    HW130401   4.380   3.987   6.381  0.5361 -0.9598  0.7602
 6256SOL    HW230402   4.472   4.042   6.470 -0.8602 -0.1980  0.5047
 6257SOL     OW30403   3.868   3.852   7.612  0.0639  0.6424 -0.0515
 6257SOL    HW130404   3.806   3.832   7.542 -0.2315  1.0677  0.0856
 6257SOL    HW230405   3.895   3.767   7.646 -1.3811  0.1820 -0.0576
 6258SOL     OW30406   0.819   2.646   7.146 -0.1494 -0.5386  0.8732
 6258SOL    HW130407   0.826   2.557   7.110  1.6119  0.4354 -1.1711
 6258SOL    HW230408   0.764   2.633   7.224 -1.5146 -0.1633 -0.0221
 6259SOL     OW30409   3.012   2.938  12.085  0.3207  0.0225  0.3188
 6259SOL    HW130410   3.066   2.863  12.059 -0.7061 -0.0756 -1.5763
 6259SOL    HW230411   2.951   2.883  12.135 -2.2085  1.3493 -1.2831
 6260SOL     OW30412   0.953   3.612  11.125 -0.2756 -0.6160  0.1389
 6260SOL    HW130413   0.929   3.552  11.195 -0.9668 -1.6932 -1.0245
 6260SOL    HW230414   0.868   3.634  11.089  0.7995  1.4996 -1.1158
 6261SOL     OW30415   3.335   0.419   8.738  0.1655  0.0997 -0.5733
 6261SOL    HW130416   3.388   0.415   8.659  1.1649  0.2007  0.0948
 6261SOL    HW230417   3.249   0.444   8.703 -0.2518  0.6816  0.8374
 6262SOL     OW30418   2.844   0.037   8.238  0.7401 -0.4543 -0.4626
 6262SOL    HW130419   2.774   0.074   8.292  2.0612  0.1771  0.8211
 6262SOL    HW230420   2.905   0.111   8.245  1.9690 -1.3414 -1.8083
 6263SOL     OW30421   2.424   3.408   3.612  0.2204  0.4692  0.1101
 6263SOL    HW130422   2.424   3.500   3.587  1.1899 -0.0703 -1.8991
 6263SOL    HW230423   2.440   3.362   3.530 -0.6444 -0.9750  0.7437
 6264SOL     OW30424   1.418   3.286   3.605 -0.3615  0.4412 -0.6492
 6264SOL    HW130425   1.359   3.301   3.679  0.0704 -1.1597  0.0314
 6264SOL    HW230426   1.387   3.360   3.554  0.8342 -0.4772 -2.7154
 6265SOL     OW30427   2.782   2.831  14.339 -0.3345 -0.0869  0.3318
 6265SOL    HW130428   2.811   2.848  14.249 -2.1461 -0.9075 -0.4179
 6265SOL    HW230429   2.740   2.746  14.327 -0.5141  0.2907 -1.7650
 6266SOL     OW30430   1.258   3.350  17.186 -0.2571 -0.4704  0.1264
 6266SOL    HW130431   1.323   3.280  17.192  1.0277  0.8264  1.2202
 6266SOL    HW230432   1.304   3.417  17.135 -1.2114 -0.5915 -0.9040
 6267SOL     OW30433   1.137   0.313  10.110  0.3357 -0.1737 -0.2097
 6267SOL    HW130434   1.067   0.316  10.176  1.1545  0.2763  0.6294
 6267SOL    HW230435   1.119   0.395  10.064  2.8212  0.9800  0.8661
 6268SOL     OW30436   1.186   0.130   2.914 -0.3840 -0.1686 -0.3785
 6268SOL    HW130437   1.100   0.170   2.930 -2.0515 -3.9801  0.2067
 6268SOL    HW230438   1.212   0.172   2.832 -2.1988  0.1389 -0.7930
 6269SOL     OW30439   3.262   1.814  14.828  0.6988 -0.1466 -0.2076
 6269SOL    HW130440   3.187   1.771  14.870 -0.3241  0.5397 -1.3712
 6269SOL    HW230441   3.333   1.767  14.873  1.6374  0.8438 -0.6593
 6270SOL     OW30442   0.796   0.737   1.967  0.3989  0.4057 -0.2853
 6270SOL    HW130443   0.868   0.752   1.906  1.1963  1.8482  1.0359
 6270SOL    HW230444   0.831   0.708   2.051 -0.0899  0.6962  0.0213
 6271SOL     OW30445   4.564   4.530   2.020  0.3576  0.2143 -0.4670
 6271SOL    HW130446   4.554   4.464   2.087  0.1289  1.6704  0.9364
 6271SOL    HW230447   4.633   4.588   2.053 -0.6871 -0.0763  2.2204
 6272SOL     OW30448   2.173   3.628   5.086  0.2815 -0.6309  0.2852
 6272SOL    HW130449   2.218   3.666   5.011 -0.4888  0.7412  0.5149
 6272SOL    HW230450   2.084   3.655   5.064 -0.3786 -2.3658  0.8892
 6273SOL     OW30451   0.240   3.652   7.249 -0.3717 -0.4510  0.2361
 6273SOL    HW130452   0.303   3.619   7.312  0.2917 -0.2723 -0.3298
 6273SOL    HW230453   0.163   3.671   7.303 -1.2217 -4.4027  0.4650
 6274SOL     OW30454   3.864   1.807   7.992  0.2511  0.4630 -0.2794
 6274SOL    HW130455   3.917   1.805   8.071  0.4343  0.1987 -0.4101
 6274SOL    HW230456   3.811   1.732   8.016  0.3136  0.8476  1.0355
 6275SOL     OW30457   1.145   0.858   0.335 -0.4857 -0.1097 -0.5744
 6275SOL    HW130458   1.234   0.871   0.367 -1.6070  2.5818  1.4613
 6275SOL    HW230459   1.130   0.935   0.280  0.0240  1.6068  1.6989
 6276SOL     OW30460   1.756   2.011   8.084 -0.9318  0.3518 -0.1124
 6276SOL    HW130461   1.690   2.075   8.056 -0.8364  1.0074  1.1510
 6276SOL    HW230462   1.790   1.968   8.006 -0.2118 -1.1866  1.0412
 6277SOL     OW30463   2.232   4.473  13.820 -0.2832  0.4791 -0.0130
 6277SOL    HW130464   2.254   4.395  13.769 -1.4674  2.0882 -2.9068
 6277SOL    HW230465   2.317   4.477  13.863  1.1268 -0.2520 -2.7562
 6278SOL     OW30466   1.486   1.595   5.250 -0.4297 -0.1536  0.0415
 6278SOL    HW130467   1.398   1.562   5.235 -1.3415  0.8531  3.1027
 6278SOL    HW230468   1.504   1.565   5.339 -0.9050 -1.6014 -0.3482
 6279SOL     OW30469   1.449   2.852   0.062  0.2270 -0.4237  0.3994
 6279SOL    HW130470   1.478   2.774   0.110  2.3202 -0.3073 -0.6628
 6279SOL    HW230471   1.388   2.807   0.003 -0.3704  0.9329 -0.0193
 6280SOL     OW30472   4.298   4.477   2.782  0.1951  0.2834 -0.3207
 6280SOL    HW130473   4.366   4.442   2.839  1.8927  1.9627 -1.3166
 6280SOL    HW230474   4.337   4.468   2.696  1.2383 -4.2282  0.6132
 6281SOL     OW30475   1.178   4.632   7.185 -0.2891  0.3953  0.3938
 6281SOL    HW130476   1.147   4.559   7.239 -0.3209 -1.7779 -2.5738
 6281SOL    HW230477   1.248   4.577   7.150 -2.0362 -2.2352  0.9926
 6282SOL     OW30478   0.296   3.486   1.757  0.2095 -0.2727 -0.5168
 6282SOL    HW130479   0.283   3.411   1.815 -0.0586  0.1596 -0.0181
 6282SOL    HW230480   0.323   3.445   1.676 -0.6238 -0.7350 -0.5547
 6283SOL     OW30481   2.559   1.222  11.056 -0.7974 -0.3203  0.3159
 6283SOL    HW130482   2.511   1.143  11.079 -1.2230 -0.5845 -1.4912
 6283SOL    HW230483   2.650   1.199  11.074 -0.9200 -0.6289  0.5311
 6284SOL     OW30484   4.191   2.081   7.416 -0.2809 -0.3745 -0.3391
 6284SOL    HW130485   4.194   2.177   7.422  0.0425 -0.5424  2.1050
 6284SOL    HW230486   4.107   2.055   7.453 -1.9141  0.4986 -3.4227
 6285SOL     OW30487   0.738   3.560   8.779 -0.2028  0.0870  0.5321
 6285SOL    HW130488   0.788   3.588   8.855  1.1162  1.2968 -0.7775
 6285SOL    HW230489   0.648   3.557   8.811 -0.5661  0.3385 -0.4646
 6286SOL     OW30490   0.702   1.985   7.975 -0.7554 -0.3159  0.5827
 6286SOL    HW130491   0.691   1.903   8.023  0.9026 -0.7080  0.2820
 6286SOL    HW230492   0.789   2.013   8.005 -0.9118  1.7042 -0.8668
 6287SOL     OW30493   0.781   3.062   6.659 -0.0629  0.1106  0.2012
 6287SOL    HW130494   0.718   3.061   6.587 -0.4006  0.7192  0.4823
 6287SOL    HW230495   0.849   3.009   6.619  0.2336  0.6529 -0.0215
 6288SOL     OW30496   3.209   4.321  15.975  0.2846 -0.0766 -0.1956
 6288SOL    HW130497   3.261   4.353  15.902 -0.4943  0.0058 -0.7090
 6288SOL    HW230498   3.231   4.384  16.044 -1.9851 -1.3501  1.6798
 6289SOL     OW30499   1.770   3.998   5.023  0.0182  0.6341 -0.4170
 6289SOL    HW130500   1.795   3.906   5.023  1.3853  1.0105 -2.1017
 6289SOL    HW230501   1.813   4.023   4.942 -0.0167  3.1646  0.3387
 6290SOL     OW30502   0.431   2.139  16.116 -0.0908 -0.4205 -0.4160
 6290SOL    HW130503   0.385   2.187  16.185  0.7900 -1.8928  1.2041
 6290SOL    HW230504   0.504   2.090  16.154 -0.4667 -0.0712  0.7688
 6291SOL     OW30505   2.407   2.629  14.802  0.6968 -0.2615  0.5422
 6291SOL    HW130506   2.487   2.659  14.758  1.5440 -2.0063  0.9168
 6291SOL    HW230507   2.421   2.543  14.841  2.6169 -0.9131 -1.5957
 6292SOL     OW30508   2.306   3.766  14.796 -0.4572 -0.1009 -0.3670
 6292SOL    HW130509   2.220   3.764  14.838 -0.4970 -0.2221 -0.4573
 6292SOL    HW230510   2.349   3.840  14.840  1.1215 -0.8378 -0.6880
 6293SOL     OW30511   0.873   4.264   0.004  0.1222  0.3528  0.3359
 6293SOL    HW130512   0.962   4.293   0.024  0.1398  0.4398  0.1332
 6293SOL    HW230513   0.834   4.294   0.086 -0.2866  0.2133  0.1926
 6294SOL     OW30514   0.606   1.148  13.200 -0.0421 -0.2418  0.1076
 6294SOL    HW130515   0.638   1.183  13.283 -1.0230  1.9197 -0.4308
 6294SOL    HW230516   0.687   1.154  13.149 -0.4911 -0.4042 -0.6269
 6295SOL     OW30517   0.817   0.090  14.300 -0.1833 -0.5319 -0.0011
 6295SOL    HW130518   0.757   0.128  14.363  0.9078 -1.8275  1.8129
 6295SOL    HW230519   0.900   0.117  14.339  0.7285 -4.9158  1.1020
 6296SOL     OW30520   1.099   3.171   8.243 -0.5508  0.4318  0.9642
 6296SOL    HW130521   1.183   3.209   8.220 -0.3786 -0.2189  0.4844
 6296SOL    HW230522   1.042   3.247   8.253 -2.3603 -0.5463 -1.5414
 6297SOL     OW30523   1.898   3.471   4.575 -0.6369  0.7605 -0.4812
 6297SOL    HW130524   1.984   3.430   4.586 -1.3547 -0.8004 -0.6478
 6297SOL    HW230525   1.857   3.427   4.500 -1.7646  0.6138  0.2209
 6298SOL     OW30526   1.968   0.094   3.929 -0.2965  0.0418  0.4798
 6298SOL    HW130527   1.879   0.089   3.965  0.2896 -0.3735  1.8921
 6298SOL    HW230528   1.977   0.011   3.882  2.2071  1.1483 -0.9813
 6299SOL     OW30529   1.748   3.763  11.681  0.0613  0.2220  0.2361
 6299SOL    HW130530   1.756   3.670  11.701 -2.3210 -0.2177 -0.8261
 6299SOL    HW230531   1.828   3.764  11.628 -0.4287 -1.2348 -0.5341
 6300SOL     OW30532   4.354   0.692  15.163 -0.6070 -0.4278  0.1528
 6300SOL    HW130533   4.388   0.772  15.123 -0.0967 -1.5429 -1.6814
 6300SOL    HW230534   4.393   0.687  15.250 -1.8813 -0.5801  0.7197
 6301SOL     OW30535   0.467   3.548   6.919  0.4613 -0.2822  0.1833
 6301SOL    HW130536   0.388   3.515   6.877 -0.5632 -1.1841  2.8419
 6301SOL    HW230537   0.538   3.538   6.856  1.4542 -0.3710  1.3181
 6302SOL     OW30538   2.269   1.962  11.794 -0.3456 -0.5373  0.5622
 6302SOL    HW130539   2.345   1.909  11.818  1.4869  1.6781 -0.4033
 6302SOL    HW230540   2.278   2.046  11.839 -0.2338 -0.2985  0.0987
 6303SOL     OW30541   2.549   3.961  13.125 -0.3634  0.0173  0.7441
 6303SOL    HW130542   2.497   3.934  13.200  0.4028 -0.0571  1.2446
 6303SOL    HW230543   2.482   4.004  13.071  1.1479 -1.8776 -2.6512
 6304SOL     OW30544   1.982   2.092   8.769  0.2994  0.2008 -0.1441
 6304SOL    HW130545   1.989   2.054   8.856 -0.2752 -0.8945 -0.5711
 6304SOL    HW230546   1.966   2.019   8.709  3.2575 -0.6355  0.1084
 6305SOL     OW30547   3.467   0.496   5.382 -0.4548 -0.1746  0.3600
 6305SOL    HW130548   3.515   0.569   5.343  0.5806 -0.7974  0.4624
 6305SOL    HW230549   3.447   0.530   5.470 -2.5781  1.5139 -0.7740
 6306SOL     OW30550   1.660   3.090  12.827  0.2648 -0.0644 -0.5443
 6306SOL    HW130551   1.620   3.005  12.809  1.5640 -1.0170  1.1122
 6306SOL    HW230552   1.588   3.143  12.792 -1.5855 -0.6394  2.3659
 6307SOL     OW30553   2.034   1.891  11.418  0.3050 -0.5533 -0.6570
 6307SOL    HW130554   2.115   1.942  11.412  0.4626 -0.8563 -1.1103
 6307SOL    HW230555   2.040   1.812  11.365 -1.8245 -0.9382 -0.3233
 6308SOL     OW30556   3.420   2.488   2.118  0.0447 -1.1554 -0.7237
 6308SOL    HW130557   3.325   2.487   2.131  0.1771  3.3170  0.4224
 6308SOL    HW230558   3.438   2.566   2.066  0.8681  0.7113  2.3902
 6309SOL     OW30559   2.225   1.916   8.179 -0.4128 -0.8316  0.0739
 6309SOL    HW130560   2.249   1.824   8.170 -0.3004 -0.6926 -0.9827
 6309SOL    HW230561   2.212   1.922   8.274 -0.4967 -0.1061  0.0178
 6310SOL     OW30562   0.044   2.825   5.613 -0.3505  0.2303  0.3640
 6310SOL    HW130563   4.686   2.840   5.633 -0.4101  2.0225 -1.2800
 6310SOL    HW230564   0.053   2.741   5.657  0.3205 -0.3929 -0.9643
 6311SOL     OW30565   3.418   3.468   8.664 -0.3100 -0.8296  0.0992
 6311SOL    HW130566   3.475   3.497   8.592  0.0755  0.5705  0.9788
 6311SOL    HW230567   3.481   3.425   8.721 -1.5576  2.1932  3.7320
 6312SOL     OW30568   1.427   4.448   7.922 -0.0836 -0.2541  0.1332
 6312SOL    HW130569   1.403   4.521   7.980 -0.6417 -0.2663 -0.0857
 6312SOL    HW230570   1.388   4.380   7.977  2.4808 -1.3502  0.5916
 6313SOL     OW30571   4.404   0.045   8.255 -0.1121 -0.1609  0.4017
 6313SOL    HW130572   4.343   4.711   8.280 -1.0535  1.5871  2.9082
 6313SOL    HW230573   4.399   0.032   8.160  4.1074 -1.9981  0.4300
 6314SOL     OW30574   3.771   2.195  13.738 -0.2578 -0.4552  0.0533
 6314SOL    HW130575   3.795   2.225  13.825 -0.0390  1.2482 -0.5997
 6314SOL    HW230576   3.678   2.174  13.750 -0.5563 -0.1415 -1.7431
 6315SOL     OW30577   3.157   1.598   3.619  0.1071  0.0769 -0.3076
 6315SOL    HW130578   3.224   1.573   3.555 -1.6013  0.8392 -2.4161
 6315SOL    HW230579   3.073   1.605   3.574 -0.9493 -0.7897  1.5403
 6316SOL     OW30580   3.328   2.056   7.566 -0.3222  0.0322  0.3033
 6316SOL    HW130581   3.375   2.037   7.485 -0.6022 -0.7096  0.3140
 6316SOL    HW230582   3.267   1.982   7.568 -1.0809  0.6794  1.1027
 6317SOL     OW30583   3.083   4.380   6.113  0.5632  0.4145 -0.4081
 6317SOL    HW130584   3.128   4.295   6.110  0.4525  0.4153 -2.3363
 6317SOL    HW230585   3.034   4.388   6.031  0.4340  2.3740 -0.1252
 6318SOL     OW30586   1.600   3.839   3.835 -0.2693  0.1409  0.4327
 6318SOL    HW130587   1.690   3.869   3.847 -0.3925  1.2901 -1.5652
 6318SOL    HW230588   1.568   3.909   3.778  0.2360  0.3591  0.4122
 6319SOL     OW30589   4.103   4.323   7.961 -0.4995  0.1599 -0.6431
 6319SOL    HW130590   4.098   4.254   7.894 -1.3972 -0.4651  0.0741
 6319SOL    HW230591   4.117   4.401   7.907  1.8788  0.1126 -0.0908
 6320SOL     OW30592   2.856   2.468  12.284  0.2247 -0.3212  0.1785
 6320SOL    HW130593   2.936   2.429  12.249  0.3397  2.0005 -2.2026
 6320SOL    HW230594   2.861   2.554  12.241 -1.9047 -0.0914  0.3756
 6321SOL     OW30595   1.522   3.487   1.840 -0.1118  0.0323  0.0113
 6321SOL    HW130596   1.535   3.404   1.887 -0.8339  1.4745  2.7322
 6321SOL    HW230597   1.522   3.461   1.748 -0.2326  1.3051 -0.3450
 6322SOL     OW30598   1.347   2.814  16.598 -0.1320  0.1299 -0.3062
 6322SOL    HW130599   1.318   2.845  16.684  0.1799 -0.4196 -0.0053
 6322SOL    HW230600   1.321   2.886  16.539  6.2502  0.7519 -2.3540
 6323SOL     OW30601   3.901   0.531   9.978  0.0012 -0.1099  0.0125
 6323SOL    HW130602   3.915   0.504  10.069  0.5660  2.5150  0.7039
 6323SOL    HW230603   3.816   0.573   9.990  0.7217  0.7928  1.9377
 6324SOL     OW30604   1.699   0.954   4.176  0.5266 -0.4016  0.3392
 6324SOL    HW130605   1.732   0.966   4.087 -0.1579 -0.2940  0.1018
 6324SOL    HW230606   1.625   0.895   4.160 -0.4320  0.9669 -0.2954
 6325SOL     OW30607   2.835   1.519   3.528  0.2560 -0.4180 -0.0957
 6325SOL    HW130608   2.842   1.614   3.531 -2.3815 -0.2210 -0.2369
 6325SOL    HW230609   2.821   1.501   3.435  1.8061  0.8098 -0.5709
 6326SOL     OW30610   3.400   3.737   6.693  0.0592  0.0910 -0.8101
 6326SOL    HW130611   3.327   3.776   6.643  0.6146 -0.7835 -2.3008
 6326SOL    HW230612   3.347   3.664   6.724 -0.1179  0.4835 -0.1925
 6327SOL     OW30613   2.600   2.045   5.017  0.1099  0.0095  0.0129
 6327SOL    HW130614   2.520   1.997   5.040 -0.1228 -0.4986 -1.8704
 6327SOL    HW230615   2.558   2.128   4.996 -0.1764 -0.6570 -2.0431
 6328SOL     OW30616   0.703   4.499  17.398  0.1902  0.0143 -0.3077
 6328SOL    HW130617   0.736   4.418  17.358  0.9946  0.4477 -0.5358
 6328SOL    HW230618   0.706   4.478  17.491 -0.9778 -0.4951 -0.3908
 6329SOL     OW30619   3.106   1.523  16.922  0.1202  0.4141  0.8296
 6329SOL    HW130620   3.126   1.436  16.954  1.2825  0.4309  0.1392
 6329SOL    HW230621   3.175   1.577  16.961  1.7450 -0.4381 -0.8645
 6330SOL     OW30622   2.257   3.306   5.823 -0.0337  0.1347 -0.0683
 6330SOL    HW130623   2.189   3.244   5.850 -1.0156  0.3367 -2.0809
 6330SOL    HW230624   2.251   3.286   5.729 -0.7494  0.6368 -0.1344
 6331SOL     OW30625   1.349   0.726   5.254  0.9972  0.3450 -0.1886
 6331SOL    HW130626   1.435   0.685   5.253  0.5079 -0.6662 -1.0952
 6331SOL    HW230627   1.294   0.658   5.294 -0.1041 -0.5877 -3.3187
 6332SOL     OW30628   1.010   3.236   9.542  0.1784  0.5692 -0.3623
 6332SOL    HW130629   0.998   3.168   9.476 -3.3902  0.1456  0.7600
 6332SOL    HW230630   0.983   3.179   9.613 -0.1552  2.2067  0.8246
 6333SOL     OW30631   1.065   2.565   6.593  0.5255  0.1800 -0.3522
 6333SOL    HW130632   1.002   2.503   6.631  0.5425 -0.1771 -0.9101
 6333SOL    HW230633   1.030   2.652   6.615 -1.1348 -0.1378 -1.7396
 6334SOL     OW30634   1.279   1.540   3.209  0.9911  0.3413 -0.3593
 6334SOL    HW130635   1.263   1.502   3.123 -0.1022 -0.5617  0.2338
 6334SOL    HW230636   1.360   1.495   3.235  0.8310 -1.3326 -2.7845
 6335SOL     OW30637   4.079   1.783  13.370  0.6150  0.3605  0.1146
 6335SOL    HW130638   4.108   1.809  13.458 -0.3289  0.7652  0.3058
 6335SOL    HW230639   4.165   1.754  13.339  0.1053 -1.0834  0.0827
 6336SOL     OW30640   1.278   2.934   8.687 -0.1166 -0.2966 -0.0381
 6336SOL    HW130641   1.345   2.914   8.752 -1.0604  2.0036  1.6127
 6336SOL    HW230642   1.286   2.853   8.637 -3.0982 -0.9888  0.6025
 6337SOL     OW30643   2.151   4.715   9.368  1.1470  0.2342  0.0364
 6337SOL    HW130644   2.198   4.633   9.359  1.7551  0.4813  1.0405
 6337SOL    HW230645   2.187   0.013   9.450 -0.2222  0.2566  0.6260
 6338SOL     OW30646   1.302   1.358   3.835 -0.0097 -0.2146  0.5081
 6338SOL    HW130647   1.308   1.453   3.827  1.0430 -0.2334  1.1559
 6338SOL    HW230648   1.269   1.341   3.746  1.1429 -2.1990  0.4674
 6339SOL     OW30649   2.334   3.574   5.872  0.7898  0.3860  0.3781
 6339SOL    HW130650   2.283   3.494   5.859  2.2374 -0.3776 -0.6071
 6339SOL    HW230651   2.263   3.630   5.904 -0.2579  0.3268 -1.8559
 6340SOL     OW30652   1.003   0.193   4.441  0.0471  0.4065 -0.0154
 6340SOL    HW130653   0.966   0.259   4.499  2.5720  1.3089  0.5726
 6340SOL    HW230654   0.923   0.142   4.431 -0.3155  0.1949  4.0090
 6341SOL     OW30655   1.693   0.330   4.894 -0.4550  0.0974 -0.3001
 6341SOL    HW130656   1.721   0.341   4.984  2.5463  0.4849 -1.2752
 6341SOL    HW230657   1.646   0.248   4.909  1.4622 -0.9987 -0.2837
 6342SOL     OW30658   4.049   1.773   1.263 -0.1616 -0.5933  0.6331
 6342SOL    HW130659   4.139   1.805   1.276  0.1868 -1.3359  0.0742
 6342SOL    HW230660   4.050   1.711   1.190  1.7150  1.9336 -1.4858
 6343SOL     OW30661   1.439   3.892   6.593 -0.1137 -0.5142  0.5603
 6343SOL    HW130662   1.456   3.920   6.683  0.1265 -0.1553  0.4020
 6343SOL    HW230663   1.446   3.978   6.553 -0.3912 -0.5525  0.4240
 6344SOL     OW30664   4.411   2.820   9.965  0.3544 -0.2405  0.4960
 6344SOL    HW130665   4.447   2.774   9.889  1.3156  2.0985 -0.4635
 6344SOL    HW230666   4.355   2.750   9.999 -0.9739 -0.8830 -3.1069
 6345SOL     OW30667   1.464   2.253  16.913  0.0866  0.2270 -0.1133
 6345SOL    HW130668   1.432   2.308  16.985 -2.2497  1.5037 -2.1500
 6345SOL    HW230669   1.541   2.300  16.881  0.0046  1.1944  1.0979
 6346SOL     OW30670   1.947   1.806   5.413  0.9671  0.4516  0.3165
 6346SOL    HW130671   2.002   1.883   5.426  0.9001  0.0556  2.9580
 6346SOL    HW230672   1.880   1.832   5.351  1.5619  0.9292 -0.1311
 6347SOL     OW30673   2.070   2.476   6.514  0.0871  0.6706 -0.0348
 6347SOL    HW130674   2.039   2.502   6.427  3.3843 -1.6133 -1.8732
 6347SOL    HW230675   1.993   2.426   6.540 -0.1118  0.9282 -0.1296
 6348SOL     OW30676   3.790   1.047   2.333  0.4820 -0.4687  0.1664
 6348SOL    HW130677   3.846   1.096   2.393 -2.0183  2.2200  0.2771
 6348SOL    HW230678   3.820   1.096   2.256 -0.4254 -0.3257 -0.0929
 6349SOL     OW30679   2.175   3.989   4.748 -0.4257 -0.4627  0.3707
 6349SOL    HW130680   2.171   3.999   4.653 -3.4694  2.7484  0.7896
 6349SOL    HW230681   2.236   4.059   4.770 -0.8852 -0.0393  0.3133
 6350SOL     OW30682   0.529   4.462   8.352 -0.0843  0.3237 -0.2382
 6350SOL    HW130683   0.544   4.496   8.440  1.8902 -2.6770  0.5689
 6350SOL    HW230684   0.572   4.376   8.347  1.0394  0.8530  0.3579
 6351SOL     OW30685   3.296   3.319  15.562 -0.1865  0.3848  0.4501
 6351SOL    HW130686   3.388   3.302  15.543 -0.4626  0.7809 -1.3142
 6351SOL    HW230687   3.266   3.384  15.497  0.2251  1.1945  1.0734
 6352SOL     OW30688   2.649   2.507  13.099 -0.2550  0.1691 -0.4109
 6352SOL    HW130689   2.706   2.538  13.028  1.2740  0.0290  0.7522
 6352SOL    HW230690   2.584   2.577  13.103 -1.6998 -1.1848 -0.1681
 6353SOL     OW30691   0.956   1.914   2.975  0.1227  0.5490  0.2147
 6353SOL    HW130692   0.996   1.827   2.976 -0.3260  0.3401  1.9845
 6353SOL    HW230693   0.865   1.885   2.966  0.9162 -0.8373 -3.1947
 6354SOL     OW30694   1.904   0.427   5.882  0.1686  0.2379 -0.0593
 6354SOL    HW130695   1.942   0.339   5.885  0.0615  0.2572  2.3216
 6354SOL    HW230696   1.938   0.462   5.964 -0.5611  1.7468 -0.3967
 6355SOL     OW30697   0.395   4.714   3.809  0.1179 -0.4076  0.0571
 6355SOL    HW130698   0.448   0.026   3.873  0.9641 -1.2982  0.0111
 6355SOL    HW230699   0.452   4.641   3.782 -0.9431 -1.1501 -0.1539
 6356SOL     OW30700   4.716   0.301   2.747 -0.2045  0.2761 -0.0327
 6356SOL    HW130701   0.044   0.372   2.741  2.0627 -1.6820  0.7359
 6356SOL    HW230702   4.630   0.340   2.732 -0.0712  2.0715  3.8754
 6357SOL     OW30703   1.780   3.478   2.679  0.0624 -0.0271  0.3072
 6357SOL    HW130704   1.766   3.386   2.700 -1.6652  0.3022  0.6000
 6357SOL    HW230705   1.838   3.503   2.751  2.5069 -1.3734 -1.1941
 6358SOL     OW30706   4.724   4.086   4.175  0.3037  0.8324 -0.2996
 6358SOL    HW130707   0.071   4.125   4.203  0.8441  0.5016 -1.3941
 6358SOL    HW230708   0.008   4.036   4.095 -0.4097 -0.4777  0.3467
 6359SOL     OW30709   0.527   4.121   1.027 -0.0784  0.1382  0.0956
 6359SOL    HW130710   0.528   4.068   0.948 -0.4070 -0.4085  0.4550
 6359SOL    HW230711   0.608   4.170   1.012  0.6956 -1.2993 -0.4001
 6360SOL     OW30712   0.555   4.454   3.879 -0.1888 -0.2541 -0.2887
 6360SOL    HW130713   0.593   4.490   3.959  0.9983  0.4997 -1.2022
 6360SOL    HW230714   0.634   4.450   3.825  0.2904 -2.0779  0.5514
 6361SOL     OW30715   3.341   1.421   4.948  0.1227  0.6016 -0.1376
 6361SOL    HW130716   3.301   1.340   4.918 -1.3924  1.7514 -1.2270
 6361SOL    HW230717   3.398   1.397   5.021 -0.7719 -0.4788  0.1956
 6362SOL     OW30718   2.531   2.911   8.754 -0.2158 -0.6816 -0.3889
 6362SOL    HW130719   2.586   2.851   8.705 -0.9901 -2.2922  0.7243
 6362SOL    HW230720   2.525   2.970   8.679 -0.4178 -0.4469 -0.1914
 6363SOL     OW30721   4.673   0.865   4.737  0.4156 -0.2935 -0.1905
 6363SOL    HW130722   4.580   0.850   4.724 -0.2197  2.1408  1.7460
 6363SOL    HW230723   4.702   0.863   4.645  1.1094 -0.9391  0.0376
 6364SOL     OW30724   2.330   4.196   4.777 -0.6226  0.0158  0.2712
 6364SOL    HW130725   2.373   4.231   4.699  0.7750 -0.5137  0.8057
 6364SOL    HW230726   2.402   4.197   4.839  0.5674 -2.3329 -1.0604
 6365SOL     OW30727   4.699   3.658  14.637 -0.1699  0.3144  0.1852
 6365SOL    HW130728   4.707   3.751  14.659  0.3643  0.2649  0.2066
 6365SOL    HW230729   0.043   3.619  14.674 -1.0866 -0.7796  0.9792
 6366SOL     OW30730   4.097   2.879   7.942  0.1505  0.4151  0.4893
 6366SOL    HW130731   4.159   2.836   7.885  0.3036  0.1376  0.8624
 6366SOL    HW230732   4.144   2.953   7.981  0.7038  1.1423 -1.5770
 6367SOL     OW30733   1.519   0.010   6.183 -0.1631  0.0221  0.3127
 6367SOL    HW130734   1.435   4.704   6.205 -0.1906  2.1329  4.1304
 6367SOL    HW230735   1.513   0.091   6.233  1.3842  0.0351  0.4738
 6368SOL     OW30736   2.997   0.884   8.561 -0.2743  0.4404  0.1276
 6368SOL    HW130737   2.952   0.800   8.552 -1.7257  1.1330  0.9084
 6368SOL    HW230738   2.998   0.928   8.476  0.1608 -1.4651 -0.8426
 6369SOL     OW30739   1.531   2.405  16.034  0.2919 -0.2698 -0.2607
 6369SOL    HW130740   1.623   2.430  16.039 -0.1196  1.1980 -0.2292
 6369SOL    HW230741   1.549   2.315  16.007 -1.6800 -1.2158  1.5594
 6370SOL     OW30742   1.585   1.675   3.422  0.3193 -0.3757 -0.2110
 6370SOL    HW130743   1.646   1.651   3.491  0.9308  0.3805 -0.4835
 6370SOL    HW230744   1.501   1.651   3.462  0.2711 -1.3721 -0.9365
 6371SOL     OW30745   2.529   4.244   2.577 -0.6316 -0.6088 -0.2023
 6371SOL    HW130746   2.530   4.175   2.511  1.3166 -0.3139 -0.4959
 6371SOL    HW230747   2.503   4.320   2.525  2.8158  0.0383 -0.9974
 6372SOL     OW30748   3.911   4.642  11.869 -0.3589  0.3597 -0.2317
 6372SOL    HW130749   3.816   4.625  11.874 -0.7610  2.9685  1.0279
 6372SOL    HW230750   3.955   4.591  11.936  0.0736 -1.8054 -2.1763
 6373SOL     OW30751   0.632   3.603  13.284 -0.3612 -0.6047 -0.7547
 6373SOL    HW130752   0.687   3.525  13.292  1.6713  1.0504  1.5957
 6373SOL    HW230753   0.573   3.593  13.359 -0.4448  1.3954 -0.5617
 6374SOL     OW30754   4.629   3.521   4.221  0.2762  0.5265  0.4251
 6374SOL    HW130755   4.598   3.592   4.166  0.3259 -0.3386 -0.7280
 6374SOL    HW230756   4.560   3.454   4.216 -0.0027  0.8378  0.1802
 6375SOL     OW30757   0.059   1.960   8.636 -0.2573 -0.1017 -0.1594
 6375SOL    HW130758   0.113   1.991   8.709  0.0875 -0.2887 -0.3381
 6375SOL    HW230759   4.725   1.909   8.680  0.2120 -1.5232 -1.0942
 6376SOL     OW30760   2.237   1.347   9.216  0.2383 -0.2111 -0.3541
 6376SOL    HW130761   2.222   1.262   9.176 -1.0004 -0.1564 -0.0005
 6376SOL    HW230762   2.156   1.373   9.259  0.5211  0.6809 -0.3521
 6377SOL     OW30763   0.686   0.302   7.956 -0.3759  0.2529  0.0450
 6377SOL    HW130764   0.640   0.235   7.906  0.7620  0.4330 -1.2317
 6377SOL    HW230765   0.777   0.271   7.955 -1.1902 -2.1057 -0.5726
 6378SOL     OW30766   0.766   4.008   3.822 -0.1335 -0.2341 -0.1716
 6378SOL    HW130767   0.750   4.060   3.901  0.8231 -0.2323  0.0146
 6378SOL    HW230768   0.834   4.066   3.790  1.6476 -2.4390 -0.3318
 6379SOL     OW30769   1.637   3.948   2.577 -0.1191 -0.3017 -0.0847
 6379SOL    HW130770   1.634   3.936   2.482  1.2407 -0.6965 -0.0784
 6379SOL    HW230771   1.671   4.037   2.579 -1.0722  0.1356 -3.4398
 6380SOL     OW30772   0.440   4.324  17.684 -0.0799 -0.4031  0.0806
 6380SOL    HW130773   0.535   4.335  17.682 -0.3070  1.4790 -0.8314
 6380SOL    HW230774   0.426   4.288  17.596  0.8513 -1.1298  0.2358
 6381SOL     OW30775   1.785   1.452   7.386 -0.4987  0.1448 -0.0301
 6381SOL    HW130776   1.818   1.438   7.297  0.5052 -0.5827  0.4527
 6381SOL    HW230777   1.866   1.436   7.435 -0.5495  1.3059  0.4209
 6382SOL     OW30778   2.977   3.355   4.854  0.0795  0.1933 -0.5299
 6382SOL    HW130779   2.888   3.384   4.876 -1.6956 -3.9971 -2.1118
 6382SOL    HW230780   2.973   3.314   4.768 -0.4697  2.1350 -1.4342
 6383SOL     OW30781   3.591   4.419   6.874  0.3183  0.3786 -0.0413
 6383SOL    HW130782   3.550   4.450   6.955  1.3859 -0.9628  1.0022
 6383SOL    HW230783   3.631   4.340   6.909 -0.4146  0.2031  0.4130
 6384SOL     OW30784   3.934   1.355   9.303  0.2726  0.5525 -0.4949
 6384SOL    HW130785   3.946   1.262   9.284 -2.8688  0.0484 -0.0282
 6384SOL    HW230786   3.915   1.348   9.397  0.8577  0.6878 -0.3681
 6385SOL     OW30787   0.608   1.174   5.470 -0.2650  0.1722  0.2938
 6385SOL    HW130788   0.610   1.208   5.559 -1.7404 -1.5929  1.0004
 6385SOL    HW230789   0.626   1.083   5.494  0.1994  0.5563  1.4130
 6386SOL     OW30790   4.634   4.730  12.369  0.1107  0.2061  0.3242
 6386SOL    HW130791   4.708   4.713  12.312  0.2785 -0.9252  0.8790
 6386SOL    HW230792   4.690   0.037  12.434  1.8059 -1.0905 -0.3201
 6387SOL     OW30793   0.347   0.841  10.462  0.1164 -0.7304  0.6444
 6387SOL    HW130794   0.311   0.930  10.472  1.7477  0.3200 -2.8685
 6387SOL    HW230795   0.266   0.791  10.449 -0.2472  0.3805 -1.4106
 6388SOL     OW30796   2.953   4.727  12.668 -0.2450 -1.1120  0.8516
 6388SOL    HW130797   3.047   4.710  12.662 -0.0841 -1.3309  3.5882
 6388SOL    HW230798   2.951   0.065  12.730  0.0474 -0.2030 -0.2297
 6389SOL     OW30799   1.568   3.163  11.875 -0.2965 -0.2972  0.5867
 6389SOL    HW130800   1.570   3.222  11.950  0.8543  3.4338 -2.4348
 6389SOL    HW230801   1.540   3.224  11.808 -1.4806 -0.4218  0.9601
 6390SOL     OW30802   1.153   0.653   2.297 -0.2590  0.5039  0.4032
 6390SOL    HW130803   1.116   0.567   2.280  2.0566 -0.4238  0.1594
 6390SOL    HW230804   1.231   0.631   2.348 -0.8636  2.2061  2.0838
 6391SOL     OW30805   2.832   3.405   6.559 -0.1388 -0.0497  0.6066
 6391SOL    HW130806   2.879   3.367   6.486 -0.6277 -1.0025  0.7878
 6391SOL    HW230807   2.905   3.410   6.620 -0.6581  0.1816  1.2199
 6392SOL     OW30808   1.318   3.020   5.079  0.2400 -0.2465  0.2653
 6392SOL    HW130809   1.238   3.037   5.128 -2.2553 -3.7173 -2.6068
 6392SOL    HW230810   1.299   2.945   5.022 -1.6049  1.3203 -1.1906
 6393SOL     OW30811   3.804   1.820  17.626  0.2605  0.3664  0.6144
 6393SOL    HW130812   3.789   1.874  17.549 -0.7184 -0.8647 -0.0636
 6393SOL    HW230813   3.737   1.850  17.688 -0.7415 -0.2448 -0.1571
 6394SOL     OW30814   0.101   3.522  17.554  0.2511  0.4330 -0.3164
 6394SOL    HW130815   0.103   3.528  17.650 -0.4222  0.3941 -0.3017
 6394SOL    HW230816   0.010   3.540  17.531 -0.1638 -0.9856  0.1981
 6395SOL     OW30817   4.046   4.355  10.406  0.0940  0.0439 -0.0147
 6395SOL    HW130818   3.975   4.386  10.463  0.2733  2.2260 -0.9800
 6395SOL    HW230819   4.111   4.426  10.411  0.9358 -0.6995 -0.4657
 6396SOL     OW30820   0.093   3.382   5.504 -0.2346  0.0671  0.5379
 6396SOL    HW130821   0.119   3.318   5.570 -0.0002  0.0156  0.3966
 6396SOL    HW230822   0.118   3.334   5.425  0.7928  3.5515 -1.2580
 6397SOL     OW30823   2.612   0.323  13.350  0.1570  0.0414  0.2421
 6397SOL    HW130824   2.597   0.277  13.433 -0.8349 -1.1466 -0.5983
 6397SOL    HW230825   2.629   0.252  13.289  0.0030  1.1038 -1.0353
 6398SOL     OW30826   3.122   2.726  12.543 -0.1846  0.1009  0.3847
 6398SOL    HW130827   3.216   2.722  12.555 -0.5646  1.9472  3.6809
 6398SOL    HW230828   3.126   2.702  12.450  1.3498 -0.0817  0.4990
 6399SOL     OW30829   1.642   0.298   0.020  0.3351 -0.1930  0.1999
 6399SOL    HW130830   1.645   0.203   0.012 -2.6322 -0.1932 -0.8249
 6399SOL    HW230831   1.548   0.316   0.017  0.8335  2.4253 -0.1191
 6400SOL     OW30832   0.772   0.360   6.654 -0.2961  0.3024 -0.1422
 6400SOL    HW130833   0.800   0.355   6.746  2.1643 -0.2520 -0.9262
 6400SOL    HW230834   0.699   0.299   6.666  1.5119 -2.0641 -1.1395
 6401SOL     OW30835   2.601   3.799   4.649  0.0617  0.2617  0.8770
 6401SOL    HW130836   2.602   3.894   4.635 -0.0474  0.1472  0.0799
 6401SOL    HW230837   2.555   3.802   4.733  1.4101 -2.5530  1.7204
 6402SOL     OW30838   3.371   0.691  16.733  0.4046  0.0881  0.0666
 6402SOL    HW130839   3.382   0.612  16.786  1.0472  1.3637  1.8717
 6402SOL    HW230840   3.456   0.702  16.691  0.3662  0.0974 -0.0087
 6403SOL     OW30841   2.324   1.790   4.195  0.3392 -0.1327 -0.3282
 6403SOL    HW130842   2.283   1.740   4.266 -1.1429  2.5672  0.7420
 6403SOL    HW230843   2.280   1.875   4.204 -0.8777 -0.6564 -1.3229
 6404SOL     OW30844   1.421   3.671   0.956  0.1887 -0.2885 -0.0364
 6404SOL    HW130845   1.358   3.708   1.017  0.2990 -1.3608  0.7370
 6404SOL    HW230846   1.499   3.727   0.956 -0.5321  0.7080  2.0393
 6405SOL     OW30847   1.432   0.004   5.501 -0.1582 -0.4113  0.2621
 6405SOL    HW130848   1.360   0.035   5.446  0.0948 -2.0405 -0.9852
 6405SOL    HW230849   1.490   4.701   5.435  0.1620 -0.0180  0.3176
 6406SOL     OW30850   1.567   3.148   8.526  0.4687 -0.1834  0.1711
 6406SOL    HW130851   1.473   3.135   8.533 -0.2548  5.0903  0.4490
 6406SOL    HW230852   1.594   3.174   8.615  0.0569 -0.3983  0.3561
 6407SOL     OW30853   3.859   0.495   8.955 -1.1557 -0.5129 -0.9033
 6407SOL    HW130854   3.841   0.578   8.909 -0.3843 -0.9965 -2.0733
 6407SOL    HW230855   3.774   0.498   9.000 -0.1529  0.6558  0.9257
 6408SOL     OW30856   0.743   3.824   6.123  0.2878  0.0705 -0.7946
 6408SOL    HW130857   0.820   3.822   6.180 -0.0054 -1.1221 -0.4399
 6408SOL    HW230858   0.675   3.795   6.184  1.3098  0.1152  0.3530
 6409SOL     OW30859   2.505   0.555   9.367  1.0101  0.4492 -0.3801
 6409SOL    HW130860   2.421   0.523   9.401  0.1346  1.3064 -1.6968
 6409SOL    HW230861   2.550   0.473   9.352  0.3687  0.2491 -1.2426
 6410SOL     OW30862   3.225   0.607   9.235  0.0328  0.2682 -0.2250
 6410SOL    HW130863   3.146   0.645   9.196 -1.3267 -2.0278  0.2995
 6410SOL    HW230864   3.201   0.515   9.245 -1.4749  0.4818 -1.8144
 6411SOL     OW30865   2.247   1.521   3.205 -0.7257  0.0158  0.4425
 6411SOL    HW130866   2.304   1.598   3.207 -2.7698  1.5671 -1.0211
 6411SOL    HW230867   2.198   1.528   3.287  0.6477 -1.5573  1.4067
 6412SOL     OW30868   1.041   3.196   6.558  0.1251  0.0409 -0.0093
 6412SOL    HW130869   1.021   3.176   6.649  0.8292 -1.0447 -0.0925
 6412SOL    HW230870   1.011   3.113   6.522 -0.5180 -0.1610  0.9924
 6413SOL     OW30871   2.333   0.126   8.137  0.2184  0.4507 -0.6100
 6413SOL    HW130872   2.410   0.181   8.130 -0.4189  1.3264 -0.7254
 6413SOL    HW230873   2.336   0.128   8.232  2.6570 -1.2076 -0.6588
 6414SOL     OW30874   4.138   4.249  14.335 -0.0822 -0.3370  0.3768
 6414SOL    HW130875   4.064   4.190  14.322  0.3909 -1.2077  1.6734
 6414SOL    HW230876   4.101   4.335  14.358  0.2522 -0.6445  2.0802
 6415SOL     OW30877   1.106   3.785   7.025 -0.5751 -0.0302  0.4505
 6415SOL    HW130878   1.054   3.767   6.947  0.1072 -0.4785  0.0980
 6415SOL    HW230879   1.181   3.827   6.981  0.9621 -1.2689  1.8829
 6416SOL     OW30880   2.602   1.343  11.588  0.7099  0.4043  0.5150
 6416SOL    HW130881   2.541   1.291  11.641  1.2603  1.0693  1.7947
 6416SOL    HW230882   2.645   1.403  11.650  0.1648  0.0296  1.2616
 6417SOL     OW30883   2.859   1.798   1.117  0.2396  0.5364  0.2884
 6417SOL    HW130884   2.852   1.786   1.023 -0.7473  1.3216  0.2613
 6417SOL    HW230885   2.954   1.812   1.119  0.1951  1.1827 -2.8776
 6418SOL     OW30886   3.034   3.779   0.384 -0.2978 -0.1135  0.5532
 6418SOL    HW130887   3.036   3.800   0.478  1.1969 -0.6625  0.6424
 6418SOL    HW230888   2.957   3.722   0.377  0.3076 -0.7458 -0.9638
 6419SOL     OW30889   0.697   3.926  14.575  0.8446  0.1798 -0.0648
 6419SOL    HW130890   0.761   3.952  14.641 -0.9507  0.6826  1.4840
 6419SOL    HW230891   0.693   4.002  14.517  1.7332 -1.4536 -2.2685
 6420SOL     OW30892   0.628   0.233   5.743  0.1827  0.1951 -0.1986
 6420SOL    HW130893   0.682   0.249   5.821 -0.1231 -1.6802  0.4089
 6420SOL    HW230894   0.609   0.323   5.718  1.1996  0.8974  1.5623
 6421SOL     OW30895   0.695   3.652  14.514 -0.5751 -0.0065 -0.0540
 6421SOL    HW130896   0.687   3.744  14.486  1.1402  0.2772  0.4172
 6421SOL    HW230897   0.758   3.657  14.586 -1.1165 -1.7393  0.5173
 6422SOL     OW30898   0.817   4.257   9.117 -0.3001 -0.0817  0.2662
 6422SOL    HW130899   0.758   4.183   9.130 -0.9224 -0.0649 -2.5947
 6422SOL    HW230900   0.769   4.329   9.158  0.9578  2.0180 -1.9488
 6423SOL     OW30901   3.499   2.859   7.574  0.0803 -0.6717  0.2638
 6423SOL    HW130902   3.446   2.934   7.546  1.0035 -0.7363 -1.6399
 6423SOL    HW230903   3.509   2.864   7.669  3.8606  2.1164 -0.2773
 6424SOL     OW30904   0.642   3.724   8.545 -0.0604 -0.3937  0.2224
 6424SOL    HW130905   0.626   3.631   8.530 -1.8336  0.1432 -1.1626
 6424SOL    HW230906   0.676   3.733   8.634 -0.1898  0.2209  0.2060
 6425SOL     OW30907   1.337   2.687   3.482  0.3540  0.0602 -0.5931
 6425SOL    HW130908   1.264   2.668   3.423 -0.5871 -1.2243  0.9714
 6425SOL    HW230909   1.348   2.781   3.468  0.7734  0.3253  1.4007
 6426SOL     OW30910   2.765   2.381   9.349  0.1589  0.0985  0.3684
 6426SOL    HW130911   2.810   2.333   9.280  1.0710  0.0652  0.9904
 6426SOL    HW230912   2.696   2.316   9.365 -0.1957  0.7643  1.5304
 6427SOL     OW30913   4.246   0.353   1.242 -0.0484 -0.2618  0.3194
 6427SOL    HW130914   4.279   0.404   1.316  0.1710 -0.8316  0.6187
 6427SOL    HW230915   4.329   0.318   1.210  0.6723  1.3086  0.4916
 6428SOL     OW30916   4.548   2.804   1.059 -0.7624  0.0181 -0.4766
 6428SOL    HW130917   4.567   2.711   1.043 -0.2207 -0.0732  0.6361
 6428SOL    HW230918   4.636   2.839   1.075 -0.7621  0.2265 -0.9434
 6429SOL     OW30919   1.728   2.477   2.422  0.2645 -0.2895  0.5168
 6429SOL    HW130920   1.686   2.487   2.336 -0.3523 -0.9713  0.7386
 6429SOL    HW230921   1.811   2.520   2.402 -0.0937 -0.0372 -0.4447
 6430SOL     OW30922   0.817   4.437   2.285  0.3564  0.1389 -0.1234
 6430SOL    HW130923   0.818   4.432   2.380 -0.3610  0.8506 -0.0745
 6430SOL    HW230924   0.910   4.429   2.267  0.5715 -0.4178  1.2362
 6431SOL     OW30925   3.338   4.083  12.678  0.0081 -0.0369 -0.0240
 6431SOL    HW130926   3.391   4.089  12.758 -0.8384  1.9416  0.3815
 6431SOL    HW230927   3.257   4.121  12.711  0.8504  0.7302  1.1842
 6432SOL     OW30928   3.013   0.434   6.802 -0.4656  0.5023 -0.3396
 6432SOL    HW130929   3.006   0.464   6.892  0.8851 -2.2043  0.6847
 6432SOL    HW230930   3.007   0.514   6.750 -1.6767 -0.1089 -1.1272
 6433SOL     OW30931   3.853   1.023   5.048 -0.1558 -0.0263 -0.4339
 6433SOL    HW130932   3.780   1.023   5.110  0.2025 -1.6832 -0.0181
 6433SOL    HW230933   3.927   1.034   5.107 -2.0124  1.2065  1.6885
 6434SOL     OW30934   4.607   3.877   6.051  0.0901  0.8332 -0.3373
 6434SOL    HW130935   4.663   3.811   6.090 -0.1836  0.1932 -1.0203
 6434SOL    HW230936   4.643   3.881   5.962  2.0687  0.7779  0.4687
 6435SOL     OW30937   4.028   3.536   3.929  0.5412 -0.4448  0.6181
 6435SOL    HW130938   4.003   3.521   3.838  0.2702  1.9759  0.3033
 6435SOL    HW230939   3.948   3.509   3.975  0.3951  1.4401  1.4552
 6436SOL     OW30940   0.691   2.284  11.808  0.4305  0.2537 -0.5823
 6436SOL    HW130941   0.682   2.241  11.893 -2.6546  0.2572 -0.8943
 6436SOL    HW230942   0.614   2.342  11.809  0.7562  0.6827  0.8187
 6437SOL     OW30943   3.708   0.296  10.778 -0.4993 -0.4441 -0.2031
 6437SOL    HW130944   3.785   0.279  10.831 -0.5990  2.2804  0.7959
 6437SOL    HW230945   3.749   0.277  10.693  0.2828 -1.0421  0.3164
 6438SOL     OW30946   4.262   2.131  14.365  0.5235  0.6823  0.0040
 6438SOL    HW130947   4.354   2.109  14.356  0.7083  0.3184  2.9091
 6438SOL    HW230948   4.266   2.122  14.460 -0.8540 -0.3837 -0.0286
 6439SOL     OW30949   1.694   0.360   2.785 -0.6267  0.4980 -0.3257
 6439SOL    HW130950   1.697   0.268   2.757 -0.0807  0.8570 -1.4336
 6439SOL    HW230951   1.770   0.369   2.841 -2.0052  2.1820  1.2598
 6440SOL     OW30952   2.538   1.186   6.845  0.3654  0.1392 -0.3560
 6440SOL    HW130953   2.620   1.150   6.878 -0.0972  1.5197  2.3294
 6440SOL    HW230954   2.542   1.281   6.861 -1.3043 -0.1369  1.6850
 6441SOL     OW30955   1.348   2.253   0.832 -0.5671 -0.2105 -0.3067
 6441SOL    HW130956   1.293   2.243   0.910 -1.7230 -2.5177 -1.4006
 6441SOL    HW230957   1.423   2.286   0.881 -0.5970  1.0197 -1.0865
 6442SOL     OW30958   3.655   4.105   8.774  0.0228  0.0087  0.2867
 6442SOL    HW130959   3.598   4.178   8.748 -0.4312 -0.1013  0.9837
 6442SOL    HW230960   3.687   4.139   8.858 -1.7335  0.5263  0.7535
 6443SOL     OW30961   2.369   0.567   1.885 -0.0963 -0.2751  0.3601
 6443SOL    HW130962   2.408   0.567   1.797  0.2245  2.5010  0.5322
 6443SOL    HW230963   2.275   0.580   1.873 -0.2412 -1.4198  0.1739
 6444SOL     OW30964   2.463   1.603   6.794  0.4146  0.6614  0.9345
 6444SOL    HW130965   2.515   1.682   6.805 -0.1426  1.0877  0.5291
 6444SOL    HW230966   2.496   1.554   6.718  0.9354  1.6199  0.5536
 6445SOL     OW30967   3.605   2.562   7.059  0.7279  0.6187 -0.3583
 6445SOL    HW130968   3.605   2.491   7.123  0.5654  0.5241 -0.4633
 6445SOL    HW230969   3.583   2.636   7.117 -2.7453  0.3837 -1.3627
 6446SOL     OW30970   3.517   4.370  13.014 -0.4864  0.0505 -0.1169
 6446SOL    HW130971   3.582   4.437  13.037 -1.2506  1.5210 -2.2312
 6446SOL    HW230972   3.441   4.419  12.982 -2.9127 -1.9817  2.5533
 6447SOL     OW30973   1.461   4.187  14.074  0.3298  0.4604  0.1248
 6447SOL    HW130974   1.369   4.192  14.051  0.5782 -1.9588 -1.3236
 6447SOL    HW230975   1.510   4.211  13.995 -2.3396 -2.5769 -2.4288
 6448SOL     OW30976   0.211   4.509  11.928  0.1033 -0.2901 -0.0591
 6448SOL    HW130977   0.201   4.602  11.947 -0.3143 -0.5923  1.1936
 6448SOL    HW230978   0.287   4.520  11.871  1.5084  2.7382  2.4111
 6449SOL     OW30979   2.523   0.701  12.284  0.3235  0.0605 -0.8428
 6449SOL    HW130980   2.453   0.665  12.338  0.7573  0.2581 -0.1440
 6449SOL    HW230981   2.604   0.667  12.324  1.1752  2.8137 -0.2055
 6450SOL     OW30982   0.868   3.520  10.780 -0.3974  0.4451  0.0263
 6450SOL    HW130983   0.958   3.487  10.777  0.2228  1.9905  1.3878
 6450SOL    HW230984   0.874   3.570  10.862  0.2450  0.5536 -0.0890
 6451SOL     OW30985   3.952   3.482  11.939  0.2400 -0.0840  0.4026
 6451SOL    HW130986   3.929   3.390  11.923  2.0841 -0.4746 -0.0088
 6451SOL    HW230987   3.974   3.505  11.849 -1.1387  1.3115  0.4312
 6452SOL     OW30988   1.072   4.326   0.657 -0.2813  0.3151 -0.1519
 6452SOL    HW130989   1.110   4.317   0.745  1.8648  1.5825 -0.9508
 6452SOL    HW230990   1.125   4.268   0.603 -0.4274  0.7767 -0.7810
 6453SOL     OW30991   1.922   4.566   3.578 -0.0274 -0.2056  0.2209
 6453SOL    HW130992   1.845   4.550   3.524 -0.2961  1.6429  0.0804
 6453SOL    HW230993   1.988   4.558   3.508 -1.1846 -0.7573 -0.8127
 6454SOL     OW30994   4.647   2.181   7.276  0.0533  0.4262 -0.1840
 6454SOL    HW130995   4.661   2.087   7.277 -2.0078  0.1143  0.0510
 6454SOL    HW230996   4.602   2.193   7.192 -1.5843  0.8983  0.7701
 6455SOL     OW30997   2.492   1.816   6.563  0.2831 -0.3865 -0.1320
 6455SOL    HW130998   2.413   1.870   6.574  0.5621 -0.1876  0.8487
 6455SOL    HW230999   2.556   1.886   6.577  1.4076 -2.3375  4.3012
 6456SOL     OW31000   4.042   1.597   1.050 -0.1835  0.7247 -0.1549
 6456SOL    HW131001   4.063   1.512   1.088 -2.3086  1.6168  2.9632
 6456SOL    HW231002   3.976   1.564   0.988  2.0396 -3.1857 -0.4234
 6457SOL     OW31003   1.256   3.793   4.636  0.1571 -0.0145 -0.1769
 6457SOL    HW131004   1.252   3.819   4.728  0.2088 -0.7153  0.0214
 6457SOL    HW231005   1.313   3.863   4.605  0.5517 -0.7992 -1.2280
 6458SOL     OW31006   3.239   4.234  12.230 -0.1972  0.4382 -0.4741
 6458SOL    HW131007   3.305   4.166  12.217 -0.3817  0.3171 -0.7693
 6458SOL    HW231008   3.175   4.202  12.294 -0.7729  3.3115  0.4104
 6459SOL     OW31009   1.009   2.996  10.356 -0.0422  0.1585 -0.0657
 6459SOL    HW131010   0.962   2.928  10.404  0.6786 -1.1836 -1.2536
 6459SOL    HW231011   0.947   3.012  10.284  0.4155  0.1835 -0.4512
 6460SOL     OW31012   3.027   4.121   2.965 -0.7148 -0.2065 -0.2855
 6460SOL    HW131013   2.950   4.066   2.949  1.9442 -4.0775  0.1491
 6460SOL    HW231014   3.082   4.062   3.016  0.5828  0.4307 -0.9578
 6461SOL     OW31015   3.323   0.089   6.688  0.0133  0.3469 -0.1881
 6461SOL    HW131016   3.232   0.071   6.712 -0.2033  1.6229 -0.0664
 6461SOL    HW231017   3.361   0.002   6.677 -0.3254  0.0729  0.8039
 6462SOL     OW31018   3.856   3.730   9.009  0.0989 -0.6645  0.2475
 6462SOL    HW131019   3.883   3.639   9.018 -0.0247 -0.7946 -0.7384
 6462SOL    HW231020   3.761   3.722   9.005 -0.1345  1.5922  1.0141
 6463SOL     OW31021   2.402   2.987   3.003  0.0107 -0.0349 -0.2124
 6463SOL    HW131022   2.413   2.897   3.031  0.3150  0.4390  1.2181
 6463SOL    HW231023   2.366   2.995   2.915 -2.1227  2.2347  0.8351
 6464SOL     OW31024   3.295   4.706   3.682 -0.2206  0.1975 -0.7236
 6464SOL    HW131025   3.262   4.643   3.746  0.5895  0.8213  0.3103
 6464SOL    HW231026   3.356   0.022   3.736  1.6962  0.8587 -3.5113
 6465SOL     OW31027   0.309   0.778   5.016 -0.3493 -0.2897 -0.1687
 6465SOL    HW131028   0.294   0.714   5.086  1.7623 -1.8097 -1.1083
 6465SOL    HW231029   0.368   0.840   5.058  0.4113 -1.1465  0.0189
 6466SOL     OW31030   3.524   3.630   4.406  0.2754 -0.0227  0.2685
 6466SOL    HW131031   3.435   3.609   4.434  0.4274  0.8030  1.3765
 6466SOL    HW231032   3.544   3.551   4.356  1.3242  0.1769  0.3686
 6467SOL     OW31033   2.994   1.784   2.969  0.3104 -0.3040 -0.4624
 6467SOL    HW131034   3.074   1.833   2.988  0.3432 -0.8414  0.7750
 6467SOL    HW231035   2.955   1.840   2.902  3.1990  0.0803 -1.8158
 6468SOL     OW31036   0.353   4.367   7.837 -0.6593  0.1985  0.0760
 6468SOL    HW131037   0.395   4.305   7.897 -1.9842  0.4330  1.2483
 6468SOL    HW231038   0.393   4.359   7.751 -1.4574 -0.2494 -0.2603
 6469SOL     OW31039   3.754   3.501   3.295 -0.0667 -0.3029  0.1477
 6469SOL    HW131040   3.842   3.472   3.274 -0.1379 -1.2046  1.0292
 6469SOL    HW231041   3.725   3.533   3.210  1.2668  0.3607 -0.0407
 6470SOL     OW31042   3.591   2.762   7.969 -0.3342  0.1977 -0.2616
 6470SOL    HW131043   3.683   2.745   7.949 -0.6523  1.4537 -2.8272
 6470SOL    HW231044   3.581   2.854   7.945  2.1354  0.8840  1.3146
 6471SOL     OW31045   2.122   2.943   8.096  0.3516  0.3285 -0.3683
 6471SOL    HW131046   2.184   3.003   8.139 -0.2794  0.5622  0.2229
 6471SOL    HW231047   2.147   2.855   8.125 -0.2056  0.5664  0.8359
 6472SOL     OW31048   1.590   1.829   7.104  0.1367 -0.1422  0.0710
 6472SOL    HW131049   1.597   1.765   7.175 -1.6192  0.4797  0.7997
 6472SOL    HW231050   1.556   1.774   7.032 -0.8820 -0.1921  0.5843
 6473SOL     OW31051   4.109   1.563   3.709  0.0378  0.0543 -0.3977
 6473SOL    HW131052   4.023   1.605   3.721  0.1438  0.1496  0.0141
 6473SOL    HW231053   4.158   1.612   3.643 -0.4590  0.6411 -0.3292
 6474SOL     OW31054   1.655   1.005   8.172  0.1956  0.1721 -0.3164
 6474SOL    HW131055   1.663   0.989   8.078  0.5925 -1.0221 -0.0825
 6474SOL    HW231056   1.743   0.986   8.203  0.1103  0.3353  0.0339
 6475SOL     OW31057   0.571   2.379   0.407 -0.3295 -0.0101  0.1166
 6475SOL    HW131058   0.661   2.403   0.386 -0.0787 -0.4058  0.7357
 6475SOL    HW231059   0.575   2.408   0.498  1.4070  0.9981 -0.2716
 6476SOL     OW31060   4.638   4.536   4.265 -0.3501  0.0948  0.2686
 6476SOL    HW131061   4.661   4.549   4.357  0.9382 -1.5482  0.1860
 6476SOL    HW231062   4.572   4.604   4.251  0.4895  1.0212  0.8393
 6477SOL     OW31063   2.596   1.175   6.208 -0.2546 -0.2785 -0.1170
 6477SOL    HW131064   2.520   1.231   6.195 -1.6442 -1.7665  1.5326
 6477SOL    HW231065   2.627   1.167   6.118  1.2989 -0.2735  0.4117
 6478SOL     OW31066   0.748   1.069   3.049  0.0274 -0.0151 -0.1702
 6478SOL    HW131067   0.711   1.154   3.027  0.8877  0.3959 -0.0243
 6478SOL    HW231068   0.674   1.012   3.031  1.0762 -1.2514 -0.5866
 6479SOL     OW31069   1.309   3.814   4.903  0.1612 -0.1317 -0.1491
 6479SOL    HW131070   1.375   3.748   4.921  1.6091  1.0524 -1.0494
 6479SOL    HW231071   1.265   3.812   4.987  0.2663  1.7761 -0.0367
 6480SOL     OW31072   3.936   1.309   3.171 -0.3979 -0.1781  0.1083
 6480SOL    HW131073   3.914   1.387   3.121 -1.0687  0.4585  1.4070
 6480SOL    HW231074   3.855   1.258   3.178  0.1412 -0.9629  0.6180
 6481SOL     OW31075   3.908   4.633   8.283 -0.4116 -0.1363  0.2655
 6481SOL    HW131076   3.824   4.607   8.246  0.2936 -2.9253  0.6490
 6481SOL    HW231077   3.948   4.556   8.323  1.4545  1.6516  1.8154
 6482SOL     OW31078   3.377   2.645   6.846 -0.4696  0.5047 -0.4563
 6482SOL    HW131079   3.381   2.616   6.755  3.3831 -0.4483  0.0110
 6482SOL    HW231080   3.471   2.646   6.867 -0.5080  0.7345 -0.2937
 6483SOL     OW31081   3.995   2.496  10.259 -0.7649  0.2176  0.2819
 6483SOL    HW131082   4.006   2.429  10.192 -0.8827  0.2066  0.2736
 6483SOL    HW231083   3.955   2.567  10.208  2.0306  1.0540 -0.7266
 6484SOL     OW31084   1.710   0.708   5.923  0.3830  0.4913  0.4625
 6484SOL    HW131085   1.688   0.629   5.874 -0.7193  0.1093  1.5418
 6484SOL    HW231086   1.744   0.772   5.861 -0.0799 -0.3087 -0.6103
 6485SOL     OW31087   1.740   3.181  15.530  0.3276 -0.1238  0.2420
 6485SOL    HW131088   1.798   3.246  15.492  0.8424 -1.7418 -1.7462
 6485SOL    HW231089   1.708   3.146  15.447 -0.4155 -1.5707  1.1370
 6486SOL     OW31090   1.244   1.076   4.955 -0.4667 -0.2325  0.4067
 6486SOL    HW131091   1.260   1.139   5.025 -0.4507  0.2613 -0.0387
 6486SOL    HW231092   1.309   1.008   4.974  0.2364  0.1719 -0.5384
 6487SOL     OW31093   1.117   2.235   7.781  0.3375  0.3641  0.3213
 6487SOL    HW131094   1.022   2.239   7.796  0.3212  1.3662 -0.0096
 6487SOL    HW231095   1.125   2.323   7.743 -0.2419  0.6251  0.8066
 6488SOL     OW31096   0.287   0.006   1.427 -0.3569 -0.2652  0.1582
 6488SOL    HW131097   0.356   4.732   1.361 -2.5626 -0.0289 -2.1884
 6488SOL    HW231098   0.327   0.071   1.485 -1.5733 -1.2348  2.0851
 6489SOL     OW31099   4.180   1.204   8.113  0.2742  0.0994 -0.2113
 6489SOL    HW131100   4.122   1.142   8.159  0.1326 -0.2088 -0.8013
 6489SOL    HW231101   4.245   1.138   8.088  1.1305 -0.2315  2.8634
 6490SOL     OW31102   0.779   1.386   1.396  0.4018  0.2934  0.2945
 6490SOL    HW131103   0.751   1.455   1.336  1.5021  0.1139 -0.4289
 6490SOL    HW231104   0.865   1.363   1.359  0.6747 -0.1064  1.1822
 6491SOL     OW31105   2.727   1.941   2.004 -0.0313 -0.2599  0.0229
 6491SOL    HW131106   2.713   1.848   1.992 -0.1746 -0.6328  2.9739
 6491SOL    HW231107   2.688   1.979   1.925  2.0049 -0.5449 -1.1120
 6492SOL     OW31108   4.215   2.273   5.491  0.0938  0.0308 -0.0593
 6492SOL    HW131109   4.162   2.206   5.447 -0.9677  0.8700 -0.0681
 6492SOL    HW231110   4.235   2.330   5.417  0.8949  0.9307  0.8491
 6493SOL     OW31111   1.350   1.500  12.803  0.7792  0.9158 -0.3405
 6493SOL    HW131112   1.288   1.487  12.875 -0.6929 -1.5641 -2.0593
 6493SOL    HW231113   1.350   1.417  12.755  0.5732  0.5498  0.2895
 6494SOL     OW31114   3.390   0.299   6.964 -0.1471 -0.3068 -0.1726
 6494SOL    HW131115   3.359   0.251   6.887 -1.3774  0.1913  0.0102
 6494SOL    HW231116   3.378   0.231   7.029  1.1419  0.0954  0.4890
 6495SOL     OW31117   4.643   2.815   4.857  0.6302  0.3454 -0.0025
 6495SOL    HW131118   4.601   2.757   4.793  0.6210  1.9802 -1.4768
 6495SOL    HW231119   4.579   2.819   4.927 -0.2080  1.2920 -0.8160
 6496SOL     OW31120   2.675   1.188   3.271  0.2263  0.2021 -0.6944
 6496SOL    HW131121   2.593   1.178   3.320  0.0605  2.0047 -0.6219
 6496SOL    HW231122   2.684   1.279   3.244 -1.0702  0.0980 -1.4680
 6497SOL     OW31123   3.124   0.815   6.913  0.1919 -0.0163  0.1750
 6497SOL    HW131124   3.213   0.835   6.943  1.2360 -1.3312 -2.0334
 6497SOL    HW231125   3.152   0.807   6.822 -1.5713 -0.9002 -0.2934
 6498SOL     OW31126   3.480   4.351   9.192  0.1907  0.3709 -0.5584
 6498SOL    HW131127   3.424   4.368   9.268  1.0400  0.5819  0.0183
 6498SOL    HW231128   3.505   4.443   9.189 -0.9309  0.7820  3.0511
 6499SOL     OW31129   4.077   1.901   7.012 -0.7591  0.1567 -0.5297
 6499SOL    HW131130   3.997   1.867   6.970 -0.1592 -0.2529 -1.3466
 6499SOL    HW231131   4.137   1.901   6.937  1.6379  1.0236  1.4045
 6500SOL     OW31132   0.762   2.012   7.212 -0.1588  0.0192  0.6385
 6500SOL    HW131133   0.741   2.015   7.118 -0.3169  0.9617  0.7023
 6500SOL    HW231134   0.857   2.003   7.208  0.0996  3.0815 -0.5542
 6501SOL     OW31135   4.185   2.614   5.756  0.2359  0.1329 -0.1383
 6501SOL    HW131136   4.137   2.535   5.731 -0.3264  0.1693  0.8335
 6501SOL    HW231137   4.272   2.577   5.768 -0.0312 -0.2548  0.5831
 6502SOL     OW31138   3.235   3.659   1.532  0.3981  0.3166 -0.0577
 6502SOL    HW131139   3.183   3.654   1.452  2.4417  1.8263 -1.5083
 6502SOL    HW231140   3.323   3.662   1.494  0.2203 -3.5146 -0.7792
 6503SOL     OW31141   1.307   4.588   1.042 -0.0633  0.5678 -0.2263
 6503SOL    HW131142   1.253   4.667   1.050  0.3875  0.8071  0.4146
 6503SOL    HW231143   1.354   4.611   0.962 -1.8917  1.0640 -1.1784
 6504SOL     OW31144   2.804   4.216   0.484 -0.4717 -0.1316  0.2654
 6504SOL    HW131145   2.716   4.180   0.491 -0.3662 -0.4522 -0.0955
 6504SOL    HW231146   2.827   4.164   0.408  1.3382  0.6486  0.2928
 6505SOL     OW31147   1.654   4.033  15.160  0.6607  0.2749  1.0161
 6505SOL    HW131148   1.627   4.078  15.080 -1.0482  2.2952  2.7525
 6505SOL    HW231149   1.629   3.942  15.145 -0.8697  0.7460  0.7926
 6506SOL     OW31150   2.351   4.173   9.565  0.5010 -0.2794 -0.1827
 6506SOL    HW131151   2.365   4.093   9.615  0.8730 -0.5000 -0.6520
 6506SOL    HW231152   2.341   4.141   9.476  4.9615 -3.4130  0.4580
 6507SOL     OW31153   0.735   0.356  11.325 -0.0910 -0.0193  0.1002
 6507SOL    HW131154   0.785   0.277  11.306  0.0051  0.1984 -0.5775
 6507SOL    HW231155   0.706   0.380  11.236  3.0569 -0.1072 -0.9626
 6508SOL     OW31156   3.801   1.134   5.873  0.2313  0.1200 -0.5332
 6508SOL    HW131157   3.803   1.123   5.969 -0.9898  1.4858 -0.3573
 6508SOL    HW231158   3.772   1.047   5.845  1.8849 -0.2196 -1.2029
 6509SOL     OW31159   1.331   0.034  12.312  0.1460  0.3522  0.6184
 6509SOL    HW131160   1.286   0.029  12.228 -0.3696  1.2613  0.8385
 6509SOL    HW231161   1.300   0.117  12.348 -1.1049  0.3528 -0.4824
 6510SOL     OW31162   4.604   2.547   4.393  0.4172  0.3314 -0.4118
 6510SOL    HW131163   4.547   2.612   4.431  3.4272  1.4520  2.1533
 6510SOL    HW231164   4.689   2.583   4.417 -0.2624  1.0282  0.9320
 6511SOL     OW31165   4.508   0.056   6.225  0.1978  0.7395  0.4366
 6511SOL    HW131166   4.503   0.138   6.273  0.7520  1.3061 -0.4686
 6511SOL    HW231167   4.416   0.053   6.198  1.2875  2.9762 -3.5777
 6512SOL     OW31168   3.387   3.319   9.571  0.4702  0.1173  0.0753
 6512SOL    HW131169   3.356   3.354   9.487 -2.0463 -0.5843  0.6849
 6512SOL    HW231170   3.302   3.285   9.601  1.2601 -0.2722  1.8367
 6513SOL     OW31171   0.700   2.572   2.066 -0.3991  0.3798  0.5633
 6513SOL    HW131172   0.738   2.600   2.149  2.9780 -1.5658 -0.3416
 6513SOL    HW231173   0.619   2.623   2.061 -0.2183  0.7474  1.3899
 6514SOL     OW31174   0.803   2.147   8.262  0.2345 -0.2795  0.1040
 6514SOL    HW131175   0.805   2.235   8.223  0.0181  1.0855  3.1602
 6514SOL    HW231176   0.898   2.145   8.275  0.4088  1.2090 -0.8996
 6515SOL     OW31177   0.285   1.821   5.709 -0.4398  0.1370 -0.1292
 6515SOL    HW131178   0.298   1.726   5.709  2.4477  0.5109 -2.2376
 6515SOL    HW231179   0.246   1.834   5.795 -0.4472  0.4697 -0.1849
 6516SOL     OW31180   2.271   2.444  14.641  0.2944 -0.3748  0.3501
 6516SOL    HW131181   2.206   2.409  14.701 -2.5627  1.5503 -1.6328
 6516SOL    HW231182   2.304   2.503  14.709 -2.9777  0.2337  1.3933
 6517SOL     OW31183   1.618   1.545  14.541  0.1152 -0.2089 -0.2876
 6517SOL    HW131184   1.566   1.596  14.479 -1.6494  0.3945  1.6975
 6517SOL    HW231185   1.694   1.520  14.487  0.1793 -0.0096 -0.2913
 6518SOL     OW31186   4.351   2.037   4.222 -0.0863 -0.2145  0.1976
 6518SOL    HW131187   4.348   2.105   4.290  2.7058 -1.1531  1.2371
 6518SOL    HW231188   4.444   2.042   4.202 -0.6385  0.5056 -2.2878
 6519SOL     OW31189   3.479   2.955  15.879  0.0887 -0.4179 -0.6515
 6519SOL    HW131190   3.405   3.012  15.856  0.8584  0.2641 -1.4398
 6519SOL    HW231191   3.516   3.003  15.953  0.6301 -0.9220 -0.5969
 6520SOL     OW31192   3.250   3.567   4.443 -0.4188  0.3513 -0.4476
 6520SOL    HW131193   3.231   3.661   4.445 -0.0795  0.3967  0.4546
 6520SOL    HW231194   3.185   3.524   4.387  1.8731 -0.5326 -2.4047
 6521SOL     OW31195   4.150   0.759  12.656  0.2322 -0.1508  0.3640
 6521SOL    HW131196   4.147   0.816  12.733  0.9066  2.1452 -1.3031
 6521SOL    HW231197   4.062   0.727  12.636  0.1837  0.1958  0.0153
 6522SOL     OW31198   3.623   3.692   1.076  0.5347 -0.1346 -0.1670
 6522SOL    HW131199   3.641   3.637   0.999  2.3336  0.5301 -0.2153
 6522SOL    HW231200   3.676   3.644   1.140  2.3742  1.0682 -0.7764
 6523SOL     OW31201   3.676   2.884   3.262  0.1994 -0.1721 -0.1273
 6523SOL    HW131202   3.698   2.956   3.321  0.1286 -0.6806  0.5244
 6523SOL    HW231203   3.593   2.914   3.225 -0.7084 -0.2277  1.8518
 6524SOL     OW31204   0.565   0.273   4.645 -0.5306 -0.1249 -0.4788
 6524SOL    HW131205   0.557   0.223   4.564 -2.6557  0.8012 -0.8277
 6524SOL    HW231206   0.543   0.364   4.625  0.7399 -0.1866 -2.1002
 6525SOL     OW31207   1.455   0.137   7.251  0.4882 -0.2537 -0.1969
 6525SOL    HW131208   1.382   0.113   7.193 -0.3756 -0.4149  0.9579
 6525SOL    HW231209   1.429   0.123   7.342 -0.1644  0.2911 -0.3066
 6526SOL     OW31210   0.638   3.692   7.784 -0.6271 -0.5120  0.2570
 6526SOL    HW131211   0.583   3.743   7.724 -0.6870  0.1908  0.9100
 6526SOL    HW231212   0.590   3.686   7.866 -0.8443 -0.2573  0.1498
 6527SOL     OW31213   3.931   2.761   2.431 -0.2943 -0.0383  0.0478
 6527SOL    HW131214   3.924   2.847   2.390 -0.8582 -0.8630 -1.5844
 6527SOL    HW231215   3.984   2.787   2.506  2.5481 -2.5356 -1.1010
 6528SOL     OW31216   1.261   4.173  11.805 -0.0575 -0.6940  0.1507
 6528SOL    HW131217   1.285   4.172  11.898  0.8810 -0.6259 -0.0913
 6528SOL    HW231218   1.350   4.158  11.772  0.7822  0.0428  2.0684
 6529SOL     OW31219   2.462   1.910  14.923  0.0099 -0.6719  0.2262
 6529SOL    HW131220   2.439   1.993  14.880 -0.2793 -0.4211  0.8611
 6529SOL    HW231221   2.441   1.938  15.012 -1.9330 -0.6098 -0.2562
 6530SOL     OW31222   0.259   0.992   0.486 -0.4295 -0.4863  0.2963
 6530SOL    HW131223   0.322   1.036   0.544  1.0403 -0.5742 -1.2387
 6530SOL    HW231224   0.227   0.926   0.548 -3.0076 -0.5057 -1.0558
 6531SOL     OW31225   3.004   4.416   9.244  0.4630 -1.2820 -0.6644
 6531SOL    HW131226   3.059   4.384   9.172 -1.9979  0.4404 -3.3001
 6531SOL    HW231227   2.999   4.336   9.297  1.9639  0.1301  1.5949
 6532SOL     OW31228   0.597   0.703   3.076  0.6040  0.1844  0.3769
 6532SOL    HW131229   0.560   0.787   3.050 -1.6468 -0.6486  0.9604
 6532SOL    HW231230   0.593   0.656   2.993 -1.7154 -0.6533  0.9879
 6533SOL     OW31231   4.532   4.287   6.487 -0.1580 -0.4230  0.4904
 6533SOL    HW131232   4.506   4.328   6.569  0.5921  0.5644  0.2385
 6533SOL    HW231233   4.619   4.328   6.481 -0.8199  0.8001 -0.9254
 6534SOL     OW31234   2.930   1.797  12.143  0.7793 -0.2167  0.1951
 6534SOL    HW131235   2.993   1.730  12.118  1.0108 -0.0914  0.4579
 6534SOL    HW231236   2.995   1.867  12.147  1.9264 -1.3356  1.0569
 6535SOL     OW31237   2.873   4.450   8.334  0.2275  0.0913 -0.4032
 6535SOL    HW131238   2.944   4.513   8.350  0.1387  0.0619  0.1270
 6535SOL    HW231239   2.870   4.401   8.416  4.5462 -1.4917 -1.2070
 6536SOL     OW31240   2.555   0.543  12.061  0.1268 -0.3412 -0.1051
 6536SOL    HW131241   2.493   0.477  12.092  1.5290 -1.8403 -0.5385
 6536SOL    HW231242   2.522   0.619  12.109  1.1200 -0.3389  0.5661
 6537SOL     OW31243   4.345   0.813   4.075  0.5719 -0.0530 -0.3747
 6537SOL    HW131244   4.260   0.829   4.034 -1.0793 -1.4299  2.5093
 6537SOL    HW231245   4.320   0.845   4.161  2.3724 -0.7178  0.4089
 6538SOL     OW31246   2.855   1.317   2.616  0.0606 -0.2220 -0.2239
 6538SOL    HW131247   2.760   1.311   2.614  0.1156 -0.7138 -1.9412
 6538SOL    HW231248   2.873   1.372   2.692  0.3753 -0.4434 -0.1375
 6539SOL     OW31249   2.433   1.630   5.070  0.2235 -0.3434 -0.2440
 6539SOL    HW131250   2.517   1.674   5.084  0.6027 -0.3606 -2.4906
 6539SOL    HW231251   2.461   1.539   5.065 -1.2359 -0.8458  0.6379
 6540SOL     OW31252   0.362   3.588  16.604 -0.5879 -0.4024  0.0681
 6540SOL    HW131253   0.365   3.582  16.508 -1.1409 -2.0699  0.1488
 6540SOL    HW231254   0.442   3.542  16.628 -0.4057 -0.0207  0.1815
 6541SOL     OW31255   4.119   4.562  11.210  0.0224  0.8062  0.2446
 6541SOL    HW131256   4.106   4.499  11.281  0.8687 -1.0004 -1.2044
 6541SOL    HW231257   4.052   4.630  11.217  0.6181  1.4222 -0.0650
 6542SOL     OW31258   1.137   3.365   5.651 -0.3175  0.0854  0.3651
 6542SOL    HW131259   1.131   3.447   5.701 -0.8353  0.0840  0.3112
 6542SOL    HW231260   1.113   3.297   5.714  1.5035  0.6927  1.7128
 6543SOL     OW31261   1.642   1.108   3.809 -0.2435  0.5045  0.0931
 6543SOL    HW131262   1.604   1.041   3.752 -1.7487  1.3590  0.1191
 6543SOL    HW231263   1.715   1.054   3.841  0.2406  0.8421 -0.4504
 6544SOL     OW31264   0.728   3.579  11.820 -0.1151  0.2618  0.0059
 6544SOL    HW131265   0.717   3.532  11.903  0.1437 -0.0191 -0.1156
 6544SOL    HW231266   0.640   3.572  11.784 -0.0473  0.8031 -0.2723
 6545SOL     OW31267   2.231   0.820   8.972  0.3877 -0.1815  0.5217
 6545SOL    HW131268   2.306   0.829   8.912 -1.4242  0.1466 -1.7087
 6545SOL    HW231269   2.272   0.818   9.058 -0.7497  1.5736  1.0821
 6546SOL     OW31270   0.407   0.427   7.088  0.2164 -0.2963  0.3261
 6546SOL    HW131271   0.480   0.417   7.148  0.4535 -0.7776 -0.0394
 6546SOL    HW231272   0.346   0.436   7.161  1.3226 -1.1822  1.3564
 6547SOL     OW31273   4.631   3.970   5.444 -0.0977  0.0534 -0.6123
 6547SOL    HW131274   4.615   3.886   5.487 -3.2594  0.8293 -0.2575
 6547SOL    HW231275   4.673   3.940   5.363 -0.1704  1.7458 -1.2625
 6548SOL     OW31276   1.577   3.747   1.929  0.1971  0.1351  0.0754
 6548SOL    HW131277   1.554   3.654   1.920  1.7581 -0.3114  0.6399
 6548SOL    HW231278   1.628   3.740   2.009  0.4255  0.0648 -0.0751
 6549SOL     OW31279   3.553   4.672   4.696  0.4155  0.2395 -0.0148
 6549SOL    HW131280   3.547   4.587   4.653  0.6752 -0.0055  0.4392
 6549SOL    HW231281   3.625   4.656   4.757  0.2166  1.2283  0.4764
 6550SOL     OW31282   2.648   0.065   5.858 -0.5679  0.9945 -0.3668
 6550SOL    HW131283   2.597   0.028   5.786  2.1420  2.1045 -2.8192
 6550SOL    HW231284   2.614   0.154   5.863  0.2371  1.2865 -0.0592
 6551SOL     OW31285   2.321   3.962  16.620 -0.3111 -0.6891 -0.1979
 6551SOL    HW131286   2.350   4.028  16.683  0.8358  1.4750 -3.0170
 6551SOL    HW231287   2.257   3.910  16.669 -0.7456  0.1386  0.1070
 6552SOL     OW31288   4.010   4.231  15.399 -0.1743  0.2058 -0.7532
 6552SOL    HW131289   4.014   4.312  15.449 -0.2703  1.9182 -3.5122
 6552SOL    HW231290   3.917   4.232  15.377 -0.8564 -2.4476  2.0638
 6553SOL     OW31291   0.050   3.843  14.254  0.0318 -0.5450 -0.2381
 6553SOL    HW131292   4.727   3.896  14.200  2.6061  0.8381 -1.6488
 6553SOL    HW231293   4.731   3.771  14.287  1.3295  0.4288  3.9984
 6554SOL     OW31294   2.403   2.077   6.103 -0.4730  0.0696  0.0191
 6554SOL    HW131295   2.407   2.159   6.053 -3.2097  0.3305  0.2587
 6554SOL    HW231296   2.362   2.013   6.044  0.0116  2.6129 -3.1118
 6555SOL     OW31297   1.251   4.010  11.290 -0.4718 -0.2720  0.6153
 6555SOL    HW131298   1.184   4.027  11.356  0.2828 -1.1882  1.6266
 6555SOL    HW231299   1.312   4.080  11.311  1.4246 -1.4635 -0.8637
 6556SOL     OW31300   1.050   4.390   4.081  0.0207 -0.0619  0.4783
 6556SOL    HW131301   1.077   4.311   4.128 -0.2355 -1.2407 -1.3321
 6556SOL    HW231302   0.963   4.405   4.120 -1.2535 -1.8307 -1.6763
 6557SOL     OW31303   1.683   3.035   6.305  0.0732  0.0947  0.6053
 6557SOL    HW131304   1.643   2.958   6.344  0.1092  0.4865  1.4242
 6557SOL    HW231305   1.693   3.093   6.380  1.8443  1.7117 -0.8581
 6558SOL     OW31306   4.345   0.697   1.311  0.2150  0.1162 -0.3052
 6558SOL    HW131307   4.435   0.720   1.334  0.3180 -0.8200  0.2424
 6558SOL    HW231308   4.327   0.638   1.383 -0.7479  0.9802  0.1547
 6559SOL     OW31309   1.282   2.083  14.812 -0.6497  0.0774 -0.3287
 6559SOL    HW131310   1.200   2.035  14.803 -0.6001 -0.4597  2.1437
 6559SOL    HW231311   1.308   2.080  14.720  1.7375 -1.1807  0.3785
 6560SOL     OW31312   2.992   3.523   9.308 -0.1184  0.5026  0.0584
 6560SOL    HW131313   3.068   3.523   9.250 -0.1409 -1.3057  0.0521
 6560SOL    HW231314   3.004   3.457   9.376 -0.1803 -0.0012 -0.4182
 6561SOL     OW31315   2.756   2.604   3.795  0.0184  0.2908  0.4836
 6561SOL    HW131316   2.784   2.643   3.877  2.7136 -1.7289  0.5378
 6561SOL    HW231317   2.794   2.662   3.728 -0.4881 -0.3952 -0.4100
 6562SOL     OW31318   2.459   1.498   2.187 -0.2079 -0.3585  0.0487
 6562SOL    HW131319   2.374   1.455   2.184 -0.9149  0.9493  1.7256
 6562SOL    HW231320   2.504   1.477   2.268 -0.1094 -0.8559 -0.1320
 6563SOL     OW31321   4.080   2.121   3.074  0.4007  0.4455 -0.4479
 6563SOL    HW131322   4.152   2.160   3.124  0.5923 -0.5893  0.0668
 6563SOL    HW231323   4.052   2.050   3.132  0.7225  0.0323 -0.8016
 6564SOL     OW31324   2.555   2.626   5.262 -0.2490  0.4237 -0.2346
 6564SOL    HW131325   2.589   2.671   5.184  1.6090 -0.9416 -0.2053
 6564SOL    HW231326   2.467   2.620   5.226 -1.2402  2.4446  1.8281
 6565SOL     OW31327   3.644   2.676   6.759 -0.2564  0.3381 -0.6319
 6565SOL    HW131328   3.680   2.752   6.713 -0.8717  1.6938  1.1244
 6565SOL    HW231329   3.600   2.634   6.686  3.5441  1.5975 -3.6719
 6566SOL     OW31330   4.027   0.012   4.871 -0.8674  0.1932 -0.3035
 6566SOL    HW131331   3.943   4.727   4.913 -1.5845  0.3634 -1.6599
 6566SOL    HW231332   3.988   0.020   4.784 -2.8762 -0.0244  0.5796
 6567SOL     OW31333   1.761   1.363   6.375  0.1696  0.0353 -0.3505
 6567SOL    HW131334   1.685   1.339   6.323 -0.7393  3.6811 -0.7278
 6567SOL    HW231335   1.736   1.454   6.391  0.1501 -0.2259  1.0934
 6568SOL     OW31336   0.147   4.123  13.590 -0.3603 -0.1391 -0.0343
 6568SOL    HW131337   0.069   4.102  13.640 -0.0693 -0.0622  0.4493
 6568SOL    HW231338   0.158   4.047  13.532  1.4764  1.2245 -1.4954
 6569SOL     OW31339   4.614   0.300   5.797 -0.0601  0.2790  0.3308
 6569SOL    HW131340   4.621   0.207   5.819  0.8996  0.3068  0.1572
 6569SOL    HW231341   4.678   0.342   5.853 -0.0194 -0.3509  0.7644
 6570SOL     OW31342   4.645   1.847   2.285 -0.1935  0.0390  0.1124
 6570SOL    HW131343   4.580   1.879   2.222 -0.6771 -2.3992 -0.6292
 6570SOL    HW231344   4.722   1.883   2.242  0.9898 -2.0892  0.4962
 6571SOL     OW31345   4.136   3.780   6.468  0.0297 -0.6146  0.1386
 6571SOL    HW131346   4.185   3.853   6.505 -1.6106  0.5998 -0.0809
 6571SOL    HW231347   4.207   3.715   6.460  0.5496 -0.1279  0.8851
 6572SOL     OW31348   3.636   3.744   3.104 -0.3506 -0.4848 -0.4861
 6572SOL    HW131349   3.562   3.794   3.069 -1.5933 -0.4798  2.1341
 6572SOL    HW231350   3.713   3.785   3.065 -0.9656  1.8669  0.8100
 6573SOL     OW31351   1.061   1.001   0.110 -0.1765  0.3699 -0.2494
 6573SOL    HW131352   1.041   1.090   0.080  0.1855 -0.1733 -2.0988
 6573SOL    HW231353   1.059   0.954   0.027  1.0120  1.8510 -1.1245
 6574SOL     OW31354   1.515   0.055  16.623 -0.4339 -0.4395  0.0638
 6574SOL    HW131355   1.443   0.117  16.620  1.7105  1.9657 -0.9132
 6574SOL    HW231356   1.484   4.714  16.674 -0.8338  0.0355  0.5323
 6575SOL     OW31357   1.842   2.266   4.987  0.5106 -0.0649 -0.2167
 6575SOL    HW131358   1.839   2.188   5.043  2.9281  0.7481  1.0229
 6575SOL    HW231359   1.776   2.244   4.922  1.2617  2.2076 -1.7523
 6576SOL     OW31360   1.880   4.346   6.027 -0.0601  0.3244 -0.3491
 6576SOL    HW131361   1.801   4.397   6.048  0.5586  0.2666  2.1346
 6576SOL    HW231362   1.851   4.255   6.018  0.3749  0.3800 -2.3739
 6577SOL     OW31363   4.558   0.537   8.683 -0.3326 -0.5751  0.0720
 6577SOL    HW131364   4.529   0.493   8.763  0.0182 -0.0317  0.5044
 6577SOL    HW231365   4.648   0.504   8.680  0.7470  2.2055  0.8478
 6578SOL     OW31366   2.489   3.721   5.390 -0.1969  0.2990 -0.3940
 6578SOL    HW131367   2.419   3.735   5.327 -0.5962 -2.7433 -0.6393
 6578SOL    HW231368   2.429   3.700   5.462 -1.4744  1.5622 -1.1010
 6579SOL     OW31369   0.367   2.863   1.945 -0.7195 -0.1665  0.2557
 6579SOL    HW131370   0.432   2.828   1.885 -0.6521  2.0386 -0.9420
 6579SOL    HW231371   0.354   2.779   1.990  1.7889 -0.4514  0.4362
 6580SOL     OW31372   1.718   0.294   7.675  0.2324  0.8019 -0.3024
 6580SOL    HW131373   1.784   0.238   7.716  0.3824  0.5515 -0.8987
 6580SOL    HW231374   1.737   0.257   7.589  3.5428  0.7306  0.4712
 6581SOL     OW31375   0.986   3.930   2.949 -0.1706 -0.3259  0.1493
 6581SOL    HW131376   1.029   4.001   2.902  0.5077 -0.4167  0.6222
 6581SOL    HW231377   0.907   3.968   2.987 -0.5129 -1.4269  0.5564
 6582SOL     OW31378   0.358   0.230   6.384  0.0123 -0.5416  0.4836
 6582SOL    HW131379   0.380   0.310   6.431  0.6989  0.2048 -1.1300
 6582SOL    HW231380   0.421   0.167   6.419 -0.8933 -0.7430  1.7760
 6583SOL     OW31381   3.914   0.775   5.586  0.2848 -0.2486 -0.1136
 6583SOL    HW131382   3.943   0.866   5.578 -1.4255  0.2731 -0.5165
 6583SOL    HW231383   3.899   0.758   5.492 -1.7800  0.4174  0.0751
 6584SOL     OW31384   1.990   3.811  13.482  0.0091 -0.0852 -1.0468
 6584SOL    HW131385   1.982   3.724  13.521 -3.2560 -0.1615 -1.8421
 6584SOL    HW231386   1.912   3.854  13.518  1.7846  2.1039  0.1695
 6585SOL     OW31387   3.950   1.670  13.842  0.0837  0.5955 -0.1640
 6585SOL    HW131388   3.947   1.717  13.925  1.3189 -2.2317  1.4949
 6585SOL    HW231389   3.862   1.680  13.805 -0.1749  0.2738  0.3637
 6586SOL     OW31390   3.339   1.208  10.110  0.8446 -0.0226  0.1646
 6586SOL    HW131391   3.366   1.294  10.078  1.8705 -0.6930 -0.7619
 6586SOL    HW231392   3.301   1.181  10.027 -2.5092  2.0091  1.0276
 6587SOL     OW31393   3.990   3.416   5.082  0.2714 -0.0946 -0.5051
 6587SOL    HW131394   3.985   3.508   5.107 -1.5069 -0.6227  1.0033
 6587SOL    HW231395   4.031   3.376   5.159 -0.1760 -0.3223 -0.3827
 6588SOL     OW31396   1.484   2.640   0.242 -0.1680  0.2820 -0.2785
 6588SOL    HW131397   1.576   2.623   0.221  0.2005  0.1659  1.4538
 6588SOL    HW231398   1.484   2.665   0.334  0.6294 -0.6966 -0.0099
 6589SOL     OW31399   0.451   3.154  11.124  0.2284  0.0793 -0.0051
 6589SOL    HW131400   0.519   3.220  11.120  0.4508 -0.0955  0.7943
 6589SOL    HW231401   0.378   3.191  11.074 -1.1754 -0.6028  1.4962
 6590SOL     OW31402   2.629   0.828  13.518 -0.2120  0.1144  0.1985
 6590SOL    HW131403   2.603   0.784  13.599  0.4301  0.4748  0.6003
 6590SOL    HW231404   2.710   0.782  13.498  0.0187  0.3274  0.6394
 6591SOL     OW31405   0.847   3.823  11.816 -0.2264 -0.1801  0.2634
 6591SOL    HW131406   0.892   3.793  11.737 -2.2429  0.5732 -1.1680
 6591SOL    HW231407   0.802   3.740  11.831  0.0605 -0.3882 -0.0337
 6592SOL     OW31408   3.526   3.886   3.746  0.3756 -0.3777  0.3514
 6592SOL    HW131409   3.581   3.816   3.781  0.8225  0.4486  1.3168
 6592SOL    HW231410   3.599   3.946   3.730 -0.4117 -0.1023 -2.1033
 6593SOL     OW31411   3.785   4.316  12.798  0.0743 -0.1133  0.3534
 6593SOL    HW131412   3.740   4.253  12.742  0.9835  0.7786 -1.3832
 6593SOL    HW231413   3.876   4.307  12.770  0.0052 -0.6390  0.3154
 6594SOL     OW31414   1.764   4.639   7.711  0.2815 -0.0275 -0.6971
 6594SOL    HW131415   1.810   4.712   7.670 -1.1160  1.0360 -0.3812
 6594SOL    HW231416   1.679   4.634   7.669  0.0035  1.6127 -0.3340
 6595SOL     OW31417   3.376   0.412  12.227 -0.5595 -0.0796  0.4347
 6595SOL    HW131418   3.365   0.327  12.269 -3.4179 -0.8764 -1.9491
 6595SOL    HW231419   3.286   0.444  12.236 -0.6716  0.3738 -2.2215
 6596SOL     OW31420   1.636   4.405  16.272 -0.3461 -0.5483  0.1593
 6596SOL    HW131421   1.636   4.493  16.308 -0.6503 -0.4094 -0.1756
 6596SOL    HW231422   1.649   4.368  16.360  0.3334 -1.8410 -0.4859
 6597SOL     OW31423   3.677   0.551  12.502  0.3870  0.3864  0.1859
 6597SOL    HW131424   3.667   0.544  12.407  1.2766 -2.5671  0.2941
 6597SOL    HW231425   3.603   0.504  12.542  0.1353  1.3165  0.8138
 6598SOL     OW31426   0.530   0.488   1.364 -0.4008 -0.3568 -0.0560
 6598SOL    HW131427   0.450   0.538   1.347 -0.0681  1.3801  3.4018
 6598SOL    HW231428   0.528   0.425   1.292 -0.7691  0.8493 -1.0880
 6599SOL     OW31429   2.099   3.609   3.548 -0.1601 -0.1878  0.3034
 6599SOL    HW131430   2.011   3.645   3.560  0.6690  1.6248  0.9258
 6599SOL    HW231431   2.084   3.516   3.532  2.0405 -0.2389 -1.3798
 6600SOL     OW31432   3.336   1.373   8.302  0.0355 -0.1129  0.1426
 6600SOL    HW131433   3.341   1.395   8.395  0.2128  0.2464  0.0519
 6600SOL    HW231434   3.425   1.379   8.266 -0.8343  3.1618 -1.4862
 6601SOL     OW31435   3.596   3.179   7.084 -0.1524 -0.0035  0.0698
 6601SOL    HW131436   3.581   3.273   7.079 -0.9910 -0.1536 -0.2389
 6601SOL    HW231437   3.503   3.157   7.089 -0.4188  1.0793 -0.1239
 6602SOL     OW31438   3.297   0.790   7.623 -0.2915  0.3643 -0.1492
 6602SOL    HW131439   3.262   0.741   7.549 -1.7439  2.0083 -0.5453
 6602SOL    HW231440   3.215   0.835   7.641  0.4539  1.3386  0.8313
 6603SOL     OW31441   0.840   1.760   3.696 -0.0428  1.0194  0.2892
 6603SOL    HW131442   0.800   1.681   3.734  0.2225  0.9696  0.4622
 6603SOL    HW231443   0.783   1.823   3.740 -0.8683 -1.0704  2.2389
 6604SOL     OW31444   1.926   4.337   4.035 -0.1794 -0.1981 -0.2968
 6604SOL    HW131445   1.975   4.293   4.105 -0.8094 -2.8748 -1.5272
 6604SOL    HW231446   1.852   4.371   4.086 -1.6689 -2.9152 -0.6040
 6605SOL     OW31447   1.917   1.192  17.048 -0.0693 -0.4062 -0.2082
 6605SOL    HW131448   1.882   1.192  16.959 -0.2165  0.1560 -0.1523
 6605SOL    HW231449   1.849   1.144  17.095 -0.9899  1.5814  0.4764
 6606SOL     OW31450   1.651   3.127   1.567 -0.0987  0.2639 -0.0876
 6606SOL    HW131451   1.569   3.146   1.521  0.1561 -0.1764 -0.7179
 6606SOL    HW231452   1.621   3.059   1.627 -0.9407  0.2532 -0.5196
 6607SOL     OW31453   4.468   3.337   3.051  0.6482  0.0514 -0.0590
 6607SOL    HW131454   4.516   3.344   2.969  1.2967 -2.1869  0.1171
 6607SOL    HW231455   4.410   3.263   3.031 -1.2573  1.5531 -0.1472
 6608SOL     OW31456   4.416   2.870  11.433  0.0097 -0.4968 -0.1706
 6608SOL    HW131457   4.441   2.869  11.340  1.6116  1.2484  0.2247
 6608SOL    HW231458   4.326   2.839  11.421  0.7149 -1.3869 -3.0991
 6609SOL     OW31459   1.365   4.332   0.076 -0.7510 -0.1546  0.1385
 6609SOL    HW131460   1.435   4.394   0.060 -0.6871  0.1401  1.5587
 6609SOL    HW231461   1.420   4.254   0.086 -1.3567 -0.5247  0.6338
 6610SOL     OW31462   4.613   0.924   8.861 -0.1637 -0.1909  0.3694
 6610SOL    HW131463   4.546   0.856   8.853 -0.5911  0.3183 -0.4078
 6610SOL    HW231464   4.617   0.933   8.956  2.9415 -0.5696  0.2720
 6611SOL     OW31465   1.587   2.050   7.265  0.2961 -0.4246  0.2257
 6611SOL    HW131466   1.634   1.994   7.327 -1.8277 -1.0152  1.2859
 6611SOL    HW231467   1.607   2.006   7.182  1.0644 -1.2863  0.8665
 6612SOL     OW31468   4.642   3.212   3.678  0.1074 -0.3437 -0.1765
 6612SOL    HW131469   4.610   3.205   3.768  0.6836 -0.4786  0.0180
 6612SOL    HW231470   4.730   3.249   3.693 -0.1820  0.0499  0.5682
 6613SOL     OW31471   1.881   3.008   7.965 -0.2949  0.4095 -0.1380
 6613SOL    HW131472   1.937   3.050   7.901 -0.1168  1.0169  0.4216
 6613SOL    HW231473   1.941   2.970   8.029  0.3104  2.4274  0.4839
 6614SOL     OW31474   1.773   0.979  11.542  0.1615  0.1111 -0.2130
 6614SOL    HW131475   1.856   1.011  11.579 -1.8761  2.9824  1.8641
 6614SOL    HW231476   1.718   1.048  11.578 -0.2167 -0.4098  0.2051
 6615SOL     OW31477   2.917   0.753   3.115 -0.5595 -0.2220 -0.7002
 6615SOL    HW131478   2.971   0.756   3.194 -0.4067  0.2223 -0.8244
 6615SOL    HW231479   2.979   0.784   3.049 -1.7650  1.0078 -1.2539
 6616SOL     OW31480   1.191   0.614   2.934  0.1313  0.7382 -0.6745
 6616SOL    HW131481   1.182   0.682   3.001 -1.6145  1.1352 -1.3382
 6616SOL    HW231482   1.286   0.628   2.924  0.1956 -0.0669 -1.1428
 6617SOL     OW31483   1.632   0.595   1.273  0.3578 -0.1594  0.4182
 6617SOL    HW131484   1.666   0.633   1.192 -1.8059 -2.9937 -1.7979
 6617SOL    HW231485   1.542   0.625   1.262 -0.5252 -2.2041  2.1739
 6618SOL     OW31486   3.444   4.007   6.447 -0.3696 -0.1254 -0.4165
 6618SOL    HW131487   3.388   4.022   6.371 -2.3946  1.1201  1.3082
 6618SOL    HW231488   3.401   3.927   6.480 -0.9389  0.5462  0.4836
 6619SOL     OW31489   3.729   1.495   6.049  0.2372  0.6087 -0.2999
 6619SOL    HW131490   3.770   1.560   6.106  1.2824  0.0475 -0.4181
 6619SOL    HW231491   3.637   1.518   6.058 -0.2194 -0.7364 -1.5767
 6620SOL     OW31492   0.721   2.580   8.847 -0.2317  0.6013 -0.1487
 6620SOL    HW131493   0.760   2.493   8.833 -1.7901 -0.2377  0.7112
 6620SOL    HW231494   0.723   2.611   8.756  0.5173  1.2371  0.0827
 6621SOL     OW31495   0.880   0.020  12.464  0.2530 -0.0016 -0.2317
 6621SOL    HW131496   0.893   0.107  12.426  1.6300  0.0249  0.2836
 6621SOL    HW231497   0.838   4.711  12.391 -0.1594  0.9688 -0.5712
 6622SOL     OW31498   4.393   4.531  17.501  0.0247 -0.1541 -0.8476
 6622SOL    HW131499   4.376   4.469  17.572 -0.1292  1.6603  0.6958
 6622SOL    HW231500   4.462   4.486  17.452  0.8944  0.6979 -0.4199
 6623SOL     OW31501   0.215   1.678   8.388 -0.2992  0.1156  0.3410
 6623SOL    HW131502   0.230   1.665   8.482  0.7461 -0.4944  0.0923
 6623SOL    HW231503   0.189   1.769   8.373 -0.6997 -0.5855 -3.0806
 6624SOL     OW31504   3.292   4.015   2.303 -0.1067  0.4006  0.1829
 6624SOL    HW131505   3.224   4.063   2.349 -0.3496 -0.5211  0.7961
 6624SOL    HW231506   3.338   3.971   2.375 -0.0233  1.0009  0.4909
 6625SOL     OW31507   4.431   2.177   6.052 -0.5513 -0.4339  0.2102
 6625SOL    HW131508   4.362   2.140   5.996  0.6743 -0.0929 -1.5084
 6625SOL    HW231509   4.421   2.130   6.135  1.3557 -0.4121  0.4409
 6626SOL     OW31510   1.995   0.688   8.535 -0.4052 -0.6205  0.9622
 6626SOL    HW131511   1.999   0.646   8.449 -1.7971 -2.2749  1.6981
 6626SOL    HW231512   1.928   0.753   8.520  0.2303 -0.6113 -1.7822
 6627SOL     OW31513   4.318   0.219   5.814  0.0359  0.5968 -0.5343
 6627SOL    HW131514   4.265   0.273   5.873  0.2227  0.3534 -0.1360
 6627SOL    HW231515   4.392   0.268   5.779 -1.4798  3.9307  0.8880
 6628SOL     OW31516   1.261   0.027  12.036  0.5073 -0.8713  0.1177
 6628SOL    HW131517   1.276   0.027  11.942 -1.3648  0.8635 -0.1817
 6628SOL    HW231518   1.174   0.066  12.045  0.8454  0.5957 -3.2380
 6629SOL     OW31519   0.395   4.256   4.689 -0.5827 -1.1414  0.2243
 6629SOL    HW131520   0.315   4.204   4.697 -0.2587 -1.5231  0.9431
 6629SOL    HW231521   0.378   4.293   4.602  2.0647  1.3714  0.7643
 6630SOL     OW31522   0.532   2.764   0.732 -0.6069 -0.1130 -0.1390
 6630SOL    HW131523   0.518   2.859   0.733 -0.6134 -0.1270  1.4801
 6630SOL    HW231524   0.597   2.753   0.802 -0.7201  0.4871  0.0641
 6631SOL     OW31525   0.649   2.984   3.503  0.1531  0.2527  0.1200
 6631SOL    HW131526   0.626   3.015   3.416  2.0161 -1.1860 -0.8757
 6631SOL    HW231527   0.647   3.059   3.562 -0.8585  0.7098 -0.5031
 6632SOL     OW31528   3.218   4.062  14.028  0.1835 -0.0664 -0.1508
 6632SOL    HW131529   3.248   4.073  14.118  0.0051  1.8907 -0.3371
 6632SOL    HW231530   3.298   4.042  13.980 -0.2546 -0.1280 -0.8550
 6633SOL     OW31531   4.700   0.064   3.237  0.0661  0.2966  0.6837
 6633SOL    HW131532   4.658   0.039   3.319 -2.6317  0.4453 -0.6458
 6633SOL    HW231533   4.707   0.160   3.237 -0.1045  0.3099  0.7323
 6634SOL     OW31534   3.585   1.401   2.512 -0.0310 -0.3189  0.2882
 6634SOL    HW131535   3.501   1.406   2.468  0.2816 -0.9428 -0.3767
 6634SOL    HW231536   3.573   1.439   2.599  3.0758  0.8093  0.2436
 6635SOL     OW31537   1.586   2.141   5.150  0.2530  0.3266 -0.1794
 6635SOL    HW131538   1.501   2.175   5.180 -0.4543 -1.3320 -0.3233
 6635SOL    HW231539   1.563   2.060   5.104 -0.3884  0.1261  0.4936
 6636SOL     OW31540   3.112   2.063   9.166  0.0998  0.3849 -0.2285
 6636SOL    HW131541   3.200   2.054   9.203 -0.3482 -2.4565  0.1516
 6636SOL    HW231542   3.116   1.989   9.106 -0.2400  0.9278 -0.9148
 6637SOL     OW31543   2.875   0.085   1.882 -0.6596 -0.4816  0.2171
 6637SOL    HW131544   2.869   4.727   1.900 -2.4296 -0.4456 -0.1354
 6637SOL    HW231545   2.864   0.124   1.969 -1.9121  0.1188 -0.1997
 6638SOL     OW31546   2.630   1.798   4.821  0.1442  0.1412  0.0008
 6638SOL    HW131547   2.587   1.880   4.845 -1.8721 -2.1195  3.9809
 6638SOL    HW231548   2.655   1.756   4.903 -0.3735  0.8923  0.5494
 6639SOL     OW31549   1.697   0.552  12.791  0.3999  0.2107 -0.1336
 6639SOL    HW131550   1.679   0.573  12.700 -0.8584 -0.4137 -0.0282
 6639SOL    HW231551   1.629   0.599  12.840  0.5386 -0.5812  0.8103
 6640SOL     OW31552   3.397   2.700   1.720 -0.5857  0.1539 -0.2862
 6640SOL    HW131553   3.434   2.723   1.805 -2.5550 -0.4830  0.7460
 6640SOL    HW231554   3.332   2.641   1.756  0.8296 -0.7411  0.8245
 6641SOL     OW31555   1.975   3.475   9.861 -0.9262  0.0148  0.2227
 6641SOL    HW131556   1.973   3.570   9.875 -3.9350 -0.2761  1.7077
 6641SOL    HW231557   1.890   3.454   9.899 -0.6224 -2.0075 -0.2241
 6642SOL     OW31558   3.164   4.514   8.106 -0.0719 -0.2357 -0.1259
 6642SOL    HW131559   3.196   4.603   8.089 -1.1884  0.2238  0.1318
 6642SOL    HW231560   3.072   4.525   8.084  0.5203 -0.2995 -2.5728
 6643SOL     OW31561   4.102   0.799   3.737  0.1649  0.0534  0.5370
 6643SOL    HW131562   4.084   0.880   3.690 -2.5925 -0.2615  1.0217
 6643SOL    HW231563   4.019   0.794   3.785  0.4302  0.0534  0.9953
 6644SOL     OW31564   1.507   2.847   3.117 -0.5057  0.1326  0.2128
 6644SOL    HW131565   1.480   2.776   3.059  1.7973 -1.5521  1.2252
 6644SOL    HW231566   1.546   2.793   3.186  0.5360  2.2328  1.2823
 6645SOL     OW31567   2.196   3.249   3.661  0.4068 -0.1425  0.3553
 6645SOL    HW131568   2.277   3.300   3.658 -0.3560  0.9391 -1.2058
 6645SOL    HW231569   2.219   3.176   3.604  2.9903 -0.3854  1.6824
 6646SOL     OW31570   0.996   4.635  11.335 -0.1731 -0.0867 -0.0175
 6646SOL    HW131571   1.025   4.546  11.355  1.0397 -0.0149 -1.4666
 6646SOL    HW231572   1.071   4.680  11.297 -0.7201 -0.3018 -1.3458
 6647SOL     OW31573   1.477   4.423  13.627  0.0062  0.2901  0.2701
 6647SOL    HW131574   1.440   4.497  13.676  0.7516  0.9534 -0.1572
 6647SOL    HW231575   1.452   4.450  13.539 -1.8396 -0.7728  0.4666
 6648SOL     OW31576   2.348   0.386  12.212  0.5241 -0.2440  0.4175
 6648SOL    HW131577   2.338   0.436  12.293 -0.2617  0.0756  0.1294
 6648SOL    HW231578   2.388   0.305  12.242  0.1039 -0.1310  1.2855
 6649SOL     OW31579   3.687   0.398   1.705 -0.1294 -0.4187  0.4080
 6649SOL    HW131580   3.724   0.448   1.631  2.7178 -0.2691  1.9422
 6649SOL    HW231581   3.692   0.455   1.781  1.7680 -0.3128  0.1998
 6650SOL     OW31582   3.071   0.752   6.552 -0.1494 -0.3315 -0.2246
 6650SOL    HW131583   3.038   0.835   6.517 -1.2602 -1.3508 -1.5910
 6650SOL    HW231584   3.008   0.682   6.537 -0.6967  0.2058 -0.4324
 6651SOL     OW31585   2.304   3.779  15.869  0.6900  0.0221  0.3953
 6651SOL    HW131586   2.374   3.845  15.872 -0.8156  1.6557 -1.0207
 6651SOL    HW231587   2.246   3.819  15.934  1.0522  0.6315  0.3515
 6652SOL     OW31588   2.885   3.308  16.303 -0.0468  0.3320 -0.2673
 6652SOL    HW131589   2.958   3.340  16.357  0.5735  0.3590 -1.1161
 6652SOL    HW231590   2.890   3.360  16.223 -0.7604 -0.4768 -0.8362
 6653SOL     OW31591   1.151   1.290   1.038  0.4052  0.4193 -0.4079
 6653SOL    HW131592   1.089   1.363   1.046 -0.4364 -0.3406 -0.0426
 6653SOL    HW231593   1.088   1.222   1.013  1.2049 -0.6015  0.3901
 6654SOL     OW31594   3.260   3.867  17.420 -0.0320 -0.0624 -0.0880
 6654SOL    HW131595   3.243   3.775  17.403 -2.0173  0.6016 -1.7900
 6654SOL    HW231596   3.173   3.894  17.449  0.4346 -0.6518  1.8451
 6655SOL     OW31597   1.969   0.491   6.153 -0.0639  0.1105 -0.2627
 6655SOL    HW131598   2.004   0.579   6.138  0.9252 -0.5815 -2.0751
 6655SOL    HW231599   2.016   0.455   6.228 -1.8288 -0.3230  0.6137
 6656SOL     OW31600   2.157   4.131   7.807 -0.6112  0.2331 -0.6687
 6656SOL    HW131601   2.065   4.138   7.832 -0.3538  0.6389  0.1677
 6656SOL    HW231602   2.171   4.041   7.835 -3.6612  0.1414  0.5219
 6657SOL     OW31603   2.466   3.241   1.995  0.7529  0.0035  0.2119
 6657SOL    HW131604   2.501   3.327   1.974 -1.8488  0.6235 -1.6343
 6657SOL    HW231605   2.515   3.179   1.940  0.9011 -0.5249  0.9417
 6658SOL     OW31606   1.527   3.378   2.267 -0.5290 -0.1168 -0.2654
 6658SOL    HW131607   1.614   3.369   2.228  1.3273  1.3838  3.4843
 6658SOL    HW231608   1.545   3.386   2.361  0.3454 -2.1463 -0.2677
 6659SOL     OW31609   2.513   2.150   7.994  0.3758  0.1838  0.5283
 6659SOL    HW131610   2.599   2.151   7.952  1.3950 -1.2153  2.6144
 6659SOL    HW231611   2.461   2.139   7.914  0.5800  2.3846  0.1002
 6660SOL     OW31612   3.951   1.724  11.563 -0.3760  0.3072  0.1802
 6660SOL    HW131613   3.966   1.721  11.657 -0.2623  0.8322  0.1757
 6660SOL    HW231614   3.856   1.728  11.564 -0.3600  0.6277  0.2880
 6661SOL     OW31615   2.732   3.678   6.523 -0.3859 -0.5248  0.0813
 6661SOL    HW131616   2.758   3.589   6.498 -1.3951 -0.8508  0.1894
 6661SOL    HW231617   2.706   3.709   6.437 -1.2346  0.0640  0.5501
 6662SOL     OW31618   3.088   1.680   5.348 -0.4718 -0.0317  0.1221
 6662SOL    HW131619   3.009   1.676   5.401 -0.0818 -1.0716  0.6177
 6662SOL    HW231620   3.069   1.733   5.271 -0.6229 -0.3223 -0.0403
 6663SOL     OW31621   0.406   0.903  11.419  0.0728  0.0519 -0.6860
 6663SOL    HW131622   0.465   0.829  11.403 -0.1248 -0.2411 -0.0814
 6663SOL    HW231623   0.400   0.909  11.515  0.8530  1.4459 -0.7321
 6664SOL     OW31624   0.195   2.734   4.130  0.1650  0.2441  0.1649
 6664SOL    HW131625   0.186   2.732   4.035 -0.3643  3.6791  0.1358
 6664SOL    HW231626   0.211   2.828   4.142 -1.3469  0.6672 -1.2374
 6665SOL     OW31627   2.841   1.669  10.360  0.7720 -0.4191 -0.0265
 6665SOL    HW131628   2.924   1.655  10.314  1.3877  0.0023  0.9481
 6665SOL    HW231629   2.820   1.762  10.349 -1.0610 -0.7629  0.7024
 6666SOL     OW31630   3.098   4.616   4.207 -0.0543 -0.3237 -0.1484
 6666SOL    HW131631   3.045   4.593   4.283  0.8960 -2.1595 -0.0233
 6666SOL    HW231632   3.055   4.553   4.149  0.2384 -0.4390 -0.2415
 6667SOL     OW31633   0.204   0.755  16.877  0.0042  0.8639  0.1635
 6667SOL    HW131634   0.280   0.763  16.819  0.6082 -1.4882  0.5933
 6667SOL    HW231635   0.136   0.750  16.811  0.0868 -1.1249  0.2044
 6668SOL     OW31636   3.747   2.750   4.294  0.6984  0.1266  0.1192
 6668SOL    HW131637   3.814   2.775   4.358  0.5678 -0.4040  0.4625
 6668SOL    HW231638   3.683   2.704   4.348  1.1798 -1.8031 -0.9507
 6669SOL     OW31639   1.971   1.451  13.324 -0.0870  0.4266 -0.3464
 6669SOL    HW131640   1.972   1.443  13.229 -0.2515  1.2435 -0.4190
 6669SOL    HW231641   2.043   1.513  13.328  1.2358 -1.2444  1.4696
 6670SOL     OW31642   3.879   0.560   3.680 -0.3441  0.0475 -0.0786
 6670SOL    HW131643   3.828   0.531   3.755 -1.4588  2.2107 -0.0062
 6670SOL    HW231644   3.967   0.569   3.718 -1.9383  1.9603  3.2492
 6671SOL     OW31645   0.784   0.525  10.641 -0.0368  0.9997  0.6397
 6671SOL    HW131646   0.744   0.585  10.703  0.2428 -0.1547  1.9227
 6671SOL    HW231647   0.734   0.542  10.561  0.6068 -0.6010 -0.1134
 6672SOL     OW31648   3.143   1.263   1.948  0.4554  0.3593 -0.3967
 6672SOL    HW131649   3.174   1.352   1.933 -0.4451  0.4924 -1.4302
 6672SOL    HW231650   3.177   1.266   2.038 -1.9903 -2.0654  0.6065
 6673SOL     OW31651   1.207   1.694  13.470  0.1913 -0.0620 -0.0263
 6673SOL    HW131652   1.251   1.760  13.523 -0.3164  1.5090 -1.5474
 6673SOL    HW231653   1.251   1.616  13.502  1.2061  0.6065  0.1856
 6674SOL     OW31654   3.395   1.674  16.430 -0.3521  0.3235  0.2277
 6674SOL    HW131655   3.322   1.619  16.399  1.9282 -2.6840  0.2418
 6674SOL    HW231656   3.379   1.762  16.397 -1.1300  0.9700  2.3199
 6675SOL     OW31657   1.120   1.436  11.931  0.2253  0.0822  0.1338
 6675SOL    HW131658   1.164   1.362  11.890 -0.3743  1.3446 -2.7988
 6675SOL    HW231659   1.062   1.467  11.861 -0.9325 -2.7397 -0.1473
 6676SOL     OW31660   1.033   2.120   2.441  0.1477 -0.1587  0.9985
 6676SOL    HW131661   1.045   2.154   2.353 -0.6854  0.7551  1.2442
 6676SOL    HW231662   0.959   2.175   2.467 -2.0283 -1.6740 -2.1111
 6677SOL     OW31663   2.039   2.289  15.887  0.0138 -0.5580 -0.2203
 6677SOL    HW131664   2.098   2.346  15.936  1.5321 -0.3461 -2.3079
 6677SOL    HW231665   2.095   2.269  15.812  1.2591  0.8300  0.3315
 6678SOL     OW31666   2.727   2.213  11.397  0.5538  0.1072 -0.2410
 6678SOL    HW131667   2.698   2.142  11.340 -1.7209 -0.3217  1.4788
 6678SOL    HW231668   2.675   2.192  11.474  1.7379  2.8506  1.3027
 6679SOL     OW31669   0.125   2.844   9.406 -0.7025  0.2039  0.1205
 6679SOL    HW131670   0.081   2.783   9.465 -2.5521  0.7900 -0.6474
 6679SOL    HW231671   0.088   2.825   9.320  1.7452  0.3623 -0.9693
 6680SOL     OW31672   4.038   1.111   7.441  0.2893  0.0090 -0.7178
 6680SOL    HW131673   3.967   1.174   7.454  1.1575  1.2305 -1.7759
 6680SOL    HW231674   4.014   1.071   7.524  0.2848  3.2072  0.8408
 6681SOL     OW31675   1.940   1.625   8.441 -0.3760 -0.0116 -0.2174
 6681SOL    HW131676   1.925   1.540   8.399 -1.9244  0.3464 -0.3855
 6681SOL    HW231677   2.024   1.643   8.400 -1.3104  0.6063 -1.8468
 6682SOL     OW31678   1.729   3.429   6.993 -0.0142  0.3076 -0.2032
 6682SOL    HW131679   1.800   3.406   6.934 -0.5765 -1.7396 -0.1070
 6682SOL    HW231680   1.667   3.377   6.942 -0.3418 -0.1526  0.6516
 6683SOL     OW31681   2.538   2.864   7.190 -0.5332 -0.2308  0.2152
 6683SOL    HW131682   2.526   2.945   7.140 -1.0578  0.2451  1.1149
 6683SOL    HW231683   2.600   2.894   7.256 -0.1729  0.1084 -0.2721
 6684SOL     OW31684   1.751   0.594  11.937  0.3842 -0.2138 -0.6301
 6684SOL    HW131685   1.787   0.517  11.980  0.5740 -0.4518 -1.2108
 6684SOL    HW231686   1.776   0.671  11.988  0.9052 -0.1078 -1.0327
 6685SOL     OW31687   2.301   2.554   3.944 -0.0281  0.3690  0.4543
 6685SOL    HW131688   2.368   2.559   4.012  1.0793 -0.3729 -0.5852
 6685SOL    HW231689   2.359   2.518   3.877 -1.7048 -1.0278 -0.2566
 6686SOL     OW31690   1.128   2.255   7.382  0.8010 -0.0189  0.7994
 6686SOL    HW131691   1.134   2.168   7.342 -1.2550  0.6356 -0.9104
 6686SOL    HW231692   1.220   2.263   7.405  1.1916 -0.1169 -0.7692
 6687SOL     OW31693   0.314   4.199   4.217  0.2390 -0.5319  0.2018
 6687SOL    HW131694   0.327   4.192   4.123  0.2822 -1.7473  0.3045
 6687SOL    HW231695   0.333   4.111   4.248 -0.4785 -2.2450 -4.2599
 6688SOL     OW31696   3.191   3.659   6.129  0.1623 -0.1838 -0.2726
 6688SOL    HW131697   3.164   3.639   6.219 -2.9853 -3.2776 -1.9103
 6688SOL    HW231698   3.115   3.669   6.071  0.4953  0.8409 -0.5307
 6689SOL     OW31699   2.649   0.082   2.113  0.2067 -0.0369  0.5594
 6689SOL    HW131700   2.692   0.056   2.194  0.7348 -0.7597  0.0450
 6689SOL    HW231701   2.680   0.171   2.095  3.4392 -1.0893  1.0353
 6690SOL     OW31702   3.711   4.106   4.881  0.4192  0.3951  0.3454
 6690SOL    HW131703   3.790   4.106   4.936  1.4618  0.9162 -1.1493
 6690SOL    HW231704   3.744   4.163   4.811 -2.1268 -0.3811 -1.4780
 6691SOL     OW31705   2.717   2.317   8.643 -0.0392 -0.3057  0.3096
 6691SOL    HW131706   2.715   2.289   8.551  0.9903 -1.3348  0.5950
 6691SOL    HW231707   2.763   2.401   8.643 -0.3279 -0.1426 -0.5348
 6692SOL     OW31708   0.155   4.704   1.746 -0.5203  0.1846 -0.2674
 6692SOL    HW131709   0.207   0.045   1.719 -1.0549  0.7888  0.4170
 6692SOL    HW231710   0.072   4.728   1.706 -0.1570  0.7461 -0.6898
 6693SOL     OW31711   3.660   4.195   2.139  0.0829 -0.8697 -0.7053
 6693SOL    HW131712   3.654   4.246   2.058  0.6245 -0.2921 -0.3834
 6693SOL    HW231713   3.714   4.119   2.121 -2.3196 -3.1387  1.7227
 6694SOL     OW31714   0.413   4.068   2.988  0.1950  0.0816 -0.3588
 6694SOL    HW131715   0.379   3.979   2.997 -1.0834  0.5434 -0.6511
 6694SOL    HW231716   0.421   4.064   2.892  0.3408 -0.7884 -0.3123
 6695SOL     OW31717   2.146   1.851   4.601  0.2040 -0.0826  0.0352
 6695SOL    HW131718   2.073   1.807   4.644 -2.5083  3.2618 -1.1156
 6695SOL    HW231719   2.146   1.811   4.514  0.3409  0.4569 -0.2131
 6696SOL     OW31720   1.348   3.634   5.292  0.1104  0.6750 -0.1100
 6696SOL    HW131721   1.284   3.688   5.340  1.1644  0.8015  1.1670
 6696SOL    HW231722   1.346   3.558   5.350 -0.7423  1.7414  1.2689
 6697SOL     OW31723   2.047   2.960  11.943 -0.5044  0.2201 -0.2039
 6697SOL    HW131724   1.976   2.978  12.004  0.7279  0.0491  1.2709
 6697SOL    HW231725   2.004   2.894  11.889 -0.2628 -1.4728  1.6827
 6698SOL     OW31726   1.003   4.562  14.839  0.3791  0.5894  0.1693
 6698SOL    HW131727   1.037   4.473  14.852 -2.3835 -0.8901 -2.6891
 6698SOL    HW231728   1.014   4.592  14.929  0.5359  0.6837  0.1193
 6699SOL     OW31729   3.390   4.016   8.934 -0.4015 -0.4250 -0.1124
 6699SOL    HW131730   3.397   3.958   8.858 -1.1939  2.9193 -2.7045
 6699SOL    HW231731   3.330   4.079   8.894  0.2854  1.1954  1.4381
 6700SOL     OW31732   1.885   3.052   6.777 -0.2683 -0.0418 -0.5174
 6700SOL    HW131733   1.969   3.008   6.789 -0.4532  0.3220  2.1307
 6700SOL    HW231734   1.832   2.994   6.832 -0.8193  0.1263 -0.8670
 6701SOL     OW31735   1.309   0.563  13.779 -0.0920 -0.0352 -0.6134
 6701SOL    HW131736   1.253   0.554  13.856 -0.7066  0.6655 -0.9802
 6701SOL    HW231737   1.395   0.590  13.810  0.1582  1.1861 -2.3690
 6702SOL     OW31738   3.873   3.275   9.661 -0.1939  0.0768 -0.4388
 6702SOL    HW131739   3.877   3.357   9.711 -0.6495 -1.2294  1.7475
 6702SOL    HW231740   3.802   3.236   9.712 -0.3374  0.2776 -0.4877
 6703SOL     OW31741   1.709   0.498   9.901 -0.5550 -0.1154  0.2285
 6703SOL    HW131742   1.638   0.536   9.953 -0.2687  2.3036 -1.1655
 6703SOL    HW231743   1.680   0.479   9.811 -0.2654 -2.5848  0.6398
 6704SOL     OW31744   0.323   2.861   1.069 -0.0230 -0.2256 -0.0269
 6704SOL    HW131745   0.406   2.843   1.114 -1.4361 -0.7615  2.3712
 6704SOL    HW231746   0.340   2.808   0.991 -3.3924 -1.1248 -0.1160
 6705SOL     OW31747   4.606   1.674   2.882  0.5178 -0.2525  0.2446
 6705SOL    HW131748   4.567   1.749   2.927  0.2894 -1.0497  1.3822
 6705SOL    HW231749   4.525   1.625   2.869  0.6359 -0.8156  1.5920
 6706SOL     OW31750   1.851   0.657   6.618  0.5233  0.2528  0.0629
 6706SOL    HW131751   1.908   0.580   6.621 -0.9499 -0.9253 -2.0278
 6706SOL    HW231752   1.881   0.710   6.545  0.7112 -0.5201 -0.4255
 6707SOL     OW31753   2.853   1.849   6.987  0.3633  0.0415  0.1471
 6707SOL    HW131754   2.843   1.859   7.082 -0.4581  0.0663  0.0577
 6707SOL    HW231755   2.923   1.784   6.987  0.2762 -0.0562  0.8438
 6708SOL     OW31756   2.749   4.441  11.709 -0.6180  0.0988 -0.0921
 6708SOL    HW131757   2.665   4.396  11.712  0.6950 -2.3810  0.4898
 6708SOL    HW231758   2.715   4.524  11.677  0.2805  0.4857 -0.0392
 6709SOL     OW31759   4.197   4.333   3.202 -0.1413 -0.0586  0.3651
 6709SOL    HW131760   4.190   4.355   3.295 -2.6614 -1.3312  0.4766
 6709SOL    HW231761   4.265   4.393   3.173 -0.6889 -0.2030 -1.2440
 6710SOL     OW31762   0.140   2.128  10.015 -0.0403 -0.2794  0.0630
 6710SOL    HW131763   0.215   2.188  10.018 -0.5362  0.4565 -2.5523
 6710SOL    HW231764   0.120   2.135   9.922  0.7131  3.3593  0.1730
 6711SOL     OW31765   1.996   3.369   3.500  0.5876 -0.3144  0.7577
 6711SOL    HW131766   2.014   3.339   3.588  0.3092  0.2219  0.9994
 6711SOL    HW231767   2.056   3.314   3.450  1.7226  0.5245  1.1903
 6712SOL     OW31768   3.894   1.357   3.724  0.4935  0.4574 -0.1080
 6712SOL    HW131769   3.848   1.437   3.748 -1.7894 -0.8374 -0.1326
 6712SOL    HW231770   3.878   1.320   3.811 -1.8688 -0.6994 -1.0542
 6713SOL     OW31771   2.932   4.352   7.446  0.3201  0.4928 -0.5123
 6713SOL    HW131772   2.886   4.324   7.525  0.4501 -0.8008 -0.8833
 6713SOL    HW231773   2.857   4.342   7.388  0.4853 -1.2278 -0.4487
 6714SOL     OW31774   1.937   1.247   6.870  0.1184  0.0260 -0.5019
 6714SOL    HW131775   1.882   1.185   6.918  0.1453  1.9513  1.9656
 6714SOL    HW231776   1.907   1.225   6.782 -0.4462 -0.4538 -0.1942
 6715SOL     OW31777   1.945   0.466  13.682  0.5260 -0.2743  0.0754
 6715SOL    HW131778   1.903   0.552  13.675 -0.5658 -0.5838  2.8704
 6715SOL    HW231779   2.036   0.484  13.658 -0.3311  2.6613 -0.9995
 6716SOL     OW31780   0.736   3.151   3.693  0.5711  0.0453 -0.6343
 6716SOL    HW131781   0.817   3.150   3.745  0.1254 -0.3608  0.0518
 6716SOL    HW231782   0.751   3.239   3.657 -1.4023  0.4982 -0.3624
 6717SOL     OW31783   4.251   1.429  10.887  0.1572 -0.1191 -0.4829
 6717SOL    HW131784   4.219   1.422  10.977 -1.3551 -1.5137 -1.1356
 6717SOL    HW231785   4.341   1.397  10.898  0.7275  1.7683  0.3575
 6718SOL     OW31786   1.433   3.460  13.010  0.9653  0.0856  0.4350
 6718SOL    HW131787   1.482   3.527  13.058 -0.0582  1.2377 -0.1259
 6718SOL    HW231788   1.341   3.464  13.036  0.0045 -0.2015 -2.9108
 6719SOL     OW31789   1.489   3.357  15.671  0.9014  0.0080  0.3223
 6719SOL    HW131790   1.412   3.300  15.663 -2.2501  4.1229  2.0429
 6719SOL    HW231791   1.562   3.296  15.683 -0.0245 -0.9090  1.2990
 6720SOL     OW31792   1.908   2.963  12.755  0.6170  1.1252  0.7777
 6720SOL    HW131793   1.826   3.011  12.767 -0.7880 -1.4130  1.3943
 6720SOL    HW231794   1.964   3.022  12.806  1.2098  0.8615  0.4326
 6721SOL     OW31795   1.765   2.418   2.766 -0.4064  0.5345 -0.0247
 6721SOL    HW131796   1.761   2.481   2.837 -0.0006  1.0185 -0.4343
 6721SOL    HW231797   1.844   2.451   2.723 -0.8933 -1.1401 -2.2555
 6722SOL     OW31798   3.189   0.391   1.614  0.6200 -0.0874 -0.0340
 6722SOL    HW131799   3.284   0.385   1.606  0.3435  0.6358 -3.6323
 6722SOL    HW231800   3.164   0.347   1.696  1.0922 -0.3395 -0.0299
 6723SOL     OW31801   2.269   1.644   8.094 -0.4799  0.3859 -0.2003
 6723SOL    HW131802   2.341   1.633   8.031  0.3773  0.2697  0.8017
 6723SOL    HW231803   2.255   1.553   8.120 -3.6831  1.3461  1.3754
 6724SOL     OW31804   4.063   2.005   9.517 -0.3938 -0.3726 -0.2332
 6724SOL    HW131805   4.075   1.983   9.609 -1.0008  3.2959  0.7281
 6724SOL    HW231806   4.111   2.088   9.511  1.0751 -1.2709 -0.8541
 6725SOL     OW31807   3.763   0.319   0.250  0.3289 -0.2198 -0.0065
 6725SOL    HW131808   3.801   0.245   0.204  0.2594  0.6340 -1.4358
 6725SOL    HW231809   3.835   0.344   0.309 -0.7115 -0.2489  1.2878
 6726SOL     OW31810   2.167   4.535   3.395 -0.4250  0.6052 -0.0445
 6726SOL    HW131811   2.184   4.441   3.409 -2.6817  0.0887 -0.7834
 6726SOL    HW231812   2.254   4.573   3.393 -0.0957 -0.1666 -0.2333
 6727SOL     OW31813   2.806   1.659  13.735  0.0945  0.3796 -0.1879
 6727SOL    HW131814   2.861   1.720  13.784 -1.7527  2.6804 -0.9623
 6727SOL    HW231815   2.768   1.719  13.670 -2.5197 -0.2199  0.7815
 6728SOL     OW31816   2.239   0.919  11.349  0.8800 -0.8281  0.9893
 6728SOL    HW131817   2.205   0.941  11.435 -2.5015  0.0918 -0.5967
 6728SOL    HW231818   2.327   0.888  11.373  1.0274 -1.3308 -0.1922
 6729SOL     OW31819   4.069   3.013   7.360 -0.0928  0.0712 -0.0014
 6729SOL    HW131820   3.977   3.026   7.336 -0.3685 -1.7945  0.0368
 6729SOL    HW231821   4.098   3.063   7.284  0.4258  0.7398  0.6444
 6730SOL     OW31822   2.063   0.649   6.856 -0.3502  0.2518  0.0842
 6730SOL    HW131823   2.064   0.741   6.882  2.3995  0.9205 -2.3977
 6730SOL    HW231824   1.997   0.603   6.907 -0.1486  0.6526  0.7103
 6731SOL     OW31825   2.291   2.713   6.098 -0.1771 -0.3725  0.2366
 6731SOL    HW131826   2.311   2.786   6.040  1.0198 -0.3907  0.6246
 6731SOL    HW231827   2.203   2.690   6.068 -0.6131  0.1333  1.1343
 6732SOL     OW31828   3.368   1.803   3.650 -0.7212  0.5129  0.0981
 6732SOL    HW131829   3.303   1.874   3.640  0.2339  1.5293  1.1225
 6732SOL    HW231830   3.304   1.733   3.635  1.7595 -1.9586  1.2149
 6733SOL     OW31831   2.268   4.046  13.009 -0.0225  0.7793  0.3468
 6733SOL    HW131832   2.208   3.992  13.062  0.2754  0.3122  0.2082
 6733SOL    HW231833   2.249   4.133  13.043 -0.1177  0.6402  0.6572
 6734SOL     OW31834   1.304   1.850   2.732 -0.0451 -1.4100  0.2704
 6734SOL    HW131835   1.274   1.937   2.705  0.4484 -1.5133 -0.6276
 6734SOL    HW231836   1.399   1.862   2.729  0.1933 -2.9033  2.2547
 6735SOL     OW31837   1.047   4.449   0.288 -0.5922  0.3622 -0.5312
 6735SOL    HW131838   1.049   4.535   0.330 -0.0049 -0.4435  1.0840
 6735SOL    HW231839   1.096   4.473   0.210  0.1967  0.2127 -0.0851
 6736SOL     OW31840   3.249   3.179   7.835  0.6115 -0.1087  0.1934
 6736SOL    HW131841   3.223   3.233   7.910  3.2470  0.0466  0.9822
 6736SOL    HW231842   3.299   3.250   7.795  1.1764 -0.5510  0.1194
 6737SOL     OW31843   2.015   1.799  13.176 -0.2052  0.0641 -0.3298
 6737SOL    HW131844   2.049   1.831  13.260  0.4373 -2.2210  0.2729
 6737SOL    HW231845   1.934   1.752  13.198  1.0151 -1.2141  1.3809
 6738SOL     OW31846   2.940   1.819  17.569  0.3785 -0.0441 -0.1075
 6738SOL    HW131847   3.016   1.806  17.512  0.4827 -1.5823  0.4033
 6738SOL    HW231848   2.957   1.757  17.639 -2.5713  0.3436  0.9544
 6739SOL     OW31849   2.691   3.358   6.216 -0.0029  0.7164 -0.0429
 6739SOL    HW131850   2.633   3.282   6.217  1.0735 -0.0757  3.3322
 6739SOL    HW231851   2.662   3.406   6.139 -1.0265  2.2760  1.3351
 6740SOL     OW31852   4.702   3.686   4.489  0.0212 -0.3844 -0.3854
 6740SOL    HW131853   4.616   3.686   4.446 -0.0590 -1.8919 -0.2142
 6740SOL    HW231854   4.673   3.685   4.580  2.3730  3.3510  0.4097
 6741SOL     OW31855   4.059   1.889   8.652  0.2513  0.2034  0.6469
 6741SOL    HW131856   4.033   1.798   8.663 -0.7896  0.1163 -2.6256
 6741SOL    HW231857   4.002   1.916   8.580  0.4854 -1.5741 -0.1952
 6742SOL     OW31858   4.611   2.513   4.881 -0.1862  0.3789  0.1257
 6742SOL    HW131859   4.540   2.504   4.818  0.5010  3.0262 -1.0212
 6742SOL    HW231860   4.678   2.454   4.847  0.0970 -0.3609  1.9963
 6743SOL     OW31861   2.800   0.837  10.627  0.0824 -0.4641 -0.0584
 6743SOL    HW131862   2.880   0.854  10.578 -0.2503  2.4337  0.4445
 6743SOL    HW231863   2.847   0.854  10.709 -1.6310 -1.6279  1.1778
 6744SOL     OW31864   3.208   2.749   2.596  0.1310 -0.1951 -0.1087
 6744SOL    HW131865   3.218   2.841   2.574  1.7912  0.3316  2.9005
 6744SOL    HW231866   3.155   2.728   2.519  0.2577  1.1950 -0.5726
 6745SOL     OW31867   2.926   0.038   5.827  0.1988 -0.2063  0.1210
 6745SOL    HW131868   2.834   0.052   5.849  0.0196 -0.5207 -0.4259
 6745SOL    HW231869   2.942   4.679   5.831  1.1978 -0.0482 -0.2742
 6746SOL     OW31870   2.564   4.297  12.862  0.0710  0.7645  0.3029
 6746SOL    HW131871   2.601   4.307  12.775 -0.2083 -3.1168 -0.2768
 6746SOL    HW231872   2.475   4.271  12.838 -0.4336  2.3947  0.4213
 6747SOL     OW31873   1.220   1.180   6.580  0.3914  0.1568 -0.5880
 6747SOL    HW131874   1.309   1.209   6.562  0.9803 -0.4612  1.2877
 6747SOL    HW231875   1.213   1.106   6.519  3.1925 -1.2087  0.7536
 6748SOL     OW31876   2.260   0.869   7.346 -0.1407 -0.3862 -0.3053
 6748SOL    HW131877   2.195   0.822   7.397  1.0470 -2.5615 -0.7809
 6748SOL    HW231878   2.277   0.947   7.401 -1.8408  0.0531 -0.4149
 6749SOL     OW31879   2.626   4.058   4.626 -0.4115  0.2331  0.2867
 6749SOL    HW131880   2.649   4.140   4.669  0.3210  0.2679 -0.1647
 6749SOL    HW231881   2.673   4.072   4.544  1.4682 -2.0487  0.9674
 6750SOL     OW31882   3.320   1.876   3.296  0.0934  0.0132 -0.3674
 6750SOL    HW131883   3.226   1.872   3.282 -0.0235 -0.5150  0.6612
 6750SOL    HW231884   3.353   1.799   3.249 -0.4780  0.0700 -0.8581
 6751SOL     OW31885   0.785   3.731  15.477  0.6358 -0.2065  0.6442
 6751SOL    HW131886   0.700   3.713  15.437  0.4930 -0.5273  1.0861
 6751SOL    HW231887   0.792   3.825  15.464  0.6005 -0.0131  2.0926
 6752SOL     OW31888   3.103   4.122  12.767  0.6660 -0.3765  0.1986
 6752SOL    HW131889   3.077   4.036  12.801  0.9469  0.1159  1.6538
 6752SOL    HW231890   3.047   4.186  12.810  1.7383  1.6670 -1.4456
 6753SOL     OW31891   4.083   1.464   2.238  0.0252  0.2880  0.2483
 6753SOL    HW131892   4.092   1.392   2.300  0.2126 -1.6420 -1.9865
 6753SOL    HW231893   4.033   1.523   2.294  0.0993  1.1251 -0.5708
 6754SOL     OW31894   1.652   0.598   8.457  0.1114 -0.1761 -0.0929
 6754SOL    HW131895   1.584   0.599   8.525  1.6901  1.6669  1.4501
 6754SOL    HW231896   1.632   0.682   8.415  2.6954 -0.0161 -0.9835
 6755SOL     OW31897   1.128   3.505   6.186  0.7952 -0.4015 -0.3679
 6755SOL    HW131898   1.122   3.549   6.271 -0.4527 -1.7044  0.2177
 6755SOL    HW231899   1.219   3.523   6.161  1.0010 -1.1110 -0.1186
 6756SOL     OW31900   3.292   1.046   9.674 -0.4897  0.1061  0.1535
 6756SOL    HW131901   3.247   1.076   9.594  1.5287  0.4673 -0.8508
 6756SOL    HW231902   3.356   1.117   9.672  1.2664 -1.4805 -0.5022
 6757SOL     OW31903   2.400   1.273   5.770  0.3875  0.1981 -0.2997
 6757SOL    HW131904   2.436   1.340   5.711 -0.2217  0.2714 -0.5901
 6757SOL    HW231905   2.306   1.289   5.761  0.2798 -0.1495  0.1909
 6758SOL     OW31906   3.202   4.312   6.686 -0.4689 -0.1928  0.6881
 6758SOL    HW131907   3.247   4.355   6.759  2.8664 -0.7734 -1.0144
 6758SOL    HW231908   3.203   4.386   6.625  0.7921  1.1264  2.2905
 6759SOL     OW31909   0.464   3.420   0.590  0.4100  0.6856 -0.0140
 6759SOL    HW131910   0.466   3.326   0.569  0.8950  1.1156 -1.8740
 6759SOL    HW231911   0.397   3.425   0.658  0.5181 -2.3092  0.3386
 6760SOL     OW31912   4.361   1.370  17.006  0.1979  0.2577  0.1201
 6760SOL    HW131913   4.314   1.434  16.953  1.4842 -0.4166 -1.8218
 6760SOL    HW231914   4.349   1.414  17.090  0.1576 -0.7055  0.6252
 6761SOL     OW31915   1.797   2.703   4.846 -0.1864  0.6423 -0.1589
 6761SOL    HW131916   1.778   2.790   4.810 -0.2295  1.5689  2.0858
 6761SOL    HW231917   1.843   2.652   4.779 -1.9142  0.8670 -1.5245
 6762SOL     OW31918   0.573   2.619  16.494  0.6931  0.4087 -0.6845
 6762SOL    HW131919   0.538   2.599  16.407 -1.3692  0.1347  0.2018
 6762SOL    HW231920   0.513   2.690  16.515  0.2302 -0.4991  1.0646
 6763SOL     OW31921   2.973   1.880  13.832 -0.5804 -0.6018  0.5172
 6763SOL    HW131922   2.947   1.972  13.824 -2.5771 -1.2802 -0.8344
 6763SOL    HW231923   3.054   1.886  13.782 -2.1380  2.1265 -1.6811
 6764SOL     OW31924   2.467   0.075   9.984  0.3549 -0.1248 -0.1761
 6764SOL    HW131925   2.469   0.159   9.938  3.1493  0.9740  1.9262
 6764SOL    HW231926   2.555   0.068  10.020 -0.0071  2.2594  1.1787
 6765SOL     OW31927   2.863   2.474  14.144 -0.1975  0.0307  0.1729
 6765SOL    HW131928   2.782   2.516  14.174 -1.6225 -3.1668  0.8742
 6765SOL    HW231929   2.933   2.533  14.171 -0.6983  0.5786  0.2546
 6766SOL     OW31930   1.643   4.216   8.888 -0.0783 -0.2498 -0.6741
 6766SOL    HW131931   1.661   4.289   8.830  2.2514 -0.0559  0.2779
 6766SOL    HW231932   1.569   4.255   8.934 -0.5193 -1.6240 -0.2189
 6767SOL     OW31933   4.220   0.377   7.089 -0.7902 -0.0119 -0.0625
 6767SOL    HW131934   4.277   0.454   7.095  1.1016 -1.2910 -1.5574
 6767SOL    HW231935   4.191   0.363   7.179 -1.4894  2.7159  0.1249
 6768SOL     OW31936   0.535   0.476   0.281  0.5208  0.6241 -0.3009
 6768SOL    HW131937   0.465   0.542   0.277 -1.0325 -1.0117 -0.0577
 6768SOL    HW231938   0.594   0.505   0.212  1.0137  2.5364  0.9404
 6769SOL     OW31939   1.471   4.590   7.672 -0.1503 -0.1003 -0.2804
 6769SOL    HW131940   1.500   4.518   7.617 -1.2463 -1.1362  0.4991
 6769SOL    HW231941   1.433   4.549   7.750  0.8230  1.7999  1.1951
 6770SOL     OW31942   1.634   1.222  11.436  0.0304 -0.3660  0.4157
 6770SOL    HW131943   1.543   1.246  11.456  0.1107  0.2828 -0.0006
 6770SOL    HW231944   1.629   1.132  11.403 -1.2854  0.3447 -1.2857
 6771SOL     OW31945   1.039   1.473  10.245 -0.4400 -0.8575  0.2660
 6771SOL    HW131946   1.002   1.396  10.202 -0.9103 -1.0203  0.9551
 6771SOL    HW231947   1.078   1.435  10.323  0.8415 -1.2623 -0.5736
 6772SOL     OW31948   4.140   3.562  15.763  0.2431 -0.2520 -0.2191
 6772SOL    HW131949   4.083   3.489  15.788 -0.1536  0.4105  0.7981
 6772SOL    HW231950   4.073   3.621  15.728  1.3995  0.8622 -0.5550
 6773SOL     OW31951   2.970   3.748   5.974 -0.0154 -0.3995  0.1861
 6773SOL    HW131952   2.878   3.735   5.952 -0.8919  1.1974  3.0094
 6773SOL    HW231953   2.991   3.841   5.977 -0.3087 -0.3304  0.0673
 6774SOL     OW31954   3.688   3.676   3.833  0.6036  0.0816  0.0375
 6774SOL    HW131955   3.772   3.702   3.794  1.1397 -2.6000 -0.6079
 6774SOL    HW231956   3.717   3.607   3.892 -1.4753  0.6793  1.7216
 6775SOL     OW31957   4.422   2.820   6.561  0.2049  0.2377  0.0032
 6775SOL    HW131958   4.434   2.900   6.509 -0.7777 -0.4514 -1.2767
 6775SOL    HW231959   4.335   2.840   6.596  0.1212  0.5682 -0.3936
 6776SOL     OW31960   4.593   4.067   4.997 -0.0005  0.0218  0.4166
 6776SOL    HW131961   4.548   3.999   4.947  1.0299  0.4610 -1.0971
 6776SOL    HW231962   4.520   4.127   5.005  0.9986  1.3572 -0.5308
 6777SOL     OW31963   2.939   3.075   1.766 -0.0315 -0.3205 -0.5519
 6777SOL    HW131964   2.964   3.029   1.685  0.0054 -2.1889  0.5365
 6777SOL    HW231965   2.901   3.155   1.730  1.8406  1.1931  0.8075
 6778SOL     OW31966   4.178   2.623   7.828  0.4907 -0.1251 -0.3081
 6778SOL    HW131967   4.155   2.532   7.844  0.0348  0.0642  0.1135
 6778SOL    HW231968   4.239   2.639   7.900 -0.7032  0.5499  0.5455
 6779SOL     OW31969   0.097   4.070   2.482  0.1511 -0.3376 -0.2487
 6779SOL    HW131970   0.157   4.007   2.522 -0.0968  0.3197  1.1791
 6779SOL    HW231971   0.015   4.032   2.512 -0.2679 -0.8929 -2.0971
 6780SOL     OW31972   3.961   4.416   1.942  0.0808 -0.6966 -0.3632
 6780SOL    HW131973   3.990   4.390   2.029  2.1520 -0.0160 -0.8637
 6780SOL    HW231974   4.016   4.360   1.888  1.0067 -1.1157  1.0036
 6781SOL     OW31975   1.097   2.563   5.339 -0.3511 -0.3437  0.1834
 6781SOL    HW131976   1.040   2.574   5.416  1.7175 -1.1177  1.8058
 6781SOL    HW231977   1.124   2.648   5.303  1.0456 -0.6135  0.6053
 6782SOL     OW31978   3.028   0.369  10.287 -0.5176 -0.0797  0.1240
 6782SOL    HW131979   2.934   0.368  10.269 -1.1491  1.3890  3.2361
 6782SOL    HW231980   3.038   0.464  10.292 -0.7992  0.0212 -1.2298
 6783SOL     OW31981   1.692   4.047   3.453  0.0650 -0.0429  0.2136
 6783SOL    HW131982   1.622   4.001   3.501 -0.4661 -0.6179 -1.1248
 6783SOL    HW231983   1.669   4.139   3.464 -0.5076  0.1427 -2.4992
 6784SOL     OW31984   0.154   0.781  15.582  0.0482  0.1441  0.4579
 6784SOL    HW131985   0.082   0.783  15.519 -0.7766 -0.3835  1.3804
 6784SOL    HW231986   0.184   0.691  15.597  0.2273 -0.1939 -2.0186
 6785SOL     OW31987   1.711   2.691  15.423 -0.5013  0.0809 -0.0812
 6785SOL    HW131988   1.652   2.697  15.349 -0.6186  3.6828  0.3045
 6785SOL    HW231989   1.668   2.749  15.486 -0.7282  2.8008 -2.7676
 6786SOL     OW31990   0.505   0.397  13.373  0.3500 -0.0314 -0.0930
 6786SOL    HW131991   0.443   0.388  13.301  1.8970  0.9781 -1.5554
 6786SOL    HW231992   0.550   0.314  13.356  1.1534  0.3411  0.2452
 6787SOL     OW31993   2.895   3.852   8.940  0.0308 -0.3599 -0.2614
 6787SOL    HW131994   2.946   3.901   9.004  0.1791  1.3638 -1.6740
 6787SOL    HW231995   2.958   3.787   8.910  0.8928  0.8772 -1.1388
 6788SOL     OW31996   4.402   0.132   3.757 -0.4077  0.1194  0.6162
 6788SOL    HW131997   4.316   0.166   3.733 -0.6446 -0.4399  0.6679
 6788SOL    HW231998   4.391   0.058   3.816  1.0640  0.2352  1.0279
 6789SOL     OW31999   1.383   2.661   5.144 -0.2461  0.0861  0.3130
 6789SOL    HW132000   1.408   2.749   5.171 -0.7592  0.5386 -0.6958
 6789SOL    HW232001   1.472   2.632   5.121  0.1479  0.4838  1.3612
 6790SOL     OW32002   1.294   0.591   6.583 -0.5496  0.0133 -0.3889
 6790SOL    HW132003   1.335   0.549   6.507 -0.7960 -1.2035  0.1466
 6790SOL    HW232004   1.370   0.619   6.633  1.2828 -2.2042 -1.9178
 6791SOL     OW32005   1.547   3.291   7.279  0.5230  0.3530  0.3385
 6791SOL    HW132006   1.557   3.339   7.361  1.9803  1.7496 -0.6400
 6791SOL    HW232007   1.640   3.286   7.255  0.0052 -0.3670 -1.4974
 6792SOL     OW32008   1.475   2.257   6.121  0.5205 -0.8730 -0.1864
 6792SOL    HW132009   1.490   2.351   6.131 -0.7297 -0.5957 -0.8870
 6792SOL    HW232010   1.534   2.223   6.188 -1.8958 -0.1589  2.2502
 6793SOL     OW32011   4.288   2.196   8.897  0.3450  0.4730 -0.1671
 6793SOL    HW132012   4.383   2.189   8.891  0.3533 -0.6774  1.2012
 6793SOL    HW232013   4.265   2.156   8.981  0.8626  0.1986 -0.1547
 6794SOL     OW32014   1.265   1.901   3.450  0.0432 -0.0885 -0.1798
 6794SOL    HW132015   1.263   1.841   3.375  2.3599 -1.8838  1.1756
 6794SOL    HW232016   1.208   1.970   3.417 -3.5640 -2.4256  1.1474
 6795SOL     OW32017   2.321   3.782   2.452  0.3027 -0.2532  0.2865
 6795SOL    HW132018   2.302   3.753   2.541 -1.1993  1.0600  0.4069
 6795SOL    HW232019   2.261   3.857   2.445  0.1344 -0.3025  1.3284
 6796SOL     OW32020   3.765   1.590   0.220  0.3671  0.2436  0.4750
 6796SOL    HW132021   3.855   1.568   0.194 -0.4209 -0.4576 -1.6568
 6796SOL    HW232022   3.772   1.684   0.231  1.0688  0.6239 -3.1862
 6797SOL     OW32023   0.724   0.602   6.959 -0.0857  0.3479  0.3257
 6797SOL    HW132024   0.728   0.507   6.947  1.3461  0.3245  1.0141
 6797SOL    HW232025   0.799   0.622   7.016 -0.7833  3.4046  0.1890
 6798SOL     OW32026   4.057   2.948   9.466  0.7486  0.5143 -0.4527
 6798SOL    HW132027   4.018   2.874   9.512  0.2307  0.7217 -0.5456
 6798SOL    HW232028   4.051   2.919   9.375 -0.6252  2.5686 -1.0207
 6799SOL     OW32029   1.726   1.799   5.172  0.2951  0.5872 -0.3576
 6799SOL    HW132030   1.704   1.794   5.079  0.0619 -2.3985 -0.1601
 6799SOL    HW232031   1.638   1.779   5.206  0.5436 -0.5003 -0.3595
 6800SOL     OW32032   0.780   3.803   5.408  0.7816  0.3432 -0.3644
 6800SOL    HW132033   0.744   3.890   5.391  0.8389  0.7960  1.8582
 6800SOL    HW232034   0.734   3.790   5.490  0.6233 -2.1132 -0.8487
 6801SOL     OW32035   3.573   1.675   4.889  0.4424  0.1118 -0.1440
 6801SOL    HW132036   3.610   1.676   4.801  0.8101 -0.6015 -0.0049
 6801SOL    HW232037   3.492   1.629   4.867  0.7525  0.7917 -2.6933
 6802SOL     OW32038   0.615   0.128   6.437  0.2846 -0.0461  0.3400
 6802SOL    HW132039   0.645   0.132   6.346 -1.1357 -0.7545 -0.1681
 6802SOL    HW232040   0.667   0.066   6.488 -1.3869 -1.0973  0.7795
 6803SOL     OW32041   0.743   4.458  12.039 -0.0387 -0.1325  0.1011
 6803SOL    HW132042   0.681   4.527  12.015 -1.0145 -1.1077 -0.1407
 6803SOL    HW232043   0.729   4.387  11.976  0.0110 -0.6189  0.6391
 6804SOL     OW32044   0.513   3.322  15.108 -0.3570 -0.5519  0.1409
 6804SOL    HW132045   0.545   3.410  15.125 -2.1788 -0.2122  1.7733
 6804SOL    HW232046   0.570   3.302  15.034 -2.1504 -1.7926 -0.9247
 6805SOL     OW32047   0.740   0.083   1.220  0.1301  0.2241  0.1376
 6805SOL    HW132048   0.737   0.093   1.125 -1.9358  2.4353  0.4597
 6805SOL    HW232049   0.834   0.098   1.234 -0.1961  2.3053  0.0813
 6806SOL     OW32050   4.421   4.562   1.580 -0.0173 -0.5591  0.0722
 6806SOL    HW132051   4.443   4.489   1.638  1.6779  0.5233  0.7531
 6806SOL    HW232052   4.476   4.632   1.613 -0.2618  0.5716 -1.9115
 6807SOL     OW32053   4.546   2.918   8.445  0.5935  0.4037 -0.4904
 6807SOL    HW132054   4.456   2.951   8.450  1.0228  1.6798 -1.1506
 6807SOL    HW232055   4.528   2.824   8.451  0.4957  0.4949  0.5837
 6808SOL     OW32056   0.896   4.579  13.715  0.3275 -0.1827 -0.0393
 6808SOL    HW132057   0.864   4.619  13.796 -1.1605  0.6780 -1.0504
 6808SOL    HW232058   0.983   4.619  13.713  0.1636  0.1126 -1.4944
 6809SOL     OW32059   0.539   3.516   0.938  0.6367 -0.2404  0.4499
 6809SOL    HW132060   0.516   3.545   1.026 -0.2516  1.8422 -0.4701
 6809SOL    HW232061   0.631   3.493   0.943  0.8326 -0.4723 -3.6977
 6810SOL     OW32062   1.541   1.503   8.694  0.1048 -0.1822  0.5894
 6810SOL    HW132063   1.559   1.547   8.776 -0.8346  0.4189  0.4653
 6810SOL    HW232064   1.621   1.450   8.689 -0.1664 -0.6014  0.7131
 6811SOL     OW32065   4.333   3.979   7.773 -0.0931 -0.2437  0.1138
 6811SOL    HW132066   4.345   3.893   7.732 -1.9443 -0.5112  0.1252
 6811SOL    HW232067   4.382   4.033   7.711 -1.7572  0.5862 -0.5128
 6812SOL     OW32068   1.978   2.630   2.852 -0.1265 -0.0084  0.2113
 6812SOL    HW132069   2.024   2.692   2.908 -0.8162 -0.0027  0.7754
 6812SOL    HW232070   2.022   2.626   2.767  0.8772  0.3643  0.7147
 6813SOL     OW32071   3.082   0.186   6.435 -0.1346 -0.6902  0.3969
 6813SOL    HW132072   3.113   0.118   6.496 -3.1056 -0.3242  2.3088
 6813SOL    HW232073   3.127   0.260   6.476 -2.8569  1.9058 -1.3339
 6814SOL     OW32074   1.441   2.293  16.338 -0.2659 -0.2586  0.3373
 6814SOL    HW132075   1.494   2.215  16.321  0.5629  0.3823 -0.0191
 6814SOL    HW232076   1.449   2.300  16.433 -0.5130  1.5633  0.2184
 6815SOL     OW32077   0.523   3.915   5.914 -0.3033 -0.4751 -0.4998
 6815SOL    HW132078   0.542   4.009   5.910 -1.4828 -0.2181  0.0304
 6815SOL    HW232079   0.580   3.887   5.986 -0.7391 -3.2032 -1.2280
 6816SOL     OW32080   0.249   0.789   7.683 -0.1498  0.1674  0.1944
 6816SOL    HW132081   0.298   0.817   7.605  0.5917 -0.3722  0.4685
 6816SOL    HW232082   0.304   0.714   7.704 -0.0328 -0.3117 -1.7530
 6817SOL     OW32083   2.076   4.379   2.040  0.1877 -0.1034  0.3991
 6817SOL    HW132084   2.004   4.436   2.066  0.8052  1.7045 -1.8223
 6817SOL    HW232085   2.054   4.391   1.948  1.7143  3.9557  0.5649
 6818SOL     OW32086   1.838   0.921   3.889 -0.3657  0.0535 -0.2272
 6818SOL    HW132087   1.799   0.834   3.885  0.7006 -0.3433 -2.0055
 6818SOL    HW232088   1.917   0.914   3.942 -1.4071  1.6407  1.5320
 6819SOL     OW32089   1.885   0.501   7.044  0.4906 -0.1177 -0.6328
 6819SOL    HW132090   1.818   0.518   7.110  0.2926  2.7292 -1.5845
 6819SOL    HW232091   1.964   0.504   7.099 -0.6251  1.6378  0.8683
 6820SOL     OW32092   0.558   2.603   6.067 -0.1961  0.0866 -0.9304
 6820SOL    HW132093   0.640   2.629   6.109 -1.6027  1.9603  0.6565
 6820SOL    HW232094   0.502   2.670   6.106 -2.0509 -0.4234 -2.7140
 6821SOL     OW32095   2.633   3.931   8.053 -0.1630  0.7591  0.7782
 6821SOL    HW132096   2.685   3.866   8.099 -0.4207  0.3187  0.4448
 6821SOL    HW232097   2.558   3.937   8.112  0.0352  1.3901  0.9645
 6822SOL     OW32098   1.843   0.732  15.600 -0.1579 -0.4343 -0.1927
 6822SOL    HW132099   1.859   0.756  15.508 -2.4003 -0.8609 -0.7125
 6822SOL    HW232100   1.761   0.778  15.619 -0.1973 -0.4664 -0.2848
 6823SOL     OW32101   0.440   4.009   6.878  0.2351 -0.0061  0.5216
 6823SOL    HW132102   0.391   3.947   6.933  1.3131  0.0205  1.5225
 6823SOL    HW232103   0.360   4.049   6.843  1.1343 -0.0795 -1.5625
 6824SOL     OW32104   3.348   2.440  13.455 -0.0953  0.3007 -0.6186
 6824SOL    HW132105   3.385   2.490  13.528 -1.3632  1.3585 -0.6923
 6824SOL    HW232106   3.421   2.384  13.432 -0.2915 -0.7206  1.2613
 6825SOL     OW32107   4.414   0.751   8.799 -0.3306 -0.6256 -0.3478
 6825SOL    HW132108   4.323   0.769   8.774 -0.3606  0.7811  0.8078
 6825SOL    HW232109   4.446   0.685   8.737 -0.5411 -0.7529 -0.3226
 6826SOL     OW32110   0.730   1.726   9.754 -0.8612  0.2621  0.1745
 6826SOL    HW132111   0.792   1.796   9.774 -0.5147 -0.2062  0.7415
 6826SOL    HW232112   0.719   1.745   9.661 -0.6539  2.9902  0.6864
 6827SOL     OW32113   2.494   3.188   5.933  0.2145 -0.1074  0.1248
 6827SOL    HW132114   2.434   3.248   5.889  1.1632 -0.5345 -1.7824
 6827SOL    HW232115   2.556   3.184   5.860  0.7654  2.1598  0.4825
 6828SOL     OW32116   1.292   1.559   7.458 -0.9245 -0.5632  0.0773
 6828SOL    HW132117   1.363   1.622   7.461 -3.5375  2.2727  2.2614
 6828SOL    HW232118   1.341   1.482   7.488  0.3850  0.3854  0.3530
 6829SOL     OW32119   2.594   4.286   7.942  0.2640  0.0908 -0.2445
 6829SOL    HW132120   2.505   4.261   7.967 -0.3416  2.0215 -0.4494
 6829SOL    HW232121   2.583   4.381   7.932  0.7098  0.1599 -0.0842
 6830SOL     OW32122   4.396   4.352  17.696  0.1826  0.1646 -0.1660
 6830SOL    HW132123   4.326   4.287  17.697  0.9819 -0.7327 -2.2565
 6830SOL    HW232124   4.470   4.310  17.739 -1.2338 -1.4240  0.7282
 6831SOL     OW32125   1.883   4.065   3.269  0.0703 -0.0615  0.3119
 6831SOL    HW132126   1.854   4.023   3.188  0.2754  1.6754 -0.6479
 6831SOL    HW232127   1.803   4.043   3.318 -0.4630 -1.2778 -1.1044
 6832SOL     OW32128   1.145   1.587   3.438  0.4056 -0.1059 -0.0569
 6832SOL    HW132129   1.186   1.526   3.376  0.3929 -0.1343 -0.0375
 6832SOL    HW232130   1.222   1.619   3.485  0.5736 -1.6881  0.7524
 6833SOL     OW32131   1.261   1.818   3.184 -0.4837  0.8307 -0.1111
 6833SOL    HW132132   1.219   1.742   3.225 -0.3124 -0.3523 -2.1615
 6833SOL    HW232133   1.241   1.800   3.093 -2.3081 -1.3867  0.7239
 6834SOL     OW32134   0.885   4.038   0.498 -0.3607  0.0503 -0.1144
 6834SOL    HW132135   0.833   3.971   0.455  0.9351 -2.4141  2.1751
 6834SOL    HW232136   0.948   4.054   0.427 -0.1799  3.8211  0.8562
 6835SOL     OW32137   1.023   3.241   5.078 -0.3164 -0.1458 -0.2357
 6835SOL    HW132138   1.028   3.177   5.007  0.2379  1.0482 -1.2666
 6835SOL    HW232139   0.928   3.243   5.093 -0.5320  0.6335 -1.7369
 6836SOL     OW32140   2.152   3.702   1.077 -0.4876 -0.6418  0.4176
 6836SOL    HW132141   2.166   3.679   0.985  1.1592 -1.5307  0.8893
 6836SOL    HW232142   2.159   3.614   1.114  0.8596 -0.8737 -0.3983
 6837SOL     OW32143   4.698   2.231   6.034  0.2607 -0.0129 -0.0767
 6837SOL    HW132144   4.605   2.218   6.049  0.3195 -0.3392  0.0169
 6837SOL    HW232145   4.731   2.182   6.110  0.0210  0.6290  0.4398
 6838SOL     OW32146   3.703   2.018   3.283  0.1264  0.2329  0.3138
 6838SOL    HW132147   3.762   1.974   3.345  0.7958  1.1149  0.3058
 6838SOL    HW232148   3.617   1.984   3.306  1.0002 -1.3901  1.1845
 6839SOL     OW32149   1.147   0.708  10.573 -0.0223  0.7556 -0.1196
 6839SOL    HW132150   1.170   0.685  10.663 -2.7799  1.1037  0.6733
 6839SOL    HW232151   1.190   0.794  10.568  0.0988  0.5422 -2.4430
 6840SOL     OW32152   1.831   2.421   6.716  0.2471 -0.0522 -0.3739
 6840SOL    HW132153   1.847   2.479   6.791  1.6742  0.7349 -1.2784
 6840SOL    HW232154   1.778   2.485   6.668 -0.6914 -0.6207 -0.0890
 6841SOL     OW32155   2.121   4.691   4.688  0.6915 -0.5309 -0.1353
 6841SOL    HW132156   2.146   4.691   4.780 -1.3422 -1.7942  0.4196
 6841SOL    HW232157   2.058   4.619   4.683  2.7451 -2.2149 -1.4516
 6842SOL     OW32158   0.794   4.349  13.640  0.1251 -0.3410  0.4755
 6842SOL    HW132159   0.840   4.416  13.691  0.5483 -0.7654  0.6504
 6842SOL    HW232160   0.766   4.403  13.566  1.2576  0.7331  0.8301
 6843SOL     OW32161   0.393   0.452   1.658 -0.7294 -0.5036 -0.5147
 6843SOL    HW132162   0.390   0.455   1.562  0.8657 -0.2023 -0.5507
 6843SOL    HW232163   0.342   0.527   1.691 -1.9457 -1.2771 -0.6404
 6844SOL     OW32164   2.911   1.068   5.428 -0.1776  0.2764 -0.2136
 6844SOL    HW132165   2.841   1.122   5.465 -1.5282 -0.7355 -1.3102
 6844SOL    HW232166   2.862   0.986   5.414  0.5369 -0.4663  1.5715
 6845SOL     OW32167   0.657   3.703   2.634  0.5893  0.4412  0.0493
 6845SOL    HW132168   0.574   3.711   2.587  1.2947  0.5651 -1.1705
 6845SOL    HW232169   0.681   3.795   2.642  1.1868  0.4833 -2.3500
 6846SOL     OW32170   0.603   0.854  10.342 -0.1109 -0.5201 -0.4827
 6846SOL    HW132171   0.521   0.837  10.389 -0.4118  1.8629 -0.1050
 6846SOL    HW232172   0.585   0.942  10.307 -3.5708 -1.1865 -0.4242
 6847SOL     OW32173   2.857   0.799  10.080  0.7581 -0.4084 -0.1085
 6847SOL    HW132174   2.805   0.817  10.001  0.3848 -1.0901 -0.0245
 6847SOL    HW232175   2.859   0.882  10.128 -2.2303 -1.6187  2.0925
 6848SOL     OW32176   3.048   2.702   3.378  0.2272 -0.3203  0.6990
 6848SOL    HW132177   3.138   2.729   3.398  0.0837  0.0046  0.9051
 6848SOL    HW232178   3.073   2.634   3.316  1.6751  0.2083  0.7082
 6849SOL     OW32179   3.639   0.461   9.100 -0.4312  0.1135 -0.4214
 6849SOL    HW132180   3.621   0.542   9.148 -0.4040 -1.3167  2.0132
 6849SOL    HW232181   3.704   0.427   9.162 -2.5265  0.0870  1.7435
 6850SOL     OW32182   0.035   0.473   4.672  0.2140  0.0071  0.0161
 6850SOL    HW132183   0.014   0.384   4.646 -1.5293  0.7673 -1.2140
 6850SOL    HW232184   0.036   0.464   4.767  0.7967  3.6509  0.3540
 6851SOL     OW32185   3.968   0.608   7.096  0.2833 -0.1354 -0.0172
 6851SOL    HW132186   3.931   0.662   7.166 -0.3131 -0.7849  0.1608
 6851SOL    HW232187   4.028   0.670   7.054 -0.2184  0.9543  0.8745
 6852SOL     OW32188   2.558   4.666   2.855 -0.2709 -0.3363 -0.5385
 6852SOL    HW132189   2.534   4.694   2.767  2.8853  2.5812 -0.4667
 6852SOL    HW232190   2.477   4.691   2.900 -0.1292 -0.4555 -0.2116
 6853SOL     OW32191   2.058   0.683  15.749 -0.0980 -0.5698 -0.2454
 6853SOL    HW132192   2.074   0.763  15.799  1.9418 -0.6114 -0.8322
 6853SOL    HW232193   1.990   0.719  15.693 -0.3540  1.4031  1.3365
 6854SOL     OW32194   2.473   1.583   7.894 -0.3665  0.0153  0.0116
 6854SOL    HW132195   2.405   1.576   7.827  0.3525  1.6284 -0.8852
 6854SOL    HW232196   2.560   1.587   7.855  0.3923  0.6793  1.7784
 6855SOL     OW32197   2.194   2.991   9.974  0.1109  0.3760 -0.1394
 6855SOL    HW132198   2.156   2.927  10.034  0.3499 -0.8297 -1.2751
 6855SOL    HW232199   2.191   3.071  10.027  0.0214 -0.2581  0.8042
 6856SOL     OW32200   2.020   3.018  12.333 -0.0596 -0.0217  0.5781
 6856SOL    HW132201   2.055   2.988  12.417 -0.9377  1.1100  1.3561
 6856SOL    HW232202   1.967   2.942  12.310  0.1689 -0.3473  1.1178
 6857SOL     OW32203   2.565   4.357   2.261  0.4046 -0.2690 -0.0836
 6857SOL    HW132204   2.545   4.420   2.192  2.5765  0.7715  0.2509
 6857SOL    HW232205   2.588   4.421   2.328  0.7147  0.1720 -0.6090
 6858SOL     OW32206   0.068   1.780   7.628 -0.9258  0.2322  0.1232
 6858SOL    HW132207   0.011   1.765   7.703 -0.5508 -1.9720 -0.0403
 6858SOL    HW232208   0.112   1.864   7.646  1.3835 -0.9517 -0.0136
 6859SOL     OW32209   3.839   2.160  14.696  0.1803 -0.3539 -0.2189
 6859SOL    HW132210   3.871   2.237  14.650 -1.3804 -0.1262 -0.9084
 6859SOL    HW232211   3.803   2.110  14.623 -2.7525  1.5525 -0.0409
 6860SOL     OW32212   3.531   0.350   2.562 -0.5607 -0.5037 -0.0188
 6860SOL    HW132213   3.583   0.273   2.583  0.5986  0.1518 -0.4472
 6860SOL    HW232214   3.568   0.403   2.633 -1.0908  0.9751 -0.8333
 6861SOL     OW32215   1.105   4.548  16.900 -0.0816  0.0695  0.7200
 6861SOL    HW132216   1.035   4.592  16.851 -0.7421 -0.4086  1.2439
 6861SOL    HW232217   1.097   4.469  16.847  1.0970  1.4274 -1.5228
 6862SOL     OW32218   0.724   3.809  11.303  0.6042 -0.1087  0.1227
 6862SOL    HW132219   0.737   3.862  11.225  2.1231  2.0634  1.8439
 6862SOL    HW232220   0.642   3.774  11.269  0.4321  1.2893 -0.9067
 6863SOL     OW32221   1.017   1.323   6.183  0.0915 -0.3116  0.7006
 6863SOL    HW132222   1.089   1.352   6.127  0.7698 -1.6402  0.9085
 6863SOL    HW232223   1.051   1.365   6.262 -2.3194  2.1606  0.4490
 6864SOL     OW32224   4.049   3.942  12.760  0.6709  0.0474 -0.0552
 6864SOL    HW132225   4.113   3.995  12.714  2.3897 -3.1337 -1.3737
 6864SOL    HW232226   4.074   3.850  12.748 -0.4764  0.0591 -2.3794
 6865SOL     OW32227   3.035   2.857   1.509  0.3294  0.2618 -0.2881
 6865SOL    HW132228   2.966   2.799   1.540  0.0689  1.4679  1.4325
 6865SOL    HW232229   3.100   2.790   1.494  0.0150  0.3016 -1.8643
 6866SOL     OW32230   2.376   0.186   9.300 -0.2705  0.3287  0.1916
 6866SOL    HW132231   2.282   0.172   9.313 -0.0117 -1.6884  0.0235
 6866SOL    HW232232   2.409   0.111   9.351 -1.5542 -1.7216 -1.9829
 6867SOL     OW32233   3.639   3.815   6.268  0.1684 -0.3931  0.5325
 6867SOL    HW132234   3.634   3.903   6.231  2.8546 -1.1455 -1.6109
 6867SOL    HW232235   3.734   3.808   6.274  0.1334 -1.3937 -0.1070
 6868SOL     OW32236   2.790   2.520  17.272  0.1661  0.0202 -0.0034
 6868SOL    HW132237   2.748   2.521  17.187 -2.0514 -1.0636  1.0928
 6868SOL    HW232238   2.883   2.543  17.261  0.6832 -2.0633  0.0516
 6869SOL     OW32239   3.673   2.464   4.178 -0.3510 -0.2449 -0.7405
 6869SOL    HW132240   3.739   2.439   4.242 -1.1445 -0.8622 -0.1716
 6869SOL    HW232241   3.663   2.557   4.197  0.3895 -1.0633  3.6206
 6870SOL     OW32242   0.160   1.834  13.449  0.2980 -0.3500  0.4787
 6870SOL    HW132243   0.237   1.788  13.482 -0.6288  0.4384  3.7884
 6870SOL    HW232244   0.099   1.822  13.522  0.9448  0.5825  1.1671
 6871SOL     OW32245   4.653   2.060   7.013  0.0382 -0.3608 -0.2765
 6871SOL    HW132246   4.621   1.970   7.022  2.6940 -1.2345  0.4267
 6871SOL    HW232247   4.623   2.089   6.927 -1.9728  0.8462  0.8170
 6872SOL     OW32248   2.236   3.702   3.914 -0.2801  0.1117  0.8229
 6872SOL    HW132249   2.222   3.650   3.835 -1.7964  1.0953  0.4349
 6872SOL    HW232250   2.223   3.629   3.975  1.3662 -0.8541 -0.0048
 6873SOL     OW32251   1.202   3.008   9.284  0.2253  0.1913  0.0137
 6873SOL    HW132252   1.228   3.010   9.191 -1.1501 -0.8100 -0.3827
 6873SOL    HW232253   1.125   3.064   9.287  0.1310 -0.1176  3.1442
 6874SOL     OW32254   1.977   2.651   8.086 -0.6253 -0.2329  0.1351
 6874SOL    HW132255   1.938   2.719   8.140  2.3368  1.7670 -0.2731
 6874SOL    HW232256   2.027   2.604   8.153  2.4846  2.6818 -0.1259
 6875SOL     OW32257   0.888   2.864   4.166 -0.4765 -0.3992 -0.5506
 6875SOL    HW132258   0.821   2.880   4.100  1.3808  0.8837 -2.1227
 6875SOL    HW232259   0.962   2.841   4.109  0.9552  1.0016  0.7173
 6876SOL     OW32260   2.890   1.759   7.888  0.4061  0.0792  0.1673
 6876SOL    HW132261   2.840   1.805   7.822 -1.1561  0.0287  1.3197
 6876SOL    HW232262   2.918   1.826   7.950  1.4517 -0.3000  0.1208
 6877SOL     OW32263   2.892   0.534   4.548  0.0385  0.0018 -0.0880
 6877SOL    HW132264   2.843   0.457   4.519 -1.1136  0.4936  0.5582
 6877SOL    HW232265   2.955   0.494   4.607  1.1246  1.6933 -0.0993
 6878SOL     OW32266   1.001   2.216   4.135  0.0136 -0.2033 -0.3570
 6878SOL    HW132267   0.912   2.238   4.163 -0.0339 -0.8171 -0.0170
 6878SOL    HW232268   0.975   2.139   4.083  0.4849  0.1396 -1.1045
 6879SOL     OW32269   1.577   0.741   5.656 -0.0333 -0.3596  0.5132
 6879SOL    HW132270   1.558   0.649   5.636  1.1095  0.0264 -2.2315
 6879SOL    HW232271   1.489   0.779   5.657  0.6701  1.3175 -1.5565
 6880SOL     OW32272   2.659   1.202   2.912  0.2718  0.1274  0.3005
 6880SOL    HW132273   2.595   1.257   2.957  0.0744 -0.5056  0.7781
 6880SOL    HW232274   2.641   1.243   2.827 -2.7041 -2.0305 -0.1016
 6881SOL     OW32275   2.016   2.436   8.320 -0.0340 -0.2568 -0.0227
 6881SOL    HW132276   1.933   2.446   8.274 -0.3637 -1.2106  0.3701
 6881SOL    HW232277   1.996   2.349   8.354 -1.6579  0.2283  0.2650
 6882SOL     OW32278   1.353   4.352   8.682 -0.2581 -0.6852 -0.1028
 6882SOL    HW132279   1.443   4.385   8.680 -0.8570  0.8066 -2.4777
 6882SOL    HW232280   1.326   4.392   8.764  0.1336  0.1989 -0.3958
 6883SOL     OW32281   2.113   0.700   7.516 -0.0576  0.1859  0.2464
 6883SOL    HW132282   2.167   0.662   7.586 -0.1567 -2.2556 -1.0231
 6883SOL    HW232283   2.057   0.632   7.479  0.6975  1.3209 -3.0158
 6884SOL     OW32284   0.698   2.720   0.957 -0.5438  0.3481  0.1321
 6884SOL    HW132285   0.740   2.770   1.027 -3.3331 -2.7631  4.0473
 6884SOL    HW232286   0.765   2.668   0.913 -1.6398  0.0682 -1.2197
 6885SOL     OW32287   1.841   0.888   5.666  0.4620  0.2152  0.1505
 6885SOL    HW132288   1.756   0.853   5.639  0.8920  0.5859 -1.6280
 6885SOL    HW232289   1.893   0.845   5.599  1.2566  0.3456  0.6877
 6886SOL     OW32290   0.795   2.693   6.168  0.4661  0.0461  0.7337
 6886SOL    HW132291   0.874   2.656   6.208  0.2951  1.9662  2.8566
 6886SOL    HW232292   0.825   2.782   6.148 -0.6827  0.3451  0.3669
 6887SOL     OW32293   1.603   4.021  10.700  0.3919  0.0342  0.6435
 6887SOL    HW132294   1.605   4.015  10.795  1.4211 -2.3447  0.4727
 6887SOL    HW232295   1.688   4.060  10.679 -0.0803  0.9764  0.4921
 6888SOL     OW32296   1.403   1.853   6.574 -0.2307  0.2586 -0.2158
 6888SOL    HW132297   1.317   1.876   6.609  0.3617  1.5050  0.4084
 6888SOL    HW232298   1.456   1.838   6.652 -1.5217 -0.7956  0.4615
 6889SOL     OW32299   1.901   2.674  13.603 -0.0218  0.4132  0.2164
 6889SOL    HW132300   1.966   2.726  13.651 -0.0241  0.7912 -0.1858
 6889SOL    HW232301   1.919   2.586  13.635 -4.8507 -0.5380  0.2614
 6890SOL     OW32302   0.177   0.417   5.718 -0.0752  0.4446  0.0444
 6890SOL    HW132303   0.188   0.450   5.808 -0.2529  1.8072 -0.4252
 6890SOL    HW232304   0.128   0.482   5.668  1.6365  2.9482  1.5804
 6891SOL     OW32305   0.181   0.666   3.645 -0.4965  0.2050 -0.6296
 6891SOL    HW132306   0.096   0.694   3.680 -0.0645 -1.8785  2.0010
 6891SOL    HW232307   0.160   0.631   3.558 -0.2796 -1.2187 -0.1046
 6892SOL     OW32308   2.830   3.583   7.588 -0.1536  0.2359 -0.3245
 6892SOL    HW132309   2.916   3.569   7.547 -0.0941 -0.7410  0.1497
 6892SOL    HW232310   2.858   3.665   7.630 -0.2321  0.4976 -0.7764
 6893SOL     OW32311   1.411   0.393   3.375  0.4906 -0.4459 -0.1498
 6893SOL    HW132312   1.505   0.400   3.391  0.1196  1.5104  1.1469
 6893SOL    HW232313   1.384   0.483   3.357 -1.2084 -1.7506 -4.1130
 6894SOL     OW32314   4.598   1.075   7.894  0.4178  0.7123 -0.0598
 6894SOL    HW132315   4.570   1.017   7.823 -3.2475  3.7002 -1.0560
 6894SOL    HW232316   4.530   1.142   7.891  0.0327  0.4620  3.3796
 6895SOL     OW32317   3.336   3.121   8.706  0.3880  0.0248 -0.4353
 6895SOL    HW132318   3.405   3.146   8.643 -0.6990  1.0807 -1.2078
 6895SOL    HW232319   3.261   3.114   8.648  0.9536 -0.6900 -1.0774
 6896SOL     OW32320   4.648   2.902  10.974 -0.5119 -0.4339  0.0795
 6896SOL    HW132321   4.705   2.976  10.952 -2.7321  1.8915  2.0798
 6896SOL    HW232322   4.600   2.894  10.891 -0.7700 -2.0546  0.3873
 6897SOL     OW32323   0.672   4.243   2.666  0.2204  0.1551 -0.1453
 6897SOL    HW132324   0.695   4.161   2.711 -0.8132  0.2345  0.5223
 6897SOL    HW232325   0.583   4.214   2.645  0.3461 -0.3995  0.0742
 6898SOL     OW32326   4.439   1.985  16.830  0.2514 -0.3988  0.0375
 6898SOL    HW132327   4.397   2.062  16.791  0.9898  0.3576  0.7292
 6898SOL    HW232328   4.440   2.012  16.922  0.1828 -3.5609  0.9585
 6899SOL     OW32329   3.134   2.613  12.294 -0.1625  0.1351  0.5689
 6899SOL    HW132330   3.110   2.660  12.214 -1.5087 -0.2815  0.7225
 6899SOL    HW232331   3.144   2.527  12.255 -0.7793  1.1874 -1.9180
 6900SOL     OW32332   2.835   3.698  10.596 -0.0428 -0.5145 -0.2536
 6900SOL    HW132333   2.923   3.665  10.580 -0.3976 -0.8674 -1.4602
 6900SOL    HW232334   2.782   3.629  10.556  0.3628  1.0873 -3.4980
 6901SOL     OW32335   0.387   1.645   5.419  0.0090  0.9324 -0.9056
 6901SOL    HW132336   0.425   1.581   5.359 -1.2605 -0.9093  0.2437
 6901SOL    HW232337   0.467   1.677   5.459 -1.8015  1.6994  2.0925
 6902SOL     OW32338   1.844   3.328   6.766 -0.0062  0.4419 -0.4572
 6902SOL    HW132339   1.884   3.243   6.785  0.8214  1.2894  1.5794
 6902SOL    HW232340   1.789   3.294   6.695 -1.0520  2.0562 -0.4280
 6903SOL     OW32341   3.311   2.197   4.279  0.1723  0.2368 -0.1123
 6903SOL    HW132342   3.386   2.138   4.281 -0.7342 -0.9463 -0.7720
 6903SOL    HW232343   3.290   2.189   4.186 -1.2418 -0.6024  0.2890
 6904SOL     OW32344   2.338   1.735  14.430 -0.1521  0.4755  0.0176
 6904SOL    HW132345   2.311   1.801  14.367 -1.5749  1.3157  1.5205
 6904SOL    HW232346   2.383   1.683  14.363 -2.5099 -0.8227 -0.5598
 6905SOL     OW32347   2.768   1.402   7.490  0.0026  0.3750  0.4239
 6905SOL    HW132348   2.781   1.496   7.497  0.7473  0.2465  0.7501
 6905SOL    HW232349   2.855   1.374   7.519 -0.3072 -1.0809 -0.0580
 6906SOL     OW32350   2.901   2.782   0.699  0.0269  0.3057 -0.1985
 6906SOL    HW132351   2.945   2.851   0.748  1.2422  0.2047 -1.1564
 6906SOL    HW232352   2.846   2.831   0.637  0.4857  0.1343 -0.7466
 6907SOL     OW32353   4.590   3.380   9.188  0.4642  0.1091 -0.3296
 6907SOL    HW132354   4.600   3.465   9.144  0.2349 -0.0538 -0.7013
 6907SOL    HW232355   4.549   3.327   9.120  1.2427  0.6168 -1.2074
 6908SOL     OW32356   3.983   3.108   4.661  0.1984  0.0655  0.1905
 6908SOL    HW132357   3.912   3.172   4.667 -0.7209 -0.6951 -2.6880
 6908SOL    HW232358   3.997   3.088   4.753  1.4084  0.2927  0.0591
 6909SOL     OW32359   1.886   3.082   1.788 -0.0470 -0.2004  0.2049
 6909SOL    HW132360   1.865   3.172   1.762 -1.1416 -0.6199 -0.3610
 6909SOL    HW232361   1.981   3.079   1.780  0.2517  3.8039  1.9088
 6910SOL     OW32362   2.482   2.090   2.410 -0.0055  0.4696  0.1312
 6910SOL    HW132363   2.546   2.161   2.416  0.9521 -0.3926  0.0886
 6910SOL    HW232364   2.521   2.030   2.346 -1.3538 -0.1421 -0.1196
 6911SOL     OW32365   0.579   3.344   4.375 -0.0541 -0.0120 -0.1223
 6911SOL    HW132366   0.580   3.392   4.458 -1.5408 -0.6306  0.2393
 6911SOL    HW232367   0.672   3.327   4.358 -0.2495 -0.6068 -0.6178
 6912SOL     OW32368   3.774   1.279   4.645  0.1656 -0.2312  0.5148
 6912SOL    HW132369   3.816   1.313   4.567  0.9797 -0.9601  0.6338
 6912SOL    HW232370   3.854   1.274   4.697  0.4834 -0.5442 -0.0116
 6913SOL     OW32371   3.737   3.797   2.621  0.0054  0.0969  0.1769
 6913SOL    HW132372   3.793   3.761   2.690  0.9087  0.4497 -0.3590
 6913SOL    HW232373   3.784   3.878   2.598 -0.1009  0.0309 -0.2840
 6914SOL     OW32374   2.897   3.396   9.845  0.2288  0.0004 -0.3762
 6914SOL    HW132375   2.947   3.415   9.925 -0.1259  2.1319 -0.6535
 6914SOL    HW232376   2.945   3.441   9.776 -0.7236 -0.8126 -1.5459
 6915SOL     OW32377   1.956   1.701   7.533 -0.1102  0.5335  0.7643
 6915SOL    HW132378   1.982   1.614   7.564 -0.1235  0.3728  0.3364
 6915SOL    HW232379   2.006   1.708   7.451  1.2756  1.6606  1.7045
 6916SOL     OW32380   0.475   2.552   4.208 -0.5726  0.4653 -0.1456
 6916SOL    HW132381   0.394   2.603   4.213 -0.8469  0.1979 -1.6047
 6916SOL    HW232382   0.507   2.547   4.298 -0.8713  0.0666 -0.0635
 6917SOL     OW32383   0.205   3.468  14.812 -0.4091  0.0199  0.0718
 6917SOL    HW132384   0.173   3.439  14.897 -2.5525  2.9887  0.2367
 6917SOL    HW232385   0.275   3.524  14.846  0.7763 -0.7828 -0.9905
 6918SOL     OW32386   2.563   2.474   2.353 -0.2899 -0.3401 -0.2149
 6918SOL    HW132387   2.492   2.448   2.295  0.1832  0.0962 -0.9872
 6918SOL    HW232388   2.544   2.568   2.366 -0.2344 -0.1733 -1.3646
 6919SOL     OW32389   1.477   0.265   3.871 -0.0409 -0.7187 -0.0526
 6919SOL    HW132390   1.447   0.251   3.781  0.6112  1.4979 -0.6003
 6919SOL    HW232391   1.399   0.261   3.926 -1.4577  0.2317 -1.9924
 6920SOL     OW32392   0.483   2.173   9.026  0.9347 -0.2693  0.4157
 6920SOL    HW132393   0.571   2.142   9.003  1.4662  0.7176  1.0944
 6920SOL    HW232394   0.499   2.268   9.024 -2.2495  0.2271 -0.7990
 6921SOL     OW32395   4.076   2.229  10.071 -0.3244  0.3715 -0.6930
 6921SOL    HW132396   4.112   2.317  10.060 -0.3997  0.7765  2.3225
 6921SOL    HW232397   4.128   2.174  10.130  0.7484  1.7875 -0.3165
 6922SOL     OW32398   4.209   4.708   6.529 -0.2759  0.3813 -0.0246
 6922SOL    HW132399   4.125   4.671   6.555  1.3221 -2.0615  1.7114
 6922SOL    HW232400   4.196   4.718   6.435  0.3387 -0.4975 -0.2132
 6923SOL     OW32401   1.222   2.079   2.629 -0.5391 -0.1054  0.2920
 6923SOL    HW132402   1.169   2.089   2.550 -1.7465 -1.8122  0.9079
 6923SOL    HW232403   1.199   2.159   2.676 -0.4926 -0.1466  0.3853
 6924SOL     OW32404   1.196   3.294   1.332 -0.3858  0.4248  0.0403
 6924SOL    HW132405   1.206   3.377   1.284 -0.4418  1.3856  1.6874
 6924SOL    HW232406   1.139   3.241   1.276 -1.2438 -0.0965  1.4062
 6925SOL     OW32407   2.170   1.591  14.210 -0.8601 -0.1785  0.1719
 6925SOL    HW132408   2.234   1.540  14.161 -1.5794  0.0467 -0.9891
 6925SOL    HW232409   2.203   1.680  14.196 -2.6866  0.3646 -0.6907
 6926SOL     OW32410   0.871   1.433   8.433  0.1038  0.1186  0.3310
 6926SOL    HW132411   0.833   1.402   8.351 -0.2736  0.1876  0.4807
 6926SOL    HW232412   0.951   1.382   8.446 -1.4073 -2.6250 -1.2403
 6927SOL     OW32413   1.113   1.453   6.386 -0.4413 -0.4678 -0.0177
 6927SOL    HW132414   1.196   1.436   6.432 -0.7787  0.4310  0.9220
 6927SOL    HW232415   1.077   1.530   6.430 -1.1691  0.1944 -1.7751
 6928SOL     OW32416   0.391   3.090   7.773  0.2435 -0.0694  0.4125
 6928SOL    HW132417   0.426   3.161   7.719  0.3218 -1.2459 -1.1084
 6928SOL    HW232418   0.428   3.011   7.733 -2.1525 -1.8995  1.8330
 6929SOL     OW32419   1.533   1.488  13.671  0.6255 -0.0533  0.3136
 6929SOL    HW132420   1.588   1.412  13.694 -0.2798 -0.3836  1.3618
 6929SOL    HW232421   1.445   1.452  13.682  1.3241 -1.9160 -0.1697
 6930SOL     OW32422   3.044   3.826   0.650 -0.3447  0.2622  0.7075
 6930SOL    HW132423   3.028   3.919   0.662  0.4318  0.3423  1.0858
 6930SOL    HW232424   3.005   3.794   0.732 -1.5935  1.3930  0.5444
 6931SOL     OW32425   0.333   2.343  10.035 -0.1236 -0.2752  0.1612
 6931SOL    HW132426   0.376   2.355  10.120  1.0205  2.0724 -0.7621
 6931SOL    HW232427   0.406   2.349   9.974 -0.0535  2.5317  0.4942
 6932SOL     OW32428   3.810   4.060   4.455 -0.0156 -0.2667 -0.0166
 6932SOL    HW132429   3.731   4.007   4.441  0.2665 -0.7840  0.3236
 6932SOL    HW232430   3.797   4.124   4.385 -1.1263  0.5485  0.9187
 6933SOL     OW32431   3.867   2.118   7.592 -0.2029 -0.1765  0.8006
 6933SOL    HW132432   3.825   2.032   7.585  1.2375 -0.6915 -1.7524
 6933SOL    HW232433   3.859   2.147   7.501 -2.1099 -0.4592  0.8861
 6934SOL     OW32434   2.995   1.841   6.504  0.3230  0.5945  0.0335
 6934SOL    HW132435   3.015   1.909   6.569 -0.2116  1.2768 -0.5046
 6934SOL    HW232436   2.946   1.898   6.443  1.0877  1.7911  0.5326
 6935SOL     OW32437   0.820   2.193   9.577 -0.9007  0.4552  0.5314
 6935SOL    HW132438   0.849   2.114   9.531  0.3964  0.9757  0.4656
 6935SOL    HW232439   0.743   2.162   9.626  0.7516 -3.1704  0.8281
 6936SOL     OW32440   1.780   1.321   2.940  0.1608  0.6140 -0.3908
 6936SOL    HW132441   1.817   1.378   3.007  1.1755  1.2420 -1.4811
 6936SOL    HW232442   1.844   1.250   2.944 -0.7199 -0.1208  0.5196
 6937SOL     OW32443   4.403   4.142   3.373  0.5837  0.1382  0.4894
 6937SOL    HW132444   4.353   4.171   3.449 -0.5659 -2.6512  0.8040
 6937SOL    HW232445   4.359   4.060   3.347  1.6617  0.1413 -1.3246
 6938SOL     OW32446   2.454   0.898   3.348 -0.4198 -0.1941 -0.1191
 6938SOL    HW132447   2.455   0.807   3.378 -0.5208 -0.4275 -0.8164
 6938SOL    HW232448   2.507   0.877   3.271  0.9949  0.8749  0.5879
 6939SOL     OW32449   4.246   4.085   1.020  0.5103  0.0259 -0.0638
 6939SOL    HW132450   4.157   4.058   0.998 -0.4308  1.2435  2.3410
 6939SOL    HW232451   4.228   4.115   1.109  0.4237 -0.2072 -0.0007
 6940SOL     OW32452   4.487   3.895   9.935  0.4493  0.3175  0.0155
 6940SOL    HW132453   4.410   3.847   9.966  0.1898 -0.5472 -1.9873
 6940SOL    HW232454   4.545   3.826   9.903  0.4570 -0.4157  1.6006
 6941SOL     OW32455   4.146   0.754   5.294  0.2368  0.2652  0.1543
 6941SOL    HW132456   4.070   0.700   5.274 -0.3692  0.8610  0.8606
 6941SOL    HW232457   4.206   0.714   5.230  1.3004 -0.0437  1.3389
 6942SOL     OW32458   1.749   1.671   6.018 -0.3238  0.4663 -0.7196
 6942SOL    HW132459   1.729   1.763   6.036 -0.9786  0.3533 -0.8801
 6942SOL    HW232460   1.815   1.654   6.085  0.2980 -0.2128 -1.5036
 6943SOL     OW32461   3.329   0.222   5.040  0.0270 -0.4024  0.1206
 6943SOL    HW132462   3.257   0.259   5.092  2.2170  1.4652  1.8179
 6943SOL    HW232463   3.283   0.206   4.957  1.9001 -0.3495 -0.9309
 6944SOL     OW32464   1.932   1.897   8.577  0.3387 -0.2188  0.5480
 6944SOL    HW132465   1.900   1.891   8.487 -1.5851 -0.9914  1.2763
 6944SOL    HW232466   1.930   1.806   8.607 -1.4769  0.8733  3.7405
 6945SOL     OW32467   4.077   3.370   2.496 -0.6067  0.2748 -0.1465
 6945SOL    HW132468   4.099   3.277   2.504 -0.6110  0.1679 -1.3588
 6945SOL    HW232469   4.086   3.395   2.588  1.4834  1.3293 -0.6296
 6946SOL     OW32470   1.563   2.957  12.077 -0.0628  0.7320 -0.0201
 6946SOL    HW132471   1.552   3.031  12.018 -0.2878 -0.0921 -1.0276
 6946SOL    HW232472   1.555   2.884  12.015  0.4154  0.3680  0.3451
 6947SOL     OW32473   2.901   3.605   1.352  0.3608  0.2795  0.0423
 6947SOL    HW132474   2.991   3.601   1.320  0.3947  1.7994 -0.0525
 6947SOL    HW232475   2.900   3.687   1.401 -0.4865 -0.3867  1.1475
 6948SOL     OW32476   0.583   3.309   9.239 -0.2234  0.4016  0.5003
 6948SOL    HW132477   0.627   3.238   9.194  1.9600  1.5206  0.8992
 6948SOL    HW232478   0.590   3.273   9.327  1.5840 -0.8987 -0.1985
 6949SOL     OW32479   0.838   3.494   8.025  0.6861 -0.5589 -0.0677
 6949SOL    HW132480   0.816   3.476   8.116 -2.7555  0.2668 -0.7402
 6949SOL    HW232481   0.773   3.438   7.983 -1.7292  2.1796 -0.0200
 6950SOL     OW32482   3.333   4.435  12.675  0.2401  0.4260  0.3192
 6950SOL    HW132483   3.336   4.344  12.647  1.2776  0.9400 -1.2567
 6950SOL    HW232484   3.414   4.475  12.641  0.7635 -1.6572 -0.8674
 6951SOL     OW32485   0.873   2.482   9.482  0.3758  0.4032 -0.0925
 6951SOL    HW132486   0.871   2.399   9.530 -0.0962  1.0903  1.0991
 6951SOL    HW232487   0.967   2.494   9.474  0.2636  1.2242 -0.1781
 6952SOL     OW32488   2.718   0.536   6.983 -0.0793 -0.2670  0.4887
 6952SOL    HW132489   2.702   0.619   6.938 -2.8861 -0.3418  1.3830
 6952SOL    HW232490   2.808   0.541   7.017  0.1722  1.3763 -0.4390
 6953SOL     OW32491   4.371   4.204   2.098 -0.1354  0.1134 -0.7287
 6953SOL    HW132492   4.277   4.192   2.107  0.1748 -1.3647  0.4524
 6953SOL    HW232493   4.393   4.166   2.013 -1.0994  2.5074 -2.0455
 6954SOL     OW32494   2.179   0.894   8.601 -0.2687  0.6613  0.0558
 6954SOL    HW132495   2.123   0.816   8.593  0.2233  0.6644 -3.4675
 6954SOL    HW232496   2.232   0.895   8.522 -1.9838  1.3635 -1.0941
 6955SOL     OW32497   4.286   4.352  11.832 -0.7520 -0.3694 -0.6439
 6955SOL    HW132498   4.350   4.420  11.812 -3.7832  2.8385  0.5217
 6955SOL    HW232499   4.329   4.269  11.813 -0.3664 -0.5595  1.1107
 6956SOL     OW32500   2.349   3.681   3.555 -0.2090 -0.4473 -0.4215
 6956SOL    HW132501   2.260   3.649   3.538 -0.6203  1.1822 -1.3749
 6956SOL    HW232502   2.344   3.753   3.491  1.9100 -0.3850 -0.5183
 6957SOL     OW32503   1.595   4.296   6.185 -0.3306  0.1965  0.2263
 6957SOL    HW132504   1.606   4.391   6.184 -0.8846  0.2694  0.9684
 6957SOL    HW232505   1.507   4.276   6.154  0.6979 -3.6398 -0.1344
 6958SOL     OW32506   0.303   4.551   9.656  0.3099 -0.3502  0.0456
 6958SOL    HW132507   0.307   4.555   9.561 -0.1088 -2.0508 -0.0492
 6958SOL    HW232508   0.249   4.472   9.664  0.1460 -0.0857  1.6633
 6959SOL     OW32509   0.031   1.138  16.900  0.2523 -0.2461 -1.0467
 6959SOL    HW132510   0.116   1.148  16.942 -0.4089  2.9263 -0.4562
 6959SOL    HW232511   0.054   1.103  16.814 -0.8800 -1.3428 -0.9230
 6960SOL     OW32512   1.849   0.323  17.012 -0.2193  0.0685  0.3563
 6960SOL    HW132513   1.879   0.250  16.958 -1.0735  0.8353 -1.1665
 6960SOL    HW232514   1.819   0.385  16.945  1.3825 -1.3558 -1.6697
 6961SOL     OW32515   4.377   0.391  12.819 -0.1041 -0.1680 -0.5334
 6961SOL    HW132516   4.304   0.341  12.856  0.8792 -1.4707 -0.3515
 6961SOL    HW232517   4.339   0.452  12.756 -0.5324  2.4753  2.2585
 6962SOL     OW32518   0.443   4.109   2.509  1.0133 -0.3190 -0.4323
 6962SOL    HW132519   0.416   4.021   2.534 -0.7958 -0.0434 -1.3996
 6962SOL    HW232520   0.513   4.096   2.445 -0.0205 -0.9065 -1.4615
 6963SOL     OW32521   2.813   2.152  12.761  0.0530 -0.1418 -0.0722
 6963SOL    HW132522   2.878   2.211  12.723  2.0057 -0.3775  2.8884
 6963SOL    HW232523   2.852   2.067  12.744 -0.7493 -0.3910 -0.6619
 6964SOL     OW32524   3.833   0.793  13.086  0.0248  0.2095  0.1500
 6964SOL    HW132525   3.909   0.774  13.140  1.1742 -1.3115 -1.9947
 6964SOL    HW232526   3.764   0.790  13.153 -2.0282  1.0998 -1.9219
 6965SOL     OW32527   3.100   0.811   2.955  0.4148 -0.1195 -0.7350
 6965SOL    HW132528   3.083   0.889   2.902  2.7839 -0.7136 -2.3829
 6965SOL    HW232529   3.156   0.763   2.894 -0.4756 -0.7538 -1.0707
 6966SOL     OW32530   1.974   3.580   1.515  0.0198 -0.1517 -0.0185
 6966SOL    HW132531   1.923   3.658   1.494  0.5059  0.0146 -0.6065
 6966SOL    HW232532   2.049   3.619   1.560  1.2966 -0.0296 -2.2403
 6967SOL     OW32533   2.901   1.112   5.051 -0.3546  0.2655  0.2021
 6967SOL    HW132534   2.892   1.021   5.022 -1.2478  0.6929 -0.8941
 6967SOL    HW232535   2.920   1.145   4.963 -2.5589  0.6587 -0.1202
 6968SOL     OW32536   4.729   1.270   5.027 -0.7259  0.2867  0.1967
 6968SOL    HW132537   4.703   1.344   4.971 -2.0773  0.7227  1.3889
 6968SOL    HW232538   4.644   1.245   5.064  0.3152 -0.0110  2.3471
 6969SOL     OW32539   3.254   3.080   3.561 -0.2096  0.2410  0.3551
 6969SOL    HW132540   3.262   3.033   3.643  1.4912 -1.2273 -0.6386
 6969SOL    HW232541   3.293   3.019   3.498 -0.3263 -1.2808  1.7763
 6970SOL     OW32542   3.720   1.208   8.416 -0.3887  0.1951  0.5362
 6970SOL    HW132543   3.662   1.208   8.492  0.9983  0.7838  1.5896
 6970SOL    HW232544   3.806   1.210   8.459 -0.0976 -0.4854 -0.0080
 6971SOL     OW32545   1.952   4.423   9.951  0.1275 -0.5153  0.2629
 6971SOL    HW132546   1.892   4.461   9.887  0.2210  1.0582  1.0955
 6971SOL    HW232547   1.883   4.386  10.006 -2.1904 -1.1707 -3.0843
 6972SOL     OW32548   4.303   1.543   8.750  0.4118 -1.1369  0.5049
 6972SOL    HW132549   4.226   1.509   8.705 -1.0575  0.9710  1.4150
 6972SOL    HW232550   4.337   1.465   8.794  0.2421 -1.1991  0.5272
 6973SOL     OW32551   1.558   2.814   8.244  0.2943  0.3310  0.0749
 6973SOL    HW132552   1.495   2.874   8.204  0.5600  0.8231  0.3868
 6973SOL    HW232553   1.531   2.733   8.202 -1.8024  0.6780  0.7537
 6974SOL     OW32554   2.511   3.106  12.125  0.0863  0.2617  0.0787
 6974SOL    HW132555   2.521   3.161  12.047  0.6508  0.6672  0.4295
 6974SOL    HW232556   2.467   3.168  12.183 -1.2754 -1.3865  0.7790
 6975SOL     OW32557   1.940   2.606   2.386  0.1421  0.0522 -0.3494
 6975SOL    HW132558   1.953   2.668   2.458 -0.1820 -0.9415  0.5626
 6975SOL    HW232559   2.029   2.571   2.383 -0.1844 -0.7534 -0.7042
 6976SOL     OW32560   3.424   4.227   8.705  0.1127 -0.3157 -0.1803
 6976SOL    HW132561   3.443   4.282   8.781 -2.4167  0.8566 -0.4064
 6976SOL    HW232562   3.384   4.290   8.645 -1.6490 -1.5266 -0.2704
 6977SOL     OW32563   2.255   0.101  13.190  0.3320  0.5106  0.2183
 6977SOL    HW132564   2.188   0.034  13.208 -0.8314  1.2266 -1.3949
 6977SOL    HW232565   2.330   0.044  13.173  0.4956  1.3389 -1.8410
 6978SOL     OW32566   3.702   3.572   9.280 -0.4096  0.2489  0.2369
 6978SOL    HW132567   3.784   3.615   9.303 -0.6199  0.1168  1.2247
 6978SOL    HW232568   3.664   3.636   9.220  4.5860  0.4736 -2.6831
 6979SOL     OW32569   0.642   2.054   5.937  0.1780  0.0949 -0.7123
 6979SOL    HW132570   0.611   2.143   5.954 -0.9925 -0.1441 -1.6176
 6979SOL    HW232571   0.634   2.018   6.025  0.5767  0.2440 -0.6135
 6980SOL     OW32572   3.082   1.197   7.101 -0.6643  0.6041  0.2577
 6980SOL    HW132573   3.055   1.142   7.175 -0.4654 -1.0333 -0.8783
 6980SOL    HW232574   3.000   1.244   7.087 -0.5290  0.6929 -0.2473
 6981SOL     OW32575   1.727   1.634   6.959 -0.3118 -0.0274  0.5737
 6981SOL    HW132576   1.686   1.586   6.887 -1.0802  1.8269 -0.2301
 6981SOL    HW232577   1.728   1.715   6.909 -2.0322 -0.2848  0.1337
 6982SOL     OW32578   2.666   1.860  13.597  0.0916  0.1257  0.2961
 6982SOL    HW132579   2.723   1.910  13.539 -1.3899  2.7539  1.1115
 6982SOL    HW232580   2.581   1.903  13.584 -0.5385 -1.2066 -0.0554
 6983SOL     OW32581   0.292   0.012   7.244  0.4238 -0.3258 -0.6876
 6983SOL    HW132582   0.299   4.703   7.159 -0.5016 -1.9980  0.1034
 6983SOL    HW232583   0.348   4.692   7.298  0.7184  1.0616  0.4246
 6984SOL     OW32584   3.492   1.316   9.348 -0.6983  0.4463  0.4702
 6984SOL    HW132585   3.577   1.274   9.337 -0.3886  0.8779  1.2621
 6984SOL    HW232586   3.445   1.269   9.279  0.1559 -0.4414  0.4912
 6985SOL     OW32587   1.108   3.518  15.699  0.1470 -0.0280  0.2974
 6985SOL    HW132588   1.136   3.556  15.616 -0.8628 -0.9403 -0.4641
 6985SOL    HW232589   1.018   3.547  15.710  0.0814  0.5622 -1.7897
 6986SOL     OW32590   1.422   0.201   1.583 -0.1824 -0.1239 -0.2973
 6986SOL    HW132591   1.410   0.284   1.628 -0.1620  0.1398 -0.7774
 6986SOL    HW232592   1.478   0.153   1.644  0.6595 -1.4986 -2.1477
 6987SOL     OW32593   3.406   4.306  15.756 -0.2840  0.2491 -0.7347
 6987SOL    HW132594   3.375   4.224  15.718  3.2892 -1.6937  0.5600
 6987SOL    HW232595   3.470   4.276  15.820 -1.7966 -2.0709 -0.3370
 6988SOL     OW32596   2.527   4.312  11.082  0.0854  0.0078 -0.3704
 6988SOL    HW132597   2.585   4.249  11.039 -0.1733 -0.5615  0.1116
 6988SOL    HW232598   2.556   4.392  11.039  1.6997  0.7330  2.0895
 6989SOL     OW32599   2.978   2.756  12.783  0.4191 -0.0714 -0.7394
 6989SOL    HW132600   3.026   2.713  12.713  1.1643 -0.8493  0.2635
 6989SOL    HW232601   2.941   2.692  12.844 -0.6628  1.3225  0.0761
 6990SOL     OW32602   2.420   3.770  14.533  0.0929  0.1323 -0.2082
 6990SOL    HW132603   2.371   3.834  14.482 -0.5195 -1.5371 -1.7352
 6990SOL    HW232604   2.368   3.755  14.611  0.7736  0.5963  0.3322
 6991SOL     OW32605   1.439   1.113   7.838  0.2808 -0.7300  0.4869
 6991SOL    HW132606   1.363   1.077   7.883 -0.8518 -0.5969 -1.2988
 6991SOL    HW232607   1.440   1.200   7.878  1.2813  0.6470 -2.5550
 6992SOL     OW32608   1.559   3.409   3.865 -0.4067  0.1772 -0.4124
 6992SOL    HW132609   1.510   3.439   3.942 -0.4006 -0.3803 -0.1929
 6992SOL    HW232610   1.565   3.491   3.815  1.1422 -1.1411 -2.4018
 6993SOL     OW32611   0.208   2.587   3.455  0.2054  1.1059 -0.4674
 6993SOL    HW132612   0.230   2.496   3.475  2.2739  1.6444 -0.2724
 6993SOL    HW232613   0.128   2.595   3.507 -0.2662  0.5243 -1.1124
 6994SOL     OW32614   1.840   1.785   7.776 -0.2022 -0.2514  0.1097
 6994SOL    HW132615   1.913   1.807   7.833  0.0366  0.5978 -0.5149
 6994SOL    HW232616   1.886   1.750   7.700  0.7699  0.0222  0.5818
 6995SOL     OW32617   1.159   1.227  13.865 -0.4434  0.3007 -0.4543
 6995SOL    HW132618   1.073   1.269  13.870 -0.8717 -0.2290 -2.9537
 6995SOL    HW232619   1.189   1.238  13.955 -0.8625 -0.4794 -0.2207
 6996SOL     OW32620   4.562   4.144  14.625  0.8314 -0.7124  0.2392
 6996SOL    HW132621   4.482   4.171  14.581  1.3944  1.2110  0.3982
 6996SOL    HW232622   4.621   4.219  14.618  0.5692 -0.6035 -0.6926
 6997SOL     OW32623   3.866   3.403   6.358 -0.1058 -0.2112  0.4083
 6997SOL    HW132624   3.852   3.467   6.428  0.4827  0.3663 -0.0022
 6997SOL    HW232625   3.960   3.414   6.343 -0.1685 -1.1928 -0.7267
 6998SOL     OW32626   3.608   0.595  16.151  0.4156 -0.1421  0.4195
 6998SOL    HW132627   3.563   0.620  16.232  2.2587  1.6672  0.8871
 6998SOL    HW232628   3.618   0.679  16.106  0.1880  0.1880  0.9708
 6999SOL     OW32629   2.935   0.519   2.990  0.5569  1.4006 -0.1110
 6999SOL    HW132630   2.844   0.519   2.961  1.4435 -0.5269 -2.8504
 6999SOL    HW232631   2.942   0.614   3.002 -0.9406  1.1673  2.5543
 7000SOL     OW32632   2.970   4.273   4.417 -0.3695  0.5765 -0.0347
 7000SOL    HW132633   3.056   4.296   4.381 -0.3762 -0.8931 -0.9919
 7000SOL    HW232634   2.930   4.355   4.444  0.4968  0.2347  2.3198
 7001SOL     OW32635   3.946   3.868   5.376 -0.6603  0.0101  0.2753
 7001SOL    HW132636   4.029   3.826   5.355  1.2509  3.6953  0.5094
 7001SOL    HW232637   3.908   3.788   5.412  1.4125 -0.6722  0.9533
 7002SOL     OW32638   1.169   4.054   3.559 -0.2125  0.3260 -0.0548
 7002SOL    HW132639   1.212   4.139   3.548  1.0432 -0.3277 -0.1519
 7002SOL    HW232640   1.193   4.014   3.476 -0.9999 -2.4105  1.0458
 7003SOL     OW32641   3.315   0.669   8.340 -0.3854  0.5879  0.2253
 7003SOL    HW132642   3.219   0.670   8.339 -0.3464  1.1080 -2.0021
 7003SOL    HW232643   3.328   0.721   8.261  0.4067 -1.5227 -1.0291
 7004SOL     OW32644   3.178   2.298   5.413 -0.2488 -0.0551 -0.1590
 7004SOL    HW132645   3.157   2.233   5.346 -0.4555  1.3381 -1.4484
 7004SOL    HW232646   3.236   2.357   5.365  0.2105 -1.1692 -0.9765
 7005SOL     OW32647   4.280   2.249   6.438 -0.4785 -0.2336 -0.0635
 7005SOL    HW132648   4.228   2.316   6.482  1.2195  0.0240  1.5267
 7005SOL    HW232649   4.230   2.251   6.356  0.6296  0.7368 -0.7089
 7006SOL     OW32650   1.621   0.677  17.455 -0.5008 -0.4956  0.2605
 7006SOL    HW132651   1.639   0.719  17.371 -0.4466 -2.5683 -0.7730
 7006SOL    HW232652   1.625   0.583  17.435  1.5723 -0.6741  1.4984
 7007SOL     OW32653   4.433   1.291   7.835 -0.4456  0.0360 -0.0319
 7007SOL    HW132654   4.449   1.359   7.901  0.0427 -0.5125  0.4127
 7007SOL    HW232655   4.488   1.314   7.760 -1.7717 -0.4822 -1.1490
 7008SOL     OW32656   3.404   1.287   6.851 -0.4999  0.3954 -0.3318
 7008SOL    HW132657   3.404   1.383   6.853  2.6043  0.3869 -0.1798
 7008SOL    HW232658   3.476   1.269   6.911 -0.2155  3.5469  0.2524
 7009SOL     OW32659   1.522   2.818   6.392 -0.1650 -0.1422  0.1254
 7009SOL    HW132660   1.546   2.851   6.478  1.0204  0.8945 -0.6040
 7009SOL    HW232661   1.455   2.757   6.422  0.3008  0.3335  2.1215
 7010SOL     OW32662   3.564   0.275   8.558  0.5793 -0.2619  0.2608
 7010SOL    HW132663   3.584   0.224   8.480 -1.1851  1.2421 -1.1446
 7010SOL    HW232664   3.497   0.334   8.524  1.8792  0.8692 -0.3474
 7011SOL     OW32665   0.603   3.995  12.120  0.0226  0.5057  0.2603
 7011SOL    HW132666   0.647   3.912  12.136 -0.7151  0.4701  2.0992
 7011SOL    HW232667   0.644   4.037  12.197 -0.9634  0.0328  1.0376
 7012SOL     OW32668   0.188   0.925   3.330 -0.0678 -0.0247  0.4581
 7012SOL    HW132669   0.250   0.955   3.397 -0.1270  1.3018 -0.0873
 7012SOL    HW232670   0.108   0.912   3.381 -1.3093  1.2802 -1.1615
 7013SOL     OW32671   1.455   4.265  10.886 -0.3075  0.5132 -0.1148
 7013SOL    HW132672   1.508   4.191  10.915 -0.2741  0.0329 -1.3867
 7013SOL    HW232673   1.458   4.249  10.792  1.5219 -0.2035  0.0754
 7014SOL     OW32674   0.667   1.639  13.096 -0.2938  0.2958  0.2137
 7014SOL    HW132675   0.706   1.613  13.012 -0.1671 -0.8834  0.6325
 7014SOL    HW232676   0.736   1.695  13.131 -1.0325  1.4106 -0.1415
 7015SOL     OW32677   1.734   3.658   4.675 -0.1915  0.0957 -0.5122
 7015SOL    HW132678   1.797   3.586   4.671 -1.2224 -0.8155 -0.5660
 7015SOL    HW232679   1.662   3.598   4.652 -1.1961 -0.1867  3.3247
 7016SOL     OW32680   4.215   2.351   7.447  0.0030  0.0181 -0.4795
 7016SOL    HW132681   4.164   2.345   7.527 -0.8248 -1.3667 -1.0954
 7016SOL    HW232682   4.238   2.444   7.449  2.7283 -0.6816  1.0310
 7017SOL     OW32683   1.485   0.765   7.144 -0.2516 -0.2680 -0.0252
 7017SOL    HW132684   1.492   0.805   7.231 -1.7088  2.3358 -1.1173
 7017SOL    HW232685   1.392   0.767   7.121 -0.1381 -0.0052 -0.4592
 7018SOL     OW32686   4.525   2.078  11.994 -0.0032 -0.1468 -0.2756
 7018SOL    HW132687   4.581   2.002  11.980  0.4864 -0.0646  1.2297
 7018SOL    HW232688   4.578   2.119  12.063  0.7419 -1.1375 -0.2643
 7019SOL     OW32689   4.443   1.678  10.667  0.2478 -0.4309  0.1259
 7019SOL    HW132690   4.519   1.640  10.622  0.3987 -0.1690  0.1592
 7019SOL    HW232691   4.490   1.747  10.713  1.0093  0.0196 -1.3226
 7020SOL     OW32692   1.915   3.737   9.980  0.7221  1.1905 -0.6793
 7020SOL    HW132693   1.829   3.759   9.945 -0.0799  2.1015  1.8660
 7020SOL    HW232694   1.901   3.665  10.041  2.7924  0.1780 -1.3996
 7021SOL     OW32695   4.255   1.950   4.488 -0.2013 -0.1978 -0.2828
 7021SOL    HW132696   4.196   1.991   4.425 -0.2256  0.3456  0.0977
 7021SOL    HW232697   4.257   2.011   4.561 -1.3531 -0.1370 -0.3062
 7022SOL     OW32698   3.071   3.961   1.037 -0.3877 -0.1033  0.0509
 7022SOL    HW132699   3.082   4.054   1.017 -1.7609 -0.0544 -0.4587
 7022SOL    HW232700   3.057   3.952   1.131 -0.6259  1.7256  0.2031
 7023SOL     OW32701   2.639   1.979   6.211  0.1610 -0.2363 -0.1569
 7023SOL    HW132702   2.549   2.003   6.192 -0.1877 -0.4313  1.2357
 7023SOL    HW232703   2.640   1.909   6.146  0.0174 -0.5780  0.2116
 7024SOL     OW32704   1.183   0.974  12.971 -0.1287  0.2438  0.0993
 7024SOL    HW132705   1.233   1.014  13.043  0.4149 -0.3437  0.0422
 7024SOL    HW232706   1.207   1.027  12.895  0.3364 -2.2045 -1.4533
 7025SOL     OW32707   3.889   4.587  15.271 -0.5536  0.0698 -0.0023
 7025SOL    HW132708   3.886   4.517  15.336 -1.5186  1.1476  1.1311
 7025SOL    HW232709   3.882   4.665  15.327 -0.2826  0.1760 -0.1174
 7026SOL     OW32710   0.397   2.107   7.294 -0.5721 -0.1126 -0.3420
 7026SOL    HW132711   0.322   2.144   7.341 -0.7579  1.6240 -1.9807
 7026SOL    HW232712   0.399   2.020   7.332 -2.4083 -0.2157 -0.4680
 7027SOL     OW32713   2.524   0.812   4.009 -1.0466  0.6055 -0.1378
 7027SOL    HW132714   2.519   0.903   3.979 -0.8685  0.8514  0.5909
 7027SOL    HW232715   2.520   0.826   4.103  1.1881  3.3418 -0.4673
 7028SOL     OW32716   2.196   2.216   8.468  0.2529 -0.2352 -0.0424
 7028SOL    HW132717   2.279   2.252   8.436  0.1832 -0.7162 -0.7640
 7028SOL    HW232718   2.201   2.231   8.562 -0.3481  0.9242 -0.1977
 7029SOL     OW32719   4.720   3.168  17.188  0.1986 -0.6699 -0.4862
 7029SOL    HW132720   0.041   3.133  17.258 -0.0792  1.1137  0.6180
 7029SOL    HW232721   0.035   3.239  17.148  0.3117 -0.4831 -0.0142
 7030SOL     OW32722   0.117   3.074  11.221 -0.3709 -0.4760 -0.0729
 7030SOL    HW132723   0.072   3.054  11.139 -1.2003 -1.8032  0.7073
 7030SOL    HW232724   0.074   3.022  11.289  0.8765 -0.3093  0.8513
 7031SOL     OW32725   2.481   0.756   1.704  0.1038  0.1112  0.4778
 7031SOL    HW132726   2.413   0.812   1.667  1.8424  2.2620  0.5443
 7031SOL    HW232727   2.482   0.677   1.650 -1.2380 -0.2518  0.9950
 7032SOL     OW32728   4.594   0.866   7.448  1.0570 -0.6222  0.2823
 7032SOL    HW132729   4.545   0.935   7.404  0.8258 -0.5148  0.7099
 7032SOL    HW232730   4.600   0.894   7.540 -3.8072  1.1701  0.0177
 7033SOL     OW32731   0.090   0.456   5.248  0.0851 -0.0773 -0.5632
 7033SOL    HW132732   0.152   0.405   5.300 -2.6879 -0.7527  2.0698
 7033SOL    HW232733   0.012   0.412   5.282  0.4480  0.5437  1.0722
 7034SOL     OW32734   1.668   3.298   4.969  0.1504  0.6387  0.2213
 7034SOL    HW132735   1.597   3.295   5.034 -1.1921 -0.0283 -1.2722
 7034SOL    HW232736   1.698   3.389   4.967  2.2343 -0.0558 -0.3254
 7035SOL     OW32737   2.062   3.902  13.236  0.0405  1.2496 -0.4907
 7035SOL    HW132738   2.035   3.852  13.313 -1.5684  1.5482 -0.8707
 7035SOL    HW232739   2.157   3.901  13.251 -0.2674  1.1562  1.4288
 7036SOL     OW32740   1.684   0.049   3.970  0.7129 -0.1704  0.3901
 7036SOL    HW132741   1.644   4.718   3.913 -0.7131  0.2997  0.8428
 7036SOL    HW232742   1.607   0.099   3.997  0.3558 -2.0043  2.7500
 7037SOL     OW32743   3.375   0.846  11.161  0.3645  0.0928 -0.0956
 7037SOL    HW132744   3.461   0.809  11.142  0.8397  0.0892  2.0191
 7037SOL    HW232745   3.378   0.915  11.095 -1.3197 -0.3806 -0.6724
 7038SOL     OW32746   3.528   3.288   7.797  0.0240 -0.3311  0.1655
 7038SOL    HW132747   3.618   3.317   7.779 -0.8519  2.7086  0.7583
 7038SOL    HW232748   3.474   3.346   7.743  1.6639  2.3081  1.3697
 7039SOL     OW32749   2.692   3.148   3.891 -0.9277  0.2024 -0.0108
 7039SOL    HW132750   2.774   3.175   3.930 -0.6227  1.0491 -1.2368
 7039SOL    HW232751   2.630   3.216   3.918 -0.2148  0.6653  0.4389
 7040SOL     OW32752   4.146   2.168   6.208  0.4091 -0.2051  0.1093
 7040SOL    HW132753   4.057   2.148   6.177 -0.5972  1.6987  1.6960
 7040SOL    HW232754   4.176   2.236   6.148  0.3155 -0.8784 -0.6901
 7041SOL     OW32755   1.486   1.322   2.343 -0.4255 -0.1805  0.4165
 7041SOL    HW132756   1.495   1.338   2.249 -0.3991 -1.0985  0.2625
 7041SOL    HW232757   1.577   1.304   2.368  0.0385  0.1137 -1.0803
 7042SOL     OW32758   4.422   1.049   7.341 -0.4875  0.2113 -0.3074
 7042SOL    HW132759   4.445   1.120   7.280 -0.0117  3.1664  3.2986
 7042SOL    HW232760   4.376   1.106   7.403  1.5496  1.8017 -0.2426
 7043SOL     OW32761   2.882   3.325  17.315 -0.3380  0.2119 -0.3033
 7043SOL    HW132762   2.861   3.418  17.311  0.6724  0.4594  0.1880
 7043SOL    HW232763   2.801   3.276  17.301  0.3996 -0.4149 -2.4273
 7044SOL     OW32764   4.027   3.053   8.440  0.7287  0.4511  0.3095
 7044SOL    HW132765   3.971   3.102   8.379 -1.1320 -1.0211  0.8121
 7044SOL    HW232766   3.982   3.091   8.516 -0.1748 -1.0945  0.5554
 7045SOL     OW32767   2.309   0.671   4.522 -0.0442  0.4961  0.1052
 7045SOL    HW132768   2.314   0.638   4.433 -3.4445 -0.0463  0.1134
 7045SOL    HW232769   2.276   0.761   4.513 -2.7209 -0.5819 -0.7545
 7046SOL     OW32770   1.293   3.911   2.518 -0.3718 -0.5005  0.0005
 7046SOL    HW132771   1.301   3.884   2.610  0.2278  2.7313  0.8998
 7046SOL    HW232772   1.334   3.997   2.530 -0.1703 -0.9552  2.6833
 7047SOL     OW32773   1.872   3.340  15.346 -0.0261 -0.5881  0.1273
 7047SOL    HW132774   1.869   3.399  15.270  1.0462 -3.4390 -2.1116
 7047SOL    HW232775   1.908   3.404  15.407 -2.1233 -2.9136  3.7629
 7048SOL     OW32776   0.172   3.864   8.406 -0.0661 -0.0857 -0.5249
 7048SOL    HW132777   0.183   3.959   8.404  0.3739 -0.1238  0.0023
 7048SOL    HW232778   0.266   3.843   8.407  0.4603  2.3606  1.0831
 7049SOL     OW32779   1.034   2.525   8.640 -0.3951  0.5609  0.0365
 7049SOL    HW132780   0.986   2.518   8.558 -0.2253  1.8672 -0.1713
 7049SOL    HW232781   1.105   2.463   8.620 -0.0512  1.0979 -0.3986
 7050SOL     OW32782   3.714   2.540   6.181  0.4552 -0.2086  0.1579
 7050SOL    HW132783   3.730   2.453   6.217 -1.2270 -1.3414 -1.7819
 7050SOL    HW232784   3.699   2.594   6.258  3.6718 -0.6084  1.0729
 7051SOL     OW32785   3.303   3.662   7.529  0.0228  0.1915  0.4024
 7051SOL    HW132786   3.299   3.748   7.572  0.0587  0.6192 -0.4577
 7051SOL    HW232787   3.350   3.682   7.448 -3.0740  2.1609 -0.9122
 7052SOL     OW32788   4.339   3.588   2.951 -0.1993 -0.1123  0.3720
 7052SOL    HW132789   4.426   3.625   2.943  0.0252 -0.8162 -0.4250
 7052SOL    HW232790   4.371   3.521   3.012  0.3527  0.9206  1.2230
 7053SOL     OW32791   3.625   4.376   5.597 -0.4020  0.5201  0.4060
 7053SOL    HW132792   3.711   4.392   5.637  0.3471  1.2066 -1.4742
 7053SOL    HW232793   3.592   4.465   5.588  0.4047  0.6970 -0.7975
 7054SOL     OW32794   2.712   0.425  16.367 -0.2415 -0.5812 -0.5062
 7054SOL    HW132795   2.630   0.455  16.329 -1.5650  0.1716  2.9087
 7054SOL    HW232796   2.763   0.505  16.379 -1.0759  0.0853 -1.4813
 7055SOL     OW32797   2.466   3.152   2.559  0.6227  0.1370 -0.4321
 7055SOL    HW132798   2.552   3.128   2.593  0.3670  0.8413  0.7169
 7055SOL    HW232799   2.464   3.111   2.472 -0.7556  0.5042 -0.5710
 7056SOL     OW32800   0.132   4.233   2.754 -0.6651 -0.1306  0.0269
 7056SOL    HW132801   0.072   4.212   2.682 -0.1203  0.9015 -0.7468
 7056SOL    HW232802   0.175   4.309   2.714 -1.1621 -0.2810 -0.8068
 7057SOL     OW32803   0.991   3.347   0.479  0.2556 -0.0847 -0.6715
 7057SOL    HW132804   1.027   3.424   0.435 -0.0815 -0.8579 -2.2870
 7057SOL    HW232805   0.916   3.392   0.518 -0.0149 -0.6312 -0.5541
 7058SOL     OW32806   4.293   2.008   5.657  0.1287  0.4173  0.0992
 7058SOL    HW132807   4.330   1.942   5.598 -0.9916  0.4392 -0.6219
 7058SOL    HW232808   4.358   2.075   5.636  0.6742  0.4797  1.9797
 7059SOL     OW32809   2.107   1.593  13.664 -0.4371  0.0227  0.2846
 7059SOL    HW132810   2.048   1.668  13.669  0.8739  1.1480 -1.0623
 7059SOL    HW232811   2.045   1.522  13.648  1.5168 -1.3861 -0.9574
 7060SOL     OW32812   2.524   1.750   4.024 -0.6983  0.4448  0.7511
 7060SOL    HW132813   2.455   1.738   4.090 -0.2469 -0.6831  1.0286
 7060SOL    HW232814   2.471   1.737   3.945 -0.4538  2.1374  0.3147
 7061SOL     OW32815   3.632   3.844   7.474  0.0898 -0.1431 -0.0007
 7061SOL    HW132816   3.613   3.875   7.563  2.0326  0.8683  0.0741
 7061SOL    HW232817   3.543   3.835   7.442 -0.0637 -2.8976  1.2562
 7062SOL     OW32818   4.018   2.558   4.217  0.3432 -0.0874  0.0865
 7062SOL    HW132819   3.931   2.581   4.250  0.0730 -2.2207  0.8751
 7062SOL    HW232820   4.052   2.535   4.303  1.0147 -1.0145 -0.4247
 7063SOL     OW32821   3.606   2.328   6.384  0.4368  1.2868  0.0524
 7063SOL    HW132822   3.522   2.349   6.424  0.2409  1.5333 -0.4880
 7063SOL    HW232823   3.584   2.285   6.301 -1.0697 -1.4056  1.8538
 7064SOL     OW32824   4.082   2.458   8.941  0.4174  0.5466 -0.1058
 7064SOL    HW132825   4.157   2.515   8.956 -0.1152  1.1508  0.2934
 7064SOL    HW232826   4.115   2.406   8.868 -1.2252 -0.5893 -0.0446
 7065SOL     OW32827   4.045   4.353  17.472  0.1927  0.4109  0.2431
 7065SOL    HW132828   4.114   4.311  17.523 -1.0759  0.2131  1.7800
 7065SOL    HW232829   4.054   4.446  17.494 -0.1674  0.5160 -0.0505
 7066SOL     OW32830   2.764   4.031  13.926 -0.0513 -0.5849  0.2893
 7066SOL    HW132831   2.848   4.067  13.897 -0.3551 -0.6911 -0.6874
 7066SOL    HW232832   2.798   3.975  13.997 -1.4849 -2.6244 -0.6277
 7067SOL     OW32833   2.743   0.464   9.105 -0.0689 -0.0542 -0.7271
 7067SOL    HW132834   2.796   0.503   9.174  1.2933 -1.2011 -1.1231
 7067SOL    HW232835   2.698   0.398   9.158 -1.5617  0.6645 -1.0914
 7068SOL     OW32836   4.029   4.187   2.090 -0.1354  0.4849  0.1520
 7068SOL    HW132837   3.975   4.170   2.167  1.6010  2.0046  1.6929
 7068SOL    HW232838   3.993   4.121   2.031  0.0770  0.0797  0.4726
 7069SOL     OW32839   3.327   3.117   6.882 -0.1555  0.4980  0.1410
 7069SOL    HW132840   3.320   3.041   6.941  2.9469 -0.6974 -1.0415
 7069SOL    HW232841   3.368   3.081   6.803 -1.7334  1.7267 -1.2231
 7070SOL     OW32842   0.844   4.024  17.434 -0.0540  0.4428 -0.3906
 7070SOL    HW132843   0.754   4.010  17.404  0.2648 -0.7600 -0.8055
 7070SOL    HW232844   0.816   4.022  17.526  3.5149 -0.7627  0.6807
 7071SOL     OW32845   2.199   2.029   6.614 -0.4410 -0.1353 -0.0589
 7071SOL    HW132846   2.120   2.079   6.591 -2.2206 -2.2226  1.4543
 7071SOL    HW232847   2.244   2.041   6.531  0.2391  2.1127  0.6452
 7072SOL     OW32848   2.013   0.750  17.706 -0.6677 -0.3337  0.4505
 7072SOL    HW132849   1.997   0.836   0.006 -1.9805  0.3380 -1.5685
 7072SOL    HW232850   1.929   0.705  17.697 -0.7411 -0.1144  0.0664
 7073SOL     OW32851   1.070   0.613  17.528  0.0239 -0.3861  0.1562
 7073SOL    HW132852   1.074   0.708  17.513  1.3974 -0.5840 -0.6840
 7073SOL    HW232853   1.147   0.607  17.585 -0.5577 -0.0137  0.9850
 7074SOL     OW32854   0.355   1.286  13.157  0.7404 -0.2327 -0.3105
 7074SOL    HW132855   0.436   1.242  13.183  0.5315  0.1303  0.9919
 7074SOL    HW232856   0.377   1.307  13.067  0.1772  0.7704 -0.2204
 7075SOL     OW32857   0.276   2.939   4.931  0.2703 -0.6216  0.4986
 7075SOL    HW132858   0.226   3.016   4.959 -3.3003 -2.5431 -0.4959
 7075SOL    HW232859   0.227   2.870   4.976  0.0217 -1.1096 -0.5388
 7076SOL     OW32860   0.734   2.259  14.262 -0.3161 -0.0736  0.6256
 7076SOL    HW132861   0.665   2.221  14.208 -0.9282 -0.2624  1.5548
 7076SOL    HW232862   0.687   2.309  14.329  0.5608 -0.7448  1.7369
 7077SOL     OW32863   4.308   3.083   9.185  0.7893 -0.6325  0.1842
 7077SOL    HW132864   4.220   3.117   9.169  0.5574 -1.1437  0.3507
 7077SOL    HW232865   4.328   3.113   9.274  0.3565  0.4241 -0.0751
 7078SOL     OW32866   1.163   4.290  11.590  0.1106 -0.6281  0.5985
 7078SOL    HW132867   1.139   4.204  11.555 -3.7059  0.2359  1.1359
 7078SOL    HW232868   1.190   4.259  11.677 -0.5532  0.8363  1.3248
 7079SOL     OW32869   2.830   3.011   2.005 -0.1802 -0.0660 -0.0665
 7079SOL    HW132870   2.818   2.917   1.993  0.2339 -0.3016  1.5047
 7079SOL    HW232871   2.868   3.040   1.922  0.1312  1.0583  0.4721
 7080SOL     OW32872   3.769   4.604   6.488  0.2968 -0.4692  0.0224
 7080SOL    HW132873   3.823   4.670   6.445  0.4536 -0.5650  0.0709
 7080SOL    HW232874   3.776   4.618   6.582 -2.0837 -0.9654  0.2688
 7081SOL     OW32875   3.822   0.862   7.897  0.6106  0.4642 -0.2685
 7081SOL    HW132876   3.797   0.802   7.827  1.0503  0.9028 -0.7948
 7081SOL    HW232877   3.735   0.901   7.907  0.4416  0.0151  0.0633
 7082SOL     OW32878   3.285   0.112  16.017  0.0530  0.0855 -0.5355
 7082SOL    HW132879   3.201   0.070  16.035  0.0759  0.8893  1.4623
 7082SOL    HW232880   3.265   0.127  15.925  1.5096  0.0663 -0.8639
 7083SOL     OW32881   1.614   1.998   8.969  0.5976 -0.0361  0.1203
 7083SOL    HW132882   1.630   1.909   8.938  0.6343  0.2469 -0.6722
 7083SOL    HW232883   1.597   1.984   9.062 -0.4781  0.2771 -0.0312
 7084SOL     OW32884   3.653   3.462   6.865 -0.4441  0.2922 -0.3399
 7084SOL    HW132885   3.562   3.448   6.890 -0.6141  0.4737 -0.8707
 7084SOL    HW232886   3.672   3.382   6.815 -0.9299  1.1530 -1.9124
 7085SOL     OW32887   4.287   3.673   9.184  0.4060 -0.3267  0.6849
 7085SOL    HW132888   4.260   3.636   9.268  3.9855  2.0053  2.8233
 7085SOL    HW232889   4.206   3.720   9.164 -0.8040 -2.8983 -0.5625
 7086SOL     OW32890   1.320   1.871   9.454 -0.1810  0.1982 -0.6898
 7086SOL    HW132891   1.318   1.933   9.381 -0.5388 -0.3531 -1.1482
 7086SOL    HW232892   1.243   1.903   9.501  0.4668  0.1466  0.3923
 7087SOL     OW32893   2.508   3.151   6.202  0.2564 -0.3441  0.1955
 7087SOL    HW132894   2.520   3.116   6.114 -2.3031  2.5128 -1.2697
 7087SOL    HW232895   2.415   3.138   6.218  0.1869 -1.4969 -1.1217
 7088SOL     OW32896   0.813   4.680   6.052  0.1494  0.5687 -0.4709
 7088SOL    HW132897   0.848   4.641   5.971 -1.0270 -2.9683  0.7140
 7088SOL    HW232898   0.880   4.654   6.116 -2.5846 -2.6873  1.0773
 7089SOL     OW32899   1.638   2.541   3.681  0.1194  0.2791 -0.3191
 7089SOL    HW132900   1.700   2.579   3.619 -0.0001 -1.1643 -1.3464
 7089SOL    HW232901   1.700   2.541   3.754  0.6962  0.2032 -0.8144
 7090SOL     OW32902   0.039   2.810   8.916  0.0870 -0.5588  0.0613
 7090SOL    HW132903   0.132   2.791   8.912  0.0303 -0.5065 -1.2537
 7090SOL    HW232904   0.019   2.816   9.010  0.3353 -0.7377  0.1233
 7091SOL     OW32905   3.671   0.741   6.483  0.3346 -0.0252 -0.7157
 7091SOL    HW132906   3.625   0.659   6.464 -2.3259  1.1183  0.7189
 7091SOL    HW232907   3.677   0.730   6.577  1.8483  0.2670 -0.7894
 7092SOL     OW32908   3.911   1.424   2.767 -0.2144  0.3297  0.1939
 7092SOL    HW132909   3.977   1.439   2.699 -0.2969  1.1500  0.2963
 7092SOL    HW232910   3.860   1.363   2.714 -0.3200  1.7569 -1.3347
 7093SOL     OW32911   1.616   1.194   2.589 -0.0069 -0.4363  0.8246
 7093SOL    HW132912   1.529   1.202   2.627  0.4484  2.2073  1.3182
 7093SOL    HW232913   1.643   1.283   2.613  1.1475  0.1436 -2.5581
 7094SOL     OW32914   3.376   3.170   5.722 -0.0356  0.1775 -0.5819
 7094SOL    HW132915   3.401   3.147   5.632  1.7394 -2.5818  0.6272
 7094SOL    HW232916   3.281   3.171   5.709 -0.6034 -1.0362  3.4193
 7095SOL     OW32917   0.712   2.763   6.905 -0.1450 -0.1945  0.1162
 7095SOL    HW132918   0.698   2.857   6.891  0.4398  0.2248  2.3311
 7095SOL    HW232919   0.718   2.754   7.000 -0.7921  0.2275  0.1985
 7096SOL     OW32920   3.692   2.031   1.098 -0.6361  0.4669  0.1227
 7096SOL    HW132921   3.643   2.072   1.170 -1.1643 -1.6558  0.9685
 7096SOL    HW232922   3.780   2.038   1.133 -1.0540 -0.9224  1.4468
 7097SOL     OW32923   2.086   4.677   5.585  0.2846  0.1316  0.2700
 7097SOL    HW132924   2.109   4.651   5.496  0.0950  1.4751 -0.1698
 7097SOL    HW232925   2.004   4.726   5.581 -0.7497 -1.7832 -1.7308
 7098SOL     OW32926   3.339   2.797   2.833  0.0851  0.1379 -0.0885
 7098SOL    HW132927   3.317   2.796   2.740  0.2758  1.2885 -0.1407
 7098SOL    HW232928   3.329   2.702   2.843 -0.5485  0.1434 -0.6460
 7099SOL     OW32929   0.080   2.567   8.318  0.5634 -0.2298 -0.0895
 7099SOL    HW132930   0.137   2.510   8.266 -1.5678 -1.7144 -0.8225
 7099SOL    HW232931   0.042   2.520   8.392  0.7814 -0.7612 -0.3165
 7100SOL     OW32932   3.962   1.297   5.120 -0.0418 -0.5139 -0.4761
 7100SOL    HW132933   3.910   1.343   5.187 -0.1488  0.1650 -1.0305
 7100SOL    HW232934   4.007   1.241   5.183  1.2322 -0.6469 -1.5318
 7101SOL     OW32935   2.934   2.625   2.985  0.1411  0.0582  0.2132
 7101SOL    HW132936   2.848   2.601   2.951 -0.6762  2.2422  0.7257
 7101SOL    HW232937   2.996   2.591   2.921 -0.6558 -1.5995  0.3229
 7102SOL     OW32938   0.492   1.668   6.901  0.0978 -0.0846  0.2927
 7102SOL    HW132939   0.477   1.732   6.970  1.4888  0.8908 -0.3020
 7102SOL    HW232940   0.530   1.594   6.948 -1.8988 -1.3304 -0.0699
 7103SOL     OW32941   1.316   2.042   7.317 -0.2610  0.2074 -0.2107
 7103SOL    HW132942   1.273   1.998   7.243  0.6568 -0.7843 -0.1659
 7103SOL    HW232943   1.404   2.040   7.279 -0.7015  0.8420 -1.2792
 7104SOL     OW32944   1.169   0.978   6.351 -1.0562  0.0760  0.0438
 7104SOL    HW132945   1.139   0.942   6.267 -0.5455 -0.6325  0.1707
 7104SOL    HW232946   1.254   0.935   6.356 -0.9386 -0.0133 -2.5158
 7105SOL     OW32947   3.087   1.078   0.719 -0.7913 -0.4708  0.0772
 7105SOL    HW132948   3.160   1.129   0.683 -1.5800 -0.4852 -1.5278
 7105SOL    HW232949   3.130   0.993   0.719 -0.9186 -0.5599  2.7304
 7106SOL     OW32950   2.946   1.777   3.550 -0.0773  0.0187  0.5970
 7106SOL    HW132951   2.893   1.800   3.626 -2.2135 -0.1646 -0.8056
 7106SOL    HW232952   3.005   1.851   3.533  0.9349 -0.9989 -0.3232
 7107SOL     OW32953   1.402   2.408   0.099  0.1204 -0.2874  0.4343
 7107SOL    HW132954   1.434   2.487   0.143  0.1510  0.2453 -0.5514
 7107SOL    HW232955   1.404   2.350   0.175 -1.5082 -0.5471  0.2816
 7108SOL     OW32956   3.194   2.370   9.514  0.0548 -0.2259  0.0462
 7108SOL    HW132957   3.209   2.378   9.420  0.4822 -1.0093  0.0445
 7108SOL    HW232958   3.265   2.310   9.540  0.5490  0.1878 -0.3392
 7109SOL     OW32959   4.309   1.915   2.674 -0.9247  0.7643 -0.6840
 7109SOL    HW132960   4.310   1.871   2.588  0.9945 -0.0858 -0.2263
 7109SOL    HW232961   4.272   1.843   2.724 -0.9005  0.7649 -0.6655
 7110SOL     OW32962   3.741   0.190   6.716 -0.7689  0.1474 -0.4468
 7110SOL    HW132963   3.736   0.099   6.746  0.4353 -0.3896 -1.8864
 7110SOL    HW232964   3.833   0.199   6.692 -0.9357  1.3896 -0.5825
 7111SOL     OW32965   1.561   1.291  15.959  0.3301  0.6199  0.7921
 7111SOL    HW132966   1.471   1.286  15.991 -0.7668 -2.1620 -2.7371
 7111SOL    HW232967   1.586   1.361  16.020  0.2451  1.3842 -0.0613
 7112SOL     OW32968   1.203   4.252  15.360  0.1702  0.1493 -0.0554
 7112SOL    HW132969   1.163   4.167  15.381 -1.3366  0.6198 -1.0212
 7112SOL    HW232970   1.248   4.231  15.279 -2.7997  1.5024 -2.0408
 7113SOL     OW32971   0.539   1.447   3.365  0.2460 -0.0330 -0.0169
 7113SOL    HW132972   0.551   1.455   3.460  2.8154  0.0331 -0.3334
 7113SOL    HW232973   0.595   1.370   3.359  0.9341  0.5384 -1.0086
 7114SOL     OW32974   1.968   1.746  10.847 -0.2003 -0.6558 -0.2033
 7114SOL    HW132975   1.915   1.819  10.880 -0.7304 -0.1225 -2.2528
 7114SOL    HW232976   2.005   1.718  10.931  0.4864 -0.0184 -0.2956
 7115SOL     OW32977   2.534   3.636   4.240 -0.1013 -0.4206 -0.4673
 7115SOL    HW132978   2.627   3.640   4.262 -0.6963  1.4495  1.6543
 7115SOL    HW232979   2.534   3.626   4.144  0.8322  2.4931 -0.7648
 7116SOL     OW32980   1.154   0.340   7.848 -0.6630 -0.3144  0.1889
 7116SOL    HW132981   1.191   0.347   7.760  0.2853  0.7617  0.6867
 7116SOL    HW232982   1.069   0.298   7.833 -1.3676  0.6896  1.3351
 7117SOL     OW32983   3.628   2.785   1.582  0.2405 -0.4096  0.2028
 7117SOL    HW132984   3.615   2.810   1.490 -1.4021  0.5173  0.6776
 7117SOL    HW232985   3.536   2.762   1.599 -0.7981  2.4843 -1.4060
 7118SOL     OW32986   4.069   3.092  14.031 -0.1273  0.3605 -0.4435
 7118SOL    HW132987   4.034   3.096  13.942 -2.2504  1.2898  0.4303
 7118SOL    HW232988   4.131   3.164  14.019  0.2810 -0.1829 -1.6146
 7119SOL     OW32989   4.156   2.732   9.715 -0.2143 -0.5956 -0.2702
 7119SOL    HW132990   4.240   2.709   9.677  0.6106 -0.1551  1.2677
 7119SOL    HW232991   4.104   2.701   9.641  3.4031  0.2121 -3.1216
 7120SOL     OW32992   4.235   0.373  16.453 -0.2485 -0.3180  0.5794
 7120SOL    HW132993   4.141   0.357  16.456 -0.1588 -1.3304 -1.9369
 7120SOL    HW232994   4.256   0.332  16.537 -0.5276  3.9245  2.7223
 7121SOL     OW32995   0.823   4.108   4.805  0.2486  0.5688 -0.2319
 7121SOL    HW132996   0.859   4.165   4.736 -0.3865  0.5746 -0.5571
 7121SOL    HW232997   0.813   4.022   4.764  0.6259  0.4062  0.0217
 7122SOL     OW32998   0.529   1.753   5.066  0.1962 -0.0186 -0.5316
 7122SOL    HW132999   0.566   1.669   5.040  0.7177  0.2010 -0.5135
 7122SOL    HW233000   0.494   1.775   4.979 -3.2722 -2.7152  0.2197
 7123SOL     OW33001   3.807   1.690   7.397  0.2636 -0.7467  0.5879
 7123SOL    HW133002   3.793   1.748   7.323 -0.4926 -0.3018  1.0712
 7123SOL    HW233003   3.898   1.709   7.421  0.7092 -0.9115 -1.0057
 7124SOL     OW33004   3.967   1.213   0.259 -0.2307 -0.4681  0.2546
 7124SOL    HW133005   3.982   1.184   0.170 -0.0110  2.1629 -0.5600
 7124SOL    HW233006   3.984   1.140   0.319 -2.0465 -1.4599 -0.4695
 7125SOL     OW33007   0.244   2.678  11.805 -0.0978  0.0692  0.2708
 7125SOL    HW133008   0.191   2.625  11.746  0.1619  0.2204 -0.0995
 7125SOL    HW233009   0.197   2.656  11.885 -0.1400  1.0693  0.5199
 7126SOL     OW33010   4.626   0.070   1.185  0.1108 -0.1003  0.7823
 7126SOL    HW133011   4.661   0.024   1.261  0.9617 -0.6894  0.0292
 7126SOL    HW233012   4.552   0.013   1.163 -0.0645  1.1084 -1.7505
 7127SOL     OW33013   1.800   2.839   7.777 -0.1132  0.1169  0.3047
 7127SOL    HW133014   1.831   2.893   7.704  1.2265 -1.4519 -0.2823
 7127SOL    HW233015   1.832   2.886   7.854 -0.1845 -1.5844  1.3831
 7128SOL     OW33016   2.953   4.196  13.213 -0.5650  0.2216 -0.2840
 7128SOL    HW133017   2.872   4.216  13.166  0.6457  2.1162 -1.5723
 7128SOL    HW233018   2.969   4.104  13.190  0.1778  0.0392  0.9532
 7129SOL     OW33019   2.373   2.877  14.472  0.0659  0.0200  0.8034
 7129SOL    HW133020   2.402   2.961  14.437 -0.2019 -1.4927 -3.1231
 7129SOL    HW233021   2.457   2.838  14.494 -0.4705 -0.0551  2.6719
 7130SOL     OW33022   2.322   1.510   7.105 -0.1198  0.0313 -0.0033
 7130SOL    HW133023   2.310   1.597   7.066  0.7026 -0.3678 -1.1199
 7130SOL    HW233024   2.268   1.459   7.046  1.4032 -1.5451 -0.0298
 7131SOL     OW33025   0.659   0.021   2.154 -0.2945 -0.1205 -0.0628
 7131SOL    HW133026   0.566   0.040   2.141 -0.5952 -2.2155 -0.9043
 7131SOL    HW233027   0.662   4.660   2.154 -2.0296 -0.1773  0.8779
 7132SOL     OW33028   4.084   2.674   2.005 -0.1771  0.1348 -0.2666
 7132SOL    HW133029   4.083   2.584   2.036  1.5363  0.0770 -0.3819
 7132SOL    HW233030   3.997   2.681   1.966 -0.2273  0.9169 -0.0312
 7133SOL     OW33031   3.424   2.846   5.223  0.1643  0.0675 -0.4294
 7133SOL    HW133032   3.473   2.807   5.296  0.4756 -0.4598 -0.9180
 7133SOL    HW233033   3.359   2.778   5.204 -0.9044  0.9195  0.2148
 7134SOL     OW33034   3.846   3.892  16.513  0.1692 -0.0818  0.0940
 7134SOL    HW133035   3.863   3.980  16.481  0.8786  0.2874  1.5198
 7134SOL    HW233036   3.799   3.844  16.444  0.7024 -1.9584  1.0505
 7135SOL     OW33037   0.497   2.287   6.920  0.5491  0.2572 -0.0384
 7135SOL    HW133038   0.571   2.232   6.947  0.6225 -0.1187 -1.0292
 7135SOL    HW233039   0.425   2.224   6.925  0.6150  0.2769  1.2905
 7136SOL     OW33040   4.561   3.786   8.606 -0.2421  0.1897 -0.2372
 7136SOL    HW133041   4.530   3.702   8.640  0.0473  0.8922  1.7969
 7136SOL    HW233042   4.541   3.767   8.515  0.6166 -3.7129  0.3782
 7137SOL     OW33043   3.361   1.993   8.357  0.3310 -0.3011 -0.7656
 7137SOL    HW133044   3.314   2.039   8.288 -1.1029  1.3665  1.3370
 7137SOL    HW233045   3.449   2.024   8.332  0.2854  0.2933 -0.1806
 7138SOL     OW33046   2.477   4.421  13.941  0.1221 -0.5787  0.3057
 7138SOL    HW133047   2.537   4.452  14.008 -0.9016  0.6016  0.6820
 7138SOL    HW233048   2.521   4.461  13.866  1.2579 -0.6964  0.9190
 7139SOL     OW33049   0.818   3.491  13.075 -0.1181 -0.2793 -0.7267
 7139SOL    HW133050   0.909   3.518  13.069 -0.2995  0.6578  0.9105
 7139SOL    HW233051   0.828   3.421  13.139 -0.3370  1.5429  1.2838
 7140SOL     OW33052   0.417   0.342   7.975 -0.7688 -0.5274 -0.4372
 7140SOL    HW133053   0.495   0.318   8.025 -1.5380 -0.5357  0.7754
 7140SOL    HW233054   0.391   0.255   7.947  0.4761 -1.1207  0.2570
 7141SOL     OW33055   3.172   0.509   6.328  0.0176  0.5858  0.3973
 7141SOL    HW133056   3.149   0.505   6.420  1.0877  2.6369  0.7605
 7141SOL    HW233057   3.197   0.418   6.315 -2.7319 -0.4338  2.2489
 7142SOL     OW33058   2.193   1.491   2.940  0.0074  0.2800 -0.6788
 7142SOL    HW133059   2.206   1.488   3.035 -1.1053 -0.4040 -0.5512
 7142SOL    HW233060   2.117   1.548   2.941 -0.5425 -0.4656  0.0743
 7143SOL     OW33061   3.876   4.079  14.063 -0.0683  0.0920 -0.4225
 7143SOL    HW133062   3.958   4.127  14.052 -0.4806  0.9529  0.2310
 7143SOL    HW233063   3.855   4.051  13.974  1.3646 -0.3611 -0.6140
 7144SOL     OW33064   3.801   3.644   0.214 -0.4566  0.2041 -0.3103
 7144SOL    HW133065   3.717   3.601   0.227 -0.2126 -0.6735 -1.5801
 7144SOL    HW233066   3.783   3.732   0.248 -0.8522  0.6629 -1.7189
 7145SOL     OW33067   2.481   0.034   6.551  0.4720 -0.0938  0.3540
 7145SOL    HW133068   2.560   0.006   6.505  0.5758  2.3484 -0.9108
 7145SOL    HW233069   2.449   4.681   6.575  1.1766  0.1344  2.1316
 7146SOL     OW33070   1.323   1.377   4.935 -0.9848 -0.0268 -0.3573
 7146SOL    HW133071   1.242   1.358   4.887 -0.0231 -0.6889 -1.7181
 7146SOL    HW233072   1.381   1.416   4.869 -0.4360  1.0561  0.7795
 7147SOL     OW33073   2.491   1.992   2.829  0.3943 -0.0931 -0.2126
 7147SOL    HW133074   2.436   1.928   2.876  2.0254 -1.0699  0.3453
 7147SOL    HW233075   2.477   1.962   2.739 -4.0910 -2.0416  1.1210
 7148SOL     OW33076   4.070   2.463   6.478  0.1356  0.0803 -0.2187
 7148SOL    HW133077   4.070   2.503   6.392 -0.3117 -1.0238 -0.7304
 7148SOL    HW233078   4.001   2.396   6.471  1.0209 -1.1419  2.8140
 7149SOL     OW33079   1.765   2.201   3.854  0.0063  0.1451 -0.0517
 7149SOL    HW133080   1.820   2.273   3.824 -1.0544  1.4510  1.1154
 7149SOL    HW233081   1.677   2.231   3.833  0.0743 -0.4035 -1.0716
 7150SOL     OW33082   0.058   0.056   8.440  0.7184 -0.1926 -0.1310
 7150SOL    HW133083   0.048   0.063   8.534 -1.1441  1.8058 -0.4781
 7150SOL    HW233084   0.014   0.130   8.398  0.2930 -0.2276  0.2529
 7151SOL     OW33085   1.938   0.139   7.833 -0.1010 -0.7226 -0.2506
 7151SOL    HW133086   2.029   0.112   7.843 -0.2123 -1.1826 -0.4811
 7151SOL    HW233087   1.931   0.196   7.910  1.8835 -1.7561  0.6939
 7152SOL     OW33088   4.716   2.303   3.424 -0.3181 -0.7164  0.0209
 7152SOL    HW133089   0.026   2.294   3.340  1.3760 -3.2585  1.2143
 7152SOL    HW233090   0.048   2.281   3.490 -0.0878  1.2197  0.4448
 7153SOL     OW33091   1.800   3.716   0.791 -0.0346  0.2017 -0.2831
 7153SOL    HW133092   1.763   3.689   0.875  1.1753 -1.7911 -0.4029
 7153SOL    HW233093   1.885   3.675   0.803 -0.7678 -1.7002 -1.6704
 7154SOL     OW33094   4.271   3.179   5.060 -0.2606 -0.4036 -0.1517
 7154SOL    HW133095   4.227   3.201   5.142 -0.3093  1.9847 -0.8303
 7154SOL    HW233096   4.357   3.218   5.073 -1.3472  1.5936  1.1132
 7155SOL     OW33097   4.699   3.124   8.562 -1.0706 -0.2257  0.3220
 7155SOL    HW133098   4.731   3.118   8.652 -1.4943  0.6181  0.5264
 7155SOL    HW233099   4.648   3.043   8.556  0.0961 -0.9037 -0.4089
 7156SOL     OW33100   3.395   1.465   6.082 -0.0174  0.2638 -0.2272
 7156SOL    HW133101   3.333   1.419   6.025 -0.7583 -0.6728  1.3487
 7156SOL    HW233102   3.400   1.404   6.155 -0.7593  2.0477  1.3063
 7157SOL     OW33103   4.680   4.471   4.918  0.1388  0.1104 -0.3009
 7157SOL    HW133104   4.599   4.435   4.954  0.5544  0.5734  1.1154
 7157SOL    HW233105   0.008   4.443   4.984 -1.5968 -1.5603  0.6405
 7158SOL     OW33106   1.611   1.509   6.762  0.0577  0.1934  0.3422
 7158SOL    HW133107   1.626   1.416   6.742  0.2947  0.6655 -1.7164
 7158SOL    HW233108   1.515   1.513   6.764 -0.0762 -2.1512 -0.9360
 7159SOL     OW33109   0.873   4.063   7.208  0.1701 -0.3723 -0.0774
 7159SOL    HW133110   0.843   4.153   7.190  3.3538  0.7487  0.3038
 7159SOL    HW233111   0.927   4.054   7.130 -0.7484  1.2988 -0.9282
 7160SOL     OW33112   3.320   3.108   9.320  0.9448  0.1813 -0.3294
 7160SOL    HW133113   3.351   3.199   9.320  1.9495 -0.1525  1.5391
 7160SOL    HW233114   3.386   3.076   9.383 -0.7067  0.7854  1.6957
 7161SOL     OW33115   4.180   1.600   8.051  0.2139  0.1534  0.3239
 7161SOL    HW133116   4.229   1.549   8.115 -0.5467 -0.2077  0.6223
 7161SOL    HW233117   4.151   1.677   8.101  0.0513 -0.9892  1.9780
 7162SOL     OW33118   0.600   1.763   5.518 -0.4016 -0.1040  0.3377
 7162SOL    HW133119   0.657   1.803   5.452  0.9110 -2.8093 -0.1476
 7162SOL    HW233120   0.564   1.841   5.560 -2.4594  0.2977 -2.1771
 7163SOL     OW33121   0.409   2.123   5.570 -0.2453  0.3296  0.0077
 7163SOL    HW133122   0.462   2.188   5.525  0.2793  0.5408  0.9268
 7163SOL    HW233123   0.348   2.104   5.499  1.5364  0.8646 -1.6594
 7164SOL     OW33124   2.293   1.976   5.851 -0.0664  0.3227 -0.3349
 7164SOL    HW133125   2.212   1.958   5.803 -1.0690 -2.1495  2.3034
 7164SOL    HW233126   2.309   2.069   5.836  0.5127  0.4045  0.8061
 7165SOL     OW33127   2.728   1.184   6.444 -0.4415 -0.1115 -0.3197
 7165SOL    HW133128   2.747   1.275   6.468 -1.0387 -0.3646  1.1479
 7165SOL    HW233129   2.685   1.196   6.360  0.3546 -0.3481 -0.7629
 7166SOL     OW33130   3.672   2.961   1.827  0.3032 -0.4083  0.0979
 7166SOL    HW133131   3.647   2.991   1.740 -1.9208 -1.6548  0.2993
 7166SOL    HW233132   3.708   2.872   1.822  1.7233  0.2245 -0.8941
 7167SOL     OW33133   0.023   0.701   1.820  0.0158 -0.7852 -0.1777
 7167SOL    HW133134   0.002   0.756   1.896  0.3230  0.5361 -1.0624
 7167SOL    HW233135   0.100   0.744   1.784 -1.4389  0.3697 -1.8921
 7168SOL     OW33136   3.901   0.674  15.971 -0.3382 -0.0663  0.3927
 7168SOL    HW133137   3.830   0.738  15.971  1.7706  2.3095  2.0493
 7168SOL    HW233138   3.950   0.694  15.891 -3.2158  2.4794 -0.7164
 7169SOL     OW33139   2.865   1.349   1.035  0.1653 -0.3572  0.3953
 7169SOL    HW133140   2.920   1.416   0.994  0.1527 -1.0682 -0.7840
 7169SOL    HW233141   2.916   1.268   1.031  1.0774  0.2226  0.2114
 7170SOL     OW33142   1.799   0.816  12.610 -0.3220  0.3415  0.4135
 7170SOL    HW133143   1.853   0.783  12.681  0.5554 -0.9411 -0.8624
 7170SOL    HW233144   1.794   0.737  12.556 -2.8576  0.1307  0.9412
 7171SOL     OW33145   2.311   0.105   2.240  0.2298  0.3549 -0.1148
 7171SOL    HW133146   2.277   0.180   2.192  1.0064  0.2218 -0.8615
 7171SOL    HW233147   2.403   0.127   2.257 -0.1594  2.8835 -1.3810
 7172SOL     OW33148   2.783   1.580  12.274 -0.3036  0.3113  0.4321
 7172SOL    HW133149   2.718   1.553  12.209  2.5622 -0.4069 -2.1005
 7172SOL    HW233150   2.827   1.651  12.228 -0.6815 -0.5513 -1.2712
 7173SOL     OW33151   3.945   4.437  16.332 -0.0274  0.0200  0.1175
 7173SOL    HW133152   3.926   4.526  16.362  0.2677 -0.2878  1.2473
 7173SOL    HW233153   3.960   4.461  16.241  0.5178  2.0489  0.7388
 7174SOL     OW33154   2.717   0.563   4.777 -0.4069  0.3586 -0.0457
 7174SOL    HW133155   2.757   0.568   4.690  0.0011 -0.0476  0.1199
 7174SOL    HW233156   2.635   0.604   4.750 -0.6431  0.9988  1.6566
 7175SOL     OW33157   3.019   1.089  15.982 -0.2839 -0.7032  0.2002
 7175SOL    HW133158   3.080   1.132  15.923  0.9499 -2.2619  0.3269
 7175SOL    HW233159   2.995   1.166  16.032  1.6345  0.5740 -0.8516
 7176SOL     OW33160   1.413   0.819   0.179 -0.1171  0.3208  0.2022
 7176SOL    HW133161   1.347   0.765   0.135 -0.9819  1.1639  0.4687
 7176SOL    HW233162   1.484   0.775   0.133  0.2160  0.3492  0.6971
 7177SOL     OW33163   2.787   4.022  12.767  0.3081  0.3376 -0.1821
 7177SOL    HW133164   2.835   4.101  12.795 -1.5357  1.6427 -0.7503
 7177SOL    HW233165   2.756   3.975  12.845  0.1465  0.8323  0.0509
 7178SOL     OW33166   3.722   3.920   6.550 -0.3304  0.2287 -0.0751
 7178SOL    HW133167   3.748   3.848   6.493  0.4999  1.2367 -0.9545
 7178SOL    HW233168   3.661   3.962   6.490 -1.4436 -2.9340 -1.1547
 7179SOL     OW33169   1.082   3.546   0.951  0.0085 -0.1590 -1.0130
 7179SOL    HW133170   1.076   3.482   0.880  0.7635 -0.9838 -0.3331
 7179SOL    HW233171   1.091   3.631   0.908 -3.1420  0.3210 -0.7214
 7180SOL     OW33172   3.372   3.833   8.725  0.1161 -0.6013 -0.2831
 7180SOL    HW133173   3.344   3.754   8.772 -0.7811  0.0384  0.2517
 7180SOL    HW233174   3.298   3.850   8.666 -1.6934 -1.2987  1.7910
 7181SOL     OW33175   0.131   1.243  12.480  0.0213 -0.4202 -0.0464
 7181SOL    HW133176   0.212   1.198  12.503  0.2559  0.1489  0.2290
 7181SOL    HW233177   0.150   1.269  12.390  0.9105  1.4640  0.6754
 7182SOL     OW33178   3.677   0.122   2.622 -0.6062 -0.0666 -0.5784
 7182SOL    HW133179   3.721   0.051   2.668 -0.5091  1.2187  1.3503
 7182SOL    HW233180   3.678   0.092   2.531  2.5563  0.5877 -0.7589
 7183SOL     OW33181   2.791   0.914  16.953 -0.2636  0.4962  0.2588
 7183SOL    HW133182   2.868   0.949  16.908 -0.4016 -1.0500 -1.1555
 7183SOL    HW233183   2.815   0.821  16.952 -1.1115  0.2611  1.9736
 7184SOL     OW33184   3.559   2.761   5.477  0.2601  0.0172  0.0455
 7184SOL    HW133185   3.497   2.733   5.544 -0.8165  2.3372 -0.0064
 7184SOL    HW233186   3.627   2.696   5.495 -0.8203 -2.0525 -3.2685
 7185SOL     OW33187   1.741   3.842   8.355  0.3293  0.2747  0.0344
 7185SOL    HW133188   1.704   3.930   8.358 -0.2613  0.0149  0.4411
 7185SOL    HW233189   1.808   3.855   8.422  1.1430 -0.8105 -0.5668
 7186SOL     OW33190   2.924   4.652   3.088  0.1301 -0.1380  0.2679
 7186SOL    HW133191   2.925   4.609   3.003  0.1274 -1.2415  0.8180
 7186SOL    HW233192   3.007   4.698   3.081 -0.2239  0.8164  2.1638
 7187SOL     OW33193   2.360   1.795   2.128  0.0195 -0.3055  0.1691
 7187SOL    HW133194   2.390   1.709   2.157  1.0816 -0.2516 -0.8020
 7187SOL    HW233195   2.424   1.850   2.173  0.4650 -0.3495 -0.4125
 7188SOL     OW33196   4.314   0.179   4.707  0.5264 -0.1879 -0.2750
 7188SOL    HW133197   4.360   0.147   4.785 -0.6849  1.4176  1.1217
 7188SOL    HW233198   4.240   0.119   4.708 -0.1822  0.7016  2.0186
 7189SOL     OW33199   1.839   4.240  10.968  0.1923 -0.8232  0.2739
 7189SOL    HW133200   1.908   4.291  10.926  0.6073 -0.1063  1.8004
 7189SOL    HW233201   1.798   4.189  10.898  1.4416 -2.1204  0.4938
 7190SOL     OW33202   3.407   0.745  17.051 -0.6430  0.6650 -0.7874
 7190SOL    HW133203   3.355   0.671  17.083  1.0655  0.1352  0.7676
 7190SOL    HW233204   3.388   0.723  16.960  3.4349  0.3613 -1.5782
 7191SOL     OW33205   3.126   2.389   3.400 -0.4152 -0.6286  0.2642
 7191SOL    HW133206   3.101   2.418   3.312  3.5381  1.6419 -0.1253
 7191SOL    HW233207   3.211   2.350   3.377 -0.6158 -0.9929  0.1429
 7192SOL     OW33208   3.397   3.932   4.590 -0.3365  0.5022  0.3253
 7192SOL    HW133209   3.472   3.904   4.643 -0.1597 -0.4566 -0.4322
 7192SOL    HW233210   3.350   3.983   4.655  1.0859  2.9239 -0.5607
 7193SOL     OW33211   2.997   0.101   8.895 -1.5270  0.3596  0.1537
 7193SOL    HW133212   2.989   0.190   8.861 -0.2776  0.2085 -0.5578
 7193SOL    HW233213   2.990   0.132   8.985 -0.2129  2.6420 -0.5183
 7194SOL     OW33214   2.670   4.230  16.496  0.2250  0.0680  0.2282
 7194SOL    HW133215   2.642   4.310  16.452 -1.0136 -1.0956 -1.1366
 7194SOL    HW233216   2.722   4.263  16.569  2.3969 -1.2533 -0.7250
 7195SOL     OW33217   1.381   1.598  14.356  0.2989  0.1875  0.2998
 7195SOL    HW133218   1.305   1.632  14.309  0.7003 -1.9573 -1.9079
 7195SOL    HW233219   1.354   1.508  14.377  1.9735  0.1388  2.2171
 7196SOL     OW33220   3.500   0.097   3.339 -0.1985  0.7119  0.0902
 7196SOL    HW133221   3.515   0.067   3.250 -0.4193 -1.3844  0.7410
 7196SOL    HW233222   3.406   0.113   3.328 -0.1531 -0.0328 -1.3590
 7197SOL     OW33223   3.216   1.993   5.576  0.0896 -0.5937 -0.7767
 7197SOL    HW133224   3.191   1.904   5.601 -0.9745  0.1157  0.6529
 7197SOL    HW233225   3.198   1.996   5.482  0.7396 -1.7618 -0.9467
 7198SOL     OW33226   2.657   1.785   6.817 -0.5199 -0.8983  0.1085
 7198SOL    HW133227   2.630   1.877   6.813  1.9068 -0.1260  1.4524
 7198SOL    HW233228   2.723   1.795   6.886 -1.1132 -0.2114  0.5739
 7199SOL     OW33229   1.587   0.325   7.112 -0.4887 -0.4985 -0.3321
 7199SOL    HW133230   1.525   0.257   7.136 -1.2060  0.3852  0.2910
 7199SOL    HW233231   1.596   0.359   7.201 -0.4271  0.4349 -0.6856
 7200SOL     OW33232   0.088   4.048   8.810 -0.6577 -0.5218  0.4354
 7200SOL    HW133233   0.096   3.954   8.791  1.4289 -0.0647 -0.9479
 7200SOL    HW233234   0.069   4.085   8.723  0.9276 -2.9094 -0.9270
 7201SOL     OW33235   0.628   1.580   8.456 -0.1265  0.1942  0.1594
 7201SOL    HW133236   0.707   1.544   8.416  0.1530  0.3937  0.5272
 7201SOL    HW233237   0.564   1.559   8.388  0.5815 -2.3871  0.2739
 7202SOL     OW33238   0.376   3.574  16.346 -0.4386  0.7003 -0.0357
 7202SOL    HW133239   0.434   3.584  16.271 -0.3288 -0.1242 -0.0537
 7202SOL    HW233240   0.294   3.550  16.304 -0.6130  0.6109  0.3502
 7203SOL     OW33241   1.761   3.530   3.433 -0.4708 -0.3713  0.1028
 7203SOL    HW133242   1.832   3.591   3.453  0.0102 -1.4081  1.5222
 7203SOL    HW233243   1.809   3.449   3.445 -0.4362 -0.6367 -1.7751
 7204SOL     OW33244   4.327   0.897  14.655  0.1019 -0.1011  0.1182
 7204SOL    HW133245   4.266   0.858  14.593  0.2316  1.6540 -1.1276
 7204SOL    HW233246   4.289   0.982  14.678  1.9711  1.1265 -1.2841
 7205SOL     OW33247   1.198   4.391  13.651  0.1592  0.3835  0.3873
 7205SOL    HW133248   1.199   4.421  13.560 -1.2361 -1.0370 -0.1037
 7205SOL    HW233249   1.273   4.333  13.655 -0.1468  0.1128  2.2061
 7206SOL     OW33250   0.251   2.400   9.203 -0.2809 -0.2300 -0.6335
 7206SOL    HW133251   0.335   2.402   9.157  0.9334 -1.3042  1.5472
 7206SOL    HW233252   0.250   2.469   9.270 -0.1657 -0.7382 -0.1105
 7207SOL     OW33253   3.232   2.430   5.037 -0.5343 -0.0762  0.6188
 7207SOL    HW133254   3.253   2.508   5.089  3.8378 -1.5233  1.0453
 7207SOL    HW233255   3.305   2.369   5.029 -0.8190 -0.6820  2.5291
 7208SOL     OW33256   1.221   1.841   8.859 -0.3968  0.3929  0.2943
 7208SOL    HW133257   1.148   1.900   8.841 -1.6842 -0.9700  1.0201
 7208SOL    HW233258   1.196   1.766   8.805 -3.7040  2.6512 -1.2724
 7209SOL     OW33259   4.609   1.098  13.279 -0.2152  0.0060  0.3871
 7209SOL    HW133260   4.676   1.149  13.234 -0.1952  2.3108  3.0351
 7209SOL    HW233261   4.543   1.099  13.210  2.7125  1.6714 -2.3939
 7210SOL     OW33262   3.564   0.114   7.435 -0.1518 -0.2873 -0.1962
 7210SOL    HW133263   3.609   0.187   7.477  0.8348 -2.1810  1.9983
 7210SOL    HW233264   3.479   0.150   7.409  0.0236 -1.0468 -1.8876
 7211SOL     OW33265   0.331   0.623   3.878  0.1801 -0.5412 -0.5729
 7211SOL    HW133266   0.362   0.710   3.904 -1.8628  0.4914 -1.5999
 7211SOL    HW233267   0.277   0.645   3.802  0.7051 -0.4632 -0.9288
 7212SOL     OW33268   2.165   2.841   6.599 -0.0055  0.7964  0.4186
 7212SOL    HW133269   2.228   2.771   6.581 -0.7684  0.3429 -0.4304
 7212SOL    HW233270   2.163   2.880   6.512  0.6198 -0.6859 -0.2542
 7213SOL     OW33271   1.859   3.460   8.912 -0.2359 -0.1738 -0.1881
 7213SOL    HW133272   1.764   3.469   8.912 -0.0240  2.2198  0.9283
 7213SOL    HW233273   1.874   3.499   8.998  3.2777 -1.1151 -0.3406
 7214SOL     OW33274   3.088   4.113   3.339  0.3590  0.2378  0.4653
 7214SOL    HW133275   3.127   4.086   3.422  1.2956  0.5878  0.1353
 7214SOL    HW233276   3.016   4.163   3.378  0.3624  0.8487 -0.2962
 7215SOL     OW33277   2.728   2.252   6.943 -0.0181  0.0116  0.0867
 7215SOL    HW133278   2.804   2.221   6.992 -0.3580  1.7654  1.7501
 7215SOL    HW233279   2.664   2.263   7.013  1.4159 -4.7211  2.1255
 7216SOL     OW33280   0.747   3.050  14.396  0.5113 -0.0529 -0.0685
 7216SOL    HW133281   0.713   3.037  14.307  2.9048 -0.2375 -0.9628
 7216SOL    HW233282   0.761   2.957  14.417 -1.2796 -0.2903  0.0318
 7217SOL     OW33283   4.611   4.295   7.021  0.4952 -0.2802 -0.1647
 7217SOL    HW133284   4.604   4.210   7.065  0.4526  0.2168  0.7854
 7217SOL    HW233285   4.518   4.318   7.015  0.7005  0.9033  1.1518
 7218SOL     OW33286   0.115   0.002   3.805 -0.5493 -0.0839 -0.0976
 7218SOL    HW133287   0.202   4.733   3.843 -0.6674 -1.0786  0.0793
 7218SOL    HW233288   0.059   0.021   3.881 -0.0756  2.3442 -0.3670
 7219SOL     OW33289   3.400   2.699   8.524  0.5400 -0.6557  0.3643
 7219SOL    HW133290   3.350   2.716   8.604 -0.8392  0.3264 -0.7082
 7219SOL    HW233291   3.491   2.687   8.552  0.3607 -0.4681  1.0201
 7220SOL     OW33292   1.072   1.432   2.379 -0.7501  0.2409 -0.2989
 7220SOL    HW133293   1.151   1.486   2.373  1.0034 -2.0952  1.6105
 7220SOL    HW233294   0.997   1.489   2.393 -1.3656 -0.5810 -0.2335
 7221SOL     OW33295   1.708   3.276   9.251  0.3827 -0.3325  0.0077
 7221SOL    HW133296   1.717   3.223   9.331 -1.3872 -1.2164 -0.3821
 7221SOL    HW233297   1.623   3.319   9.252  0.4152 -0.2320 -1.2337
 7222SOL     OW33298   3.551   2.210   6.117 -0.0948  0.5103 -0.1892
 7222SOL    HW133299   3.609   2.145   6.078  0.1936  0.1836  0.7720
 7222SOL    HW233300   3.521   2.155   6.189  0.1266 -1.5761 -1.7136
 7223SOL     OW33301   3.690   0.347   7.510 -0.9976 -0.3067 -0.3356
 7223SOL    HW133302   3.676   0.384   7.422  2.5736 -1.9298 -1.5979
 7223SOL    HW233303   3.707   0.425   7.564 -4.1128 -0.3535  0.7157
 7224SOL     OW33304   2.370   0.229   4.553  0.0242 -0.5064  0.3226
 7224SOL    HW133305   2.318   0.207   4.476  1.5242 -0.6846 -0.6357
 7224SOL    HW233306   2.325   0.301   4.597  0.0897 -1.0518  1.2929
 7225SOL     OW33307   0.822   3.873   8.786  0.5298  1.1888 -0.4542
 7225SOL    HW133308   0.865   3.844   8.867  2.5583  1.2530 -1.5335
 7225SOL    HW233309   0.736   3.897   8.821  0.0479  0.0807 -0.8633
 7226SOL     OW33310   2.887   4.081   3.646 -0.0407  0.1426 -0.4154
 7226SOL    HW133311   2.865   4.173   3.663  0.7895  0.4798 -1.1873
 7226SOL    HW233312   2.849   4.076   3.558  1.2195 -1.4944 -0.8617
 7227SOL     OW33313   2.160   1.157  14.917  0.1003 -0.3440 -0.0178
 7227SOL    HW133314   2.224   1.087  14.904  1.3487  0.6252  1.0124
 7227SOL    HW233315   2.173   1.200  15.001 -0.2978  2.2064 -1.2451
 7228SOL     OW33316   0.134   4.535   5.802 -0.1260 -0.3935  0.0986
 7228SOL    HW133317   0.074   4.463   5.823  3.6854 -3.2408  1.2163
 7228SOL    HW233318   0.214   4.495   5.769  0.4314 -0.0025  0.9951
 7229SOL     OW33319   3.675   0.765   4.040 -0.0070 -0.0844 -0.1779
 7229SOL    HW133320   3.639   0.686   4.081 -2.6571  1.4664  0.4742
 7229SOL    HW233321   3.593   0.813   4.024 -0.4771 -1.0007 -0.5079
 7230SOL     OW33322   0.942   1.111  12.679  0.4318  0.6401  0.0258
 7230SOL    HW133323   0.861   1.068  12.708 -1.2777  2.0866 -2.5559
 7230SOL    HW233324   0.996   1.048  12.631  0.8504  0.3629  0.8763
 7231SOL     OW33325   0.058   3.907   3.335 -0.3163 -0.2054  0.0073
 7231SOL    HW133326   0.036   3.997   3.358 -0.5483  0.1971 -1.7848
 7231SOL    HW233327   0.143   3.903   3.379  0.2176  0.8874 -0.9146
 7232SOL     OW33328   3.922   3.592   6.541 -0.0053  0.5827 -0.2987
 7232SOL    HW133329   3.853   3.625   6.599  0.3654 -0.4539  0.7339
 7232SOL    HW233330   3.977   3.670   6.531 -0.5119  0.5843 -2.9073
 7233SOL     OW33331   1.240   4.234  13.940  0.2486  0.3046  0.3966
 7233SOL    HW133332   1.144   4.235  13.933  0.3556 -0.6129 -1.2373
 7233SOL    HW233333   1.274   4.168  13.880 -1.7905 -0.4664  0.0797
 7234SOL     OW33334   4.518   2.139   5.584 -0.0311 -0.2241  1.0142
 7234SOL    HW133335   4.528   2.159   5.491 -2.3679  1.1449  1.0585
 7234SOL    HW233336   4.579   2.066   5.594 -1.3853 -1.1003  2.7832
 7235SOL     OW33337   2.297   3.510   3.311 -0.5868 -0.0507  0.0322
 7235SOL    HW133338   2.389   3.484   3.307 -0.3007  0.3367  4.3625
 7235SOL    HW233339   2.259   3.425   3.292 -3.8184  1.4122 -0.1589
 7236SOL     OW33340   2.167   3.269   3.229  0.6506  0.2855  0.2489
 7236SOL    HW133341   2.175   3.174   3.223 -1.1163  0.2568 -1.4941
 7236SOL    HW233342   2.088   3.280   3.176 -1.0356 -1.6554  2.3716
 7237SOL     OW33343   1.871   4.409   1.820 -0.7559  0.3886 -0.0487
 7237SOL    HW133344   1.842   4.462   1.745 -2.0284  1.0417  0.9253
 7237SOL    HW233345   1.834   4.323   1.803 -2.0496  0.8259  0.5577
 7238SOL     OW33346   4.234   3.889   7.351 -0.3434 -0.1989 -0.3818
 7238SOL    HW133347   4.174   3.957   7.321  0.0764 -0.2205 -1.2668
 7238SOL    HW233348   4.219   3.884   7.445  0.0170 -1.5282 -0.3873
 7239SOL     OW33349   3.108   0.917  11.120 -0.0216 -0.1805 -0.7995
 7239SOL    HW133350   3.055   0.858  11.066  0.4814  0.3533 -1.8585
 7239SOL    HW233351   3.189   0.866  11.119  1.5366  2.3440 -1.0579
 7240SOL     OW33352   2.457   0.485   3.689  0.0930  0.1758 -0.3748
 7240SOL    HW133353   2.517   0.465   3.761 -0.2986 -2.0519 -0.6633
 7240SOL    HW233354   2.395   0.413   3.700  1.0870 -0.9623 -2.1639
 7241SOL     OW33355   1.015   3.199   2.034  0.4003  0.9828 -0.5931
 7241SOL    HW133356   0.959   3.148   1.975  0.1575  1.4278 -0.7540
 7241SOL    HW233357   0.973   3.284   2.019 -0.3745  0.3368 -2.1366
 7242SOL     OW33358   3.913   3.712  17.697  0.0786  0.3696  0.3003
 7242SOL    HW133359   3.886   3.692   0.048  0.5793 -0.6966  0.2106
 7242SOL    HW233360   3.852   3.777  17.664 -0.1551 -1.3211 -2.5691
 7243SOL     OW33361   0.195   0.442  14.940 -0.2354 -0.2448 -0.1211
 7243SOL    HW133362   0.182   0.536  14.925 -0.1617  0.0448  1.6350
 7243SOL    HW233363   0.121   0.426  14.999 -0.8134 -0.6838 -0.9667
 7244SOL     OW33364   1.954   0.984   7.757 -0.6511 -0.2052  0.0766
 7244SOL    HW133365   1.978   1.074   7.779  1.4542 -1.0966  1.4097
 7244SOL    HW233366   1.877   0.969   7.813 -2.0448  0.0091 -1.7848
 7245SOL     OW33367   0.117   1.019   3.806  0.4253  1.0797  0.5684
 7245SOL    HW133368   0.149   0.944   3.757 -0.7385  0.0559  1.3830
 7245SOL    HW233369   0.029   0.985   3.822 -0.0439  1.7476 -0.5365
 7246SOL     OW33370   3.580   2.269   2.109 -0.1343  0.0740 -0.0429
 7246SOL    HW133371   3.503   2.325   2.123 -0.3251 -0.0513 -0.5995
 7246SOL    HW233372   3.530   2.198   2.070 -0.1940 -0.7840  1.5743
 7247SOL     OW33373   2.416   1.075   9.961 -0.5780  0.3862  0.5236
 7247SOL    HW133374   2.415   1.110  10.050  0.3809  0.8568  0.3450
 7247SOL    HW233375   2.330   1.099   9.926  0.4911  2.7881 -0.5082
 7248SOL     OW33376   1.833   0.291  10.624 -0.0772  0.2992 -0.1141
 7248SOL    HW133377   1.885   0.290  10.705 -0.2378 -1.2472 -0.0334
 7248SOL    HW233378   1.805   0.382  10.613  0.3506  0.3801 -0.5299
 7249SOL     OW33379   1.053   4.400   8.589 -0.2120  0.3198 -0.2126
 7249SOL    HW133380   1.041   4.382   8.683  1.9111  0.9506  0.1723
 7249SOL    HW233381   0.994   4.474   8.578 -1.5092 -0.5156  1.0878
 7250SOL     OW33382   4.559   0.259   5.346 -0.0223  0.3211 -0.2167
 7250SOL    HW133383   4.553   0.184   5.404 -2.2693  0.4420 -0.2796
 7250SOL    HW233384   4.585   0.320   5.415  0.1300 -0.9056  0.8143
 7251SOL     OW33385   3.883   2.928   4.459 -0.1025 -0.1509  0.4970
 7251SOL    HW133386   3.914   2.994   4.522 -0.7157 -0.6491  1.3222
 7251SOL    HW233387   3.863   2.856   4.519 -0.3469  0.3524  1.0190
 7252SOL     OW33388   1.614   3.416   4.220  0.5084  0.9168 -0.1400
 7252SOL    HW133389   1.691   3.453   4.176  1.8735  0.1544  1.5944
 7252SOL    HW233390   1.539   3.461   4.182 -0.4054  1.5653  2.4272
 7253SOL     OW33391   0.084   1.674   2.689 -0.5873  0.0662  0.4329
 7253SOL    HW133392   0.019   1.685   2.620 -1.6191  1.9342  1.6692
 7253SOL    HW233393   0.026   1.653   2.763 -0.5662  0.1605  0.4775
 7254SOL     OW33394   0.696   1.994  13.599 -0.0268  0.2383  0.0587
 7254SOL    HW133395   0.618   2.046  13.621 -1.2092 -0.2520 -2.9906
 7254SOL    HW233396   0.730   2.055  13.533  1.2868  0.5232  0.9915
 7255SOL     OW33397   2.232   3.824   5.272  0.2408 -0.0935 -0.0605
 7255SOL    HW133398   2.242   3.918   5.253 -0.6689 -0.6035 -3.1687
 7255SOL    HW233399   2.244   3.779   5.188 -0.6981  0.3756 -0.4532
 7256SOL     OW33400   0.410   4.172  16.906  0.0856  0.1547 -0.1491
 7256SOL    HW133401   0.405   4.237  16.836  0.2693 -1.0282 -1.2624
 7256SOL    HW233402   0.329   4.122  16.896 -0.8569  1.5705  0.4993
 7257SOL     OW33403   1.129   2.235   3.583 -0.1516  0.2466 -0.3675
 7257SOL    HW133404   1.151   2.325   3.609 -1.6517  0.2507  0.8510
 7257SOL    HW233405   1.192   2.196   3.643  0.1136 -0.4017 -1.0610
 7258SOL     OW33406   2.465   0.535   1.547  0.0529 -0.4458  0.3233
 7258SOL    HW133407   2.381   0.513   1.506 -0.5219  2.0155  0.1721
 7258SOL    HW233408   2.504   0.448   1.552  1.8146  0.3760  1.0072
 7259SOL     OW33409   4.338   3.509   4.581  0.2350  0.1946  0.1862
 7259SOL    HW133410   4.285   3.456   4.522  0.8472 -1.6342  1.2902
 7259SOL    HW233411   4.372   3.568   4.514  0.7115 -1.9274 -1.4210
 7260SOL     OW33412   0.617   1.840   4.180 -0.1627  0.1196  0.0302
 7260SOL    HW133413   0.603   1.882   4.095 -0.4700 -0.8556 -0.4020
 7260SOL    HW233414   0.602   1.914   4.238  2.1251  2.7631 -2.7458
 7261SOL     OW33415   4.167   2.696   4.040  0.0534  0.9663  0.0616
 7261SOL    HW133416   4.098   2.663   4.097  0.5422  1.2155  0.7966
 7261SOL    HW233417   4.120   2.770   4.002  1.2100  1.4313 -0.4788
 7262SOL     OW33418   2.223   2.541  13.159  0.0959 -0.5070 -0.3219
 7262SOL    HW133419   2.169   2.568  13.085 -1.5072 -2.4730  0.1303
 7262SOL    HW233420   2.276   2.620  13.167 -1.2348  0.3902 -0.5262
 7263SOL     OW33421   4.432   2.470  14.131  0.3628 -0.1234 -0.1211
 7263SOL    HW133422   4.412   2.514  14.049  0.1586 -2.8328 -1.5009
 7263SOL    HW233423   4.360   2.505  14.183  0.0365 -0.3232 -0.4467
 7264SOL     OW33424   1.191   2.855   1.663 -0.3382 -0.2056 -0.5753
 7264SOL    HW133425   1.199   2.783   1.601 -0.3196 -0.9792  0.3342
 7264SOL    HW233426   1.174   2.924   1.599 -1.8488 -0.3451 -0.3291
 7265SOL     OW33427   2.539   4.681   9.333 -0.4273 -0.3008  0.2981
 7265SOL    HW133428   2.595   0.007   9.285 -3.3059  1.7446 -0.4481
 7265SOL    HW233429   2.573   4.676   9.422  0.2343 -0.9200  0.0090
 7266SOL     OW33430   4.162   2.511   8.485  0.5695  0.0035 -0.6427
 7266SOL    HW133431   4.167   2.606   8.488  1.0000 -0.1106  2.3473
 7266SOL    HW233432   4.215   2.483   8.411  0.2798  1.7540 -1.5112
 7267SOL     OW33433   0.936   1.766   5.479  0.2872 -0.2879 -0.4777
 7267SOL    HW133434   0.885   1.832   5.526  0.1012 -0.6449 -0.1838
 7267SOL    HW233435   0.981   1.820   5.413 -0.6371  0.6887 -0.2991
 7268SOL     OW33436   2.338   1.814   2.978 -0.5412 -0.2314  0.4909
 7268SOL    HW133437   2.253   1.855   2.991  0.1478  1.3866 -0.1141
 7268SOL    HW233438   2.343   1.750   3.049  1.2532  0.2694  0.8104
 7269SOL     OW33439   0.781   0.068  11.103 -0.2297  0.4967  0.3358
 7269SOL    HW133440   0.832   4.725  11.124  1.2689  1.6094  0.7619
 7269SOL    HW233441   0.811   0.095  11.016  1.4153 -0.9189  0.4556
 7270SOL     OW33442   3.992   3.954   9.493  0.2249  0.3120  0.3551
 7270SOL    HW133443   3.927   3.911   9.437  1.6035 -1.2822 -0.0408
 7270SOL    HW233444   4.071   3.903   9.474 -0.2461 -0.5423  0.7202
 7271SOL     OW33445   4.071   3.817   9.169 -0.2609 -0.4405  0.0861
 7271SOL    HW133446   4.024   3.784   9.246 -1.8737  0.3054 -0.5771
 7271SOL    HW233447   4.001   3.810   9.104 -1.3458 -0.8581  1.2854
 7272SOL     OW33448   4.441   0.442   6.428  0.1472 -0.1609 -0.2137
 7272SOL    HW133449   4.430   0.500   6.503 -0.1429 -1.3200  0.6323
 7272SOL    HW233450   4.456   0.502   6.355  1.5170 -0.2864 -0.0263
 7273SOL     OW33451   1.686   3.037   3.182 -0.0519 -0.6539 -0.7518
 7273SOL    HW133452   1.621   2.975   3.149 -1.6031 -0.4717  1.9837
 7273SOL    HW233453   1.656   3.126   3.164 -0.1257 -0.1778  1.6840
 7274SOL     OW33454   4.486   2.663   1.749 -0.2631 -0.0016  0.1325
 7274SOL    HW133455   4.399   2.627   1.733 -0.5217  1.3829 -1.6206
 7274SOL    HW233456   4.480   2.758   1.742  2.5191  0.1498 -0.2913
 7275SOL     OW33457   0.829   3.212   1.726 -0.0384  0.4259 -0.3439
 7275SOL    HW133458   0.771   3.201   1.651  1.1552  1.7442 -1.4909
 7275SOL    HW233459   0.838   3.308   1.725  2.8526  0.1816  0.9532
 7276SOL     OW33460   3.088   1.588   6.024 -0.1842 -0.3991 -0.2739
 7276SOL    HW133461   3.004   1.603   6.067 -0.7519 -2.3541 -0.6660
 7276SOL    HW233462   3.146   1.574   6.099  0.3065  0.7858 -0.4321
 7277SOL     OW33463   0.212   3.393   0.826 -0.2149 -0.3547  0.7927
 7277SOL    HW133464   0.214   3.422   0.917  1.3717  0.7197  0.4157
 7277SOL    HW233465   0.140   3.443   0.788 -0.6728  0.3052  2.4950
 7278SOL     OW33466   3.182   2.266   6.762 -0.1788 -0.0880 -0.4100
 7278SOL    HW133467   3.111   2.322   6.794  0.0639  0.4919 -0.8804
 7278SOL    HW233468   3.230   2.325   6.704  2.1945  0.0164  1.6480
 7279SOL     OW33469   3.571   4.570  13.408 -0.2466 -0.6765 -0.0700
 7279SOL    HW133470   3.651   4.596  13.454 -0.5118  0.4603 -0.2443
 7279SOL    HW233471   3.516   4.646  13.428 -0.0729 -0.4223 -0.5580
 7280SOL     OW33472   0.625   3.443  11.195  0.1556  0.3957 -0.0734
 7280SOL    HW133473   0.693   3.439  11.262 -1.9982 -0.6318  2.0478
 7280SOL    HW233474   0.664   3.397  11.120  2.1092  0.5435  0.8458
 7281SOL     OW33475   3.367   1.033   3.538  0.2277 -0.2047 -0.6989
 7281SOL    HW133476   3.402   0.944   3.542 -2.0093 -1.0062  1.2284
 7281SOL    HW233477   3.275   1.020   3.562  0.0567  0.6013 -0.9181
 7282SOL     OW33478   1.917   3.834   8.979 -0.0272 -0.2369 -0.0544
 7282SOL    HW133479   1.934   3.814   8.887  0.6998 -2.6218  0.5942
 7282SOL    HW233480   1.987   3.896   9.000  0.4065 -0.2070 -1.6631
 7283SOL     OW33481   0.391   0.918   4.773 -0.0671 -0.2869 -0.2540
 7283SOL    HW133482   0.483   0.907   4.795  0.3951  1.1111 -1.4496
 7283SOL    HW233483   0.345   0.862   4.835  1.1154 -2.6298 -1.4858
 7284SOL     OW33484   1.261   2.593   8.839  0.1819 -0.0407  0.4123
 7284SOL    HW133485   1.275   2.630   8.752  0.5253  0.5901  0.7356
 7284SOL    HW233486   1.241   2.502   8.815 -1.1764  0.3716 -0.0046
 7285SOL     OW33487   2.296   3.332   5.023 -0.1514  0.4319  0.1164
 7285SOL    HW133488   2.363   3.388   5.062  1.6891 -1.1884 -0.7350
 7285SOL    HW233489   2.247   3.394   4.968  0.9246  0.5375 -0.7094
 7286SOL     OW33490   4.727   4.623   4.702 -0.5523  0.2747  0.6580
 7286SOL    HW133491   4.693   4.561   4.767 -3.4741  1.1941  0.0180
 7286SOL    HW233492   4.691   4.704   4.738  2.5969  1.7416  0.4511
 7287SOL     OW33493   3.893   1.524   4.959 -0.4138  0.2383  0.0056
 7287SOL    HW133494   3.910   1.432   4.939  1.0315 -0.3578  4.0755
 7287SOL    HW233495   3.816   1.523   5.016 -0.9879 -0.8227 -0.7765
 7288SOL     OW33496   2.589   2.524   5.641  0.4629  0.4717  0.0659
 7288SOL    HW133497   2.617   2.467   5.712 -2.4861  0.9394  1.6102
 7288SOL    HW233498   2.503   2.483   5.634  0.0035  1.6343 -1.2203
 7289SOL     OW33499   0.654   1.592   5.762 -0.2239 -0.4442 -0.5714
 7289SOL    HW133500   0.648   1.657   5.692 -0.4947 -0.5788 -0.6716
 7289SOL    HW233501   0.728   1.612   5.821  0.0669  1.5563 -1.6112
 7290SOL     OW33502   2.938   3.207  17.583 -0.1589 -0.1825  0.7346
 7290SOL    HW133503   2.893   3.128  17.612 -0.5199  0.3738  1.6897
 7290SOL    HW233504   2.890   3.230  17.504  2.2862  0.8719 -0.4453
 7291SOL     OW33505   3.524   2.676  15.942  0.5986 -0.7105 -0.0127
 7291SOL    HW133506   3.516   2.755  15.889  2.1889 -1.2565 -1.0703
 7291SOL    HW233507   3.592   2.704  16.004 -0.9730  1.3873  0.7490
 7292SOL     OW33508   3.722   3.963  14.265 -0.6039 -0.5975 -0.1719
 7292SOL    HW133509   3.666   3.929  14.196 -1.2170  2.7023 -1.3157
 7292SOL    HW233510   3.776   4.024  14.214 -1.5579 -0.6864 -1.2779
 7293SOL     OW33511   4.346   4.485   7.628 -0.7581  0.5260  0.1488
 7293SOL    HW133512   4.354   4.536   7.548  2.1063  0.5373  0.4649
 7293SOL    HW233513   4.440   4.477   7.641 -1.2194 -1.3179  2.3574
 7294SOL     OW33514   2.140   4.010   8.203  0.4159  0.4535  0.0230
 7294SOL    HW133515   2.095   4.013   8.118  1.1701  0.4058 -0.3847
 7294SOL    HW233516   2.108   3.930   8.242 -1.1985  1.9414  1.7101
 7295SOL     OW33517   2.045   1.667  11.103  0.3055  0.8717  0.3498
 7295SOL    HW133518   2.140   1.668  11.105  0.3213  0.4272 -0.1445
 7295SOL    HW233519   2.025   1.672  11.196  0.2327 -1.4331  0.4424
 7296SOL     OW33520   2.740   3.020   4.199  0.0328 -0.3046  0.4536
 7296SOL    HW133521   2.657   2.998   4.157 -0.1213  0.2617  0.4608
 7296SOL    HW233522   2.769   2.931   4.219  1.3870 -0.0685 -0.4308
 7297SOL     OW33523   2.586   3.545   7.807  0.3744 -0.0474 -0.2083
 7297SOL    HW133524   2.659   3.527   7.748  1.4822 -2.0042  1.7721
 7297SOL    HW233525   2.542   3.604   7.746 -2.5396 -0.9673  0.9636
 7298SOL     OW33526   3.653   1.793   3.484 -0.5371 -0.2081 -0.3334
 7298SOL    HW133527   3.715   1.837   3.543 -0.0653  0.8935 -1.6544
 7298SOL    HW233528   3.575   1.841   3.511  0.4483  0.6689  0.9737
 7299SOL     OW33529   2.593   1.869  13.914 -0.3148 -0.0161  0.6388
 7299SOL    HW133530   2.655   1.838  13.979 -0.3161 -0.3107  0.5020
 7299SOL    HW233531   2.648   1.925  13.858 -0.2380 -0.9411 -0.2103
 7300SOL     OW33532   1.541   0.092   4.911 -0.2171  0.2225 -0.6974
 7300SOL    HW133533   1.554   4.733   4.911  0.5067  0.3161 -2.2529
 7300SOL    HW233534   1.451   0.094   4.941 -0.1096 -2.5064 -0.2186
 7301SOL     OW33535   0.778   1.865  15.907 -0.6288 -0.1162  0.3823
 7301SOL    HW133536   0.685   1.886  15.902 -0.1012  2.0622 -0.3392
 7301SOL    HW233537   0.814   1.954  15.904  0.4554 -0.5965 -1.3417
 7302SOL     OW33538   3.857   4.654   5.908  0.4682  0.4899 -0.2414
 7302SOL    HW133539   3.881   4.685   5.820  0.0529  0.2554 -0.4360
 7302SOL    HW233540   3.840   0.004   5.948  0.2406 -0.1261  0.9859
 7303SOL     OW33541   3.156   1.111   9.433  0.0727  0.1669 -0.1585
 7303SOL    HW133542   3.197   1.026   9.420 -0.6930 -0.6088  2.5164
 7303SOL    HW233543   3.101   1.118   9.355 -0.3241  1.8156  0.2707
 7304SOL     OW33544   1.486   1.238   6.484 -0.1041 -0.0887 -0.3418
 7304SOL    HW133545   1.564   1.224   6.537  1.2003  0.4513 -2.1468
 7304SOL    HW233546   1.517   1.237   6.394 -1.5165  1.9572 -0.8329
 7305SOL     OW33547   4.713   3.566  16.504 -0.0865 -0.1663 -0.9800
 7305SOL    HW133548   4.700   3.661  16.495 -0.5288 -0.1194  0.1598
 7305SOL    HW233549   0.041   3.542  16.437  0.8931  0.0060 -0.1214
 7306SOL     OW33550   4.575   3.099   6.493  0.4138 -0.0005 -0.0270
 7306SOL    HW133551   4.577   3.195   6.497 -0.4819  0.0165 -0.1219
 7306SOL    HW233552   4.561   3.080   6.400  1.9223 -0.9663 -0.0654
 7307SOL     OW33553   3.488   1.512   2.736 -0.1255  0.3168 -0.1613
 7307SOL    HW133554   3.526   1.563   2.808  0.3552 -1.7395  1.0381
 7307SOL    HW233555   3.396   1.506   2.759 -0.3258  0.4464 -0.9467
 7308SOL     OW33556   2.303   4.391   3.699 -0.0153 -0.1096 -0.4293
 7308SOL    HW133557   2.265   4.339   3.770  0.8502  1.2261  0.9960
 7308SOL    HW233558   2.278   4.333   3.626  0.0865 -0.3318 -0.2894
 7309SOL     OW33559   4.726   1.011   5.811  0.0193 -0.5415  0.1757
 7309SOL    HW133560   4.643   0.981   5.774  0.9770 -1.2681 -1.3641
 7309SOL    HW233561   4.696   1.054   5.891  1.2899 -0.8375  0.7992
 7310SOL     OW33562   0.376   3.987   8.700 -0.1576  0.3151  0.0634
 7310SOL    HW133563   0.409   3.951   8.617 -1.7494 -0.8862 -0.0440
 7310SOL    HW233564   0.329   4.066   8.674 -1.3857  0.1496  1.8185
 7311SOL     OW33565   0.596   0.580   5.173 -0.0375 -0.3637  0.8089
 7311SOL    HW133566   0.612   0.558   5.265 -2.7795 -2.0335  0.8972
 7311SOL    HW233567   0.569   0.494   5.141  3.5506 -0.9512 -0.6373
 7312SOL     OW33568   1.345   0.363   2.304 -0.0854  0.0855 -0.0480
 7312SOL    HW133569   1.251   0.363   2.285 -0.2337 -1.6422  0.6829
 7312SOL    HW233570   1.348   0.447   2.351 -1.1182  0.1757 -0.1341
 7313SOL     OW33571   2.914   3.866  13.711 -0.0106  0.0918 -0.4129
 7313SOL    HW133572   2.969   3.933  13.752  2.2717 -0.9850 -1.7493
 7313SOL    HW233573   2.928   3.892  13.620  2.1414  0.3060 -0.0169
 7314SOL     OW33574   3.093   4.193  13.549  0.0365  0.8508 -0.2617
 7314SOL    HW133575   3.063   4.250  13.620  1.8933  0.9439  0.4308
 7314SOL    HW233576   3.104   4.257  13.478 -1.2031  1.6587  0.2612
 7315SOL     OW33577   0.663   2.438  14.469 -0.6270 -0.4348 -0.4525
 7315SOL    HW133578   0.692   2.525  14.495  1.0385 -0.7482 -1.2136
 7315SOL    HW233579   0.573   2.431  14.501  0.2416 -0.9543  1.9089
 7316SOL     OW33580   3.122   2.414   7.321 -0.0943  0.5868 -0.1911
 7316SOL    HW133581   3.169   2.399   7.403 -0.6857  2.7738  0.5302
 7316SOL    HW233582   3.193   2.431   7.258 -0.2689  2.5455  0.1408
 7317SOL     OW33583   0.916   3.805   0.300 -0.2691 -0.6811  0.1266
 7317SOL    HW133584   0.957   3.850   0.226  1.7823  0.0209  1.6911
 7317SOL    HW233585   0.827   3.785   0.270  0.4377 -0.4342 -2.0960
 7318SOL     OW33586   3.078   0.678   3.936  0.3193 -0.5211 -0.4271
 7318SOL    HW133587   2.985   0.700   3.942  0.5813  0.2563  0.8921
 7318SOL    HW233588   3.081   0.592   3.978  2.1920 -0.3487 -0.2359
 7319SOL     OW33589   3.153   3.493   2.810  0.2896  0.0326 -0.2259
 7319SOL    HW133590   3.104   3.539   2.742  0.1309 -0.2452 -0.2970
 7319SOL    HW233591   3.207   3.567   2.839 -0.7492  0.7921 -0.2222
 7320SOL     OW33592   0.332   3.172   1.127  0.2550 -0.3169  0.0067
 7320SOL    HW133593   0.326   3.080   1.101 -0.3262 -0.1987 -0.2857
 7320SOL    HW233594   0.428   3.179   1.133  0.1300  0.4531  1.0227
 7321SOL     OW33595   0.148   4.464   5.118 -0.2446  0.4997 -0.2482
 7321SOL    HW133596   0.228   4.423   5.084  0.1818  1.4167 -0.3555
 7321SOL    HW233597   0.173   4.453   5.209  0.0698 -0.1379 -0.4098
 7322SOL     OW33598   4.214   1.056   5.835  0.1352  0.8233 -0.2686
 7322SOL    HW133599   4.156   0.981   5.848 -0.5016  1.7114  2.0646
 7322SOL    HW233600   4.187   1.083   5.748 -0.2192 -0.7009 -0.6209
 7323SOL     OW33601   4.094   1.011  11.494  0.0554 -0.8792  0.0280
 7323SOL    HW133602   4.173   1.048  11.454 -0.9545  1.8289  0.5591
 7323SOL    HW233603   4.137   0.945  11.549  1.2066 -0.4132 -0.3054
 7324SOL     OW33604   0.344   3.800   2.934  0.5546  0.6774 -0.1892
 7324SOL    HW133605   0.261   3.784   2.979 -0.1487  2.2028 -0.9097
 7324SOL    HW233606   0.410   3.743   2.973 -1.3732 -1.1798  0.3372
 7325SOL     OW33607   2.233   2.396   8.161 -0.3469  0.0681  0.4190
 7325SOL    HW133608   2.161   2.399   8.223 -1.0399  1.1118 -0.4133
 7325SOL    HW233609   2.228   2.308   8.124 -2.5627  0.1519  0.5060
 7326SOL     OW33610   0.741   0.361   5.953  0.2896 -0.2696 -0.2656
 7326SOL    HW133611   0.720   0.452   5.973 -4.3169 -1.1970 -0.8376
 7326SOL    HW233612   0.729   0.321   6.039  1.1951  1.2290  0.5506
 7327SOL     OW33613   1.864   0.276   5.140 -0.2393 -0.0926 -0.1452
 7327SOL    HW133614   1.913   0.347   5.099  0.3810  0.7975  2.1031
 7327SOL    HW233615   1.911   0.204   5.100 -2.7001 -2.3184  0.9931
 7328SOL     OW33616   1.175   2.729   9.349  0.0773 -0.2501 -0.1596
 7328SOL    HW133617   1.194   2.817   9.316  0.9286 -0.1047  0.7490
 7328SOL    HW233618   1.131   2.749   9.432  2.2947  0.6186  0.7863
 7329SOL     OW33619   1.271   2.041   6.142  0.5668  0.0440  0.0959
 7329SOL    HW133620   1.343   2.095   6.110  1.4549 -2.4972 -2.2028
 7329SOL    HW233621   1.318   1.984   6.203  2.1419 -0.0918 -1.2623
 7330SOL     OW33622   3.712   1.701  12.256  0.0891 -0.4138 -0.1056
 7330SOL    HW133623   3.740   1.753  12.331  0.4519 -0.4927 -0.1831
 7330SOL    HW233624   3.703   1.616  12.299  0.5950 -0.6056 -0.3699
 7331SOL     OW33625   0.136   0.123   6.067  0.0439 -0.2183 -0.0207
 7331SOL    HW133626   0.169   0.047   6.116  0.1739  1.7741  2.9472
 7331SOL    HW233627   0.089   0.076   5.998 -0.6138 -2.0045  1.6587
 7332SOL     OW33628   2.649   4.236   3.840 -0.0654 -0.1019 -0.3783
 7332SOL    HW133629   2.571   4.181   3.845  0.2778 -0.3173  2.5020
 7332SOL    HW233630   2.714   4.198   3.900  1.0673  0.6027 -1.1696
 7333SOL     OW33631   3.302   0.678   1.600 -0.3448 -0.1440 -0.0336
 7333SOL    HW133632   3.256   0.595   1.590 -0.6572  0.0533 -0.2692
 7333SOL    HW233633   3.248   0.734   1.543  0.6177  2.0152  1.1800
 7334SOL     OW33634   1.631   1.978  17.474  0.2252  0.3474  0.0993
 7334SOL    HW133635   1.692   1.905  17.461  0.1355 -0.2631  3.1188
 7334SOL    HW233636   1.549   1.928  17.479  0.1924  0.2714 -1.2126
 7335SOL     OW33637   2.612   2.785   5.008  0.5834 -0.0507  0.7442
 7335SOL    HW133638   2.683   2.846   4.988  0.0395 -0.2550 -1.7511
 7335SOL    HW233639   2.538   2.843   4.994  0.0535 -1.0090 -0.4516
 7336SOL     OW33640   3.652   2.363   2.966  0.4580  0.3662  0.1046
 7336SOL    HW133641   3.650   2.389   2.874 -1.1512 -0.3505 -0.0637
 7336SOL    HW233642   3.731   2.308   2.966 -0.1045 -0.4463  0.7879
 7337SOL     OW33643   2.131   0.868   3.982 -0.0186  0.0558 -0.4862
 7337SOL    HW133644   2.112   0.791   4.035  1.2931 -0.2664 -0.4719
 7337SOL    HW233645   2.174   0.827   3.906 -1.7577  0.7898 -1.8676
 7338SOL     OW33646   0.684   0.966  14.822  0.2360  0.6503  0.1559
 7338SOL    HW133647   0.624   0.936  14.754 -0.1371  1.1508  0.2613
 7338SOL    HW233648   0.670   0.897  14.887  0.9191  1.4792  1.1771
 7339SOL     OW33649   2.911   3.026   5.563 -0.3275  0.1135 -0.4579
 7339SOL    HW133650   2.815   3.019   5.563 -0.5551  3.0739 -0.4199
 7339SOL    HW233651   2.923   2.945   5.513  1.0377  2.9641 -4.7201
 7340SOL     OW33652   3.687   4.439   4.156  0.2760 -0.1467  0.5359
 7340SOL    HW133653   3.634   4.478   4.087  1.4278  1.7754  0.7159
 7340SOL    HW233654   3.712   4.516   4.207 -3.0608  0.7136  0.8436
 7341SOL     OW33655   2.860   3.971   7.439  0.0848 -0.5167  0.2508
 7341SOL    HW133656   2.783   4.020   7.467  0.6989  1.3799 -1.4186
 7341SOL    HW233657   2.894   3.935   7.521 -1.2170 -0.2041  0.9255
 7342SOL     OW33658   0.405   2.495  12.577  0.1923 -0.7615 -0.1372
 7342SOL    HW133659   0.461   2.441  12.632  0.3574  0.1197  0.5505
 7342SOL    HW233660   0.458   2.515  12.500  2.2047 -0.5748  1.2998
 7343SOL     OW33661   1.306   3.859   8.528  0.4453 -0.0424  0.4172
 7343SOL    HW133662   1.338   3.924   8.591  2.0392 -0.9911  0.5724
 7343SOL    HW233663   1.212   3.871   8.515  1.0689  1.7652 -2.2947
 7344SOL     OW33664   1.230   3.826   4.044  0.4605 -0.4422  0.6275
 7344SOL    HW133665   1.187   3.777   4.114 -0.2950  0.8507  1.0720
 7344SOL    HW233666   1.305   3.871   4.082  0.0734 -0.3625  1.3010
 7345SOL     OW33667   3.142   4.662   9.155 -0.1819 -0.0491  0.3348
 7345SOL    HW133668   3.096   0.010   9.168 -2.3552 -1.3855  1.2206
 7345SOL    HW233669   3.101   4.598   9.214 -1.4109  0.2791 -0.1460
 7346SOL     OW33670   2.510   0.120  10.482 -0.5118 -0.6790 -0.7179
 7346SOL    HW133671   2.414   0.127  10.482 -0.5347 -1.0130 -1.2011
 7346SOL    HW233672   2.541   0.197  10.436 -0.5271 -1.1121 -1.4572
 7347SOL     OW33673   2.454   2.803   5.475 -0.2166  0.2847  0.4181
 7347SOL    HW133674   2.460   2.879   5.417 -0.6329  0.4606  0.6039
 7347SOL    HW233675   2.473   2.728   5.419 -2.5352 -0.8829  1.1923
 7348SOL     OW33676   4.564   1.510   6.054 -0.3188  0.0678  0.4863
 7348SOL    HW133677   4.636   1.507   6.117 -0.5372 -1.9873  0.6502
 7348SOL    HW233678   4.622   1.491   5.980  0.6543  1.0663  0.9917
 7349SOL     OW33679   2.407   2.539   6.256  0.0191  0.3479  0.3495
 7349SOL    HW133680   2.364   2.608   6.205  1.9502  1.2549 -0.0621
 7349SOL    HW233681   2.497   2.572   6.256 -0.9275  2.8943  0.8467
 7350SOL     OW33682   2.609   1.700   6.111 -0.0513  0.2230  0.1350
 7350SOL    HW133683   2.663   1.709   6.033 -0.1743  0.0775  0.0325
 7350SOL    HW233684   2.530   1.731   6.067 -0.2423  0.0304  0.3474
 7351SOL     OW33685   1.757   0.668   3.927  0.7369 -0.1993  0.4200
 7351SOL    HW133686   1.702   0.631   3.997 -0.6519  4.3728  1.7491
 7351SOL    HW233687   1.777   0.590   3.875  1.9294  0.1119  0.4175
 7352SOL     OW33688   2.699   1.396   9.170  0.4392 -0.3117 -0.1081
 7352SOL    HW133689   2.610   1.425   9.190  0.0719 -0.9947 -0.7711
 7352SOL    HW233690   2.744   1.480   9.175  0.4995 -0.4594  1.8653
 7353SOL     OW33691   1.728   4.128   5.270  0.3078 -0.5208  0.0564
 7353SOL    HW133692   1.736   4.083   5.186 -2.0631 -1.2953  0.2515
 7353SOL    HW233693   1.787   4.203   5.260 -1.6491  0.8691 -1.1137
 7354SOL     OW33694   0.503   3.194   1.828 -0.0096 -0.1081 -0.2597
 7354SOL    HW133695   0.526   3.282   1.796 -0.2684  0.9719  2.5916
 7354SOL    HW233696   0.410   3.203   1.850 -0.2690 -0.5268 -1.1814
 7355SOL     OW33697   2.835   4.556   1.971  0.0394 -0.3304 -0.2629
 7355SOL    HW133698   2.748   4.525   1.995  0.0548 -0.9387 -0.9926
 7355SOL    HW233699   2.888   4.499   2.026 -0.8935 -0.9979 -0.0555
 7356SOL     OW33700   0.528   4.670  17.048  0.4652  0.9257 -0.1921
 7356SOL    HW133701   0.538   4.671  17.143  0.0915  0.1271 -0.1421
 7356SOL    HW233702   0.486   0.019  17.030 -0.4588  0.4817 -0.0728
 7357SOL     OW33703   4.009   0.227   6.685  0.3832  0.2267  0.7926
 7357SOL    HW133704   4.097   0.190   6.671  0.6861  1.1616  0.2345
 7357SOL    HW233705   4.013   0.255   6.776 -0.7745 -1.1818  1.2823
 7358SOL     OW33706   3.494   2.821   4.780  0.4319  0.2109  0.8087
 7358SOL    HW133707   3.562   2.760   4.809 -0.5194 -1.5305 -0.5877
 7358SOL    HW233708   3.494   2.801   4.686 -0.0165  1.5615  0.5269
 7359SOL     OW33709   0.515   0.925   5.868 -0.0096  0.0027 -0.8524
 7359SOL    HW133710   0.596   0.906   5.916  0.0568 -1.1357 -1.4121
 7359SOL    HW233711   0.457   0.877   5.927  0.1389 -0.9872 -1.5285
 7360SOL     OW33712   0.309   1.368   2.681  0.7595  0.4378 -0.0721
 7360SOL    HW133713   0.248   1.405   2.745 -0.2924  0.5136 -1.1338
 7360SOL    HW233714   0.320   1.283   2.724 -0.2403 -0.1712 -1.0533
 7361SOL     OW33715   0.431   3.053   8.304  0.0166 -0.2281  0.0922
 7361SOL    HW133716   0.454   3.010   8.222 -0.1049  0.8142 -0.4956
 7361SOL    HW233717   0.336   3.053   8.291 -0.0149  2.4163  0.1917
 7362SOL     OW33718   3.912   4.223   3.143 -0.1187  0.4897  0.0316
 7362SOL    HW133719   3.859   4.298   3.169  0.2639  0.3967  1.0437
 7362SOL    HW233720   4.002   4.257   3.139  0.5674 -1.3821 -0.3485
 7363SOL     OW33721   3.748   3.531   6.136  0.1537  0.1633 -0.0042
 7363SOL    HW133722   3.777   3.466   6.200  0.4448  0.5765  0.2832
 7363SOL    HW233723   3.685   3.575   6.194  0.4791 -0.3280  0.7223
 7364SOL     OW33724   3.190   0.801  10.064 -1.0110 -0.0753  0.0988
 7364SOL    HW133725   3.275   0.768  10.035 -1.2224 -1.6304  1.2787
 7364SOL    HW233726   3.137   0.800   9.984  0.5621 -1.4346 -0.9234
 7365SOL     OW33727   3.496   1.008  16.991  0.5276 -0.3669 -0.0801
 7365SOL    HW133728   3.582   0.992  16.952  0.7897 -0.9183  0.7261
 7365SOL    HW233729   3.470   0.920  17.019  2.7428 -1.9982 -3.1164
 7366SOL     OW33730   1.006   0.904   2.898  0.3688  0.1064  1.0165
 7366SOL    HW133731   0.912   0.904   2.913  0.4672  0.0726  1.6421
 7366SOL    HW233732   1.019   0.852   2.819  2.0262 -1.3765  2.2568
 7367SOL     OW33733   2.900   1.896   9.237 -0.3088 -0.4530 -0.2213
 7367SOL    HW133734   2.896   1.884   9.332 -0.5935 -0.6875 -0.2603
 7367SOL    HW233735   2.961   1.969   9.233  2.6307 -2.9427 -1.6457
 7368SOL     OW33736   3.776   3.779   8.277  0.3782  0.4579 -0.0009
 7368SOL    HW133737   3.838   3.846   8.304 -0.5693  1.5837 -0.5988
 7368SOL    HW233738   3.726   3.833   8.216  0.5430  0.5649 -0.0418
 7369SOL     OW33739   3.858   4.202  11.476  0.0625 -0.5876  0.1516
 7369SOL    HW133740   3.949   4.179  11.458  0.4663  0.8989  0.3114
 7369SOL    HW233741   3.809   4.167  11.402  1.1364  0.3040 -0.9709
 7370SOL     OW33742   1.477   4.032  14.307 -0.4521 -0.0244  0.7366
 7370SOL    HW133743   1.479   4.071  14.220 -0.6921  1.4516  1.3934
 7370SOL    HW233744   1.558   4.058  14.351 -0.3768  1.1818 -0.1147
 7371SOL     OW33745   1.454   4.463   2.495  0.7206 -0.2850 -0.1601
 7371SOL    HW133746   1.361   4.464   2.472  0.3491 -0.5495  1.3013
 7371SOL    HW233747   1.490   4.548   2.469 -0.7054  0.1164 -0.8319
 7372SOL     OW33748   2.003   2.986   2.848  0.3270 -0.2442  0.4430
 7372SOL    HW133749   2.079   2.960   2.795 -0.2586 -0.7614 -0.1410
 7372SOL    HW233750   1.943   3.026   2.785  0.5943  0.0209  0.3535
 7373SOL     OW33751   4.524   3.671   0.115  0.1455  0.0028  0.7822
 7373SOL    HW133752   4.539   3.594   0.168  0.1972 -1.5874 -1.5389
 7373SOL    HW233753   4.516   3.736   0.185  1.4857 -0.6430  1.5161
 7374SOL     OW33754   4.677   2.399   7.978  0.5689 -0.1768  0.1363
 7374SOL    HW133755   0.016   2.389   7.919 -1.6881  2.7359 -3.1750
 7374SOL    HW233756   4.710   2.367   8.062 -0.1087  1.9048  1.1967
 7375SOL     OW33757   3.961   3.359   3.141  0.4762 -0.1128  0.4919
 7375SOL    HW133758   3.902   3.286   3.123 -3.5263  2.9702  1.2459
 7375SOL    HW233759   4.025   3.321   3.201 -0.4234 -1.0300  0.8724
 7376SOL     OW33760   1.430   3.469   8.381  0.1746  0.0308  0.0902
 7376SOL    HW133761   1.412   3.536   8.315  1.9955 -1.1300 -1.5861
 7376SOL    HW233762   1.346   3.462   8.426 -0.4245  0.7849 -0.9132
 7377SOL     OW33763   4.154   4.377  16.502 -0.5184  0.3650 -0.6118
 7377SOL    HW133764   4.118   4.406  16.418 -0.4542 -0.1827 -0.8239
 7377SOL    HW233765   4.082   4.402  16.559 -1.0082 -0.9151 -0.6756
 7378SOL     OW33766   4.688   4.342   4.050  0.2740  0.1800 -0.4327
 7378SOL    HW133767   4.660   4.415   4.104  1.9999 -0.4927  1.3510
 7378SOL    HW233768   4.685   4.271   4.114  1.6434  1.6176  1.1911
 7379SOL     OW33769   4.353   1.861   7.306  0.0710 -0.0746  0.1885
 7379SOL    HW133770   4.289   1.930   7.288  0.7173  0.4309 -0.1755
 7379SOL    HW233771   4.344   1.847   7.400 -0.3151 -0.2391  0.1266
 7380SOL     OW33772   2.207   0.160  12.506  0.1864 -0.2598  0.1412
 7380SOL    HW133773   2.253   0.077  12.494 -0.8025 -1.0102  1.4651
 7380SOL    HW233774   2.243   0.203  12.584 -1.0964  2.6196 -0.8560
 7381SOL     OW33775   1.075   3.683   1.653  0.3053 -0.7838 -0.5818
 7381SOL    HW133776   1.152   3.678   1.709 -0.5979 -1.3856  0.5882
 7381SOL    HW233777   1.046   3.774   1.665 -1.1120 -0.9948 -2.3137
 7382SOL     OW33778   2.897   1.478  14.962  0.6813 -0.3177 -0.0660
 7382SOL    HW133779   2.927   1.487  15.052 -0.8099  0.6848  0.3273
 7382SOL    HW233780   2.821   1.534  14.974  1.5274  0.4262  1.6850
 7383SOL     OW33781   3.771   0.723  17.622  0.6518 -0.5270 -0.1229
 7383SOL    HW133782   3.689   0.766  17.598  0.6111 -1.2501 -1.2924
 7383SOL    HW233783   3.824   0.803  17.623  2.1485 -1.5188  1.2020
 7384SOL     OW33784   2.242   0.136  10.135  0.2138  0.4046 -0.2264
 7384SOL    HW133785   2.329   0.099  10.119  0.7219  0.9404  1.3281
 7384SOL    HW233786   2.190   0.056  10.120  0.8536  0.3869 -2.4169
 7385SOL     OW33787   4.636   0.800   5.466  0.5838  0.0240 -0.2825
 7385SOL    HW133788   4.681   0.871   5.420 -0.5961  1.1819  0.3487
 7385SOL    HW233789   4.547   0.835   5.469 -0.1281 -1.6933 -1.6930
 7386SOL     OW33790   4.026   2.351   3.619  0.3066  0.2640  0.1947
 7386SOL    HW133791   4.084   2.302   3.677  0.5571  0.8892  0.4763
 7386SOL    HW233792   4.008   2.431   3.669  2.1264  0.8576 -0.1131
 7387SOL     OW33793   2.456   2.133   5.646  0.2594 -0.0618 -0.4896
 7387SOL    HW133794   2.489   2.090   5.567  2.2783  0.3079  0.1568
 7387SOL    HW233795   2.525   2.110   5.708 -0.3396 -0.8853 -0.1149
 7388SOL     OW33796   4.449   0.094   2.311 -0.1665 -0.1399  0.1040
 7388SOL    HW133797   4.512   0.165   2.326 -1.0183  0.4872  0.6601
 7388SOL    HW233798   4.364   0.136   2.298 -0.8099 -1.4810 -0.0774
 7389SOL     OW33799   1.514   4.386   1.494  0.7125  0.1479 -0.0298
 7389SOL    HW133800   1.597   4.344   1.473  0.1947 -0.4755 -0.8119
 7389SOL    HW233801   1.537   4.479   1.494 -0.3756  0.4166  0.2043
 7390SOL     OW33802   1.228   4.543   2.343  0.3600  0.2933 -0.0721
 7390SOL    HW133803   1.174   4.480   2.295  0.7268  0.7361 -1.0402
 7390SOL    HW233804   1.249   4.611   2.280 -0.5725 -1.6674 -2.4749
 7391SOL     OW33805   0.448   0.313   0.471 -0.8109 -0.1391 -0.0529
 7391SOL    HW133806   0.527   0.262   0.490  1.0010  2.6561 -0.0986
 7391SOL    HW233807   0.483   0.370   0.402 -1.7326  1.4293  0.7777
 7392SOL     OW33808   3.290   1.245   2.733  0.1939 -0.0637  0.1042
 7392SOL    HW133809   3.242   1.326   2.753  0.0732 -0.7140  2.3758
 7392SOL    HW233810   3.217   1.191   2.702 -3.1293  4.2316  0.2862
 7393SOL     OW33811   1.119   0.451   4.898 -0.0425  0.3377  0.8395
 7393SOL    HW133812   1.060   0.515   4.938 -1.1423  0.9821 -1.8059
 7393SOL    HW233813   1.065   0.372   4.902 -0.6567  0.7612  0.9808
 7394SOL     OW33814   4.198   1.254   4.302 -0.0727 -0.1357 -0.4895
 7394SOL    HW133815   4.273   1.312   4.314 -1.5813  1.7165 -0.0667
 7394SOL    HW233816   4.197   1.236   4.208  1.4966  1.6017 -0.8380
 7395SOL     OW33817   1.638   2.072   1.506 -0.4553  0.4582 -0.2532
 7395SOL    HW133818   1.623   1.978   1.501  1.3818 -0.0242  2.9342
 7395SOL    HW233819   1.672   2.082   1.595 -0.0792  0.9304 -0.4519
 7396SOL     OW33820   1.613   2.220   6.389 -0.6407 -0.0809 -0.0541
 7396SOL    HW133821   1.632   2.187   6.477  0.6165  1.2871  0.1919
 7396SOL    HW233822   1.692   2.273   6.373 -1.9551  1.1678 -2.3902
 7397SOL     OW33823   3.798   1.320  11.528  0.0081  0.2937 -0.4031
 7397SOL    HW133824   3.731   1.252  11.532  2.1405 -1.8602 -0.6893
 7397SOL    HW233825   3.776   1.366  11.447 -0.5426  0.0731 -0.3749
 7398SOL     OW33826   4.047   4.529   5.300 -0.1992 -0.0834 -0.7783
 7398SOL    HW133827   3.959   4.514   5.266 -0.0220  0.2342 -1.3773
 7398SOL    HW233828   4.033   4.514   5.394 -0.2067  1.4990 -0.5253
 7399SOL     OW33829   0.418   4.456  14.303  0.0108  0.2726 -0.5739
 7399SOL    HW133830   0.475   4.402  14.249  0.6410  0.3389  0.0228
 7399SOL    HW233831   0.442   4.418  14.388  0.8664 -0.4406 -1.1437
 7400SOL     OW33832   3.173   3.139   5.458 -0.1347  0.4788 -0.4341
 7400SOL    HW133833   3.152   3.232   5.473 -3.3780  0.1286 -2.8249
 7400SOL    HW233834   3.092   3.097   5.487 -1.2491  0.9232 -2.9263
 7401SOL     OW33835   4.391   0.478  14.824  0.0149  0.5123  0.2017
 7401SOL    HW133836   4.347   0.465  14.908  2.1337  1.5476  1.4765
 7401SOL    HW233837   4.390   0.574  14.823  1.4799  0.5143 -0.7813
 7402SOL     OW33838   2.894   2.627   9.410  0.0535 -0.0647  0.3911
 7402SOL    HW133839   2.947   2.661   9.338  2.5868 -1.0925  1.7665
 7402SOL    HW233840   2.874   2.537   9.385  0.9612  0.3692 -1.9560
 7403SOL     OW33841   0.937   0.628   3.533  0.2977  0.1154 -0.4413
 7403SOL    HW133842   0.961   0.536   3.517 -0.2857 -0.2438  0.7991
 7403SOL    HW233843   0.843   0.612   3.533  0.2637  0.2962 -1.2177
 7404SOL     OW33844   4.120   2.984  16.918  0.0590  0.0177 -0.3442
 7404SOL    HW133845   4.143   2.912  16.977 -0.2574  1.4591  1.5345
 7404SOL    HW233846   4.200   3.036  16.911  0.2955 -0.3762 -0.6001
 7405SOL     OW33847   0.243   1.214  10.192  0.0049  0.2989 -0.0057
 7405SOL    HW133848   0.202   1.176  10.115  0.1927  0.9204 -0.4166
 7405SOL    HW233849   0.158   1.219  10.235  0.4929  2.2469  0.7287
 7406SOL     OW33850   4.035   0.129  13.546  0.0248  0.6540 -0.3483
 7406SOL    HW133851   3.947   0.093  13.540  0.1019  0.3254  0.6226
 7406SOL    HW233852   4.059   0.130  13.453  1.0805  1.0354 -0.0803
 7407SOL     OW33853   0.204   4.669  17.087 -0.2322  0.1760  0.2684
 7407SOL    HW133854   0.245   4.601  17.141  2.6079  0.1656 -1.8919
 7407SOL    HW233855   0.169   0.005  17.141 -0.6157 -0.3757  0.7439
 7408SOL     OW33856   0.314   1.236   7.428  0.2806  0.3757 -0.1718
 7408SOL    HW133857   0.393   1.287   7.412  2.2993 -2.7965 -0.3505
 7408SOL    HW233858   0.254   1.253   7.356  1.1779  0.7188 -0.8263
 7409SOL     OW33859   0.621   1.285   5.734  0.0847 -0.4438  0.0391
 7409SOL    HW133860   0.647   1.376   5.719 -1.0891 -0.2231 -0.6189
 7409SOL    HW233861   0.673   1.252   5.808 -0.2678  2.5182  1.6265
 7410SOL     OW33862   1.979   4.571   2.840  0.4662 -0.3703 -0.3488
 7410SOL    HW133863   2.060   4.554   2.792  0.2033  1.9693 -1.6052
 7410SOL    HW233864   1.989   4.532   2.927 -2.4790  0.8943  0.5424
 7411SOL     OW33865   1.759   3.091  13.948 -0.6201 -0.3403  0.3876
 7411SOL    HW133866   1.767   3.065  13.856 -3.6522 -1.7103  0.5301
 7411SOL    HW233867   1.665   3.105  13.954 -0.2895  2.0809 -0.0504
 7412SOL     OW33868   2.100   4.522  16.657 -0.1206  0.6219 -0.0821
 7412SOL    HW133869   2.011   4.491  16.646  0.0356  0.8932 -2.2386
 7412SOL    HW233870   2.091   4.590  16.590  2.0881 -0.1373 -1.1424
 7413SOL     OW33871   1.254   4.426  10.653  0.0682  0.6597 -0.6761
 7413SOL    HW133872   1.301   4.501  10.688  2.0130 -0.7127 -0.3608
 7413SOL    HW233873   1.318   4.355  10.651 -1.6486 -0.9401  0.8328
 7414SOL     OW33874   1.268   0.307   0.502  0.0165  0.0012  0.6013
 7414SOL    HW133875   1.281   0.401   0.489 -2.3249  0.2778  0.3932
 7414SOL    HW233876   1.175   0.294   0.489  0.0752  2.4911 -2.3635
 7415SOL     OW33877   1.911   0.025   6.086  0.1923  0.6127  0.3150
 7415SOL    HW133878   1.965   0.067   6.152  1.8009 -1.2015  0.1586
 7415SOL    HW233879   1.966   4.720   6.019  0.9932  1.8463  0.2397
 7416SOL     OW33880   4.315   3.575  17.523  0.2797 -0.5872 -0.7470
 7416SOL    HW133881   4.336   3.550  17.613  0.4389  1.1130 -0.3133
 7416SOL    HW233882   4.376   3.649  17.522 -0.8493  0.3551  0.1142
 7417SOL     OW33883   3.521   3.127   5.959  0.4510  0.1316 -0.6603
 7417SOL    HW133884   3.517   3.218   5.989 -0.2889  0.4827 -1.8586
 7417SOL    HW233885   3.499   3.147   5.869 -0.9681 -1.5945 -0.7030
 7418SOL     OW33886   0.075   0.059   7.444 -0.6834  0.0652  0.3926
 7418SOL    HW133887   0.141   0.084   7.379 -1.0091 -0.4643 -0.1391
 7418SOL    HW233888   0.052   4.711   7.402 -1.6147  0.8397 -0.5917
 7419SOL     OW33889   2.801   2.460   2.706 -0.1649 -0.2139 -0.3073
 7419SOL    HW133890   2.759   2.544   2.724 -1.1779 -0.6994 -0.4387
 7419SOL    HW233891   2.895   2.475   2.722 -0.3778 -0.4779  1.2047
 7420SOL     OW33892   2.183   1.610  13.385 -0.0496 -0.2886  0.2271
 7420SOL    HW133893   2.173   1.702  13.360 -3.5892 -1.2275 -1.8871
 7420SOL    HW233894   2.192   1.618  13.480  0.3690 -0.3897  0.1924
 7421SOL     OW33895   0.592   0.842   4.145 -0.0826  0.0435 -0.0693
 7421SOL    HW133896   0.536   0.863   4.071 -0.9035 -0.1703  0.4923
 7421SOL    HW233897   0.525   0.819   4.209  0.2085  0.7485  0.4868
 7422SOL     OW33898   4.591   0.298   3.931  0.1366  0.1567 -0.0831
 7422SOL    HW133899   4.534   0.347   3.990  1.5273  1.0529  0.5183
 7422SOL    HW233900   4.526   0.242   3.888  0.6804 -0.3009 -0.3102
 7423SOL     OW33901   1.255   3.811   2.263 -0.7919 -0.1377  0.4174
 7423SOL    HW133902   1.293   3.726   2.285 -0.2326 -0.6696 -2.6652
 7423SOL    HW233903   1.299   3.870   2.325 -0.0702  0.1074 -0.3415
 7424SOL     OW33904   3.353   4.397  17.586  0.6578  0.0298 -0.0165
 7424SOL    HW133905   3.378   4.321  17.638 -0.6008 -0.7516 -0.5387
 7424SOL    HW233906   3.367   4.477  17.637  1.4219 -0.6895  0.8930
 7425SOL     OW33907   0.896   4.554   4.692  0.1682 -0.0668 -0.0011
 7425SOL    HW133908   0.847   4.581   4.615 -1.0455 -2.5223 -0.0956
 7425SOL    HW233909   0.853   4.616   4.750  1.4243  2.2845 -1.6090
 7426SOL     OW33910   4.292   0.767  12.413 -0.2774  0.3878  0.1368
 7426SOL    HW133911   4.246   0.764  12.497 -0.5716  0.6745 -0.0138
 7426SOL    HW233912   4.336   0.850  12.429  0.8467 -0.0356 -0.7501
 7427SOL     OW33913   3.203   0.032  12.604  0.7523 -0.2011  0.0789
 7427SOL    HW133914   3.239   0.118  12.625  2.1479 -0.3339 -1.8372
 7427SOL    HW233915   3.274   4.719  12.563 -0.1120 -1.9026  0.5820
 7428SOL     OW33916   4.282   3.825   8.182 -0.2163  0.1019  0.2979
 7428SOL    HW133917   4.312   3.898   8.128  0.9258 -0.3518  0.3064
 7428SOL    HW233918   4.188   3.814   8.166 -0.5102  0.0850  2.0079
 7429SOL     OW33919   3.855   0.779   2.304 -0.2271 -0.4782  0.2430
 7429SOL    HW133920   3.836   0.872   2.306  1.9583 -0.0252  0.3801
 7429SOL    HW233921   3.847   0.753   2.212 -3.1744  1.1170  0.0692
 7430SOL     OW33922   4.372   0.402  11.495 -0.1124  0.4142 -0.3053
 7430SOL    HW133923   4.398   0.322  11.541  1.3397  1.2361  0.2819
 7430SOL    HW233924   4.279   0.418  11.512  0.0411  1.2658 -0.3041
 7431SOL     OW33925   3.523   2.952   4.269  0.4413 -0.3337 -0.2457
 7431SOL    HW133926   3.465   2.952   4.345 -0.4690  2.3382 -0.9135
 7431SOL    HW233927   3.569   2.868   4.274 -0.3450 -0.8238 -1.1647
 7432SOL     OW33928   3.739   1.188   4.352 -0.2517  0.6319 -0.0286
 7432SOL    HW133929   3.666   1.134   4.381 -0.1942  0.9868  0.7517
 7432SOL    HW233930   3.811   1.151   4.403 -0.4716  0.1364 -0.0774
 7433SOL     OW33931   2.919   0.172   2.152 -0.1446 -0.1186  0.0816
 7433SOL    HW133932   3.006   0.187   2.189  1.2143 -2.4776 -2.0984
 7433SOL    HW233933   2.869   0.230   2.209  0.7926  0.0281  0.7384
 7434SOL     OW33934   1.053   2.293   1.868  0.0407 -0.4465 -0.3126
 7434SOL    HW133935   1.026   2.202   1.875 -1.7097 -0.0377 -1.5057
 7434SOL    HW233936   1.148   2.285   1.871 -0.0107 -0.6534  0.6791
 7435SOL     OW33937   4.334   0.425   7.499  0.0388 -0.0070 -0.3155
 7435SOL    HW133938   4.324   0.330   7.495 -0.3432  0.0019  0.4189
 7435SOL    HW233939   4.390   0.443   7.423 -0.6517 -0.0131 -0.8283
 7436SOL     OW33940   4.386   2.873   7.836 -0.5546 -0.8498 -0.3334
 7436SOL    HW133941   4.406   2.841   7.748  0.7631 -0.5179 -0.1538
 7436SOL    HW233942   4.350   2.959   7.815 -1.6528 -1.2997 -0.2501
 7437SOL     OW33943   4.538   1.932   0.606  0.2008 -0.1338 -0.4496
 7437SOL    HW133944   4.557   2.007   0.550 -2.1539  0.9282  0.1496
 7437SOL    HW233945   4.539   1.856   0.548  1.1211 -1.2760  1.0903
 7438SOL     OW33946   3.068   2.566   9.209  0.1798 -0.2000 -0.0036
 7438SOL    HW133947   3.114   2.615   9.278 -0.1519 -1.0651  0.8409
 7438SOL    HW233948   3.108   2.480   9.219  0.4000 -0.0916  0.0481
 7439SOL     OW33949   3.757   1.539   8.403 -1.0176  0.4975 -0.3710
 7439SOL    HW133950   3.731   1.622   8.443  1.1544 -0.1748  2.4508
 7439SOL    HW233951   3.773   1.484   8.479 -1.3907  1.0882  0.1322
 7440SOL     OW33952   2.294   2.439   3.322  0.3306 -0.3688 -0.1455
 7440SOL    HW133953   2.354   2.450   3.248  0.7890 -1.9358 -0.0043
 7440SOL    HW233954   2.218   2.396   3.282 -0.4640  0.5721  0.3500
 7441SOL     OW33955   3.007   3.407   8.825  0.7795 -0.5236  0.4239
 7441SOL    HW133956   3.095   3.385   8.857  0.8889  0.3685  0.7272
 7441SOL    HW233957   2.969   3.319   8.818  0.9556 -0.5982  0.3999
 7442SOL     OW33958   4.433   2.207  11.775  0.4778  0.4395  0.2679
 7442SOL    HW133959   4.471   2.157  11.847 -0.2563  0.1808  0.4701
 7442SOL    HW233960   4.459   2.295  11.803  2.5343 -0.4755  1.3007
 7443SOL     OW33961   2.116   0.941  12.681 -0.0917  0.3146  0.6136
 7443SOL    HW133962   2.082   0.915  12.766 -2.9568  1.4307 -0.1817
 7443SOL    HW233963   2.055   1.013  12.664 -2.0512 -1.3020  0.7418
 7444SOL     OW33964   0.901   0.282   6.222 -0.1514 -0.0219 -0.0145
 7444SOL    HW133965   0.979   0.314   6.175 -0.8648  0.5532 -0.8176
 7444SOL    HW233966   0.914   0.331   6.303  0.4836  0.0088 -0.1362
 7445SOL     OW33967   2.655   4.008   9.145 -0.2674 -0.0821  0.3184
 7445SOL    HW133968   2.749   3.994   9.159 -0.0659  1.9302  1.0900
 7445SOL    HW233969   2.621   3.987   9.232  0.8808  0.2579  0.8455
 7446SOL     OW33970   3.357   0.621  17.479 -0.2704  0.1868  0.0905
 7446SOL    HW133971   3.389   0.711  17.484  1.9951 -0.6546  0.8752
 7446SOL    HW233972   3.383   0.593  17.567 -2.0422 -1.4578  0.0886
 7447SOL     OW33973   1.962   1.053   7.145 -0.7029 -0.3181  0.0881
 7447SOL    HW133974   1.890   1.069   7.206  0.4332  3.1483  0.4898
 7447SOL    HW233975   2.032   1.023   7.203  1.9613  2.4449 -1.7522
 7448SOL     OW33976   3.231   1.534   3.899  0.2508 -0.2313  0.8761
 7448SOL    HW133977   3.206   1.543   3.808  1.7930 -2.9057  0.1875
 7448SOL    HW233978   3.153   1.487   3.931  0.6315 -1.4353  0.0355
 7449SOL     OW33979   1.682   2.552   6.529  0.0349  0.1116 -0.4815
 7449SOL    HW133980   1.691   2.642   6.497 -0.6047  0.2124 -0.3714
 7449SOL    HW233981   1.719   2.500   6.458  1.8621  0.5374  0.1403
 7450SOL     OW33982   0.672   3.793   5.644  0.7551 -1.0394 -0.3192
 7450SOL    HW133983   0.581   3.767   5.630  0.3918 -0.2865  0.6472
 7450SOL    HW233984   0.668   3.853   5.719 -1.1644 -1.3228 -0.1968
 7451SOL     OW33985   4.704   2.965   4.407  0.6621 -0.5258 -0.3908
 7451SOL    HW133986   0.039   3.020   4.373  0.1208  1.0816  1.1181
 7451SOL    HW233987   4.689   2.999   4.495  3.1172 -0.9492  0.1879
 7452SOL     OW33988   0.769   4.097   3.346 -0.2162 -0.4906  0.2806
 7452SOL    HW133989   0.811   4.183   3.338 -1.0246 -0.2080 -0.9455
 7452SOL    HW233990   0.723   4.111   3.429 -2.3462  0.0528 -0.9936
 7453SOL     OW33991   1.718   0.644   7.201  0.1959  0.0025  0.4567
 7453SOL    HW133992   1.761   0.688   7.274  2.1318  1.3392 -1.4762
 7453SOL    HW233993   1.646   0.705   7.183  1.6027  1.6673  0.4327
 7454SOL     OW33994   2.180   2.844   9.716 -0.4783  0.3251 -0.5464
 7454SOL    HW133995   2.161   2.759   9.756 -1.2853  0.8811  0.2502
 7454SOL    HW233996   2.217   2.893   9.790 -0.4820 -0.3321 -0.1103
 7455SOL     OW33997   0.086   0.720   9.104  0.7453  0.4030 -0.0628
 7455SOL    HW133998   0.129   0.723   9.018 -0.7575 -1.3157 -0.8591
 7455SOL    HW233999   0.153   0.673   9.154 -0.3195  0.1350  1.1041
 7456SOL     OW34000   0.452   1.474   9.963 -0.6330  0.4890 -0.2000
 7456SOL    HW134001   0.398   1.401   9.933 -0.0680  0.4771 -1.2051
 7456SOL    HW234002   0.493   1.430  10.037  0.1364  1.7118  0.0971
 7457SOL     OW34003   0.348   1.026   2.741 -0.4112 -0.8313 -0.1818
 7457SOL    HW134004   0.294   0.957   2.702  0.3349 -1.1489 -0.6457
 7457SOL    HW234005   0.418   1.048   2.679 -1.3967 -0.6968 -1.2406
 7458SOL     OW34006   3.029   3.423   8.238 -0.1359 -0.0821  0.2735
 7458SOL    HW134007   2.971   3.398   8.310 -0.4079 -1.1395 -0.3184
 7458SOL    HW234008   3.019   3.518   8.247  2.4097  0.2720 -0.6955
 7459SOL     OW34009   3.552   1.326   5.128  0.0597  0.1559  0.2078
 7459SOL    HW134010   3.608   1.251   5.108  1.4586  0.9448  1.1797
 7459SOL    HW234011   3.494   1.293   5.197 -0.5024 -2.4791 -1.5617
 7460SOL     OW34012   3.272   0.515  13.885  0.3935 -0.2780 -0.0444
 7460SOL    HW134013   3.323   0.470  13.952  0.4544  0.7743  0.6213
 7460SOL    HW234014   3.341   0.562  13.838 -0.0524  0.5305  0.1166
 7461SOL     OW34015   2.503   3.506   9.053 -0.0704 -0.0359  0.6548
 7461SOL    HW134016   2.448   3.582   9.071 -1.3305 -0.8629  0.3046
 7461SOL    HW234017   2.588   3.551   9.056 -0.9516  1.4554  2.8727
 7462SOL     OW34018   1.107   2.918   8.143 -0.2981 -0.1231  0.2412
 7462SOL    HW134019   1.144   2.947   8.060  0.6278  0.6290  0.9293
 7462SOL    HW234020   1.091   3.001   8.189  0.3557 -0.1463  0.5074
 7463SOL     OW34021   1.632   2.892   3.450  0.7582  0.1765 -0.2154
 7463SOL    HW134022   1.550   2.929   3.482 -1.0533 -3.7614 -0.2313
 7463SOL    HW234023   1.634   2.921   3.358 -3.3875 -2.3145 -1.1133
 7464SOL     OW34024   1.326   3.312   8.135 -0.3413 -0.1440 -0.0722
 7464SOL    HW134025   1.259   3.298   8.068 -1.0590  0.0158  0.6115
 7464SOL    HW234026   1.376   3.383   8.094  0.7633 -1.0932 -0.3676
 7465SOL     OW34027   1.493   3.045   9.180 -0.0675 -0.4536  0.0452
 7465SOL    HW134028   1.425   3.050   9.247  0.2199 -2.6616  0.5115
 7465SOL    HW234029   1.471   3.134   9.154 -0.1610 -0.8511 -1.2758
 7466SOL     OW34030   0.128   1.841   6.227  0.0583  0.0377  0.3171
 7466SOL    HW134031   0.206   1.796   6.261  0.8394  1.3497  0.2239
 7466SOL    HW234032   0.063   1.771   6.242 -1.6469  1.2970 -1.3016
 7467SOL     OW34033   0.557   2.809  15.326 -0.2126 -0.0090 -0.4084
 7467SOL    HW134034   0.642   2.782  15.290  0.2471  0.0605  0.6213
 7467SOL    HW234035   0.604   2.880  15.371 -0.0117  0.6614 -1.6523
 7468SOL     OW34036   4.240   4.102   5.537 -0.0836 -0.0825 -0.4498
 7468SOL    HW134037   4.145   4.103   5.527 -0.2131  0.5544  0.8049
 7468SOL    HW234038   4.264   4.042   5.466  0.7967  1.3231 -1.3245
 7469SOL     OW34039   3.354   2.082   4.592 -0.7810 -0.4059  0.0111
 7469SOL    HW134040   3.341   2.175   4.610  0.5800  0.1208 -1.7922
 7469SOL    HW234041   3.270   2.043   4.569 -2.3606  3.2451 -0.2899
 7470SOL     OW34042   4.465   0.168  12.734 -0.0781  0.2732 -0.5656
 7470SOL    HW134043   4.541   0.156  12.677  0.7862 -1.0518  0.8515
 7470SOL    HW234044   4.465   0.257  12.770  1.4024 -0.8459  2.2577
 7471SOL     OW34045   1.839   1.460  12.161  0.6651  0.2921 -0.3084
 7471SOL    HW134046   1.840   1.548  12.198  1.2948 -0.2968  1.0753
 7471SOL    HW234047   1.763   1.462  12.103 -0.3376 -0.4452  0.9743
 7472SOL     OW34048   3.471   4.144  14.930  0.2340  0.1219  0.4869
 7472SOL    HW134049   3.496   4.200  15.003 -0.3090 -0.9302  1.4778
 7472SOL    HW234050   3.426   4.077  14.982 -2.8913  2.2039  0.5136
 7473SOL     OW34051   4.082   1.381   8.700 -0.5548  0.0499 -0.4411
 7473SOL    HW134052   4.060   1.308   8.642 -0.3244 -0.1714 -0.2476
 7473SOL    HW234053   4.052   1.340   8.781  2.8466 -1.0252  0.2652
 7474SOL     OW34054   0.195   3.774  17.407 -0.4137  0.5600  0.4769
 7474SOL    HW134055   0.108   3.789  17.371 -0.9374 -2.8545  0.3481
 7474SOL    HW234056   0.185   3.683  17.437  1.4091  0.0057 -0.5805
 7475SOL     OW34057   3.440   3.355   1.142  0.8539  0.0333 -0.1187
 7475SOL    HW134058   3.400   3.415   1.079 -2.1456 -1.0613  0.7538
 7475SOL    HW234059   3.378   3.357   1.215 -1.1906 -0.6315 -1.8560
 7476SOL     OW34060   2.890   1.514   8.106  0.0940  0.8418  0.1546
 7476SOL    HW134061   2.943   1.567   8.048 -1.1993  1.4819 -0.4283
 7476SOL    HW234062   2.925   1.537   8.192 -1.2315  0.5340  0.7739
 7477SOL     OW34063   2.739   3.306   3.393 -0.6072 -0.5402  0.0482
 7477SOL    HW134064   2.656   3.321   3.349 -0.5163 -0.4303 -0.0882
 7477SOL    HW234065   2.723   3.244   3.464 -2.4620 -0.2366 -0.1122
 7478SOL     OW34066   3.073   2.359  12.183  0.2515 -0.3401  0.1556
 7478SOL    HW134067   3.130   2.316  12.119 -0.6615 -4.8107  2.3235
 7478SOL    HW234068   3.043   2.284  12.235  0.4986 -0.5796 -0.0445
 7479SOL     OW34069   3.676   0.007   3.119  0.0901 -0.2241  0.3896
 7479SOL    HW134070   3.697   0.086   3.168  0.0821 -1.3095  2.1629
 7479SOL    HW234071   3.764   4.711   3.095  0.8425  2.1146  0.1319
 7480SOL     OW34072   3.729   0.485   2.253 -0.2743 -0.3987 -0.3248
 7480SOL    HW134073   3.744   0.505   2.346 -0.0561  0.0776 -0.4624
 7480SOL    HW234074   3.640   0.451   2.253 -0.2579 -0.4834  2.8792
 7481SOL     OW34075   3.029   3.561   1.998 -0.0223  0.3008  0.0599
 7481SOL    HW134076   2.946   3.542   1.956  0.4493 -1.5023 -0.0564
 7481SOL    HW234077   3.076   3.483   1.967 -0.1594 -0.1415  0.9579
 7482SOL     OW34078   1.335   3.602   4.467  0.1071 -0.1068 -0.5194
 7482SOL    HW134079   1.329   3.676   4.527 -2.2200  0.6105 -1.6135
 7482SOL    HW234080   1.404   3.550   4.508 -2.2934 -2.2316  0.8426
 7483SOL     OW34081   4.714   4.291   1.203 -0.0959 -0.4103 -0.4649
 7483SOL    HW134082   0.054   4.347   1.180  1.1421 -1.7353  0.3136
 7483SOL    HW234083   0.024   4.208   1.216 -2.8558 -1.8739 -0.3321
 7484SOL     OW34084   1.933   1.632   4.089 -0.1630  0.0813 -0.0376
 7484SOL    HW134085   1.944   1.724   4.113  1.9280 -0.5023  1.2014
 7484SOL    HW234086   1.842   1.620   4.117  0.5361  0.4284  2.3446
 7485SOL     OW34087   3.675   2.489   2.529  0.8073  0.2453 -0.5640
 7485SOL    HW134088   3.708   2.571   2.491 -0.9285  0.6562 -1.1547
 7485SOL    HW234089   3.680   2.432   2.452  1.3442  2.1351 -1.9635
 7486SOL     OW34090   2.904   0.969   8.203 -0.2976  0.3581 -0.8982
 7486SOL    HW134091   2.890   1.024   8.280 -0.5203  1.6029 -1.8298
 7486SOL    HW234092   2.964   1.035   8.169  0.3580  0.0535 -0.3212
 7487SOL     OW34093   2.859   0.222   6.731 -0.3737  0.3859  0.3852
 7487SOL    HW134094   2.787   0.261   6.682 -0.4636  0.3058  0.4544
 7487SOL    HW234095   2.910   0.300   6.755 -2.2857  1.2263  1.6887
 7488SOL     OW34096   4.714   0.789  10.812 -0.4892  0.5691 -0.0161
 7488SOL    HW134097   0.040   0.810  10.882  0.3643  0.8788 -0.8494
 7488SOL    HW234098   0.010   0.856  10.751  2.1594 -0.9748 -0.4131
 7489SOL     OW34099   3.911   2.533   2.837 -0.3158  0.2140  0.2784
 7489SOL    HW134100   3.958   2.498   2.761  1.9944 -1.2530  2.3981
 7489SOL    HW234101   3.900   2.452   2.887 -1.2628 -0.7748 -1.5381
 7490SOL     OW34102   3.947   2.885   7.053 -0.4872 -0.3138  0.6077
 7490SOL    HW134103   3.939   2.789   7.051 -1.0432 -0.2317 -1.3380
 7490SOL    HW234104   3.872   2.913   7.104 -1.1237 -0.8995  0.0051
 7491SOL     OW34105   4.667   3.969   7.173 -0.2575 -0.7585  0.2481
 7491SOL    HW134106   4.574   3.983   7.157 -0.4551 -2.2837  0.0686
 7491SOL    HW234107   4.686   3.887   7.128 -0.1892 -0.7315  0.2276
 7492SOL     OW34108   1.870   3.216  16.129 -0.2612 -0.2703 -0.2248
 7492SOL    HW134109   1.949   3.264  16.153  0.6518 -1.1864 -1.3967
 7492SOL    HW234110   1.888   3.200  16.036 -0.1499  0.9571 -0.4108
 7493SOL     OW34111   0.402   1.622   0.517  0.6784 -0.1552  0.0661
 7493SOL    HW134112   0.449   1.542   0.496 -2.2983 -1.7327 -0.5832
 7493SOL    HW234113   0.346   1.596   0.591 -0.1623 -0.8676 -0.8178
 7494SOL     OW34114   1.710   3.452  17.180  0.2428  0.6108  0.0633
 7494SOL    HW134115   1.769   3.502  17.123 -0.7084  0.1406 -1.3251
 7494SOL    HW234116   1.747   3.364  17.179 -0.8039  0.1824 -0.2460
 7495SOL     OW34117   1.561   1.802   9.699 -0.0572 -0.0725 -0.2467
 7495SOL    HW134118   1.545   1.884   9.745  1.9489  0.0232  0.2862
 7495SOL    HW234119   1.541   1.733   9.762 -3.3659  0.3558 -0.8357
 7496SOL     OW34120   2.636   3.854  10.949 -0.8461 -0.2853 -0.1425
 7496SOL    HW134121   2.610   3.907  11.025  0.0163  0.5268 -0.4098
 7496SOL    HW234122   2.601   3.911  10.880 -2.0658  1.1947  1.6538
 7497SOL     OW34123   3.457   3.658   5.992 -0.5302  0.2859  0.1036
 7497SOL    HW134124   3.393   3.702   6.047  0.5925 -0.7688  2.2432
 7497SOL    HW234125   3.540   3.677   6.035 -1.9244  1.8567  2.0682
 7498SOL     OW34126   0.242   4.308   6.516 -0.4925  0.0567  0.0655
 7498SOL    HW134127   0.189   4.379   6.480  0.9187  1.1842  0.2163
 7498SOL    HW234128   0.173   4.251   6.550 -0.0774 -1.2522 -1.2744
 7499SOL     OW34129   4.358   4.202   6.780  0.3748  0.3660  0.5612
 7499SOL    HW134130   4.321   4.289   6.762 -0.4408  0.0608  0.7976
 7499SOL    HW234131   4.281   4.163   6.820  0.5822  0.8456  1.4135
 7500SOL     OW34132   4.521   4.190   0.142  0.2790 -0.3175  0.2144
 7500SOL    HW134133   4.579   4.256   0.182  0.1222 -0.6341  0.9668
 7500SOL    HW234134   4.576   4.113   0.157  2.0711  0.7534 -0.7745
 7501SOL     OW34135   4.090   4.397   8.974 -0.0204 -0.5606  0.2750
 7501SOL    HW134136   4.101   4.375   9.067 -0.3889  0.0198  0.4567
 7501SOL    HW234137   4.172   4.444   8.961 -0.6631  0.2099 -0.9657
 7502SOL     OW34138   3.367   3.926  16.236  0.1813  0.4722  0.1180
 7502SOL    HW134139   3.345   3.947  16.327  0.6646  0.1698  0.3056
 7502SOL    HW234140   3.293   3.970  16.194 -0.3542 -0.4456  0.0980
 7503SOL     OW34141   3.116   1.301   9.638 -0.0516 -0.1905 -0.1012
 7503SOL    HW134142   3.064   1.374   9.604 -0.5637 -0.6854 -0.3897
 7503SOL    HW234143   3.116   1.245   9.560  2.1440  1.1739 -1.0732
 7504SOL     OW34144   3.119   4.122   0.289 -0.7118  0.6209  0.4176
 7504SOL    HW134145   3.028   4.118   0.318 -0.6918  0.5218  0.4677
 7504SOL    HW234146   3.111   4.121   0.194  1.7838 -1.5678  0.1939
 7505SOL     OW34147   1.328   2.518   4.282 -0.0359 -0.4991 -0.2399
 7505SOL    HW134148   1.318   2.442   4.339 -1.0586  0.4512  0.8496
 7505SOL    HW234149   1.234   2.535   4.275 -0.1181  0.9727  4.3836
 7506SOL     OW34150   4.261   2.677   2.831 -0.6175  0.8641 -0.2750
 7506SOL    HW134151   4.347   2.652   2.864 -0.2700 -1.3156 -2.7921
 7506SOL    HW234152   4.201   2.680   2.905 -0.4199 -0.1292 -0.0743
 7507SOL     OW34153   1.335   2.128   3.733  0.5850 -0.1310  0.5133
 7507SOL    HW134154   1.405   2.192   3.730  1.0190 -0.6714 -0.9738
 7507SOL    HW234155   1.385   2.049   3.755  0.9057 -0.2078 -0.5088
 7508SOL     OW34156   0.737   0.225   3.407 -0.0066  0.2027 -0.2040
 7508SOL    HW134157   0.819   0.204   3.451 -0.3838 -1.0220 -0.0965
 7508SOL    HW234158   0.676   0.174   3.460 -1.3734  1.9337 -0.0955
 7509SOL     OW34159   1.278   2.414   2.185  0.1853  0.6885 -0.4881
 7509SOL    HW134160   1.309   2.486   2.130 -0.0033  0.7591 -0.5020
 7509SOL    HW234161   1.257   2.469   2.260 -0.2558 -0.9814  0.6082
 7510SOL     OW34162   3.310   0.229   6.156  0.4775  0.0293 -0.0632
 7510SOL    HW134163   3.290   0.151   6.208 -2.0048 -0.5449 -1.8660
 7510SOL    HW234164   3.254   0.210   6.081 -1.9226 -0.3009  1.8143
 7511SOL     OW34165   3.749   2.032   0.451  0.0527 -0.1143  0.3268
 7511SOL    HW134166   3.701   2.105   0.412 -1.4793  0.2236  2.8293
 7511SOL    HW234167   3.673   1.984   0.484  0.9753 -2.8434 -1.5466
 7512SOL     OW34168   3.681   3.539   5.168 -0.0906 -0.0400  0.0956
 7512SOL    HW134169   3.724   3.461   5.204  1.0805  0.3292 -0.4949
 7512SOL    HW234170   3.754   3.599   5.182 -1.6022  2.0197 -0.8263
 7513SOL     OW34171   1.657   3.040  13.099  0.5845  0.6425 -0.2527
 7513SOL    HW134172   1.652   3.075  13.010  1.8141  0.7151 -0.2986
 7513SOL    HW234173   1.727   2.976  13.089 -1.8123 -2.0311 -0.0021
 7514SOL     OW34174   1.536   4.722  11.018  0.0456  0.1283  0.3611
 7514SOL    HW134175   1.572   4.713  11.106 -0.8122  1.7946  0.8712
 7514SOL    HW234176   1.589   0.058  10.982  2.6061 -2.1796 -0.4240
 7515SOL     OW34177   0.888   3.545   3.937  0.2039  0.7686 -0.1964
 7515SOL    HW134178   0.848   3.626   3.969 -0.6562  0.3557 -0.2192
 7515SOL    HW234179   0.946   3.577   3.868 -1.8144  1.3450 -1.6132
 7516SOL     OW34180   3.306   3.881   7.680  0.5319 -0.5816  0.1693
 7516SOL    HW134181   3.256   3.959   7.657  0.8348 -0.1150  1.0823
 7516SOL    HW234182   3.361   3.917   7.750  1.2165  0.7066 -1.0338
 7517SOL     OW34183   4.050   2.572   6.237  0.5254 -0.2658  0.5236
 7517SOL    HW134184   3.977   2.612   6.190  1.8090  1.3880 -0.0827
 7517SOL    HW234185   4.113   2.644   6.242  1.4102 -1.0576  0.6974
 7518SOL     OW34186   2.460   1.981   1.161  0.0417  0.1703 -0.3381
 7518SOL    HW134187   2.471   2.023   1.075 -0.0981  3.2260  1.1349
 7518SOL    HW234188   2.390   2.036   1.197 -0.9491 -0.7166 -0.8786
 7519SOL     OW34189   4.481   0.438   8.043 -0.3867  0.0525  0.2806
 7519SOL    HW134190   4.425   0.361   8.059 -0.5175 -0.1358 -1.0558
 7519SOL    HW234191   4.565   0.393   8.033 -0.0297  0.7839  0.0537
 7520SOL     OW34192   1.524   4.451  17.385 -0.3511  0.3924 -0.4048
 7520SOL    HW134193   1.561   4.496  17.309 -2.3090  1.3973 -0.7736
 7520SOL    HW234194   1.429   4.455  17.373 -0.0668  0.2803 -2.7179
 7521SOL     OW34195   0.561   2.310  12.701 -0.0037 -0.0290  0.5976
 7521SOL    HW134196   0.652   2.280  12.705  0.1256  0.4303  0.9935
 7521SOL    HW234197   0.508   2.236  12.731  1.6714 -2.4256 -2.2677
 7522SOL     OW34198   0.136   2.820   7.188  0.5059 -0.4293 -0.2380
 7522SOL    HW134199   0.178   2.786   7.267 -1.5602 -2.2187  0.0821
 7522SOL    HW234200   0.083   2.884   7.235  1.3339  0.4836 -0.5486
 7523SOL     OW34201   4.191   2.772   8.959  0.2044 -0.5570  0.7424
 7523SOL    HW134202   4.126   2.831   8.921  0.3051 -2.5950 -2.5704
 7523SOL    HW234203   4.153   2.759   9.046  0.6360 -1.1438  0.8399
 7524SOL     OW34204   1.942   1.461  10.936  0.8248 -0.1933  0.3382
 7524SOL    HW134205   1.990   1.407  10.999  1.0429 -0.7897 -0.3385
 7524SOL    HW234206   1.959   1.550  10.966 -1.7421  0.2541  0.4347
 7525SOL     OW34207   1.326   4.042  13.747 -0.8465 -0.3645 -0.2192
 7525SOL    HW134208   1.422   4.045  13.736 -0.6156  2.1627  2.5925
 7525SOL    HW234209   1.305   3.967  13.803 -0.0554 -1.6609 -1.6570
 7526SOL     OW34210   4.642   0.459  14.118 -0.1072 -0.2442 -0.1026
 7526SOL    HW134211   4.562   0.511  14.113  0.7924  0.9244 -2.4016
 7526SOL    HW234212   4.661   0.473  14.210  0.3625 -2.0553  0.0778
 7527SOL     OW34213   0.495   1.911  15.930 -0.0064  0.4085 -0.1263
 7527SOL    HW134214   0.464   1.985  15.982  0.5365 -0.0891  0.9122
 7527SOL    HW234215   0.419   1.876  15.883 -0.1287 -2.7593  2.4323
 7528SOL     OW34216   4.201   3.218  14.718 -0.3186  0.0384 -0.3563
 7528SOL    HW134217   4.282   3.268  14.732  0.6013 -2.0588  1.8864
 7528SOL    HW234218   4.203   3.204  14.623  0.9077 -1.7929 -0.0794
 7529SOL     OW34219   0.770   2.661   1.645 -0.3507  0.0371 -0.1120
 7529SOL    HW134220   0.842   2.647   1.705  1.7498 -0.5750 -2.7656
 7529SOL    HW234221   0.790   2.754   1.631  0.4585 -0.3534 -1.5135
 7530SOL     OW34222   1.129   4.485   5.266 -0.2041 -0.0495 -0.5023
 7530SOL    HW134223   1.162   4.455   5.181  0.9824 -0.9301  0.2642
 7530SOL    HW234224   1.112   4.399   5.302 -4.2156  0.1449 -1.9708
 7531SOL     OW34225   4.446   0.818  15.706 -0.0345  0.5143 -0.1433
 7531SOL    HW134226   4.541   0.804  15.714 -0.1832  0.6302  1.8459
 7531SOL    HW234227   4.395   0.752  15.752 -0.2768 -0.0716 -1.2570
 7532SOL     OW34228   3.504   0.521   6.475 -0.1308 -0.3284 -0.3165
 7532SOL    HW134229   3.459   0.544   6.557 -1.9495 -0.4758 -1.2912
 7532SOL    HW234230   3.523   0.430   6.499  0.1939 -0.5717 -1.4966
 7533SOL     OW34231   4.432   0.417   2.984 -0.0808  0.5082 -0.7092
 7533SOL    HW134232   4.466   0.329   2.998 -2.1091  0.0230  1.2802
 7533SOL    HW234233   4.463   0.458   3.065 -1.0633  0.9195 -0.5413
 7534SOL     OW34234   1.654   4.363   6.620  0.5393  0.2253 -0.1697
 7534SOL    HW134235   1.675   4.274   6.647  0.6247  0.4876  0.6147
 7534SOL    HW234236   1.739   4.403   6.641  0.2421  1.0908 -0.5819
 7535SOL     OW34237   0.573   0.652   7.743 -0.2309 -0.2032  0.4739
 7535SOL    HW134238   0.496   0.653   7.799 -0.8180  2.1329 -0.3712
 7535SOL    HW234239   0.636   0.629   7.812 -0.5090  0.3342  0.9071
 7536SOL     OW34240   0.149   4.242  11.953  0.2770  0.0290 -0.1525
 7536SOL    HW134241   0.187   4.223  11.868 -1.3049  2.2276 -1.3494
 7536SOL    HW234242   0.159   4.336  11.943  0.1181  0.4749  3.8711
 7537SOL     OW34243   3.439   3.685   7.970  0.2675  0.0865 -0.6503
 7537SOL    HW134244   3.426   3.688   7.875  0.1054 -2.1541 -0.6934
 7537SOL    HW234245   3.419   3.592   7.983  0.0559 -0.1443 -2.6382
 7538SOL     OW34246   0.294   2.907   6.449  0.2340  0.0550 -0.1850
 7538SOL    HW134247   0.301   2.812   6.459  0.3784  0.0714 -0.1364
 7538SOL    HW234248   0.209   2.931   6.488 -0.2870  3.1645 -3.2698
 7539SOL     OW34249   2.347   2.814   6.976  0.0259 -0.2278  0.3790
 7539SOL    HW134250   2.388   2.812   7.063  0.2340 -0.7904  0.2657
 7539SOL    HW234251   2.397   2.886   6.938 -0.4163 -0.9214 -1.5013
 7540SOL     OW34252   3.273   3.985   5.814  0.2750 -0.5901 -0.4983
 7540SOL    HW134253   3.265   3.891   5.797 -0.7561 -0.4562 -0.7283
 7540SOL    HW234254   3.255   4.020   5.727  0.6397 -0.4417 -0.5150
 7541SOL     OW34255   2.079   3.989   3.465 -0.5117 -0.5152  0.0092
 7541SOL    HW134256   2.035   4.050   3.405  0.3083  0.8964  0.8439
 7541SOL    HW234257   2.144   3.950   3.407 -0.4788 -1.7463  0.8690
 7542SOL     OW34258   1.898   1.299   9.874  0.0588 -0.1365 -0.0227
 7542SOL    HW134259   1.839   1.361   9.832  0.4054  1.1956  1.4269
 7542SOL    HW234260   1.901   1.228   9.811  0.7717 -0.1678  0.0419
 7543SOL     OW34261   0.746   2.697  15.171 -0.0599  0.1555  0.4425
 7543SOL    HW134262   0.783   2.769  15.121  0.2812 -1.9228 -2.3305
 7543SOL    HW234263   0.675   2.670  15.113  1.5649  0.4162 -1.6699
 7544SOL     OW34264   2.762   2.507   3.482 -0.4515  0.0856  0.3943
 7544SOL    HW134265   2.673   2.521   3.516 -0.6307 -1.4850  0.5578
 7544SOL    HW234266   2.781   2.599   3.464 -1.5919  0.0961 -0.7445
 7545SOL     OW34267   4.703   2.860   9.186 -0.0165  0.3178 -0.1714
 7545SOL    HW134268   4.712   2.956   9.183 -2.1642  0.5636  1.2383
 7545SOL    HW234269   4.609   2.856   9.167  0.1033 -0.0282 -0.6888
 7546SOL     OW34270   3.593   0.174   4.043 -0.5064  0.4692  0.4434
 7546SOL    HW134271   3.621   0.259   4.078  3.6408  0.0133 -1.7280
 7546SOL    HW234272   3.584   0.131   4.128 -0.6126  4.3520  2.3962
 7547SOL     OW34273   4.316   4.141   3.017 -0.0674  0.2006 -0.0158
 7547SOL    HW134274   4.396   4.192   3.009 -0.0268 -0.4184 -3.6765
 7547SOL    HW234275   4.256   4.201   3.061  0.2542 -0.9695  2.0041
 7548SOL     OW34276   3.492   4.331  12.321 -0.2870 -0.0660 -0.1624
 7548SOL    HW134277   3.403   4.365  12.323 -1.3892 -2.9813  0.0076
 7548SOL    HW234278   3.486   4.238  12.301  2.4332 -0.2756 -0.1057
 7549SOL     OW34279   0.182   0.563   6.298  0.0412  0.3742  0.8100
 7549SOL    HW134280   0.114   0.504   6.330  0.6037 -0.4719  0.4511
 7549SOL    HW234281   0.206   0.526   6.213 -0.0610 -0.1720  1.0170
 7550SOL     OW34282   1.892   0.261   8.071  0.0376 -0.4295  0.6029
 7550SOL    HW134283   1.960   0.254   8.138  0.9536  0.3160 -0.2480
 7550SOL    HW234284   1.850   0.344   8.097  3.6698  2.4605 -2.7840
 7551SOL     OW34285   3.367   0.596   4.026 -0.3291 -0.0516  0.5948
 7551SOL    HW134286   3.383   0.582   4.119 -0.5437 -0.0151  0.6366
 7551SOL    HW234287   3.359   0.505   3.997 -0.2678  0.6874 -1.7011
 7552SOL     OW34288   4.599   0.725   2.684  0.4327 -0.2588  0.8092
 7552SOL    HW134289   4.535   0.768   2.741  0.1087  2.1578 -1.3320
 7552SOL    HW234290   4.541   0.691   2.616 -0.1422  0.4910  0.9243
 7553SOL     OW34291   0.749   2.146   8.972 -0.5793 -0.4062 -0.8385
 7553SOL    HW134292   0.750   2.204   8.896  0.5463 -2.3961 -2.3308
 7553SOL    HW234293   0.843   2.135   8.988 -0.6282  1.7020  0.9070
 7554SOL     OW34294   3.461   1.878   1.474  0.5353  0.0050  0.0634
 7554SOL    HW134295   3.371   1.849   1.460  0.3300  0.1718  1.0641
 7554SOL    HW234296   3.456   1.907   1.565  3.0055 -0.9136  0.4719
 7555SOL     OW34297   4.536   0.076   8.832 -0.3231  0.8620  0.2925
 7555SOL    HW134298   4.452   0.043   8.802 -0.0529  0.3837  0.0713
 7555SOL    HW234299   4.535   0.075   8.928  1.3174  0.1055  0.2945
 7556SOL     OW34300   3.986   0.375   2.170  0.3693  0.0871 -0.6449
 7556SOL    HW134301   3.968   0.315   2.098  2.0023 -1.7580  0.4927
 7556SOL    HW234302   3.894   0.391   2.191  0.6836  1.4895 -0.3500
 7557SOL     OW34303   2.629   0.206  13.595 -0.1570 -0.4878  0.4562
 7557SOL    HW134304   2.539   0.189  13.621 -1.3313  0.7239 -2.8033
 7557SOL    HW234305   2.642   0.289  13.641 -1.2243  0.2432 -0.5678
 7558SOL     OW34306   2.224   3.461   1.195 -0.0292  0.0470 -0.0366
 7558SOL    HW134307   2.280   3.432   1.267  0.1228  0.2287 -0.0813
 7558SOL    HW234308   2.242   3.388   1.136 -0.7984  2.0502 -2.7402
 7559SOL     OW34309   4.333   3.599   1.580  0.1077  0.3599 -0.1329
 7559SOL    HW134310   4.368   3.561   1.661 -1.4794  0.6431  0.7014
 7559SOL    HW234311   4.238   3.587   1.587 -0.0625  2.8075  2.1892
 7560SOL     OW34312   2.387   3.528  16.498  0.3558  0.0806 -0.0738
 7560SOL    HW134313   2.440   3.597  16.539  0.3089  0.8830 -1.3558
 7560SOL    HW234314   2.444   3.453  16.486  0.8184  0.0845  2.0736
 7561SOL     OW34315   2.400   1.305  10.369 -0.3044 -0.4166  0.1540
 7561SOL    HW134316   2.459   1.379  10.353 -0.3782 -0.5096 -0.5419
 7561SOL    HW234317   2.358   1.304  10.283 -1.7302 -0.5293  0.8496
 7562SOL     OW34318   2.190   0.205   7.109 -0.3326 -0.0002  0.2111
 7562SOL    HW134319   2.131   0.174   7.040 -0.4668  0.0388  0.3083
 7562SOL    HW234320   2.251   0.132   7.120 -0.2348 -0.3910 -2.9108
 7563SOL     OW34321   0.088   1.709  10.090 -0.2912 -0.2104 -0.4975
 7563SOL    HW134322   0.014   1.767  10.070  1.3723  1.9739 -0.3700
 7563SOL    HW234323   0.058   1.638  10.035 -2.2655 -0.5947  1.0609
 7564SOL     OW34324   3.990   2.113  13.575  0.2191 -0.4380  0.0896
 7564SOL    HW134325   4.009   2.206  13.559  1.4197 -0.8241 -0.6392
 7564SOL    HW234326   3.913   2.118  13.632 -1.1564 -1.2683 -1.7173
 7565SOL     OW34327   4.188   3.908   2.234 -0.5725  0.1578 -0.0813
 7565SOL    HW134328   4.209   3.819   2.261  0.4212 -0.2940 -2.3641
 7565SOL    HW234329   4.170   3.949   2.319  1.5607 -3.2651  2.0201
 7566SOL     OW34330   0.115   3.726   6.152 -0.1012  0.0206  0.3046
 7566SOL    HW134331   0.180   3.754   6.087  0.3406  0.1217  0.7873
 7566SOL    HW234332   0.154   3.640   6.168 -0.5004  0.4116  3.4907
 7567SOL     OW34333   1.959   1.005   8.270  0.2309  0.2994 -0.3400
 7567SOL    HW134334   2.043   0.971   8.301 -0.6640 -2.4802 -0.9658
 7567SOL    HW234335   1.908   0.999   8.350 -0.1943 -3.2056 -0.8772
 7568SOL     OW34336   0.959   3.590   7.200  0.1185 -0.6307  0.0116
 7568SOL    HW134337   0.898   3.640   7.253  1.3865  0.2899  0.5889
 7568SOL    HW234338   0.989   3.646   7.128  0.1166 -1.4159 -0.6035
 7569SOL     OW34339   1.396   4.212   5.886 -0.5372  0.0779 -0.1002
 7569SOL    HW134340   1.393   4.185   5.978 -1.0958  0.1695 -0.0933
 7569SOL    HW234341   1.389   4.307   5.882  0.3096  0.0953 -1.3728
 7570SOL     OW34342   2.082   2.506   5.428  0.3285  0.2786 -0.6051
 7570SOL    HW134343   1.996   2.471   5.450  0.9515 -0.1130  1.2848
 7570SOL    HW234344   2.079   2.593   5.467  2.3392  0.3660 -0.6168
 7571SOL     OW34345   0.372   2.996   3.037  0.1981  0.7537 -0.4930
 7571SOL    HW134346   0.417   3.063   2.986  1.4881 -0.3583 -0.7882
 7571SOL    HW234347   0.435   2.932   3.069  0.9432  0.7294 -2.0341
 7572SOL     OW34348   1.390   2.195   8.276 -0.5700  0.2955  0.1835
 7572SOL    HW134349   1.299   2.222   8.265 -0.1446  1.4857 -0.4547
 7572SOL    HW234350   1.403   2.180   8.369 -0.3060  2.8421  0.5431
 7573SOL     OW34351   4.526   3.045   2.022 -0.1129  0.4613 -0.2963
 7573SOL    HW134352   4.439   3.033   2.060 -0.1486  2.8224  0.3825
 7573SOL    HW234353   4.574   2.969   2.057 -1.4143 -0.5141 -0.6368
 7574SOL     OW34354   3.657   2.426   7.326  0.2073 -0.1369  0.1151
 7574SOL    HW134355   3.678   2.489   7.394 -1.5026  0.8463 -0.2509
 7574SOL    HW234356   3.727   2.364   7.343 -0.0900 -0.2391  0.9627
 7575SOL     OW34357   2.908   2.743   7.064  0.7392  0.1777 -0.4745
 7575SOL    HW134358   3.002   2.723   7.065  0.7212  0.1024  0.3357
 7575SOL    HW234359   2.872   2.674   7.120  2.2836 -1.1891 -1.1783
 7576SOL     OW34360   4.304   0.304   6.227 -0.3278  0.1596  0.0479
 7576SOL    HW134361   4.386   0.343   6.196 -0.3184  0.8655  0.9782
 7576SOL    HW234362   4.313   0.320   6.321  1.3522  1.4480 -0.3330
 7577SOL     OW34363   3.069   0.597   4.269 -0.0161  0.3032  0.1903
 7577SOL    HW134364   2.988   0.647   4.276  1.3511  2.5347  0.1053
 7577SOL    HW234365   3.053   0.527   4.205 -0.7346  0.5707  0.0764
 7578SOL     OW34366   3.902   4.570   9.261 -0.2257  0.3308  0.2362
 7578SOL    HW134367   3.964   4.593   9.192 -0.6767  4.1515  1.0834
 7578SOL    HW234368   3.962   4.506   9.301 -1.0825 -1.4585 -1.3526
 7579SOL     OW34369   3.544   1.736   0.113 -0.3095 -0.1935  0.3910
 7579SOL    HW134370   3.587   1.797   0.173  1.6588 -0.2183 -1.0223
 7579SOL    HW234371   3.612   1.669   0.107  1.2997  1.3055  1.7874
 7580SOL     OW34372   3.913   4.442  16.649 -0.0981  0.4561  0.2955
 7580SOL    HW134373   3.864   4.370  16.689  1.5883 -0.7153  0.2424
 7580SOL    HW234374   3.861   4.517  16.678 -2.4138 -0.6245 -1.0161
 7581SOL     OW34375   3.720   1.293   9.145  0.4535  0.0179 -0.0324
 7581SOL    HW134376   3.703   1.381   9.110 -3.1287 -0.4704  0.5358
 7581SOL    HW234377   3.772   1.317   9.221  0.1477 -2.9258  1.0708
 7582SOL     OW34378   1.823   3.012  12.080  0.1904 -0.2866 -0.6224
 7582SOL    HW134379   1.729   3.028  12.088  0.7724  2.0534  1.4179
 7582SOL    HW234380   1.841   2.942  12.143  0.9560 -0.1732 -0.7121
 7583SOL     OW34381   1.827   1.906   0.113 -0.0338  0.3154 -0.2353
 7583SOL    HW134382   1.775   1.979   0.079 -0.4971  1.1684  2.3119
 7583SOL    HW234383   1.756   1.841   0.118 -0.0391  0.1890 -1.7774
 7584SOL     OW34384   3.457   2.244   6.874  0.3393  0.0390  0.2155
 7584SOL    HW134385   3.463   2.286   6.960 -3.6636  1.7172 -0.2965
 7584SOL    HW234386   3.363   2.244   6.853  0.3410  0.6389  0.1967
 7585SOL     OW34387   4.123   3.361  14.269  0.1724  0.5209  0.1615
 7585SOL    HW134388   4.090   3.421  14.202 -2.5570 -1.6707 -0.4656
 7585SOL    HW234389   4.046   3.315  14.301 -1.1300  0.3808 -3.1333
 7586SOL     OW34390   1.573   3.674   4.042 -0.7010 -0.2271  0.3920
 7586SOL    HW134391   1.485   3.664   4.079 -0.3029 -2.0958  0.8562
 7586SOL    HW234392   1.564   3.745   3.979 -0.2381 -1.1281 -0.6957
 7587SOL     OW34393   2.164   3.259  11.912  0.1008  0.0678  0.3914
 7587SOL    HW134394   2.253   3.292  11.901  0.5908 -1.1707  0.7129
 7587SOL    HW234395   2.169   3.202  11.989 -0.0785  0.4651  0.7064
 7588SOL     OW34396   0.801   4.709   4.422 -0.3130  0.2306 -0.1409
 7588SOL    HW134397   0.778   0.021   4.342  0.7984 -0.9540 -1.1678
 7588SOL    HW234398   0.720   4.717   4.472 -1.5633  1.3144 -2.3138
 7589SOL     OW34399   1.626   1.194  14.832  0.1823 -0.7858  0.7862
 7589SOL    HW134400   1.646   1.285  14.851 -0.6720 -0.4472  0.0651
 7589SOL    HW234401   1.652   1.186  14.740 -1.1932 -0.7697  0.3955
 7590SOL     OW34402   2.707   0.257  15.253 -0.2361  0.2640 -0.2421
 7590SOL    HW134403   2.656   0.188  15.295  1.2964  0.3334  1.7275
 7590SOL    HW234404   2.649   0.272  15.179 -0.0719 -0.0215 -0.4306
 7591SOL     OW34405   2.300   1.198   5.059 -1.0292 -0.4922 -0.1924
 7591SOL    HW134406   2.272   1.235   5.142 -1.7413 -0.1477 -0.5917
 7591SOL    HW234407   2.224   1.206   5.001  0.2908 -0.6322 -1.9627
 7592SOL     OW34408   2.965   0.193   2.996  0.1843 -0.4192 -0.1084
 7592SOL    HW134409   2.903   0.266   2.996  0.2136 -0.3982 -0.8380
 7592SOL    HW234410   3.045   0.223   3.039 -1.4292 -1.0853  3.3706
 7593SOL     OW34411   1.369   0.202   4.646  0.4257  0.1247 -0.4969
 7593SOL    HW134412   1.443   0.143   4.660  0.3807 -0.2564 -1.9087
 7593SOL    HW234413   1.404   0.289   4.664 -0.4483  0.3544  0.1155
 7594SOL     OW34414   1.868   2.899   9.488 -0.0694 -0.2059  0.1296
 7594SOL    HW134415   1.876   2.987   9.451 -1.5831 -1.0685 -2.2906
 7594SOL    HW234416   1.871   2.841   9.412 -1.5300  0.3607 -0.3664
 7595SOL     OW34417   2.806   1.693   8.708 -0.9777 -0.7209 -0.3488
 7595SOL    HW134418   2.737   1.720   8.648 -1.3669 -2.0425 -0.5094
 7595SOL    HW234419   2.763   1.721   8.789  1.2744 -0.1352  0.6293
 7596SOL     OW34420   3.998   1.840   9.321  0.6624 -0.3838  0.2801
 7596SOL    HW134421   4.023   1.895   9.395 -0.5812  0.8336 -0.2199
 7596SOL    HW234422   4.085   1.809   9.297  0.1446  0.2542 -2.3640
 7597SOL     OW34423   3.829   2.377   7.680  0.1462 -0.4151  0.3039
 7597SOL    HW134424   3.904   2.390   7.737  0.0681  0.7932  0.1351
 7597SOL    HW234425   3.832   2.282   7.670 -0.5491 -0.2242 -1.7496
 7598SOL     OW34426   3.002   2.273   5.119  0.2084 -0.0986  0.1195
 7598SOL    HW134427   3.045   2.358   5.110 -1.2410  0.6182  0.0941
 7598SOL    HW234428   2.913   2.305   5.130  0.5484  0.9945 -0.2421
 7599SOL     OW34429   4.642   3.081   4.964 -0.3575  0.6303  0.5116
 7599SOL    HW134430   4.732   3.114   4.963 -0.7279  1.6384  0.2486
 7599SOL    HW234431   4.648   3.016   4.894  0.1919 -0.6187  1.7082
 7600SOL     OW34432   0.643   3.181   6.146 -0.5468  0.4030  0.3882
 7600SOL    HW134433   0.723   3.211   6.189  0.8584 -3.1812  0.1810
 7600SOL    HW234434   0.597   3.134   6.216 -1.1939 -0.4154 -0.5941
 7601SOL     OW34435   2.781   2.016  17.648  0.1584 -0.0545  0.2715
 7601SOL    HW134436   2.825   1.943  17.604 -1.7722 -1.3875  0.5958
 7601SOL    HW234437   2.711   1.982  17.703  1.4358 -0.1162  1.8299
 7602SOL     OW34438   1.710   2.115   8.737  0.6474 -0.4320 -0.4381
 7602SOL    HW134439   1.805   2.113   8.731  0.7421 -2.0892  2.0493
 7602SOL    HW234440   1.693   2.089   8.827  1.5578  4.0539  1.0403
 7603SOL     OW34441   2.921   0.545  11.728  0.2390 -0.5770  0.3365
 7603SOL    HW134442   2.908   0.485  11.654 -0.0750  0.4163 -0.4155
 7603SOL    HW234443   2.836   0.553  11.772  0.1659  0.1155  0.0682
 7604SOL     OW34444   3.116   0.538   7.535  0.1327 -0.0118 -0.1367
 7604SOL    HW134445   3.190   0.477   7.542  0.1909  0.0214 -0.4704
 7604SOL    HW234446   3.080   0.530   7.623 -0.9366 -1.5397 -0.7202
 7605SOL     OW34447   4.672   3.985   7.572 -0.2254 -0.2226 -0.3656
 7605SOL    HW134448   4.612   4.054   7.601  0.1474  0.1234 -0.4065
 7605SOL    HW234449   4.729   4.046   7.525 -0.5272 -0.4290 -1.0006
 7606SOL     OW34450   4.484   2.888   3.648  0.1531  0.0669 -0.4510
 7606SOL    HW134451   4.500   2.799   3.680  1.9437 -0.0079 -1.5348
 7606SOL    HW234452   4.445   2.929   3.725 -1.5152 -1.1373 -0.6595
 7607SOL     OW34453   1.165   1.024  11.613 -0.1625 -0.4139 -0.0727
 7607SOL    HW134454   1.175   1.071  11.530  2.8353 -1.4994 -0.3345
 7607SOL    HW234455   1.070   1.012  11.610 -0.6315  2.7283  1.6814
 7608SOL     OW34456   1.429   2.713   6.812  0.4068  0.5637 -0.3566
 7608SOL    HW134457   1.388   2.800   6.809  1.0465  0.8341 -1.2411
 7608SOL    HW234458   1.428   2.687   6.904 -0.2340  2.3306  0.1394
 7609SOL     OW34459   1.717   4.473   5.173 -0.2734 -0.8394 -0.5030
 7609SOL    HW134460   1.794   4.421   5.194 -2.5729 -3.6240  1.0694
 7609SOL    HW234461   1.647   4.415   5.202  1.0225 -1.4434  1.4494
 7610SOL     OW34462   4.716   2.035   9.332 -0.3169 -0.3234 -0.0132
 7610SOL    HW134463   0.020   1.960   9.376  1.1987  1.9485  2.5599
 7610SOL    HW234464   0.057   2.093   9.321  1.1560 -2.0352  1.1907
 7611SOL     OW34465   0.032   2.372   3.861  0.6786  0.1934  0.1084
 7611SOL    HW134466   0.007   2.297   3.808  0.7015 -1.3359  2.2849
 7611SOL    HW234467   4.679   2.406   3.881  0.0821 -1.5822  0.5045
 7612SOL     OW34468   1.028   2.822   7.633 -0.1503  0.4540 -0.2836
 7612SOL    HW134469   1.050   2.732   7.609  1.1017  0.8219 -0.5234
 7612SOL    HW234470   0.942   2.817   7.592 -0.3258  0.4100  0.0864
 7613SOL     OW34471   3.166   1.426   3.372 -0.2237 -0.9645 -0.1135
 7613SOL    HW134472   3.150   1.514   3.338 -0.6956 -1.8655 -2.2604
 7613SOL    HW234473   3.256   1.405   3.348  0.3151  1.7905 -0.4632
 7614SOL     OW34474   0.519   1.224   4.902  0.1866 -0.6001  0.4273
 7614SOL    HW134475   0.500   1.318   4.902 -0.5874 -0.7539 -1.2613
 7614SOL    HW234476   0.440   1.191   4.946  2.1147 -2.2059  2.6921
 7615SOL     OW34477   0.760   0.622   6.638  0.3342  0.5301  0.2344
 7615SOL    HW134478   0.851   0.592   6.637  0.7805  1.8194  1.4175
 7615SOL    HW234479   0.716   0.541   6.612  2.2772 -0.6512  0.6835
 7616SOL     OW34480   0.462   4.581   8.104 -0.0435  0.7417 -0.4667
 7616SOL    HW134481   0.503   4.512   8.052  0.4101  1.9087 -1.6754
 7616SOL    HW234482   0.483   4.551   8.193 -0.6462  0.1881 -0.5102
 7617SOL     OW34483   1.841   2.065   2.738  0.4959  0.6307  0.6409
 7617SOL    HW134484   1.874   2.127   2.673  0.0449  0.3739  0.1670
 7617SOL    HW234485   1.752   2.097   2.750  0.8064  2.2014 -1.1384
 7618SOL     OW34486   1.389   4.490   3.900  0.2080  0.3831  0.2085
 7618SOL    HW134487   1.424   4.401   3.888  1.1188  0.5915  1.2364
 7618SOL    HW234488   1.403   4.508   3.993  0.3634 -2.7920  0.8130
 7619SOL     OW34489   2.344   4.475   7.049  0.0551 -0.5760  0.1740
 7619SOL    HW134490   2.254   4.476   7.081  0.0288 -1.9427  0.1455
 7619SOL    HW234491   2.354   4.380   7.038 -0.0422 -0.3897 -1.4652
 7620SOL     OW34492   0.204   1.862   6.973  0.2750 -0.0992 -0.1409
 7620SOL    HW134493   0.223   1.951   6.942  0.7268 -0.6384 -1.4343
 7620SOL    HW234494   0.114   1.855   6.940  0.1966 -0.2196  0.1069
 7621SOL     OW34495   0.309   0.663   3.243 -0.1649 -0.3338 -0.3817
 7621SOL    HW134496   0.268   0.690   3.160  1.4578 -1.5300 -1.5754
 7621SOL    HW234497   0.264   0.726   3.299  1.5414 -0.5801  1.2577
 7622SOL     OW34498   3.031   3.919   1.325 -0.5849  0.5576 -0.6293
 7622SOL    HW134499   2.942   3.916   1.290 -1.5733 -1.0938  2.0769
 7622SOL    HW234500   3.023   3.909   1.419 -0.1471 -0.3231 -0.6859
 7623SOL     OW34501   4.211   4.261   3.667 -0.4815 -0.4019 -0.1342
 7623SOL    HW134502   4.239   4.297   3.751  2.9917 -0.8439 -1.0932
 7623SOL    HW234503   4.270   4.185   3.664 -1.0502 -0.8294 -0.4301
 7624SOL     OW34504   1.021   3.339   0.770 -0.0906  0.2444  0.6874
 7624SOL    HW134505   0.935   3.305   0.796 -1.0307  3.2231  1.4490
 7624SOL    HW234506   1.008   3.352   0.676 -2.5298 -1.2293  0.8084
 7625SOL     OW34507   1.980   0.523   9.027  0.6412 -0.5927  0.3939
 7625SOL    HW134508   2.064   0.540   8.986 -1.4748 -0.5270 -3.9511
 7625SOL    HW234509   1.962   0.436   8.990 -0.5540 -0.1106 -0.1646
 7626SOL     OW34510   2.033   2.354   7.877 -0.2949  0.3065  0.1996
 7626SOL    HW134511   2.078   2.302   7.944 -0.1314  1.5437  1.0412
 7626SOL    HW234512   1.940   2.330   7.881 -1.2755  3.8709 -1.8114
 7627SOL     OW34513   4.251   1.462  16.537  0.1594  0.0102  0.0809
 7627SOL    HW134514   4.171   1.494  16.495 -0.0106  0.3206  0.6389
 7627SOL    HW234515   4.258   1.375  16.497 -0.9731 -0.6953  1.3895
 7628SOL     OW34516   1.601   3.575   8.878  0.2684  0.4284 -0.2593
 7628SOL    HW134517   1.508   3.568   8.856  0.3700 -0.3407 -0.4204
 7628SOL    HW234518   1.633   3.620   8.800  0.3164  1.1574  0.1764
 7629SOL     OW34519   0.754   4.663   3.751  0.0200  0.5281 -0.0610
 7629SOL    HW134520   0.804   4.647   3.831  1.1061 -0.0015 -0.8537
 7629SOL    HW234521   0.816   4.632   3.685 -0.2252  0.8741 -0.4518
 7630SOL     OW34522   2.292   3.890   7.888  0.1603 -0.0216  0.4723
 7630SOL    HW134523   2.326   3.842   7.812  0.9961  1.1797  0.0828
 7630SOL    HW234524   2.203   3.856   7.888 -0.2952  1.1525 -0.0210
 7631SOL     OW34525   0.218   0.794   2.591  0.5405 -0.5699 -0.5022
 7631SOL    HW134526   0.189   0.731   2.657  1.6725 -1.3421 -0.7573
 7631SOL    HW234527   0.179   0.752   2.514 -5.2533  0.2538  1.9693
 7632SOL     OW34528   2.296   1.974   8.732  0.2786  0.0694  0.0720
 7632SOL    HW134529   2.377   2.025   8.726  0.8907 -0.9028  0.1557
 7632SOL    HW234530   2.280   1.965   8.826 -0.2466 -1.2961 -0.1507
 7633SOL     OW34531   0.856   4.223  15.204  0.1299  0.2819 -0.5015
 7633SOL    HW134532   0.834   4.138  15.167  1.1654  0.1187 -0.7264
 7633SOL    HW234533   0.800   4.274  15.144 -0.2875  0.1446 -0.2294
 7634SOL     OW34534   3.414   3.405   9.036  0.3416 -0.0470 -0.4668
 7634SOL    HW134535   3.488   3.431   9.091  0.3022  0.4663 -0.6563
 7634SOL    HW234536   3.443   3.317   9.010  0.0766  0.1451 -1.4085
 7635SOL     OW34537   3.012   4.144   6.644  0.8072 -0.5714  0.1734
 7635SOL    HW134538   3.082   4.208   6.656 -0.1588  0.5189  0.0187
 7635SOL    HW234539   2.944   4.181   6.701  2.0233  0.4841  0.9405
 7636SOL     OW34540   2.579   4.343   8.631 -0.4755  0.2324  0.7877
 7636SOL    HW134541   2.577   4.397   8.710 -1.2678  1.5776 -0.1553
 7636SOL    HW234542   2.545   4.402   8.564 -1.7221 -2.1689 -0.6669
 7637SOL     OW34543   1.791   2.037   9.551  0.3177 -0.0366 -0.4070
 7637SOL    HW134544   1.696   2.038   9.542  0.2371 -1.6334  0.2793
 7637SOL    HW234545   1.794   1.998   9.638 -0.0299 -1.6205 -1.1055
 7638SOL     OW34546   0.208   1.663   5.196 -0.1766  0.0992 -0.7062
 7638SOL    HW134547   0.274   1.663   5.266  1.3905  0.6496 -2.1674
 7638SOL    HW234548   0.256   1.609   5.132 -0.9442 -1.7039  0.2424
 7639SOL     OW34549   4.608   1.198   6.347  0.5597  0.3807 -0.1728
 7639SOL    HW134550   4.609   1.245   6.431  1.1203 -0.9906  0.5741
 7639SOL    HW234551   4.561   1.121   6.379  3.2059 -1.0648  0.1788
 7640SOL     OW34552   0.684   4.240   7.048 -0.4386  0.0602  0.2099
 7640SOL    HW134553   0.741   4.175   7.008 -0.7639  0.1678 -0.4299
 7640SOL    HW234554   0.606   4.185   7.062 -1.4667  1.4342 -0.1225
 7641SOL     OW34555   0.470   2.723  14.750  0.0103 -0.7970  0.2876
 7641SOL    HW134556   0.382   2.691  14.733 -0.6750  0.4344  1.4712
 7641SOL    HW234557   0.478   2.739  14.844 -2.0575  1.3353  0.1075
 7642SOL     OW34558   2.715   0.334   5.843  0.7097 -0.4516  0.0716
 7642SOL    HW134559   2.723   0.327   5.938  0.9280  0.0773  0.0874
 7642SOL    HW234560   2.780   0.401   5.825 -1.2976  0.9529 -1.8923
 7643SOL     OW34561   1.030   0.421  11.493  0.3962 -0.4517 -0.1028
 7643SOL    HW134562   0.998   0.333  11.472  3.0196 -1.3670 -0.2749
 7643SOL    HW234563   1.122   0.400  11.505  0.4128 -0.0813  0.3826
 7644SOL     OW34564   2.263   0.779  10.161 -0.9726 -0.3074 -0.1583
 7644SOL    HW134565   2.290   0.870  10.172  0.4888 -1.0327  2.1441
 7644SOL    HW234566   2.207   0.778  10.083  0.7216  0.8599 -1.3996
 7645SOL     OW34567   1.105   4.111   6.302 -0.4056 -0.1682  0.3849
 7645SOL    HW134568   1.030   4.095   6.246  1.4548 -2.8403 -1.3595
 7645SOL    HW234569   1.160   4.034   6.288 -0.1492  0.4427 -1.8148
 7646SOL     OW34570   2.713   0.524   7.450 -0.0612 -0.4686 -0.3902
 7646SOL    HW134571   2.666   0.441   7.443 -0.6427 -0.3016  1.3937
 7646SOL    HW234572   2.642   0.574   7.490  0.9056 -1.5921  2.7308
 7647SOL     OW34573   4.393   4.050   7.156 -0.4076 -0.4016  0.5506
 7647SOL    HW134574   4.341   3.995   7.215 -1.2561 -0.6440 -0.4063
 7647SOL    HW234575   4.361   4.132   7.194 -1.9767 -0.4172 -0.6906
 7648SOL     OW34576   4.109   1.695   3.351  0.0351  0.2667 -0.0172
 7648SOL    HW134577   4.204   1.702   3.358  0.1377 -1.3011  0.3192
 7648SOL    HW234578   4.095   1.602   3.370  0.2061 -0.0953 -1.6087
 7649SOL     OW34579   1.589   1.298  10.805  0.4735 -0.2398 -0.6977
 7649SOL    HW134580   1.596   1.390  10.780  3.1837 -0.3015 -0.1637
 7649SOL    HW234581   1.675   1.265  10.781  0.6880 -0.3494  0.2188
 7650SOL     OW34582   0.508   2.195   8.049 -0.1860  0.5693  0.3444
 7650SOL    HW134583   0.571   2.125   8.065 -0.4962 -0.2458 -1.8872
 7650SOL    HW234584   0.432   2.165   8.099  0.0491  0.3285  0.5585
 7651SOL     OW34585   4.237   3.594  12.454  0.5891  0.6906 -0.5204
 7651SOL    HW134586   4.330   3.601  12.475  0.5516 -1.4751  0.3928
 7651SOL    HW234587   4.241   3.585  12.359 -0.9313 -0.8459 -0.4472
 7652SOL     OW34588   0.472   3.841   4.724 -0.2540 -0.3752  0.6535
 7652SOL    HW134589   0.385   3.801   4.724 -1.1807  1.6602 -0.3279
 7652SOL    HW234590   0.536   3.774   4.700  0.3191  0.0564  0.9790
 7653SOL     OW34591   2.832   3.315  10.627  0.3496  0.0779 -0.2187
 7653SOL    HW134592   2.890   3.261  10.572  0.7072 -0.0699  0.3031
 7653SOL    HW234593   2.815   3.377  10.557 -2.2499  0.1129  0.4154
 7654SOL     OW34594   0.769   0.936   6.019  0.6345 -0.3368  0.2163
 7654SOL    HW134595   0.823   0.858   6.031  0.8078 -0.3706 -0.7841
 7654SOL    HW234596   0.802   0.988   6.092  0.7436  0.9292 -0.7404
 7655SOL     OW34597   2.101   0.968   5.907 -0.1152  0.1546 -0.2067
 7655SOL    HW134598   2.131   0.889   5.862  0.9528  0.4183  0.0427
 7655SOL    HW234599   2.154   0.951   5.985  0.5444 -0.1838 -0.7283
 7656SOL     OW34600   1.322   0.612   3.977  0.0480  0.5746  0.6078
 7656SOL    HW134601   1.364   0.612   3.891 -1.2657 -0.6884 -0.0258
 7656SOL    HW234602   1.303   0.704   3.995 -1.2932  0.5765 -0.8360
 7657SOL     OW34603   2.178   0.651   4.909 -0.0328  0.2958  0.1072
 7657SOL    HW134604   2.192   0.744   4.892  2.2234  0.2019  1.5696
 7657SOL    HW234605   2.088   0.658   4.877 -0.1973  0.9992  0.7126
 7658SOL     OW34606   4.370   3.389   1.816 -0.1947 -0.1293  0.1458
 7658SOL    HW134607   4.399   3.435   1.894  1.8452 -0.2249 -0.5586
 7658SOL    HW234608   4.305   3.330   1.854  0.2303  0.1656  1.3267
 7659SOL     OW34609   2.500   0.721   4.701  0.0542  0.2737  0.3346
 7659SOL    HW134610   2.456   0.795   4.742  0.5953  1.6244 -1.5357
 7659SOL    HW234611   2.423   0.697   4.650 -0.2270  0.6830  0.5765
 7660SOL     OW34612   3.077   4.044   4.924 -0.2872  0.4020 -0.0146
 7660SOL    HW134613   3.006   4.007   4.872  0.0588 -1.2342  0.6726
 7660SOL    HW234614   3.136   4.063   4.852  2.4739 -1.1207  1.8265
 7661SOL     OW34615   2.923   3.084   9.493  0.2360  0.0353 -0.4286
 7661SOL    HW134616   2.839   3.051   9.461 -0.6324 -0.6826  2.6193
 7661SOL    HW234617   2.890   3.112   9.578  0.7661 -1.1146  0.1655
 7662SOL     OW34618   2.559   4.644  13.379  0.0773  0.1238  0.0633
 7662SOL    HW134619   2.519   4.671  13.461  0.0403  3.3179 -1.0112
 7662SOL    HW234620   2.577   4.733  13.348 -0.8923  0.1226 -0.5115
 7663SOL     OW34621   1.962   3.616   6.878  0.1655  0.3033 -0.1247
 7663SOL    HW134622   2.037   3.611   6.819  1.7616 -1.3608  2.0473
 7663SOL    HW234623   1.902   3.569   6.821 -1.9623  0.4140  1.9826
 7664SOL     OW34624   0.539   4.583   5.957 -0.6339 -0.1660 -1.1283
 7664SOL    HW134625   0.477   4.645   5.916 -1.3861  0.0832  0.3920
 7664SOL    HW234626   0.604   4.639   5.998 -2.7189  1.5441 -0.1352
 7665SOL     OW34627   0.947   3.692   5.255 -0.8615  0.3335  0.2147
 7665SOL    HW134628   0.888   3.747   5.306 -1.0408  1.1704 -0.9196
 7665SOL    HW234629   0.937   3.607   5.298  1.2406 -0.9203 -1.8004
 7666SOL     OW34630   2.116   3.091  14.314 -0.0608 -0.1878  0.8936
 7666SOL    HW134631   2.103   3.060  14.224  0.3554  2.0603  0.0548
 7666SOL    HW234632   2.028   3.092  14.353 -1.6251 -1.5938 -2.5994
 7667SOL     OW34633   2.146   0.731   7.115  0.2949 -0.9466  0.0024
 7667SOL    HW134634   2.168   0.656   7.171 -0.5789 -1.1036  0.1236
 7667SOL    HW234635   2.182   0.797   7.174 -0.5716  0.0563 -0.5987
 7668SOL     OW34636   0.994   2.207   8.600  0.9567 -0.0113  0.1030
 7668SOL    HW134637   1.004   2.179   8.509  0.8680 -1.9820  0.6904
 7668SOL    HW234638   1.075   2.257   8.607 -0.7622  2.9463 -1.4555
 7669SOL     OW34639   4.064   2.267   4.082 -0.1385  0.0911  0.5924
 7669SOL    HW134640   4.033   2.219   4.158  1.9160 -1.7320  0.2994
 7669SOL    HW234641   4.057   2.359   4.109  1.9038  0.3864  0.1524
 7670SOL     OW34642   4.478   3.818  17.617 -0.1855 -0.1357  0.5812
 7670SOL    HW134643   4.522   3.774  17.691  0.3135  0.7403  0.7986
 7670SOL    HW234644   4.535   3.894  17.606 -1.4591  0.7106 -0.1306
 7671SOL     OW34645   1.946   4.325   5.220 -0.3251 -0.1590 -0.1496
 7671SOL    HW134646   1.960   4.234   5.193  1.1855 -0.0489  0.3081
 7671SOL    HW234647   2.005   4.367   5.158  1.5274 -1.3254  0.8459
 7672SOL     OW34648   0.052   1.336   2.486  0.0599  0.3945 -0.1472
 7672SOL    HW134649   0.098   1.397   2.428  2.3332  0.0578  1.2648
 7672SOL    HW234650   0.116   1.317   2.554 -1.3447 -0.4671  0.9258
 7673SOL     OW34651   1.744   2.839   6.888  0.4314 -0.5467  0.0392
 7673SOL    HW134652   1.782   2.757   6.918  2.3422  0.6847  0.9774
 7673SOL    HW234653   1.674   2.859   6.951  0.1534  2.4568 -1.2146
 7674SOL     OW34654   3.802   1.522  17.609 -0.5342  0.4986 -0.4433
 7674SOL    HW134655   3.709   1.537  17.590 -0.6814  3.2970  2.4526
 7674SOL    HW234656   3.829   1.611  17.630 -1.1423  0.3189  1.1014
 7675SOL     OW34657   3.641   3.993   3.290 -0.0725 -0.0898  0.1018
 7675SOL    HW134658   3.615   4.083   3.311 -2.0376 -0.4710 -0.6901
 7675SOL    HW234659   3.688   4.008   3.207  0.3622  0.4561  0.4479
 7676SOL     OW34660   3.614   0.040   1.107  0.4297 -0.1934 -0.0919
 7676SOL    HW134661   3.659   4.693   1.127  0.0655  0.4150  3.1898
 7676SOL    HW234662   3.688   0.089   1.071 -0.6818  1.2070 -0.4566
 7677SOL     OW34663   1.106   3.095   1.589 -0.0786 -0.1510 -0.8480
 7677SOL    HW134664   1.174   3.159   1.609  1.4417 -2.1787  0.4587
 7677SOL    HW234665   1.034   3.121   1.646  1.0907 -4.0298  2.3865
 7678SOL     OW34666   4.415   1.954   9.638 -0.2251 -0.5137  0.4484
 7678SOL    HW134667   4.328   1.933   9.673 -0.7759  1.7609  0.4386
 7678SOL    HW234668   4.417   1.892   9.565  0.8843 -0.3792  0.3735
 7679SOL     OW34669   1.050   0.402  17.073 -0.4893  0.6241 -0.1838
 7679SOL    HW134670   0.980   0.429  17.014  0.0533 -0.2864 -1.2489
 7679SOL    HW234671   1.049   0.458  17.150  1.2361 -0.8618  0.9221
 7680SOL     OW34672   0.690   0.581   3.885  0.4859 -0.2879 -0.5072
 7680SOL    HW134673   0.676   0.489   3.864 -0.5734 -0.8284  2.4715
 7680SOL    HW234674   0.642   0.615   3.810 -0.0335  0.4751  0.1618
 7681SOL     OW34675   1.253   2.978   9.021 -0.2187 -0.0349 -0.1350
 7681SOL    HW134676   1.262   2.883   9.008 -1.6231 -0.1969  0.0944
 7681SOL    HW234677   1.333   3.003   8.974 -0.5434 -1.2773 -1.3679
 7682SOL     OW34678   1.496   2.934   8.860  0.0774  0.0933 -0.1736
 7682SOL    HW134679   1.570   2.936   8.799  1.3707  3.2170  1.5156
 7682SOL    HW234680   1.519   2.856   8.910 -0.2537 -0.2279 -0.5204
 7683SOL     OW34681   1.630   2.994   4.968 -0.1706 -0.1474  0.3648
 7683SOL    HW134682   1.567   2.974   4.898 -0.0014  0.3909  0.0525
 7683SOL    HW234683   1.679   3.063   4.922 -1.0653 -1.0703 -1.9949
 7684SOL     OW34684   0.017   1.396   3.873 -0.3259 -0.5373 -0.1667
 7684SOL    HW134685   4.658   1.402   3.858 -0.8689 -1.1979  2.9224
 7684SOL    HW234686   0.010   1.320   3.930 -0.2055  0.5679  1.3269
 7685SOL     OW34687   2.514   4.624   4.303  0.2097 -0.4252  0.3323
 7685SOL    HW134688   2.433   4.605   4.350  0.9184 -0.7966  1.3929
 7685SOL    HW234689   2.537   4.541   4.260  1.0214 -0.1239  0.1813
 7686SOL     OW34690   2.663   4.471   5.909 -0.4821 -0.5153 -0.3332
 7686SOL    HW134691   2.611   4.422   5.846  0.8341  0.3373 -2.0842
 7686SOL    HW234692   2.742   4.491   5.858 -0.4632 -1.4515 -0.6689
 7687SOL     OW34693   1.262   3.655   5.807 -0.1612 -0.1096 -0.4441
 7687SOL    HW134694   1.342   3.610   5.834  1.0323  1.1829 -1.7998
 7687SOL    HW234695   1.194   3.611   5.858 -1.6320 -0.7042 -2.9088
 7688SOL     OW34696   0.307   0.220   3.786  0.0779 -0.2142  0.9318
 7688SOL    HW134697   0.351   0.136   3.799  1.7623  0.2223 -1.9533
 7688SOL    HW234698   0.286   0.233   3.693  0.3405  1.3217  1.0950
 7689SOL     OW34699   1.416   1.002  10.896  0.8895 -0.1408  0.0153
 7689SOL    HW134700   1.399   1.064  10.967  2.1555 -1.8939  1.8913
 7689SOL    HW234701   1.365   0.931  10.935 -0.4013 -1.3703 -3.9230
 7690SOL     OW34702   2.976   1.608  16.711 -0.5059 -0.4535 -0.0133
 7690SOL    HW134703   2.909   1.623  16.778 -0.2461 -1.9345  0.5695
 7690SOL    HW234704   3.042   1.579  16.773 -1.2121 -0.1101  0.8897
 7691SOL     OW34705   4.029   3.740   8.126  0.2359 -0.4859  0.1117
 7691SOL    HW134706   3.991   3.752   8.039  1.4413  0.4396 -0.2815
 7691SOL    HW234707   3.953   3.716   8.180  0.5819 -0.2678  0.6924
 7692SOL     OW34708   1.058   2.519   7.268 -0.5673 -0.4765 -0.1858
 7692SOL    HW134709   1.097   2.435   7.244 -2.3303 -1.3894  0.1568
 7692SOL    HW234710   0.969   2.492   7.288 -1.2231  1.9068  0.0606
 7693SOL     OW34711   4.546   3.464   0.314  0.2379  0.6324 -0.0557
 7693SOL    HW134712   4.469   3.479   0.368 -0.7949 -1.5794 -0.9396
 7693SOL    HW234713   4.608   3.456   0.386  2.9593  1.7322 -2.2555
 7694SOL     OW34714   3.422   0.283   9.244  0.2802  0.1877 -0.1703
 7694SOL    HW134715   3.437   0.320   9.158 -2.2785  0.8221 -0.3392
 7694SOL    HW234716   3.329   0.296   9.264  0.4651  1.0810  0.1113
 7695SOL     OW34717   2.821   2.383   7.997  0.8589  0.3961  0.5463
 7695SOL    HW134718   2.808   2.300   7.951  0.1301  0.6565  0.2930
 7695SOL    HW234719   2.739   2.427   7.978  0.9460  0.2957 -0.0731
 7696SOL     OW34720   4.520   4.292   1.450 -0.3347  0.1174 -0.8406
 7696SOL    HW134721   4.575   4.289   1.529  0.3362  1.7011 -1.2613
 7696SOL    HW234722   4.579   4.303   1.376  2.8061  0.4439  1.7060
 7697SOL     OW34723   2.515   0.663   8.641 -0.0868 -0.0295  0.0853
 7697SOL    HW134724   2.502   0.570   8.627 -0.0160  0.2393 -1.7369
 7697SOL    HW234725   2.565   0.685   8.563 -0.8899 -0.0297 -0.4274
 7698SOL     OW34726   3.315   4.371   4.693 -0.0817 -0.8044  0.1768
 7698SOL    HW134727   3.299   4.456   4.734  3.6042 -1.4618  3.0006
 7698SOL    HW234728   3.319   4.399   4.601 -0.3164  0.7989  0.6605
 7699SOL     OW34729   3.584   2.269   2.382 -0.1072 -0.6176 -0.1526
 7699SOL    HW134730   3.581   2.223   2.298  0.2981 -1.0083  0.0481
 7699SOL    HW234731   3.644   2.215   2.433 -1.4359  1.1582  3.2536
 7700SOL     OW34732   4.304   0.033   8.672  0.1672  0.0233  0.2049
 7700SOL    HW134733   4.228   0.090   8.678 -1.7274 -2.6403  1.0015
 7700SOL    HW234734   4.266   4.683   8.690  0.0129  0.1503  0.4678
 7701SOL     OW34735   3.343   4.352   3.476 -0.0832 -0.0184 -0.0609
 7701SOL    HW134736   3.258   4.384   3.444  0.1743 -1.2217 -2.0041
 7701SOL    HW234737   3.316   4.266   3.509 -1.0093  0.2818 -0.0494
 7702SOL     OW34738   0.043   0.297   3.351  0.0410 -0.6993  0.5720
 7702SOL    HW134739   4.729   0.316   3.432  0.0199  2.8341 -0.2613
 7702SOL    HW234740   0.110   0.243   3.392 -0.1244  0.3925  2.3102
 7703SOL     OW34741   1.477   3.296  17.538  0.1364 -0.2704 -0.1081
 7703SOL    HW134742   1.503   3.207  17.514  1.8605 -0.0715  0.9996
 7703SOL    HW234743   1.480   3.341  17.454  0.5645  1.0991  0.6475
 7704SOL     OW34744   3.867   2.761  14.715  0.3261  0.1469 -0.6401
 7704SOL    HW134745   3.845   2.723  14.630  2.0117  1.9536 -1.8810
 7704SOL    HW234746   3.840   2.853  14.710  1.6654  0.5950  0.2836
 7705SOL     OW34747   2.850   0.639  13.776 -0.1500  0.1125  0.0978
 7705SOL    HW134748   2.879   0.727  13.753 -0.6825 -0.4899 -2.9529
 7705SOL    HW234749   2.841   0.644  13.871 -2.9305  0.9873 -0.2080
 7706SOL     OW34750   2.368   2.628  12.103 -0.2810 -0.3374 -0.1365
 7706SOL    HW134751   2.365   2.704  12.045 -1.1744 -0.0057  0.3435
 7706SOL    HW234752   2.415   2.563  12.050  0.9120  0.9257 -0.6168
 7707SOL     OW34753   3.459   3.459   5.055  0.1442  1.0881  0.0724
 7707SOL    HW134754   3.466   3.365   5.037 -1.6694  0.5867  2.0495
 7707SOL    HW234755   3.544   3.482   5.093  0.2541 -2.1541  1.7697
 7708SOL     OW34756   2.845   0.689  13.419 -0.2574 -0.3294 -0.7806
 7708SOL    HW134757   2.871   0.606  13.379  2.3009  0.3351 -0.4717
 7708SOL    HW234758   2.910   0.703  13.487  0.5518 -1.1964 -1.3772
 7709SOL     OW34759   3.549   3.851  14.443 -0.3120  0.2388  0.2263
 7709SOL    HW134760   3.619   3.879  14.384 -1.4424 -0.2807 -1.3622
 7709SOL    HW234761   3.543   3.924  14.505 -0.9472 -1.7021  2.4748
 7710SOL     OW34762   0.100   1.163  13.145  0.0857 -0.6745  0.5848
 7710SOL    HW134763   0.192   1.189  13.142 -0.8502  2.1881 -3.1111
 7710SOL    HW234764   0.082   1.147  13.053 -0.7834 -0.1290  0.6615
 7711SOL     OW34765   3.620   0.900   1.658 -0.0471 -0.0275 -0.1452
 7711SOL    HW134766   3.590   0.818   1.697 -0.0584  0.5934  1.1799
 7711SOL    HW234767   3.596   0.960   1.728 -1.3138  1.3092 -1.7389
 7712SOL     OW34768   2.724   3.537   5.608 -0.0193 -0.6542  0.2363
 7712SOL    HW134769   2.716   3.484   5.528  1.0680  2.1830 -1.7577
 7712SOL    HW234770   2.690   3.483   5.679 -2.0527  0.3075  0.0025
 7713SOL     OW34771   3.331   1.868   6.060  0.4348  0.4802 -0.0714
 7713SOL    HW134772   3.292   1.879   6.147  3.8704 -2.1754  1.8328
 7713SOL    HW234773   3.347   1.958   6.031 -1.1982  0.4081 -1.2116
 7714SOL     OW34774   1.196   0.080  12.964 -0.5980 -0.0532 -0.0337
 7714SOL    HW134775   1.262   0.045  12.904 -0.6105 -0.9455  0.4712
 7714SOL    HW234776   1.236   0.059  13.049  0.1586 -1.4482 -0.7395
 7715SOL     OW34777   1.585   3.410   7.509  0.2116 -0.0430 -0.3084
 7715SOL    HW134778   1.502   3.411   7.556  0.1638 -0.2282 -0.3919
 7715SOL    HW234779   1.642   3.380   7.580  0.2235  1.8270  0.4752
 7716SOL     OW34780   0.934   0.266  12.998  0.0715 -0.1226  0.0204
 7716SOL    HW134781   0.938   0.342  13.055  0.4916  0.8865 -1.3615
 7716SOL    HW234782   1.023   0.233  12.992 -0.0896 -0.4830 -0.4316
 7717SOL     OW34783   3.988   0.339   4.455  0.4289 -0.4074  0.3865
 7717SOL    HW134784   3.934   0.411   4.421  1.6848 -0.1831 -1.1474
 7717SOL    HW234785   4.057   0.378   4.509  0.6767 -0.4644  0.1141
 7718SOL     OW34786   4.467   4.264  10.113 -0.8305  0.1470 -0.3001
 7718SOL    HW134787   4.464   4.265  10.018  1.5076 -1.2169 -0.3654
 7718SOL    HW234788   4.374   4.279  10.132 -0.3509  1.0011  1.4210
 7719SOL     OW34789   4.275   2.071   8.593 -0.0619 -0.3974  0.4891
 7719SOL    HW134790   4.208   2.004   8.592 -0.1034 -0.3302 -1.5843
 7719SOL    HW234791   4.318   2.064   8.678  1.0019  2.9302  0.2645
 7720SOL     OW34792   0.156   3.736  15.453  0.6130  0.4642 -0.1837
 7720SOL    HW134793   0.241   3.758  15.417  0.5549  0.2102 -0.4731
 7720SOL    HW234794   0.125   3.680  15.382 -1.1155  0.3397  0.6454
 7721SOL     OW34795   4.680   2.794   2.120  0.0847 -0.1125 -0.5874
 7721SOL    HW134796   4.699   2.729   2.188 -1.3724  0.4800  0.3738
 7721SOL    HW234797   4.681   2.737   2.043 -3.7141 -2.7434  1.2620
 7722SOL     OW34798   1.036   0.149  14.456  0.5615 -0.0741  0.4338
 7722SOL    HW134799   1.124   0.115  14.440 -0.2093 -1.1005 -1.6756
 7722SOL    HW234800   1.047   0.159  14.551 -0.8767 -2.0035  0.8012
 7723SOL     OW34801   0.642   4.072  11.865  0.7209 -0.0258  0.0947
 7723SOL    HW134802   0.731   4.039  11.851  0.7473  0.4250 -0.7677
 7723SOL    HW234803   0.626   4.022  11.946  1.6100  0.1545  0.3838
 7724SOL     OW34804   3.601   4.144   7.720 -0.0864  0.0751  0.1553
 7724SOL    HW134805   3.534   4.115   7.782 -2.8675  0.6582 -2.5718
 7724SOL    HW234806   3.687   4.120   7.755 -0.3641 -0.4811  0.4692
 7725SOL     OW34807   2.731   2.325   2.210  0.4012 -0.0070 -0.3983
 7725SOL    HW134808   2.670   2.374   2.266  0.2485 -0.0394 -0.5370
 7725SOL    HW234809   2.673   2.327   2.134 -1.7568  0.9419  1.2535
 7726SOL     OW34810   3.012   4.458  12.139 -0.6426 -0.2178 -0.2556
 7726SOL    HW134811   3.032   4.394  12.207 -0.3217 -0.7080 -0.8147
 7726SOL    HW234812   2.975   4.410  12.065 -0.2457  0.5312 -0.9376
 7727SOL     OW34813   4.292   2.713   5.436  0.0397  0.0573  0.2251
 7727SOL    HW134814   4.267   2.661   5.360 -2.3859  1.4245  0.0704
 7727SOL    HW234815   4.379   2.684   5.462  0.1666 -0.9962 -1.3580
 7728SOL     OW34816   4.049   2.800   1.651  0.0480 -0.8205  0.6880
 7728SOL    HW134817   4.097   2.883   1.640 -0.2577 -0.9316 -1.6363
 7728SOL    HW234818   4.119   2.752   1.696  1.5900  0.3757 -0.4157
 7729SOL     OW34819   0.997   4.181   3.746 -0.1787  0.4089  0.1171
 7729SOL    HW134820   1.037   4.142   3.668 -0.6188 -0.3679  0.2749
 7729SOL    HW234821   1.078   4.183   3.796  0.2608  1.4340 -0.6538
 7730SOL     OW34822   3.778   3.931  12.816  0.3538  0.2162 -0.3117
 7730SOL    HW134823   3.868   3.912  12.790  0.4105 -1.4337  1.0730
 7730SOL    HW234824   3.786   3.939  12.911 -1.4224  3.5848 -0.4334
 7731SOL     OW34825   4.461   3.736   1.381 -0.8717 -0.1468 -0.4388
 7731SOL    HW134826   4.429   3.826   1.373 -1.1245 -0.1808  0.1813
 7731SOL    HW234827   4.424   3.696   1.459 -1.1077 -0.1877 -0.5734
 7732SOL     OW34828   2.003   2.821   4.385 -0.2040  0.0444 -0.7273
 7732SOL    HW134829   1.916   2.793   4.355 -0.3598 -0.0353 -0.1934
 7732SOL    HW234830   2.055   2.741   4.374 -2.4243 -1.3441 -1.1899
 7733SOL     OW34831   1.882   4.636   7.185 -0.0713  0.8062  0.0782
 7733SOL    HW134832   1.843   4.723   7.189  0.6580  1.2876 -2.8658
 7733SOL    HW234833   1.839   4.598   7.108  0.3634 -0.6132  0.5385
 7734SOL     OW34834   2.182   3.877  10.048  0.0069  0.1181 -0.3130
 7734SOL    HW134835   2.144   3.916   9.969  1.9686 -1.6416 -2.1039
 7734SOL    HW234836   2.111   3.815  10.066  0.6839 -0.8499 -1.0637
 7735SOL     OW34837   0.158   3.593   6.719  0.4753  0.1349  0.7264
 7735SOL    HW134838   0.117   3.666   6.765 -1.9388 -0.4857 -0.4163
 7735SOL    HW234839   0.197   3.631   6.641 -0.7937  1.7507  0.8923
 7736SOL     OW34840   2.285   1.786   0.233  0.2614 -0.8887 -0.9152
 7736SOL    HW134841   2.304   1.793   0.139  2.8496 -0.4431 -0.3645
 7736SOL    HW234842   2.189   1.782   0.227  0.0640 -1.2192  2.3309
 7737SOL     OW34843   3.839   2.050   3.910  0.3126  0.2637  0.7295
 7737SOL    HW134844   3.767   2.110   3.930  1.4264  1.8816 -0.0988
 7737SOL    HW234845   3.858   2.004   3.992  1.1796  0.1871  0.4810
 7738SOL     OW34846   4.574   4.359  15.012 -0.1532  0.0612 -0.7968
 7738SOL    HW134847   4.503   4.315  14.966 -0.0406  0.0527 -0.9627
 7738SOL    HW234848   4.636   4.287  15.001 -0.2936 -0.3247  0.9700
 7739SOL     OW34849   1.831   3.565  16.976 -0.3301 -0.1433 -1.0245
 7739SOL    HW134850   1.769   3.545  16.906 -0.4210  0.6074 -1.1554
 7739SOL    HW234851   1.794   3.649  17.002 -0.3861  0.0575 -1.7595
 7740SOL     OW34852   3.778   2.201   9.343 -0.6939  0.2901 -0.0318
 7740SOL    HW134853   3.745   2.111   9.347  3.0714 -1.1798 -1.7721
 7740SOL    HW234854   3.854   2.193   9.286  1.7529  1.2994  3.0949
 7741SOL     OW34855   4.016   0.773   6.441  0.1865 -0.2295 -0.0116
 7741SOL    HW134856   3.994   0.830   6.515  0.0937  1.7075 -1.5456
 7741SOL    HW234857   3.996   0.688   6.481 -0.7811  0.8343  1.7828
 7742SOL     OW34858   2.355   2.375   5.628  0.0575 -0.2611  0.8058
 7742SOL    HW134859   2.344   2.375   5.533 -0.2684  1.3762  0.8343
 7742SOL    HW234860   2.386   2.286   5.644 -0.7797 -0.9935 -1.8185
 7743SOL     OW34861   3.926   3.220   2.155  0.2957  0.8282  0.2355
 7743SOL    HW134862   3.886   3.218   2.068 -0.9169 -1.3551  0.8316
 7743SOL    HW234863   3.865   3.280   2.197 -1.9514 -1.4679  0.2452
 7744SOL     OW34864   1.514   1.418   4.726 -0.1041  0.0166  0.3989
 7744SOL    HW134865   1.533   1.337   4.773 -1.8959  0.8001  2.4362
 7744SOL    HW234866   1.455   1.398   4.653  0.9077  1.3283 -0.7876
 7745SOL     OW34867   1.660   3.540   2.984  0.1860 -0.4305 -0.6340
 7745SOL    HW134868   1.675   3.597   2.909 -0.9203  1.8032  0.8316
 7745SOL    HW234869   1.718   3.574   3.052 -0.9320 -0.2159  0.2182
 7746SOL     OW34870   3.770   3.919  13.537  0.0107  0.2058  0.3432
 7746SOL    HW134871   3.819   3.991  13.498  0.5145 -1.3869 -1.9741
 7746SOL    HW234872   3.729   3.874  13.463  0.6947 -0.6377  0.4690
 7747SOL     OW34873   2.453   0.625   3.188 -0.3421  0.6614 -0.1708
 7747SOL    HW134874   2.481   0.537   3.162 -3.8514 -0.8321  0.9779
 7747SOL    HW234875   2.519   0.628   3.257 -1.1998  1.2648  0.6297
 7748SOL     OW34876   0.928   1.596   7.776 -0.0912  0.1634 -0.4775
 7748SOL    HW134877   1.015   1.558   7.784 -1.8587 -3.5719  0.5716
 7748SOL    HW234878   0.948   1.689   7.763 -1.6022  0.7336  1.3171
 7749SOL     OW34879   0.720   0.307  10.799 -0.0179 -0.2061 -0.3364
 7749SOL    HW134880   0.811   0.279  10.814  1.0676  2.4311 -2.0647
 7749SOL    HW234881   0.726   0.370  10.727 -1.8827 -0.6474 -0.8721
 7750SOL     OW34882   2.853   1.036   2.933  0.0519  0.6672  0.3917
 7750SOL    HW134883   2.911   1.100   2.973  3.1509 -2.3001  0.6525
 7750SOL    HW234884   2.778   1.089   2.905 -0.0222  0.0299 -0.6240
 7751SOL     OW34885   4.455   3.444  14.100  0.5036 -0.5064  0.9699
 7751SOL    HW134886   4.526   3.447  14.035 -0.2211 -0.8199  0.1669
 7751SOL    HW234887   4.392   3.382  14.064  0.7771 -0.8615  1.0914
 7752SOL     OW34888   2.588   0.909   7.485  0.1263  0.2054 -0.1503
 7752SOL    HW134889   2.547   0.945   7.406  0.1086 -0.8704 -0.6253
 7752SOL    HW234890   2.628   0.991   7.515 -3.0466  2.5805 -2.3771
 7753SOL     OW34891   1.562   1.734  14.902 -0.5099 -0.1849  0.2390
 7753SOL    HW134892   1.601   1.774  14.824  1.2371  0.9627  1.7069
 7753SOL    HW234893   1.523   1.815  14.936  0.2097  0.0499  0.5074
 7754SOL     OW34894   3.970   1.050  13.267  0.4052 -0.4506  0.3270
 7754SOL    HW134895   3.881   1.030  13.238  1.1125 -1.0585 -1.4266
 7754SOL    HW234896   3.962   1.145  13.256  1.0504 -0.2487  1.5969
 7755SOL     OW34897   3.111   0.112   9.457  0.1137 -0.0565  0.2858
 7755SOL    HW134898   3.046   0.054   9.496 -1.5462  0.1071 -2.1896
 7755SOL    HW234899   3.181   0.107   9.522  1.2662  0.8491 -0.8932
 7756SOL     OW34900   0.171   3.356   6.858 -0.4892  0.1585 -0.1439
 7756SOL    HW134901   0.145   3.420   6.925 -1.4622  1.3278 -1.6083
 7756SOL    HW234902   0.168   3.417   6.784  0.1585  0.3595 -0.0034
 7757SOL     OW34903   4.563   4.589   0.109  0.5252  0.4333 -0.1872
 7757SOL    HW134904   4.469   4.605   0.117  0.9026  2.2682  0.5002
 7757SOL    HW234905   4.593   4.641   0.034 -0.0901 -0.4154 -1.0216
 7758SOL     OW34906   0.498   3.302   1.377  0.4833 -0.1748  0.3941
 7758SOL    HW134907   0.456   3.350   1.305  1.5178 -1.9239 -1.3729
 7758SOL    HW234908   0.427   3.270   1.432 -0.3385 -2.6967 -2.1419
 7759SOL     OW34909   4.361   3.405  10.150  0.0231 -0.5325 -0.7012
 7759SOL    HW134910   4.383   3.313  10.163 -2.1426 -0.7372  1.3547
 7759SOL    HW234911   4.420   3.452  10.210  0.7440 -1.5658 -0.6015
 7760SOL     OW34912   3.206   2.677   9.401 -0.4393  0.1298  0.5772
 7760SOL    HW134913   3.297   2.653   9.417 -1.3045 -2.4563  1.6893
 7760SOL    HW234914   3.201   2.756   9.456 -0.0057  0.9886 -0.6257
 7761SOL     OW34915   2.369   2.424   7.145 -0.1121  0.7348  0.3548
 7761SOL    HW134916   2.341   2.404   7.234 -2.6291  0.1879 -0.5692
 7761SOL    HW234917   2.456   2.382   7.146  0.6770  2.3401 -1.1278
 7762SOL     OW34918   3.916   3.869   7.883  0.0780  0.5177  0.1469
 7762SOL    HW134919   3.835   3.818   7.888  0.2627  0.4493  2.1944
 7762SOL    HW234920   3.920   3.899   7.792  0.3352 -1.7068 -0.5653
 7763SOL     OW34921   3.613   1.674   2.908  0.2448  0.3387  0.1189
 7763SOL    HW134922   3.604   1.612   2.981 -0.7425  2.3033  1.6646
 7763SOL    HW234923   3.657   1.744   2.956 -0.9438  1.1337  0.0467
 7764SOL     OW34924   3.983   3.865   7.012  0.2276 -0.3381 -0.2639
 7764SOL    HW134925   3.944   3.779   7.028  0.7980 -0.6289 -0.4769
 7764SOL    HW234926   3.944   3.887   6.927  2.0298 -4.2363 -2.0664
 7765SOL     OW34927   0.140   0.429   6.698  0.3098 -0.0355 -0.2624
 7765SOL    HW134928   0.231   0.444   6.674 -0.4613  2.2919 -1.7240
 7765SOL    HW234929   0.112   0.514   6.664 -2.6099 -1.0343 -0.3771
 7766SOL     OW34930   1.661   1.599   4.130 -0.1633 -0.2596  0.2363
 7766SOL    HW134931   1.636   1.642   4.211  0.0522  0.4732 -0.0925
 7766SOL    HW234932   1.571   1.600   4.097 -0.3639  0.8945  0.8218
 7767SOL     OW34933   1.460   0.346  15.806  0.4807 -0.1467 -0.0903
 7767SOL    HW134934   1.488   0.433  15.777 -2.7456  0.8101 -0.3038
 7767SOL    HW234935   1.376   0.360  15.849  1.0063  1.1920  0.5013
 7768SOL     OW34936   3.810   4.387   5.799 -0.1922  0.2686  0.5079
 7768SOL    HW134937   3.888   4.354   5.844  0.5529 -0.4584 -1.2882
 7768SOL    HW234938   3.823   4.478   5.829  0.4032  0.2532  0.3076
 7769SOL     OW34939   2.643   2.280  13.255  0.4274 -0.6754 -0.4456
 7769SOL    HW134940   2.670   2.349  13.195 -1.8101  1.9081  1.5488
 7769SOL    HW234941   2.562   2.316  13.290  0.5297 -0.4901 -0.4039
 7770SOL     OW34942   3.187   1.494   6.994 -0.6150 -0.1640 -0.1799
 7770SOL    HW134943   3.261   1.515   6.937 -0.3227  2.1647  1.0704
 7770SOL    HW234944   3.226   1.421   7.042 -1.8332  0.5384  1.8663
 7771SOL     OW34945   3.656   1.319   7.723  0.9169  0.0949 -0.0523
 7771SOL    HW134946   3.660   1.244   7.663  0.7578  0.3562 -0.3913
 7771SOL    HW234947   3.629   1.387   7.661 -1.8484  0.1362  1.1889
 7772SOL     OW34948   1.295   1.316  16.886  0.6547 -0.6537 -0.0439
 7772SOL    HW134949   1.354   1.281  16.819  0.1985 -0.4750 -0.5424
 7772SOL    HW234950   1.351   1.383  16.926  0.0759  0.9567 -1.9181
 7773SOL     OW34951   4.684   1.942   9.716  0.2479  0.3288 -0.7649
 7773SOL    HW134952   4.718   1.860   9.751  1.1374  1.2601  0.5229
 7773SOL    HW234953   4.592   1.924   9.693 -0.0383 -0.9002  1.3276
 7774SOL     OW34954   2.857   2.223   9.156 -0.8359  0.3968  0.2407
 7774SOL    HW134955   2.933   2.171   9.130 -0.2513  0.9656  0.8567
 7774SOL    HW234956   2.812   2.216   9.071 -1.2227 -0.8584  0.5487
 7775SOL     OW34957   2.226   4.536   4.072  0.4498  0.4265  0.2913
 7775SOL    HW134958   2.173   4.567   3.998 -0.8869  1.0805  1.5397
 7775SOL    HW234959   2.298   4.492   4.025 -1.9474 -2.4408 -0.7017
 7776SOL     OW34960   3.158   2.649   7.008 -0.2072 -0.0457 -0.1166
 7776SOL    HW134961   3.094   2.579   7.005 -0.8058  0.5236 -0.5414
 7776SOL    HW234962   3.214   2.638   6.932 -0.1609  0.4079 -0.1510
 7777SOL     OW34963   2.331   0.703   3.836 -0.4483  0.2192 -0.0709
 7777SOL    HW134964   2.336   0.613   3.806 -1.1378  0.7799 -1.8514
 7777SOL    HW234965   2.420   0.724   3.865 -0.7921 -1.8159  2.4253
 7778SOL     OW34966   4.164   3.675   3.532  0.4549 -0.7431  0.1964
 7778SOL    HW134967   4.188   3.730   3.457  1.5960 -1.8829 -0.2822
 7778SOL    HW234968   4.231   3.686   3.599 -1.0337  3.4457  0.9944
 7779SOL     OW34969   0.891   4.256   4.564 -0.2246  0.4606 -0.5517
 7779SOL    HW134970   0.884   4.341   4.608 -0.7572 -0.5200  1.2734
 7779SOL    HW234971   0.973   4.270   4.516  0.5792 -2.1150  0.0991
 7780SOL     OW34972   2.006   0.283  10.236 -0.7436  0.3779  0.4256
 7780SOL    HW134973   2.043   0.371  10.248 -0.0258  0.0518  0.5924
 7780SOL    HW234974   2.073   0.244  10.181  0.0617  1.7586  0.4227
 7781SOL     OW34975   2.969   0.525   1.761 -0.5363  0.2202 -0.1147
 7781SOL    HW134976   2.996   0.597   1.817  0.2900  1.2162 -1.7730
 7781SOL    HW234977   3.000   0.549   1.673  3.1599 -1.1652  0.8302
 7782SOL     OW34978   0.220   1.573   7.518 -0.0754 -0.0656 -0.1411
 7782SOL    HW134979   0.259   1.503   7.570 -1.4248  1.4171  2.8233
 7782SOL    HW234980   0.191   1.628   7.591 -1.0909  0.2151 -0.7533
 7783SOL     OW34981   2.330   4.234   2.370  0.2346 -0.4517 -0.8554
 7783SOL    HW134982   2.420   4.252   2.342  0.0558  2.7081  0.5520
 7783SOL    HW234983   2.298   4.228   2.280  2.2584 -0.3268 -1.5949
 7784SOL     OW34984   2.758   1.867   7.692  0.6610  0.0161 -0.4623
 7784SOL    HW134985   2.783   1.930   7.624  2.5981  0.5757  0.7661
 7784SOL    HW234986   2.665   1.865   7.670  0.3907 -1.5325  0.8827
 7785SOL     OW34987   2.690   4.220   2.789 -0.6958 -0.2347 -0.2193
 7785SOL    HW134988   2.626   4.229   2.719  1.1279  2.3484 -1.5654
 7785SOL    HW234989   2.660   4.135   2.821 -1.3026 -0.7597 -2.2597
 7786SOL     OW34990   3.741   3.418   2.246 -0.0178  0.1750 -0.4174
 7786SOL    HW134991   3.751   3.484   2.178 -2.8203  0.5274 -0.5015
 7786SOL    HW234992   3.777   3.462   2.323  0.6823 -0.5126 -0.3535
 7787SOL     OW34993   4.534   0.230  16.918  0.6487  0.0342  0.1533
 7787SOL    HW134994   4.473   0.179  16.972 -1.2646 -1.2679 -3.2236
 7787SOL    HW234995   4.519   0.316  16.955 -1.1700  0.4501 -1.5597
 7788SOL     OW34996   4.030   0.978   4.711  0.1093  0.0125 -0.3775
 7788SOL    HW134997   4.047   0.899   4.763 -0.1062 -1.9332 -3.2302
 7788SOL    HW234998   4.116   0.998   4.674  0.1182  0.3264 -0.1847
 7789SOL     OW34999   0.702   0.164   4.248 -0.0242 -0.1614 -0.5321
 7789SOL    HW135000   0.772   0.229   4.237  0.9491 -0.7402  2.2700
 7789SOL    HW235001   0.631   0.228   4.254 -0.7882 -1.0139 -0.6161
 7790SOL     OW35002   3.705   0.063   4.501  0.4190  0.0321  0.4002
 7790SOL    HW135003   3.694   4.718   4.552 -0.2669 -0.6770 -0.8530
 7790SOL    HW235004   3.783   0.096   4.546 -0.7459  0.4898  2.1066
 7791SOL     OW35005   0.580   0.995   7.988  0.5210  0.2417 -0.0353
 7791SOL    HW135006   0.525   0.917   7.980  0.6512  0.4000 -2.7474
 7791SOL    HW235007   0.551   1.032   8.071  1.1102  0.3780  0.1117
 7792SOL     OW35008   1.588   4.300  13.853 -0.3294 -0.3083  0.0782
 7792SOL    HW135009   1.605   4.384  13.895 -1.3477 -0.2854  0.4494
 7792SOL    HW235010   1.565   4.333  13.766 -1.0642 -0.4680  0.2142
 7793SOL     OW35011   2.443   2.821   7.882  0.3444 -0.7291  0.3305
 7793SOL    HW135012   2.395   2.751   7.926 -0.2403 -0.4423  0.1562
 7793SOL    HW235013   2.471   2.877   7.954 -1.1348 -0.8904  1.0277
 7794SOL     OW35014   2.044   3.504   7.148 -0.5103 -1.0007 -0.1474
 7794SOL    HW135015   2.135   3.476   7.146 -0.1616  0.3438 -2.6708
 7794SOL    HW235016   2.037   3.548   7.064 -2.7476 -0.3271  0.3741
 7795SOL     OW35017   0.618   3.310   7.297  0.0925  0.2446 -0.8109
 7795SOL    HW135018   0.538   3.290   7.346 -1.4903  2.2002 -2.5557
 7795SOL    HW235019   0.599   3.263   7.215  0.3923 -2.7657  0.8607
 7796SOL     OW35020   1.599   2.422   5.635 -0.0282 -0.0977  0.4867
 7796SOL    HW135021   1.601   2.370   5.555 -0.1100  1.6042 -0.6323
 7796SOL    HW235022   1.656   2.497   5.614 -0.8773  0.2027 -0.7373
 7797SOL     OW35023   2.297   0.797   8.077  0.0119 -0.0419 -0.0429
 7797SOL    HW135024   2.234   0.768   8.010  0.0507  0.5721 -0.3382
 7797SOL    HW235025   2.356   0.849   8.023 -1.0739 -0.3262 -1.4991
 7798SOL     OW35026   0.044   4.493   7.433  0.0002  0.5487 -0.0283
 7798SOL    HW135027   0.021   4.419   7.490 -1.0801 -1.3549 -2.9655
 7798SOL    HW235028   0.038   4.452   7.347  2.3415  0.1881 -0.0030
 7799SOL     OW35029   0.599   2.072  14.107 -0.3453 -0.5349  0.0517
 7799SOL    HW135030   0.615   2.094  14.015  1.5366 -2.6747 -0.1397
 7799SOL    HW235031   0.660   1.999  14.121 -0.0041 -0.5707 -1.6017
 7800SOL     OW35032   1.787   3.158   6.558 -0.8441 -0.5669  0.1946
 7800SOL    HW135033   1.871   3.148   6.513 -2.0508  0.0754 -2.1929
 7800SOL    HW235034   1.795   3.087   6.622  1.0423 -0.2880  0.2811
 7801SOL     OW35035   3.956   3.656   5.182  0.3726 -0.0231  0.0874
 7801SOL    HW135036   4.031   3.673   5.239  0.0168  0.7840  0.3097
 7801SOL    HW235037   3.984   3.709   5.108  1.4669  1.7402  1.7839
 7802SOL     OW35038   1.118   2.707  12.309  0.4571 -0.3482 -0.3493
 7802SOL    HW135039   1.209   2.682  12.294  0.6304  0.9506 -1.4288
 7802SOL    HW235040   1.083   2.618  12.303  1.6887 -0.6773 -2.4022
 7803SOL     OW35041   2.899   2.772   3.601 -0.2324 -0.1868  0.1338
 7803SOL    HW135042   2.954   2.768   3.524  1.3593 -0.5789  1.2953
 7803SOL    HW235043   2.881   2.864   3.621 -0.2873  0.0038 -0.8080
 7804SOL     OW35044   1.900   1.534   0.719  0.0016 -0.9895  0.1045
 7804SOL    HW135045   1.817   1.501   0.753 -2.2163  1.0361 -3.2499
 7804SOL    HW235046   1.939   1.583   0.791 -1.1400 -0.8216  0.6099
 7805SOL     OW35047   1.536   3.622   2.614  0.3561 -0.2338 -0.0833
 7805SOL    HW135048   1.632   3.619   2.610  0.3548  0.8269 -0.7968
 7805SOL    HW235049   1.537   3.706   2.658  0.0365  0.9710 -2.3624
 7806SOL     OW35050   3.941   1.816  14.953 -0.1045  0.6977 -0.5279
 7806SOL    HW135051   3.898   1.731  14.958  0.6596  0.3991  0.9766
 7806SOL    HW235052   3.870   1.871  14.986 -1.2655 -0.4518 -1.1118
 7807SOL     OW35053   0.347   1.592   2.983  0.0156 -0.7934 -0.4742
 7807SOL    HW135054   0.382   1.667   2.936  1.2947 -0.7349  0.5747
 7807SOL    HW235055   0.337   1.622   3.073  3.8447 -0.7144 -0.0880
 7808SOL     OW35056   3.597   0.263   5.294 -0.1144  0.3791  0.5751
 7808SOL    HW135057   3.564   0.348   5.324 -1.2387  0.2833 -0.3964
 7808SOL    HW235058   3.632   0.229   5.376  3.9875  1.1320 -0.8704
 7809SOL     OW35059   2.396   2.286   6.897  0.0648 -0.3167  0.5998
 7809SOL    HW135060   2.392   2.341   6.975 -0.9372 -0.8192  0.9040
 7809SOL    HW235061   2.317   2.308   6.848 -0.4015  0.2259  1.6046
 7810SOL     OW35062   3.008   0.549   7.060 -0.3519 -0.4344  0.2772
 7810SOL    HW135063   3.042   0.616   7.001 -1.9332 -0.3163 -0.5040
 7810SOL    HW235064   2.983   0.594   7.141  0.3795  1.6753 -0.6711
 7811SOL     OW35065   0.845   2.835   9.214  0.5454  0.4546  0.3562
 7811SOL    HW135066   0.800   2.827   9.130  1.5957 -1.0233 -0.0543
 7811SOL    HW235067   0.878   2.746   9.221 -0.4235  0.0814  0.2131
 7812SOL     OW35068   4.025   3.579   7.406  0.1326 -0.0260 -0.2996
 7812SOL    HW135069   3.954   3.597   7.345  0.9705  1.6333 -0.7896
 7812SOL    HW235070   4.016   3.484   7.405  0.6572 -0.0863  0.5327
 7813SOL     OW35071   3.762   2.394   8.232  0.1419 -0.1862  0.0217
 7813SOL    HW135072   3.672   2.412   8.259 -0.1248  1.2897 -1.8458
 7813SOL    HW235073   3.765   2.300   8.250  0.0696 -0.1969 -0.0216
 7814SOL     OW35074   3.180   0.085  12.189 -0.3939 -0.5796  0.0018
 7814SOL    HW135075   3.121   0.137  12.135 -0.3199  1.2411  1.6892
 7814SOL    HW235076   3.151   4.733  12.161 -0.7994 -0.5172  0.2374
 7815SOL     OW35077   4.604   3.971  16.846  0.5341 -0.6485  0.1585
 7815SOL    HW135078   4.535   3.925  16.798 -0.6150  2.9414 -1.6174
 7815SOL    HW235079   4.629   4.044  16.789 -2.4867 -1.0363 -1.6408
 7816SOL     OW35080   2.322   1.009   2.416  0.3745  0.1847  0.0801
 7816SOL    HW135081   2.347   0.950   2.345 -0.8387 -0.7125  0.3994
 7816SOL    HW235082   2.228   1.002   2.404  0.2982  0.2666  0.6432
 7817SOL     OW35083   0.155   2.352   7.817  0.2816  0.2414  0.5088
 7817SOL    HW135084   0.169   2.396   7.733  2.6172 -1.4403  0.0361
 7817SOL    HW235085   0.155   2.260   7.792  1.2917  0.4366 -0.2080
 7818SOL     OW35086   2.252   2.304   9.282  0.1268 -0.5604 -0.3272
 7818SOL    HW135087   2.256   2.337   9.193  0.1580  0.3226  0.0017
 7818SOL    HW235088   2.332   2.252   9.292 -1.3729 -2.3895  2.4392
 7819SOL     OW35089   0.536   4.009   3.688  0.0257  0.0535 -0.1601
 7819SOL    HW135090   0.583   4.067   3.628 -1.1120 -1.4075 -2.4699
 7819SOL    HW235091   0.605   3.998   3.753  1.7397 -0.7355 -2.1259
 7820SOL     OW35092   1.391   1.215   2.815 -0.0676 -0.1899 -0.6113
 7820SOL    HW135093   1.420   1.226   2.906  1.1976 -0.4357 -0.9749
 7820SOL    HW235094   1.358   1.300   2.789 -0.2232 -0.2532 -0.6188
 7821SOL     OW35095   0.984   0.697  15.837  0.6996 -0.6107 -0.4991
 7821SOL    HW135096   1.057   0.643  15.866  0.2639 -0.4181  0.9525
 7821SOL    HW235097   1.031   0.779  15.851 -0.9038  0.4328 -1.1475
 7822SOL     OW35098   2.459   2.062  13.518  0.7137 -0.3747  0.1720
 7822SOL    HW135099   2.517   2.106  13.455  0.0895 -0.7084 -0.6461
 7822SOL    HW235100   2.397   2.021  13.458  1.0216 -1.7435  0.7948
 7823SOL     OW35101   2.275   3.222   1.731 -0.6546  0.1822 -0.1084
 7823SOL    HW135102   2.243   3.133   1.742  1.5593 -0.6104 -0.0554
 7823SOL    HW235103   2.259   3.260   1.817 -1.5696  0.4754 -0.4021
 7824SOL     OW35104   4.480   1.213  10.501 -0.1218  0.1793  0.5159
 7824SOL    HW135105   4.399   1.220  10.552 -0.9091  1.1945 -0.8704
 7824SOL    HW235106   4.512   1.123  10.502 -0.3078  0.0880 -1.5618
 7825SOL     OW35107   0.394   3.846   9.534 -0.2271 -0.6078 -0.9254
 7825SOL    HW135108   0.480   3.827   9.572  1.0260 -1.4079 -4.1148
 7825SOL    HW235109   0.405   3.929   9.489  2.2911 -0.5998 -0.2650
 7826SOL     OW35110   3.887   2.226  13.984 -0.6655  0.2127 -0.0102
 7826SOL    HW135111   3.885   2.260  14.073  0.9188 -3.8407  1.5290
 7826SOL    HW235112   3.979   2.233  13.962 -1.3572 -0.5436 -3.1370
 7827SOL     OW35113   1.194   2.343  11.308 -0.4328  0.2712 -0.0566
 7827SOL    HW135114   1.218   2.433  11.331 -1.0884  0.1746  1.0002
 7827SOL    HW235115   1.169   2.307  11.393 -1.8105 -1.6700 -1.2910
 7828SOL     OW35116   2.769   2.348   4.507  0.3841 -0.1556 -1.4149
 7828SOL    HW135117   2.841   2.373   4.449  2.2310 -1.0608  0.5112
 7828SOL    HW235118   2.789   2.260   4.539  2.7370  1.2824  1.0081
 7829SOL     OW35119   2.407   0.286  13.037 -0.2600  0.4799 -0.5451
 7829SOL    HW135120   2.355   0.233  13.099  0.7418 -2.8077 -2.5223
 7829SOL    HW235121   2.398   0.375  13.070 -1.7794  0.1969 -0.1709
 7830SOL     OW35122   1.817   0.662   7.718 -0.7713 -0.0510 -0.0025
 7830SOL    HW135123   1.881   0.607   7.672 -1.7070  0.1943 -1.5764
 7830SOL    HW235124   1.770   0.708   7.648 -0.6452  0.5634  0.3175
 7831SOL     OW35125   2.034   2.092   9.058 -0.3811 -0.4641  0.8411
 7831SOL    HW135126   2.108   2.033   9.047  0.1816  0.3684  0.1195
 7831SOL    HW235127   2.043   2.123   9.148  1.7873  0.4581  0.2913
 7832SOL     OW35128   2.466   4.097   8.746 -0.4952 -0.3260 -0.2436
 7832SOL    HW135129   2.508   4.025   8.698 -0.5694 -0.3582 -0.2607
 7832SOL    HW235130   2.505   4.172   8.701  1.4098 -0.8185  0.6305
 7833SOL     OW35131   3.650   3.588  17.556  0.2267  0.0212 -0.2269
 7833SOL    HW135132   3.622   3.621  17.471  0.8766 -3.5997 -1.8406
 7833SOL    HW235133   3.743   3.569  17.539 -0.0100 -1.3832  0.0045
 7834SOL     OW35134   2.876   1.944   7.318 -0.5522 -0.2202  1.0010
 7834SOL    HW135135   2.830   1.864   7.343 -4.0279  1.4298 -0.2299
 7834SOL    HW235136   2.844   2.011   7.378 -0.6304 -0.1371  0.8650
 7835SOL     OW35137   1.631   3.262   8.770  0.0467 -0.0428  0.7550
 7835SOL    HW135138   1.597   3.347   8.797  0.5069 -0.2032  1.8082
 7835SOL    HW235139   1.633   3.218   8.855 -4.6031 -2.1437 -0.2085
 7836SOL     OW35140   0.369   4.422  16.745  0.2111 -0.0948  0.0000
 7836SOL    HW135141   0.440   4.487  16.743 -0.8496  0.9827 -3.1466
 7836SOL    HW235142   0.299   4.478  16.778  0.5779  0.1306  0.3984
 7837SOL     OW35143   0.371   0.051   1.975  0.1338  0.5018 -0.3023
 7837SOL    HW135144   0.361   0.107   2.052 -0.3256  1.5028 -1.0822
 7837SOL    HW235145   0.310   0.087   1.910 -1.2437  2.2560  1.9751
 7838SOL     OW35146   0.662   2.772   3.066 -0.1602 -0.2631 -0.2887
 7838SOL    HW135147   0.593   2.751   3.129  1.8281 -2.0069  1.3165
 7838SOL    HW235148   0.697   2.683   3.056  1.3174  0.2791  0.0073
 7839SOL     OW35149   4.667   2.927   2.385  0.3051  0.2301 -0.4421
 7839SOL    HW135150   4.653   2.882   2.302 -0.8344 -3.1762  1.5686
 7839SOL    HW235151   4.713   2.862   2.439 -0.8370 -1.2356 -1.2384
 7840SOL     OW35152   1.902   0.119  16.805  0.0192  0.1047 -0.0986
 7840SOL    HW135153   1.864   0.031  16.804 -1.4760  0.7682 -1.9883
 7840SOL    HW235154   1.990   0.122  16.767  0.6014  1.2557  1.3205
 7841SOL     OW35155   4.321   0.755   2.586 -0.0868 -0.2631  0.5761
 7841SOL    HW135156   4.287   0.722   2.669 -1.2227  1.0189  0.6200
 7841SOL    HW235157   4.244   0.806   2.560 -0.0069 -0.2242  0.4146
 7842SOL     OW35158   1.788   2.490   5.433 -0.1098 -0.0433 -0.5417
 7842SOL    HW135159   1.770   2.576   5.395 -1.5578 -0.7999 -1.5581
 7842SOL    HW235160   1.804   2.440   5.353  3.0481  0.4388 -0.2092
 7843SOL     OW35161   1.249   0.389   4.238  0.1531  0.0361  0.1653
 7843SOL    HW135162   1.261   0.315   4.298 -1.8375  0.1522  0.7335
 7843SOL    HW235163   1.297   0.458   4.284  0.9587 -1.0437  0.9463
 7844SOL     OW35164   0.461   1.904  10.304 -0.3346 -0.2571  0.0563
 7844SOL    HW135165   0.477   1.986  10.256  2.4099 -1.0440 -0.3965
 7844SOL    HW235166   0.377   1.882  10.266 -0.3737 -1.0349  0.6068
 7845SOL     OW35167   0.007   3.908   6.832 -0.2702 -0.8925  0.2325
 7845SOL    HW135168   0.019   3.918   6.738  0.4942 -3.8607  0.0376
 7845SOL    HW235169   4.658   3.953   6.844  0.1625  0.1244 -0.5709
 7846SOL     OW35170   3.812   3.144  11.627 -0.5688  0.5527 -0.2453
 7846SOL    HW135171   3.733   3.093  11.606  0.7239 -1.6302  0.2871
 7846SOL    HW235172   3.843   3.144  11.536  1.4685 -0.8351  0.4758
 7847SOL     OW35173   3.241   2.506  16.963 -0.1031  0.0411  0.2437
 7847SOL    HW135174   3.291   2.588  16.971 -1.7601  1.1634 -0.9694
 7847SOL    HW235175   3.157   2.529  16.924 -0.8050 -0.8788  1.2356
 7848SOL     OW35176   4.226   1.813  16.773  0.0214 -0.1860 -0.0793
 7848SOL    HW135177   4.304   1.868  16.783 -1.5624  2.2337 -1.2432
 7848SOL    HW235178   4.209   1.825  16.680 -1.4478  0.3223  0.2545
 7849SOL     OW35179   0.462   0.410   6.815  0.0986 -0.5797 -0.7633
 7849SOL    HW135180   0.465   0.409   6.911 -2.3675 -3.2493 -0.7297
 7849SOL    HW235181   0.496   0.324   6.791  2.0470 -0.6648  2.2442
 7850SOL     OW35182   3.163   1.314  10.608 -0.3285 -0.4040 -0.3519
 7850SOL    HW135183   3.100   1.292  10.540 -1.8354  0.6766  0.7021
 7850SOL    HW235184   3.250   1.306  10.568 -0.2969  0.8969 -0.5244
 7851SOL     OW35185   3.059   1.888   5.855  0.3783  0.4358 -0.1057
 7851SOL    HW135186   3.111   1.817   5.893  2.5413  0.7986 -2.3622
 7851SOL    HW235187   2.974   1.879   5.899  0.0038 -0.2674 -0.9664
 7852SOL     OW35188   0.464   3.855   1.428  0.1654  0.2024  0.1567
 7852SOL    HW135189   0.383   3.902   1.450 -0.2004 -1.0110  1.3444
 7852SOL    HW235190   0.485   3.896   1.344 -2.5595 -1.1727 -1.1711
 7853SOL     OW35191   2.324   4.460   6.235  0.1557 -0.5017  0.0811
 7853SOL    HW135192   2.320   4.545   6.192  1.0270 -1.3867 -1.7215
 7853SOL    HW235193   2.410   4.426   6.212  0.5165  0.4867 -0.0239
 7854SOL     OW35194   1.686   3.367   8.354 -0.7469  0.0201  1.0540
 7854SOL    HW135195   1.627   3.337   8.423 -0.1406  1.1872  2.0825
 7854SOL    HW235196   1.631   3.440   8.325 -2.6034 -1.5017  0.7807
 7855SOL     OW35197   1.934   0.454   2.854 -0.3929 -0.5429 -0.0744
 7855SOL    HW135198   1.955   0.541   2.821 -0.7579  0.0540  1.2758
 7855SOL    HW235199   2.025   0.425   2.850  0.2823  1.6913 -0.9072
 7856SOL     OW35200   4.662   0.496   2.161  0.2810  0.1617 -0.3953
 7856SOL    HW135201   4.688   0.588   2.167 -0.0302  0.1495  1.1556
 7856SOL    HW235202   4.599   0.501   2.090  1.9831  2.1039 -1.7708
 7857SOL     OW35203   4.337   1.803   3.913  0.4129 -0.0667 -0.0869
 7857SOL    HW135204   4.275   1.817   3.985  0.2116  0.5381 -0.3786
 7857SOL    HW235205   4.321   1.710   3.898  1.6997 -0.1775 -0.7688
 7858SOL     OW35206   2.947   3.060   6.495 -0.0183 -0.4325 -0.2747
 7858SOL    HW135207   3.019   3.069   6.558  1.3444 -0.9320 -1.7594
 7858SOL    HW235208   2.985   3.119   6.429  0.5003  0.0750  0.4760
 7859SOL     OW35209   3.793   2.417   4.849 -0.0817  0.3697  0.5245
 7859SOL    HW135210   3.756   2.364   4.920 -1.7352 -0.1220 -0.6852
 7859SOL    HW235211   3.720   2.401   4.788 -0.6906  1.8628  0.8726
 7860SOL     OW35212   2.932   4.640   9.386 -0.7317 -0.3945 -0.3127
 7860SOL    HW135213   2.935   4.571   9.320  0.4642 -0.6706  0.0235
 7860SOL    HW235214   2.934   4.595   9.471  3.1823 -1.3570 -0.9085
 7861SOL     OW35215   0.931   1.409   0.828  0.1434 -0.1688  0.9437
 7861SOL    HW135216   0.982   1.413   0.746  0.6812  0.3215  1.3012
 7861SOL    HW235217   0.940   1.318   0.857  2.3612 -0.5445 -0.9323
 7862SOL     OW35218   3.515   1.136   4.159  0.2337  0.5058  0.2241
 7862SOL    HW135219   3.596   1.179   4.189  0.9023 -0.3364 -0.4038
 7862SOL    HW235220   3.524   1.152   4.066  0.2897 -0.3995  0.0763
 7863SOL     OW35221   0.686   0.382   0.704 -0.3120 -0.3319 -0.5071
 7863SOL    HW135222   0.615   0.341   0.753 -0.7088  0.1384 -0.6838
 7863SOL    HW235223   0.648   0.469   0.690 -1.7284 -1.3090 -2.8456
 7864SOL     OW35224   3.630   0.003   2.340 -0.5090  0.1849 -0.1359
 7864SOL    HW135225   3.618   0.066   2.269 -0.9464 -0.2371 -0.4374
 7864SOL    HW235226   3.681   4.676   2.289  1.4650 -0.9752  3.2205
 7865SOL     OW35227   2.217   1.922   8.477 -0.2948  0.1160 -0.3180
 7865SOL    HW135228   2.199   1.932   8.570 -0.9942 -1.5947 -0.2726
 7865SOL    HW235229   2.220   2.017   8.469  0.3651  0.2334  1.3015
 7866SOL     OW35230   3.736   2.410   6.721 -0.4133 -0.0908  0.2634
 7866SOL    HW135231   3.729   2.505   6.724  0.0523 -0.0321 -0.7918
 7866SOL    HW235232   3.780   2.400   6.806  0.8313  0.2193 -0.3429
 7867SOL     OW35233   2.239   3.436   2.468  0.2728  0.4267 -0.0294
 7867SOL    HW135234   2.268   3.486   2.544  0.3226  1.6617 -0.8487
 7867SOL    HW235235   2.281   3.477   2.392  1.2405  0.7426  0.6905
 7868SOL     OW35236   1.407   0.208   3.600 -0.0731 -0.0898 -0.0899
 7868SOL    HW135237   1.397   0.123   3.558  0.4902 -1.2803  2.1650
 7868SOL    HW235238   1.427   0.267   3.527 -1.5715  0.0830 -0.3537
 7869SOL     OW35239   1.809   4.447  13.646 -0.2029  0.1060  0.1684
 7869SOL    HW135240   1.762   4.364  13.654  1.2987 -0.7522 -0.0215
 7869SOL    HW235241   1.874   4.437  13.716  0.8312  3.2857 -0.3241
 7870SOL     OW35242   0.779   1.527  16.053  0.2800 -0.6647  0.8253
 7870SOL    HW135243   0.704   1.556  16.002  1.0281  1.5964  1.0056
 7870SOL    HW235244   0.818   1.613  16.065 -1.1812  0.0719  0.2657
 7871SOL     OW35245   1.977   0.559   8.255 -0.1504 -0.6410 -0.1210
 7871SOL    HW135246   1.991   0.625   8.188  2.1865 -1.4864 -0.4963
 7871SOL    HW235247   1.885   0.533   8.247 -0.0258 -0.7895 -0.9932
 7872SOL     OW35248   3.823   4.732   9.452 -0.5153  0.1964  0.3284
 7872SOL    HW135249   3.735   0.033   9.435 -0.5290  0.1725  0.3490
 7872SOL    HW235250   3.846   4.673   9.380  1.3718  0.5828  0.6210
 7873SOL     OW35251   2.002   1.299   5.062  0.3790  0.0353 -0.4677
 7873SOL    HW135252   1.988   1.292   5.156 -4.0219  0.8286 -1.0765
 7873SOL    HW235253   1.945   1.371   5.037  0.1109 -0.1289 -0.3257
 7874SOL     OW35254   4.410   0.718  14.361 -0.2608 -0.8425  0.2532
 7874SOL    HW135255   4.354   0.796  14.367  0.0966 -0.5721  0.0536
 7874SOL    HW235256   4.352   0.651  14.397 -1.8779  0.0080 -0.7509
 7875SOL     OW35257   3.747   4.301   3.543 -0.5991 -0.2525 -0.1346
 7875SOL    HW135258   3.831   4.261   3.522  0.0562  1.1476 -0.2139
 7875SOL    HW235259   3.750   4.329   3.635  1.5764  2.1722 -0.9361
 7876SOL     OW35260   3.960   1.373   7.467 -0.2365 -0.2864 -0.1454
 7876SOL    HW135261   4.050   1.404   7.456 -1.6653  3.2664 -1.6927
 7876SOL    HW235262   3.942   1.416   7.551 -1.5356 -1.6848  0.2910
 7877SOL     OW35263   4.506   4.649  12.846  0.4454  0.7454 -0.1129
 7877SOL    HW135264   4.585   4.637  12.794 -0.0480  2.4725 -1.2468
 7877SOL    HW235265   4.483   0.004  12.825 -2.1064 -0.1579 -1.1512
 7878SOL     OW35266   0.700   1.806   2.940  0.5429  0.6305  0.2126
 7878SOL    HW135267   0.612   1.840   2.954  0.5449  0.6338  0.2173
 7878SOL    HW235268   0.718   1.826   2.848  1.5720  1.9891  0.7126
 7879SOL     OW35269   0.096   3.065   1.294  0.0152 -0.3130 -0.0646
 7879SOL    HW135270   0.093   3.076   1.389  2.8744  1.4933 -0.2001
 7879SOL    HW235271   0.176   3.107   1.263 -0.0515 -0.0913  0.0700
 7880SOL     OW35272   0.370   1.458   9.600 -0.5304 -0.2718  0.0411
 7880SOL    HW135273   0.376   1.553   9.591 -0.3457 -0.3290 -0.4282
 7880SOL    HW235274   0.450   1.438   9.553 -0.6752 -2.4090  0.6951
 7881SOL     OW35275   0.261   2.459   5.283 -0.2651  0.1836  0.4492
 7881SOL    HW135276   0.280   2.509   5.203 -2.9279 -0.2232 -0.4344
 7881SOL    HW235277   0.312   2.514   5.343 -1.2043 -0.1215  1.5305
 7882SOL     OW35278   0.129   2.705   1.753 -0.2423  0.3453 -0.7129
 7882SOL    HW135279   0.105   2.674   1.666 -1.9373  0.2026 -0.1925
 7882SOL    HW235280   0.163   2.622   1.788  0.2570  1.8206  2.3255
 7883SOL     OW35281   3.726   1.890   7.580  0.2664 -0.2288 -0.7361
 7883SOL    HW135282   3.805   1.844   7.609 -0.2924 -1.0557 -0.5512
 7883SOL    HW235283   3.690   1.835   7.511 -2.2825 -1.4832  1.6052
 7884SOL     OW35284   4.267   3.500   5.038 -0.6953 -0.6195  0.2160
 7884SOL    HW135285   4.253   3.542   4.954  0.4146  0.5640  0.6332
 7884SOL    HW235286   4.194   3.437   5.033 -1.3402  0.0515  1.0704
 7885SOL     OW35287   3.754   0.581   7.644 -0.2528 -0.3525  0.2459
 7885SOL    HW135288   3.722   0.546   7.727 -1.9657 -0.4749 -0.4786
 7885SOL    HW235289   3.702   0.661   7.638  0.0227 -0.0365  2.0800
 7886SOL     OW35290   1.795   3.773   6.044  0.0982 -0.1459 -0.4687
 7886SOL    HW135291   1.789   3.785   5.949  1.8458 -1.1735 -0.7227
 7886SOL    HW235292   1.838   3.687   6.041 -3.1135 -1.6335 -3.6039
 7887SOL     OW35293   1.659   4.083   8.422  0.2459 -0.1843 -0.1300
 7887SOL    HW135294   1.650   4.084   8.517  0.5847 -0.3261 -0.0960
 7887SOL    HW235295   1.592   4.138   8.382 -0.8977  0.1079  2.2083
 7888SOL     OW35296   1.101   1.938   3.711 -0.1324 -0.2968 -0.1824
 7888SOL    HW135297   1.094   1.861   3.654 -1.8822  0.7755 -1.3960
 7888SOL    HW235298   1.178   1.988   3.683 -0.7197  0.6670 -0.0623
 7889SOL     OW35299   3.009   2.385   6.066  0.1532 -0.6626 -0.2385
 7889SOL    HW135300   3.024   2.436   6.146  1.3067  1.3835 -1.7335
 7889SOL    HW235301   2.962   2.454   6.020  1.7682 -0.2085 -1.2110
 7890SOL     OW35302   2.876   3.752   2.129  0.1130 -0.2023  0.0900
 7890SOL    HW135303   2.943   3.688   2.108  1.0230  1.0010 -0.7055
 7890SOL    HW235304   2.923   3.834   2.142 -0.6121 -0.4727  4.3554
 7891SOL     OW35305   2.196   3.313   9.680  0.3046  0.3785 -0.1810
 7891SOL    HW135306   2.172   3.285   9.592  1.1990 -0.2513 -0.2254
 7891SOL    HW235307   2.255   3.246   9.716 -0.0345  1.0478  1.6330
 7892SOL     OW35308   0.784   4.295   1.202 -0.3972  0.0896 -0.0033
 7892SOL    HW135309   0.717   4.359   1.228  0.5655  1.3039 -0.5244
 7892SOL    HW235310   0.803   4.318   1.111  0.1479 -0.8014 -0.1062
 7893SOL     OW35311   4.579   0.649  15.957  0.0947 -0.4443 -0.0424
 7893SOL    HW135312   4.653   0.589  15.950  0.7417  0.1256  2.0473
 7893SOL    HW235313   4.609   0.710  15.889 -0.3065 -1.2595 -0.9524
 7894SOL     OW35314   2.849   4.661  14.348 -0.0295  0.4466  0.6805
 7894SOL    HW135315   2.922   4.627  14.297 -0.5274  1.1619 -0.4871
 7894SOL    HW235316   2.822   4.724  14.281  1.0141  0.7537  0.5517
 7895SOL     OW35317   3.169   4.356   8.569  0.0530  0.1516 -0.2568
 7895SOL    HW135318   3.077   4.331   8.564 -0.2938  1.0043  2.0092
 7895SOL    HW235319   3.176   4.339   8.475 -1.8840  0.0848 -0.3893
 7896SOL     OW35320   2.084   4.104  14.985 -0.3642 -1.3302 -0.2863
 7896SOL    HW135321   2.040   4.145  15.059  0.8406  0.2581 -0.4524
 7896SOL    HW235322   2.000   4.090  14.941 -0.7419 -1.4665  0.4862
 7897SOL     OW35323   0.178   4.330   5.366  0.4487  0.2449  0.0691
 7897SOL    HW135324   0.123   4.294   5.436  1.2453 -0.1885  0.4636
 7897SOL    HW235325   0.153   4.267   5.299  0.7485  0.4538 -0.2362
 7898SOL     OW35326   0.150   3.523   2.157 -1.2264  0.3770 -0.1317
 7898SOL    HW135327   0.124   3.517   2.065  2.5178 -3.3326 -0.9226
 7898SOL    HW235328   0.193   3.441   2.178  1.8377  2.0207  0.0723
 7899SOL     OW35329   0.359   0.075   9.750 -0.0578 -0.0863 -0.0668
 7899SOL    HW135330   0.315   4.728   9.731  0.8347 -0.0785 -2.0822
 7899SOL    HW235331   0.434   0.040   9.798 -0.0176 -1.4420 -1.1311
 7900SOL     OW35332   0.971   2.754  17.623  0.0554  0.1192  0.3173
 7900SOL    HW135333   0.884   2.732  17.592 -0.0399 -0.5432  1.0701
 7900SOL    HW235334   0.997   2.799  17.543  0.2680 -2.0818 -0.8496
 7901SOL     OW35335   0.726   3.903   9.569  0.3864  0.0325 -0.4821
 7901SOL    HW135336   0.668   3.930   9.640  1.2024 -2.0001  0.9626
 7901SOL    HW235337   0.783   3.847   9.622  1.8565  0.4668 -1.5818
 7902SOL     OW35338   2.769   3.939   1.300 -0.6658  0.1943  0.2539
 7902SOL    HW135339   2.702   3.983   1.247  0.9084  2.8919  0.5156
 7902SOL    HW235340   2.730   3.852   1.306 -0.3764 -0.0723 -1.5353
 7903SOL     OW35341   3.477   4.725  16.766 -0.0120  0.6134  0.0088
 7903SOL    HW135342   3.556   4.695  16.811 -0.6087  1.5533  1.6633
 7903SOL    HW235343   3.457   4.647  16.714  2.6011  0.1096 -0.2318
 7904SOL     OW35344   3.163   2.555  14.366 -0.1424  0.0393  0.0299
 7904SOL    HW135345   3.134   2.593  14.283 -0.8001 -0.9789 -0.2029
 7904SOL    HW235346   3.156   2.619  14.436 -0.7514 -1.7460  1.5805
 7905SOL     OW35347   0.274   1.628  12.968 -0.1747  0.4889  0.7063
 7905SOL    HW135348   0.283   1.684  13.045  0.0153 -2.3234  2.6904
 7905SOL    HW235349   0.209   1.572  13.010 -1.1622 -0.5822 -2.2639
 7906SOL     OW35350   4.689   3.269   2.576 -0.5710 -0.0709 -0.7473
 7906SOL    HW135351   0.038   3.249   2.535 -0.1590 -1.8104  0.9678
 7906SOL    HW235352   4.658   3.181   2.596 -0.0511  0.4172  2.2318
 7907SOL     OW35353   4.495   2.695  15.401  0.6415  0.8132 -0.0674
 7907SOL    HW135354   4.521   2.690  15.493 -0.0322  0.5328  0.1070
 7907SOL    HW235355   4.447   2.612  15.410  1.6506  0.1134 -1.0360
 7908SOL     OW35356   0.067   1.968  16.028  0.5380 -0.3011 -0.1844
 7908SOL    HW135357   0.043   2.014  16.108  1.3358 -1.3579  0.6623
 7908SOL    HW235358   0.076   2.035  15.961 -0.7340  0.4600  0.4106
 7909SOL     OW35359   3.500   4.043   8.523  0.3097  0.1127 -0.0909
 7909SOL    HW135360   3.476   4.086   8.606  0.1612  1.0546 -0.6277
 7909SOL    HW235361   3.475   3.956   8.554 -0.2007  0.4397  0.4296
 7910SOL     OW35362   1.970   4.370  13.829  0.3893  0.8914 -0.1452
 7910SOL    HW135363   2.057   4.409  13.824  1.1893 -1.0628 -1.3252
 7910SOL    HW235364   1.973   4.301  13.895  0.0475  0.4765 -0.5658
 7911SOL     OW35365   1.181   3.588   8.564 -0.3634 -0.0777 -0.1213
 7911SOL    HW135366   1.205   3.675   8.597  1.0329 -0.2407 -0.6847
 7911SOL    HW235367   1.087   3.578   8.579  0.4144 -1.3662  3.8874
 7912SOL     OW35368   0.587   3.419   3.569  0.1040  0.4482  0.1747
 7912SOL    HW135369   0.579   3.475   3.491  0.2719  0.9697  0.5312
 7912SOL    HW235370   0.568   3.490   3.631 -3.5919 -0.6800  0.3051
 7913SOL     OW35371   1.715   3.849  16.692  0.1664 -0.3472 -0.1424
 7913SOL    HW135372   1.716   3.832  16.598 -2.1403 -0.1322 -0.2040
 7913SOL    HW235373   1.641   3.794  16.716 -0.2683  0.6930  0.9665
 7914SOL     OW35374   1.300   3.678   1.828 -0.7591 -0.0271  0.2681
 7914SOL    HW135375   1.378   3.627   1.806 -0.6179 -0.3053  1.4276
 7914SOL    HW235376   1.245   3.624   1.884 -0.4710 -1.4347 -0.8333
 7915SOL     OW35377   0.955   0.661   9.177 -0.0589 -0.3328 -0.1475
 7915SOL    HW135378   0.963   0.756   9.172  0.5772 -0.4221 -0.7912
 7915SOL    HW235379   0.996   0.645   9.262 -0.9200  0.3843  0.4025
 7916SOL     OW35380   3.282   2.896   4.899  0.1530  0.6714  0.6257
 7916SOL    HW135381   3.365   2.873   4.858 -0.4454 -0.9435  0.3434
 7916SOL    HW235382   3.257   2.819   4.951 -2.0922  2.7928  2.7203
 7917SOL     OW35383   0.502   1.267   0.883 -0.2996 -0.0183 -0.3758
 7917SOL    HW135384   0.452   1.333   0.931 -0.8585 -0.1759 -0.7450
 7917SOL    HW235385   0.592   1.300   0.885  0.5782 -2.5605  2.1229
 7918SOL     OW35386   0.086   0.958   1.418 -0.5298 -0.4314 -0.0521
 7918SOL    HW135387   0.156   0.924   1.362 -1.9272 -3.3484 -0.0589
 7918SOL    HW235388   0.055   1.036   1.373  0.5823  0.3953  0.6332
 7919SOL     OW35389   0.583   3.169  13.453  0.0350  0.0695 -0.1387
 7919SOL    HW135390   0.531   3.107  13.402  0.6882 -0.2880 -0.3558
 7919SOL    HW235391   0.552   3.171  13.543 -0.5321 -0.6601 -0.3235
 7920SOL     OW35392   3.691   1.277   0.664  0.5105  0.5446 -0.3732
 7920SOL    HW135393   3.646   1.211   0.611 -0.7977  1.6488 -0.6338
 7920SOL    HW235394   3.625   1.322   0.716 -0.6076 -1.1787 -0.3168
 7921SOL     OW35395   0.841   4.417   2.541  0.5686  0.1087  0.0250
 7921SOL    HW135396   0.928   4.385   2.565  1.0304  0.7815 -0.7628
 7921SOL    HW235397   0.784   4.362   2.595  1.3874  0.4337  1.2164
 7922SOL     OW35398   1.071   2.489   6.307 -0.7249 -0.5350  0.7570
 7922SOL    HW135399   1.031   2.402   6.305 -2.6491  0.3833 -0.4733
 7922SOL    HW235400   1.080   2.495   6.402 -1.9274  1.8288  0.7089
 7923SOL     OW35401   0.660   4.735   5.604  0.0784 -0.2087  0.3740
 7923SOL    HW135402   0.703   4.712   5.686  0.9206  0.5421  0.1398
 7923SOL    HW235403   0.622   0.086   5.622 -0.0398  0.3027 -2.2838
 7924SOL     OW35404   3.114   0.100   6.018 -0.0374  0.0785 -0.5241
 7924SOL    HW135405   3.094   0.094   5.925  1.3459 -0.7238 -0.7591
 7924SOL    HW235406   3.075   0.021   6.055 -1.4059  1.1244  0.3149
 7925SOL     OW35407   4.031   2.694   3.005 -0.1325 -0.1623 -0.3011
 7925SOL    HW135408   3.986   2.778   2.997 -1.6476 -1.0971 -1.4931
 7925SOL    HW235409   3.972   2.637   2.956 -0.8535  0.6293 -0.3406
 7926SOL     OW35410   1.269   4.521  11.663 -0.3415 -0.5025 -0.1464
 7926SOL    HW135411   1.343   4.545  11.608 -0.4229  0.6642  0.2718
 7926SOL    HW235412   1.233   4.454  11.604  0.6933  1.0131 -2.5034
 7927SOL     OW35413   3.573   0.698   9.217  0.4091  0.3246  0.1091
 7927SOL    HW135414   3.484   0.714   9.249  0.3537 -0.3475  0.3049
 7927SOL    HW235415   3.629   0.757   9.268  1.3826 -0.9296  0.4975
 7928SOL     OW35416   3.032   4.354   3.152  0.0094 -0.2166 -0.1127
 7928SOL    HW135417   2.993   4.303   3.081  1.6300 -0.8387 -0.5567
 7928SOL    HW235418   3.005   4.442   3.125  1.8721  0.3053 -0.3199
 7929SOL     OW35419   4.426   2.715  13.964 -0.1821  0.3183  0.2965
 7929SOL    HW135420   4.343   2.755  13.988  0.3355 -0.6404  3.7512
 7929SOL    HW235421   4.473   2.739  14.044 -0.0444 -0.3562  0.4178
 7930SOL     OW35422   2.920   2.621   5.014 -0.0287 -0.1115 -0.4312
 7930SOL    HW135423   2.925   2.713   5.039 -0.8826  0.2069 -1.4341
 7930SOL    HW235424   2.884   2.576   5.090 -1.9149  0.2716 -1.1056
 7931SOL     OW35425   0.535   1.985   6.721 -0.0201 -0.4607 -0.0717
 7931SOL    HW135426   0.577   1.929   6.786 -2.9260  1.0351  3.1007
 7931SOL    HW235427   0.466   1.925   6.692 -1.0438  1.0434 -0.7266
 7932SOL     OW35428   3.349   1.539   5.221 -0.1811  0.2117  0.2320
 7932SOL    HW135429   3.376   1.451   5.247  0.0141 -0.2755 -1.6254
 7932SOL    HW235430   3.258   1.553   5.248  0.3337  0.3139  1.9454
 7933SOL     OW35431   1.247   2.411   6.737  0.0293  0.1252 -0.0085
 7933SOL    HW135432   1.219   2.462   6.813 -2.1498  1.6934 -1.8633
 7933SOL    HW235433   1.208   2.460   6.665 -0.7249 -0.8432 -0.2404
 7934SOL     OW35434   3.715   1.459   4.372 -0.3272 -0.2576 -0.4176
 7934SOL    HW135435   3.620   1.464   4.361 -0.3931 -1.5257 -0.4247
 7934SOL    HW235436   3.740   1.369   4.352 -1.9643  0.0620 -3.9338
 7935SOL     OW35437   2.078   2.723   5.218  0.3149 -0.5259  0.0548
 7935SOL    HW135438   2.036   2.643   5.248 -1.4838 -0.8284 -3.2866
 7935SOL    HW235439   1.999   2.765   5.184  0.9028  1.1341  0.6819
 7936SOL     OW35440   4.122   2.252  16.329  0.1295  0.1354  0.5629
 7936SOL    HW135441   4.209   2.213  16.327  1.6603  3.8460 -5.5617
 7936SOL    HW235442   4.103   2.225  16.418  0.2706  0.4569  0.6897
 7937SOL     OW35443   1.225   0.171  16.913  0.4609  0.4560 -0.1324
 7937SOL    HW135444   1.241   0.151  16.821 -0.5986  0.0659 -0.2380
 7937SOL    HW235445   1.190   0.260  16.905  0.2577  0.4455  0.6825
 7938SOL     OW35446   3.844   3.183  12.102 -0.0388  0.8615 -0.1294
 7938SOL    HW135447   3.806   3.189  12.015 -2.9279 -1.0395  0.9978
 7938SOL    HW235448   3.936   3.189  12.080  1.3805 -0.4549  5.2858
 7939SOL     OW35449   3.892   1.460   7.717 -0.2168 -0.0966 -0.2230
 7939SOL    HW135450   3.813   1.423   7.756 -0.2129  1.9179  1.6680
 7939SOL    HW235451   3.960   1.423   7.774  0.1284 -1.9192 -1.8055
 7940SOL     OW35452   3.523   4.549   2.855 -0.2818 -0.1268 -0.2618
 7940SOL    HW135453   3.481   4.619   2.905  1.5325  0.4494  0.4607
 7940SOL    HW235454   3.606   4.595   2.846 -0.7055  0.6046 -0.3655
 7941SOL     OW35455   1.769   0.998   8.965  0.5288  0.3552  0.5960
 7941SOL    HW135456   1.743   1.031   9.051 -3.4704 -0.0192 -0.4504
 7941SOL    HW235457   1.837   0.937   8.993  0.6568 -0.0830 -0.6601
 7942SOL     OW35458   0.765   4.593  11.724  0.0296 -0.1290  0.5756
 7942SOL    HW135459   0.719   4.511  11.707 -2.5910  1.6906 -0.9909
 7942SOL    HW235460   0.825   4.557  11.790  0.2584 -2.4724 -0.9107
 7943SOL     OW35461   3.828   1.100  11.754 -1.0028 -0.6086 -0.1956
 7943SOL    HW135462   3.881   1.170  11.715 -0.1449 -0.9017  0.4373
 7943SOL    HW235463   3.882   1.063  11.824 -0.4101 -0.3358 -0.5101
 7944SOL     OW35464   0.736   0.428   4.800 -0.2093 -0.1723 -0.3244
 7944SOL    HW135465   0.776   0.447   4.715 -0.8809  0.4511 -0.5036
 7944SOL    HW235466   0.667   0.367   4.775  0.6367 -1.0097 -0.6199
 7945SOL     OW35467   1.914   3.817   2.454  0.0005  0.1038 -0.2212
 7945SOL    HW135468   1.933   3.724   2.446 -0.3947 -0.1363  1.6738
 7945SOL    HW235469   1.912   3.841   2.362  1.9988  0.9298 -0.0495
 7946SOL     OW35470   2.085   3.825   8.721  0.6032  0.0114 -0.4770
 7946SOL    HW135471   2.165   3.777   8.740  0.4734  0.2690  0.7359
 7946SOL    HW235472   2.113   3.916   8.724  1.3591 -0.1914 -1.3626
 7947SOL     OW35473   1.142   2.470   9.425  0.4400 -0.0708 -0.3867
 7947SOL    HW135474   1.143   2.420   9.344 -2.1086 -0.9128  0.1005
 7947SOL    HW235475   1.154   2.560   9.394  0.2705 -0.3135 -1.1615
 7948SOL     OW35476   1.870   1.360   7.124 -0.0927  0.1723 -0.4315
 7948SOL    HW135477   1.926   1.364   7.046 -0.0445  0.8159 -0.3587
 7948SOL    HW235478   1.837   1.270   7.120  1.3819 -0.3924  0.0463
 7949SOL     OW35479   2.859   1.391   7.077 -0.1755 -0.3215  0.2601
 7949SOL    HW135480   2.841   1.387   6.983  0.0543 -0.0206  0.2036
 7949SOL    HW235481   2.785   1.348   7.119 -1.9002  1.6352 -0.7972
 7950SOL     OW35482   0.100   2.099  15.515  0.2409 -0.7552 -0.6463
 7950SOL    HW135483   0.179   2.046  15.528  0.6161  0.4594  1.9392
 7950SOL    HW235484   0.147   2.179  15.537  0.7189 -0.9795 -0.8492
 7951SOL     OW35485   4.474   3.462   5.599  0.1378  0.1613  0.6595
 7951SOL    HW135486   4.503   3.446   5.688 -0.9703 -1.4757  0.7353
 7951SOL    HW235487   4.507   3.380   5.561 -0.1398 -0.1437  1.0759
 7952SOL     OW35488   1.569   2.904   5.208  0.4837 -0.1351 -0.3521
 7952SOL    HW135489   1.546   2.987   5.249  3.8551  0.1881  0.8435
 7952SOL    HW235490   1.586   2.935   5.119 -0.9148 -0.5189 -0.7650
 7953SOL     OW35491   0.248   3.277   6.239  0.1916 -0.1554  0.0789
 7953SOL    HW135492   0.219   3.310   6.324  0.2068  1.1485 -0.4126
 7953SOL    HW235493   0.328   3.231   6.263  1.4504  2.2328  0.4034
 7954SOL     OW35494   4.655   2.870  15.217  0.2236 -0.0906  0.1498
 7954SOL    HW135495   4.629   2.845  15.305  0.5763 -1.3680 -0.1122
 7954SOL    HW235496   4.637   2.964  15.218  0.1458 -0.1395  2.2915
 7955SOL     OW35497   2.441   1.912  11.517  0.0857  0.1717  0.0975
 7955SOL    HW135498   2.352   1.947  11.529 -0.5168 -0.5549 -2.1404
 7955SOL    HW235499   2.431   1.839  11.455 -0.9020 -1.4378  2.1265
 7956SOL     OW35500   3.909   0.369   6.250 -0.4101 -0.1933 -0.3871
 7956SOL    HW135501   3.971   0.404   6.186  0.7080  0.6428  1.1716
 7956SOL    HW235502   3.947   0.389   6.335 -0.7797  1.7768 -0.6921
 7957SOL     OW35503   1.723   0.219   6.087 -0.3664 -0.3067  0.6562
 7957SOL    HW135504   1.707   0.242   6.179  0.6975  1.5662  0.3963
 7957SOL    HW235505   1.789   0.151   6.101  1.1667  1.3702  1.7277
 7958SOL     OW35506   4.620   0.706  16.244 -0.0975  0.1833 -0.2797
 7958SOL    HW135507   4.646   0.687  16.154 -0.0676  0.1914 -0.2730
 7958SOL    HW235508   4.535   0.664  16.250 -0.2540  0.7920  1.8247
 7959SOL     OW35509   2.002   3.661   4.219  0.0164 -0.2315 -0.0604
 7959SOL    HW135510   2.067   3.600   4.184 -1.3057 -0.4555 -2.1323
 7959SOL    HW235511   1.928   3.640   4.162 -1.0620  1.9412  0.5385
 7960SOL     OW35512   3.632   0.719   5.268 -1.0806 -0.3638  0.3301
 7960SOL    HW135513   3.593   0.694   5.184  2.1671  2.5839 -2.0522
 7960SOL    HW235514   3.598   0.808   5.279 -0.2837 -0.3110  2.3576
 7961SOL     OW35515   1.498   0.046   8.609  0.6182 -0.2632  0.3272
 7961SOL    HW135516   1.497   0.116   8.675 -3.3876 -1.6590  1.7829
 7961SOL    HW235517   1.580   0.005   8.636  0.0310 -2.1139 -0.7013
 7962SOL     OW35518   4.051   4.455   6.356  0.0575  1.0860  0.1375
 7962SOL    HW135519   3.967   4.421   6.388  0.2130  0.9946  0.4470
 7962SOL    HW235520   4.027   4.459   6.263  0.2118  0.8773  0.0901
 7963SOL     OW35521   3.233   2.567   9.728  1.0029 -0.5503  0.2226
 7963SOL    HW135522   3.222   2.473   9.743  0.3562 -0.7374 -1.3805
 7963SOL    HW235523   3.305   2.573   9.665  1.5202 -0.5030  0.8227
 7964SOL     OW35524   2.313   0.629   5.394 -0.0991 -0.2210  0.5557
 7964SOL    HW135525   2.262   0.560   5.352  1.2205 -0.4823 -0.6484
 7964SOL    HW235526   2.403   0.597   5.388 -0.3515 -0.7332 -0.5000
 7965SOL     OW35527   0.767   4.682   2.471 -0.1510 -0.4024  0.0908
 7965SOL    HW135528   0.828   4.699   2.400 -0.0134 -1.0549  0.0548
 7965SOL    HW235529   0.795   4.594   2.497  2.9047  0.3830 -0.4873
 7966SOL     OW35530   1.199   0.108   1.054  0.2676  0.5573  0.7959
 7966SOL    HW135531   1.281   0.137   1.095  0.2056 -0.1789  1.4338
 7966SOL    HW235532   1.157   0.188   1.023  0.5351  1.3355  2.3876
 7967SOL     OW35533   3.293   0.778   9.633 -0.2602  0.2428  0.0484
 7967SOL    HW135534   3.240   0.759   9.710  1.6479 -1.5141  0.9168
 7967SOL    HW235535   3.294   0.874   9.638 -0.8500  0.2079  0.7373
 7968SOL     OW35536   0.281   1.344   7.692 -0.6200 -0.0897 -0.5001
 7968SOL    HW135537   0.196   1.324   7.730  1.0710  1.1628  3.8851
 7968SOL    HW235538   0.278   1.301   7.606 -1.3991 -0.4105 -0.3100
 7969SOL     OW35539   4.713   3.858  12.463  0.4884  0.3711 -1.0727
 7969SOL    HW135540   4.659   3.780  12.473 -1.8228  1.9174 -1.4494
 7969SOL    HW235541   0.046   3.842  12.529 -0.6695  0.8760  0.2436
 7970SOL     OW35542   1.951   3.469  15.557 -0.1021  0.3098  0.1186
 7970SOL    HW135543   2.018   3.413  15.596  2.1078  4.1491  1.8856
 7970SOL    HW235544   1.898   3.490  15.633 -0.7574 -0.3312 -0.1683
 7971SOL     OW35545   3.975   0.065   4.074 -0.4568  0.3817 -0.2912
 7971SOL    HW135546   4.036   0.129   4.036  1.2223 -1.2028 -0.2844
 7971SOL    HW235547   3.952   0.028   3.988 -0.8705  1.0427 -0.4680
 7972SOL     OW35548   2.498   3.052   8.542 -0.4136  0.1301  0.1089
 7972SOL    HW135549   2.492   3.136   8.496  1.6775  0.8905  1.1938
 7972SOL    HW235550   2.405   3.030   8.545 -0.4608  0.4356  0.7374
 7973SOL     OW35551   2.976   3.519   3.072 -0.0289 -0.1919  1.2496
 7973SOL    HW135552   2.927   3.497   2.992  1.1451  1.1334  0.1785
 7973SOL    HW235553   2.960   3.438   3.122  0.7524 -2.2238 -1.7673
 7974SOL     OW35554   3.137   4.546   7.375  0.3559 -0.0221  0.1533
 7974SOL    HW135555   3.075   4.480   7.406  0.8057 -0.4295  0.1845
 7974SOL    HW235556   3.090   4.617   7.332  0.5226 -0.0836 -0.1315
 7975SOL     OW35557   1.029   3.126   6.818  0.7046 -0.7442 -0.1684
 7975SOL    HW135558   1.005   3.057   6.880  0.5582 -0.8267 -0.3163
 7975SOL    HW235559   1.091   3.172   6.875  0.7624  0.5961 -1.3034
 7976SOL     OW35560   3.417   2.466   5.404 -0.5427 -0.6277  0.2044
 7976SOL    HW135561   3.362   2.526   5.453  1.3990  1.8914 -0.7021
 7976SOL    HW235562   3.419   2.392   5.465 -0.5233  1.3775  2.6083
 7977SOL     OW35563   1.751   1.942   6.062  0.7363 -0.7143  0.0067
 7977SOL    HW135564   1.690   1.958   5.991 -1.5004 -3.3903  1.3630
 7977SOL    HW235565   1.808   2.018   6.046 -2.0031  1.9184  2.5962
 7978SOL     OW35566   0.812   4.425   6.245  0.3815  0.1245  0.2712
 7978SOL    HW135567   0.838   4.334   6.227  0.3964 -0.0384  1.1354
 7978SOL    HW235568   0.900   4.458   6.263  0.5013 -0.5385  0.9178
 7979SOL     OW35569   1.710   4.008   0.816  0.0090  0.1696  0.0798
 7979SOL    HW135570   1.669   3.993   0.902  0.8720  2.1354  0.8439
 7979SOL    HW235571   1.730   3.919   0.787  0.2499 -0.4608  2.1518
 7980SOL     OW35572   4.193   1.721   1.904  0.1106  0.6214  0.0936
 7980SOL    HW135573   4.277   1.755   1.934 -0.4921  2.0339  0.1478
 7980SOL    HW235574   4.156   1.787   1.845 -1.0009 -0.9322 -0.9707
 7981SOL     OW35575   0.490   2.141   9.654 -0.3338 -0.1026  0.1777
 7981SOL    HW135576   0.405   2.102   9.675 -0.8764 -0.3013 -2.4268
 7981SOL    HW235577   0.462   2.209   9.593 -0.7245 -0.1450  0.3109
 7982SOL     OW35578   2.885   4.356  11.926 -0.1855 -0.4529  0.1076
 7982SOL    HW135579   2.882   4.265  11.894 -0.0953 -0.0591 -1.0221
 7982SOL    HW235580   2.835   4.407  11.863 -1.1236 -1.2329  0.2240
 7983SOL     OW35581   1.999   2.343   9.429  0.4123 -0.4361  0.1311
 7983SOL    HW135582   1.954   2.261   9.406 -0.2435 -0.5174  1.6806
 7983SOL    HW235583   2.064   2.339   9.359 -1.9352  2.3402 -2.1905
 7984SOL     OW35584   3.523   1.230   5.555  0.4665 -0.5695 -0.4472
 7984SOL    HW135585   3.479   1.303   5.598 -0.4757 -0.8776 -0.8819
 7984SOL    HW235586   3.610   1.256   5.583  0.0864  2.1683 -1.7842
 7985SOL     OW35587   1.841   4.125  10.671 -0.2250  0.6021 -0.2999
 7985SOL    HW135588   1.874   4.195  10.615  2.6346  1.0385  1.9431
 7985SOL    HW235589   1.902   4.055  10.694 -1.1201  0.1953  0.8463
 7986SOL     OW35590   1.731   2.453  15.511  0.3198 -0.5924 -0.1120
 7986SOL    HW135591   1.792   2.472  15.583  0.7974  0.7669 -0.8799
 7986SOL    HW235592   1.715   2.540  15.474  0.7207 -0.6171 -0.3492
 7987SOL     OW35593   1.281   2.443  11.575 -0.4969 -0.3141  0.3374
 7987SOL    HW135594   1.199   2.393  11.570 -1.1039  0.5273  1.9478
 7987SOL    HW235595   1.265   2.515  11.515  1.6944  0.8745  1.1983
 7988SOL     OW35596   1.140   1.210   7.556 -0.5853  0.3797  1.0301
 7988SOL    HW135597   1.068   1.256   7.513 -0.1909 -0.3580 -0.4153
 7988SOL    HW235598   1.097   1.187   7.638  0.5594  0.0143  1.5258
 7989SOL     OW35599   1.863   2.703  11.500  0.6586 -0.6264 -0.1896
 7989SOL    HW135600   1.851   2.786  11.455  1.6196 -0.4906 -0.1918
 7989SOL    HW235601   1.955   2.685  11.478  0.6424  0.9809 -1.5505
 7990SOL     OW35602   0.227   3.349  15.078  0.3636  0.0576  0.1056
 7990SOL    HW135603   0.319   3.328  15.068  0.4502  1.5985 -2.2265
 7990SOL    HW235604   0.192   3.271  15.121  2.8907 -2.2576 -2.1095
 7991SOL     OW35605   4.078   3.089   5.544  0.1683  0.0132 -0.2633
 7991SOL    HW135606   4.092   3.003   5.585  1.5331  1.0240  1.3901
 7991SOL    HW235607   4.057   3.063   5.454  1.9075  0.6763 -0.8620
 7992SOL     OW35608   2.829   1.135   8.782  0.7783  0.5021 -1.1225
 7992SOL    HW135609   2.877   1.161   8.703 -0.3086  0.8205 -1.6858
 7992SOL    HW235610   2.792   1.220   8.807 -0.2053 -0.8547  2.0375
 7993SOL     OW35611   1.180   4.592   3.004  0.2245  0.2791  0.1546
 7993SOL    HW135612   1.204   4.682   2.981  0.9596  0.4315  1.5191
 7993SOL    HW235613   1.125   4.555   2.935 -0.4301  0.0231  0.8164
 7994SOL     OW35614   1.798   4.425   3.803 -0.1673 -0.0283 -0.3128
 7994SOL    HW135615   1.857   4.422   3.878  0.0090  0.9100 -0.4086
 7994SOL    HW235616   1.849   4.486   3.749 -0.4929 -0.6425 -1.3174
 7995SOL     OW35617   2.373   4.510   1.343 -0.0674  0.1452 -0.2319
 7995SOL    HW135618   2.425   4.431   1.336 -1.8715 -1.0500 -0.0965
 7995SOL    HW235619   2.434   4.572   1.303 -0.4861 -0.2856 -1.5181
 7996SOL     OW35620   2.845   1.812  14.059 -0.4465 -0.5853  0.4502
 7996SOL    HW135621   2.894   1.835  13.980 -0.7358  0.2665  0.5249
 7996SOL    HW235622   2.862   1.889  14.113 -0.5643  0.7276 -1.3573
 7997SOL     OW35623   3.409   1.803  17.625 -0.2422 -0.5931 -0.5491
 7997SOL    HW135624   3.467   1.761  17.688 -1.1021 -0.4269  0.3560
 7997SOL    HW235625   3.400   1.893  17.656  1.2646 -0.2039 -1.2392
 7998SOL     OW35626   4.641   2.480   2.542  0.1694 -0.0804 -0.3650
 7998SOL    HW135627   4.653   2.386   2.532  2.3104 -0.1311  2.9147
 7998SOL    HW235628   4.576   2.479   2.613  2.4133  2.5490  1.7236
 7999SOL     OW35629   3.788   1.324   2.225 -0.1725  0.2666  0.1603
 7999SOL    HW135630   3.860   1.268   2.196 -1.6366 -0.9362 -1.1325
 7999SOL    HW235631   3.728   1.306   2.153 -0.2747  2.6993 -0.3550
 8000SOL     OW35632   1.891   1.356   3.978 -0.4666 -0.0729  0.6118
 8000SOL    HW135633   1.970   1.305   3.963 -0.0678  0.2312  1.6536
 8000SOL    HW235634   1.924   1.446   3.981  0.8325 -0.5156 -0.3066
 8001SOL     OW35635   4.310   2.582   7.571 -0.3564 -0.3774  0.2703
 8001SOL    HW135636   4.357   2.656   7.532 -1.3474 -0.3756 -0.8798
 8001SOL    HW235637   4.269   2.630   7.643  3.3915 -1.0178  2.8367
 8002SOL     OW35638   2.594   4.527   6.882 -0.1345 -0.5152  0.4730
 8002SOL    HW135639   2.560   4.576   6.957 -1.9599 -0.8559 -0.1312
 8002SOL    HW235640   2.660   4.593   6.859 -0.9566 -0.0609 -0.5921
 8003SOL     OW35641   3.185   4.533   7.791  0.2224  0.1721 -0.1127
 8003SOL    HW135642   3.096   4.497   7.794  0.7178 -1.2298 -1.9987
 8003SOL    HW235643   3.181   4.571   7.703  2.8529  0.5837 -0.0237
 8004SOL     OW35644   1.088   0.545   1.982  0.0317 -0.3749  0.6129
 8004SOL    HW135645   1.006   0.541   2.032 -1.1745  2.0453 -1.1443
 8004SOL    HW235646   1.080   0.461   1.938  0.5219  0.8038 -1.7363
 8005SOL     OW35647   0.009   1.999   5.529 -0.7476 -0.4039  0.4044
 8005SOL    HW135648   4.725   1.908   5.507 -0.3434 -0.8216  1.7669
 8005SOL    HW235649   0.104   1.999   5.517 -0.9373  0.1828 -1.0567
 8006SOL     OW35650   3.804   2.708   1.801 -0.9586  0.1587 -0.1385
 8006SOL    HW135651   3.831   2.719   1.710 -1.5658  1.8272 -0.1108
 8006SOL    HW235652   3.769   2.621   1.784 -2.3773  1.1174 -2.1229
 8007SOL     OW35653   4.508   4.013   0.408 -0.3055  0.1421 -0.3298
 8007SOL    HW135654   4.514   3.917   0.414 -0.0442  0.2614  1.3090
 8007SOL    HW235655   4.586   4.020   0.354 -0.4396 -0.2297 -0.5782
 8008SOL     OW35656   1.748   2.990   4.194  0.2448 -0.7356 -0.1486
 8008SOL    HW135657   1.807   3.009   4.120  0.0163  1.1017  0.1476
 8008SOL    HW235658   1.764   2.898   4.215 -2.3762 -0.6837  1.9763
 8009SOL     OW35659   0.376   3.253  17.050  0.2524 -0.1922  0.8606
 8009SOL    HW135660   0.352   3.251  17.142  1.0153  1.3031  1.0806
 8009SOL    HW235661   0.309   3.313  17.018 -1.0185 -1.5216  1.0096
 8010SOL     OW35662   0.247   2.941   8.079 -0.1477 -0.3438 -0.6728
 8010SOL    HW135663   0.202   3.007   8.025 -0.4366 -0.1085 -0.1430
 8010SOL    HW235664   0.178   2.879   8.101  1.6701 -0.5631  4.3482
 8011SOL     OW35665   0.353   0.102   6.789 -0.2326  0.3224 -0.1453
 8011SOL    HW135666   0.271   0.056   6.773 -1.0657  1.3935  1.0959
 8011SOL    HW235667   0.318   0.168   6.848 -0.0309 -0.3484  0.7378
 8012SOL     OW35668   4.142   3.455   2.794  0.0274 -0.2185 -0.1312
 8012SOL    HW135669   4.211   3.503   2.841 -0.9134  1.2144 -0.1982
 8012SOL    HW235670   4.066   3.496   2.836  0.5508 -1.5059  2.0892
 8013SOL     OW35671   0.161   0.835   8.079  0.1335  0.2965 -0.1472
 8013SOL    HW135672   0.149   0.929   8.087  0.5493  0.5335 -2.3312
 8013SOL    HW235673   0.083   0.808   8.129  0.0812  0.9852  0.1405
 8014SOL     OW35674   0.989   0.261   3.855  0.1109  0.3561  0.3853
 8014SOL    HW135675   0.976   0.186   3.913 -1.0409  0.6205  0.4625
 8014SOL    HW235676   1.065   0.300   3.899  0.2692  0.9716 -0.4333
 8015SOL     OW35677   2.102   4.191   6.283 -0.8718  0.1246  0.4421
 8015SOL    HW135678   2.009   4.198   6.304 -1.6230 -1.7497 -2.3016
 8015SOL    HW235679   2.141   4.273   6.315  2.1273  0.0047 -2.9190
 8016SOL     OW35680   0.749   1.246   3.696 -0.0671  0.1213 -0.5690
 8016SOL    HW135681   0.809   1.259   3.769  0.7055  1.2782 -1.4242
 8016SOL    HW235682   0.779   1.306   3.628  0.3859  0.9581  0.3729
 8017SOL     OW35683   4.462   1.765   6.575  0.5239  0.1715  0.8023
 8017SOL    HW135684   4.432   1.853   6.597 -2.3190  0.0628 -2.5222
 8017SOL    HW235685   4.410   1.715   6.638  0.9348 -0.9441  0.2510
 8018SOL     OW35686   4.635   1.476   8.022  0.1238 -0.4074 -0.2183
 8018SOL    HW135687   4.601   1.558   8.058  0.5189  0.1929 -1.2055
 8018SOL    HW235688   4.699   1.517   7.964  1.9886 -0.4300  1.8242
 8019SOL     OW35689   4.660   2.310   8.371 -0.1218  0.2024 -0.4171
 8019SOL    HW135690   4.584   2.252   8.378  0.3993 -0.5735 -1.1686
 8019SOL    HW235691   4.622   2.379   8.317  1.5504  1.3490 -0.1435
 8020SOL     OW35692   3.891   1.748   4.787  0.1896 -0.5525  0.0765
 8020SOL    HW135693   3.887   1.671   4.843  0.0130 -0.6046 -0.0060
 8020SOL    HW235694   3.845   1.714   4.710 -0.2177  2.0726 -0.8628
 8021SOL     OW35695   2.474   2.862   3.647  0.0619  0.2878 -0.2147
 8021SOL    HW135696   2.403   2.824   3.699  0.6208  1.3589  1.3364
 8021SOL    HW235697   2.544   2.846   3.711  0.5106  0.6960 -0.6106
 8022SOL     OW35698   0.465   2.467   8.997 -0.0350  0.1019 -0.3381
 8022SOL    HW135699   0.549   2.495   8.960  0.5226 -1.5067 -0.2732
 8022SOL    HW235700   0.411   2.546   8.986 -2.6517 -1.4555  1.4628
 8023SOL     OW35701   1.868   2.563   4.612 -0.5315  0.5055  0.6674
 8023SOL    HW135702   1.942   2.509   4.585 -1.2070  0.6380 -1.4743
 8023SOL    HW235703   1.858   2.611   4.530  0.6944  0.4505  0.4929
 8024SOL     OW35704   4.275   2.571   6.982  0.2465  0.5541 -0.1059
 8024SOL    HW135705   4.253   2.639   6.918 -1.2938 -0.7320 -0.9422
 8024SOL    HW235706   4.226   2.500   6.942  1.7112 -1.4074  1.5929
 8025SOL     OW35707   1.894   0.487   7.521  0.1457 -0.3717 -0.2628
 8025SOL    HW135708   1.965   0.423   7.516 -0.7998 -1.4668  0.1608
 8025SOL    HW235709   1.819   0.443   7.481  0.5575 -1.0516 -0.2833
 8026SOL     OW35710   3.920   3.785   6.289 -0.0701  0.0310  0.6409
 8026SOL    HW135711   3.991   3.786   6.353  0.3723  0.8620  0.1375
 8026SOL    HW235712   3.920   3.694   6.261  2.0550 -0.5255  2.4761
 8027SOL     OW35713   4.160   1.862  15.171  0.2002 -0.0871  0.2043
 8027SOL    HW135714   4.066   1.863  15.190 -0.1295  0.3611 -1.3800
 8027SOL    HW235715   4.194   1.877  15.259 -0.4734 -0.3169  0.5029
 8028SOL     OW35716   2.076   1.377  10.512 -0.2831 -0.5971 -0.1451
 8028SOL    HW135717   2.139   1.322  10.559 -1.1978 -1.1387  0.4674
 8028SOL    HW235718   2.134   1.414  10.446  1.4332  0.1261  1.7891
 8029SOL     OW35719   1.995   2.018   7.258 -0.1955  0.2758 -0.7386
 8029SOL    HW135720   1.983   2.039   7.166  1.0146 -1.9355 -1.3974
 8029SOL    HW235721   1.958   1.930   7.253  1.1131 -0.4984  3.2331
 8030SOL     OW35722   0.573   1.420   0.327  0.0166 -0.5864 -0.1807
 8030SOL    HW135723   0.484   1.385   0.325 -0.0394 -0.4507 -0.0764
 8030SOL    HW235724   0.586   1.428   0.421  0.8848  0.5837 -0.3938
 8031SOL     OW35725   0.775   0.361  12.626 -0.2340  0.0752 -0.3035
 8031SOL    HW135726   0.709   0.345  12.693 -1.1394  0.9964 -0.9789
 8031SOL    HW235727   0.741   0.312  12.551 -0.0925 -0.8305  0.2216
 8032SOL     OW35728   2.928   0.979   3.855 -0.1329  0.2004  0.2328
 8032SOL    HW135729   2.912   0.977   3.949 -1.3304  2.6778  0.0938
 8032SOL    HW235730   2.923   1.071   3.829 -1.7659 -0.0916 -0.4727
 8033SOL     OW35731   1.292   0.598  17.732  0.7380  0.0787  0.1114
 8033SOL    HW135732   1.386   0.610  17.720  0.4274  0.5761 -1.8048
 8033SOL    HW235733   1.279   0.580   0.086  0.5187  0.6305  0.1884
 8034SOL     OW35734   1.059   2.797   2.619  0.2333 -0.1557 -0.0533
 8034SOL    HW135735   1.120   2.816   2.690  0.2947 -1.3973  0.2389
 8034SOL    HW235736   1.034   2.705   2.627 -0.6541  0.1766  0.8899
 8035SOL     OW35737   1.741   1.724  17.417  0.5202  0.5439  0.3667
 8035SOL    HW135738   1.780   1.645  17.454  0.5987 -0.1451 -1.1907
 8035SOL    HW235739   1.687   1.685  17.349  0.8343  0.7278  0.0067
 8036SOL     OW35740   3.623   1.822   8.265 -0.0968  0.5017  0.1103
 8036SOL    HW135741   3.575   1.839   8.184 -1.0308  0.5320  0.6690
 8036SOL    HW235742   3.555   1.795   8.327 -0.6482 -1.0227 -1.1673
 8037SOL     OW35743   0.671   2.726   8.198 -0.0419 -0.2310  0.2210
 8037SOL    HW135744   0.653   2.632   8.209 -2.2037  0.3995  2.2286
 8037SOL    HW235745   0.604   2.750   8.134  1.4093  0.9975 -0.8170
 8038SOL     OW35746   2.957   0.449  11.018 -0.6083  0.1296 -0.7627
 8038SOL    HW135747   2.938   0.517  11.082 -0.3978 -1.1644  0.6887
 8038SOL    HW235748   2.964   0.391  11.094  2.7527  0.1163 -1.1144
 8039SOL     OW35749   4.256   2.711  12.121  0.3131  0.6192  0.0689
 8039SOL    HW135750   4.334   2.723  12.175  0.9257 -1.1000 -0.4292
 8039SOL    HW235751   4.212   2.662  12.190  2.3092  1.0541  1.6480
 8040SOL     OW35752   1.097   1.920   5.328 -0.2255  0.1418 -0.1994
 8040SOL    HW135753   1.133   1.872   5.253 -0.6536  1.6053 -1.3549
 8040SOL    HW235754   1.082   2.000   5.277 -1.5863  1.2921  1.9903
 8041SOL     OW35755   3.753   1.930   9.340 -0.0894  0.1514  0.0947
 8041SOL    HW135756   3.694   1.857   9.318  0.1760  0.0503 -0.2767
 8041SOL    HW235757   3.842   1.898   9.346  0.0873  0.6940  0.3893
 8042SOL     OW35758   1.978   2.157  10.652 -0.1201  0.1143 -0.1249
 8042SOL    HW135759   1.945   2.205  10.576  0.4362  0.0693 -0.3915
 8042SOL    HW235760   2.026   2.228  10.695  0.2353 -0.1445 -0.0944
 8043SOL     OW35761   2.820   3.574  16.956  0.1208 -0.0710 -0.6112
 8043SOL    HW135762   2.774   3.506  17.006 -0.4896  1.0345  0.3102
 8043SOL    HW235763   2.752   3.641  16.954 -0.5611 -0.7231  0.8943
 8044SOL     OW35764   1.267   1.868   4.231  0.1933  0.2271  0.2206
 8044SOL    HW135765   1.264   1.892   4.139  1.2864 -0.9987 -0.1312
 8044SOL    HW235766   1.258   1.951   4.279 -2.1658 -0.8078  1.6071
 8045SOL     OW35767   0.773   0.258   0.218 -0.6682  0.6729  0.6710
 8045SOL    HW135768   0.760   0.343   0.176 -1.9917  0.3022  0.3426
 8045SOL    HW235769   0.792   0.200   0.145 -2.1032 -1.4978  2.0260
 8046SOL     OW35770   0.627   2.012   5.667  0.4437 -0.8219 -0.4369
 8046SOL    HW135771   0.554   2.073   5.664  0.3141 -0.8646  2.0044
 8046SOL    HW235772   0.626   1.992   5.761 -0.2645 -3.1050 -0.9157
 8047SOL     OW35773   1.187   2.517   5.002  0.0397  0.1246 -0.1084
 8047SOL    HW135774   1.253   2.553   5.062  0.5364 -0.6429 -0.1911
 8047SOL    HW235775   1.248   2.497   4.931  0.8963 -0.6100  0.8305
 8048SOL     OW35776   0.537   2.009   4.915 -0.0973  0.5185 -0.1138
 8048SOL    HW135777   0.463   2.019   4.976 -1.0015  0.8505 -1.2672
 8048SOL    HW235778   0.521   1.929   4.863  1.6306 -0.2589  0.5627
 8049SOL     OW35779   2.619   0.583  11.803 -0.1058 -0.7331 -0.0715
 8049SOL    HW135780   2.614   0.679  11.802  0.5634 -0.7361 -2.2634
 8049SOL    HW235781   2.611   0.571  11.898 -0.3619  0.3749  0.0523
 8050SOL     OW35782   3.744   0.884   5.807  0.4034  0.5299 -0.3389
 8050SOL    HW135783   3.658   0.848   5.829  0.1479  1.1573 -0.3171
 8050SOL    HW235784   3.789   0.825   5.747  0.2096  0.3323 -0.2904
 8051SOL     OW35785   1.539   2.554  16.387  0.1292 -0.4402  0.1752
 8051SOL    HW135786   1.524   2.482  16.326 -0.5861  0.0706 -0.2553
 8051SOL    HW235787   1.566   2.623  16.326 -2.6206 -0.2130 -0.7703
 8052SOL     OW35788   0.136   1.337   2.038  0.0401  0.5974  0.4987
 8052SOL    HW135789   0.202   1.405   2.050  0.6276 -0.1929  1.7749
 8052SOL    HW235790   0.058   1.391   2.054  0.7473  2.2861 -1.8025
 8053SOL     OW35791   1.002   3.354  17.286 -0.4061 -0.4085  0.3234
 8053SOL    HW135792   0.930   3.391  17.236  2.3312  0.2374 -3.2036
 8053SOL    HW235793   1.073   3.344  17.222  0.7217  0.0690  1.4916
 8054SOL     OW35794   3.324   2.760   4.459 -0.0179 -1.0710 -0.5598
 8054SOL    HW135795   3.355   2.687   4.406 -0.8487 -0.9062 -1.2735
 8054SOL    HW235796   3.272   2.716   4.526  1.9920 -0.0957  1.6512
 8055SOL     OW35797   0.932   1.060  13.979  0.2901 -0.2528  0.1724
 8055SOL    HW135798   0.925   1.057  14.075  0.2432  1.8427  0.2194
 8055SOL    HW235799   0.849   1.092  13.945 -0.3205  1.1889  3.0556
 8056SOL     OW35800   2.037   1.994   0.272 -0.0878  0.0985 -0.2781
 8056SOL    HW135801   2.009   2.085   0.283 -1.5371 -0.4590  0.8605
 8056SOL    HW235802   1.974   1.965   0.206  0.6667 -0.6888 -0.6528
 8057SOL     OW35803   1.184   3.536   1.193  0.3130  0.2371 -0.6302
 8057SOL    HW135804   1.132   3.599   1.242  0.8550  0.1501  0.0587
 8057SOL    HW235805   1.148   3.547   1.105  2.4914  0.7158 -1.4612
 8058SOL     OW35806   4.492   0.341  11.232  0.0826  0.4725 -0.1265
 8058SOL    HW135807   4.466   0.347  11.324 -0.6056  1.0001 -0.3496
 8058SOL    HW235808   4.421   0.389  11.189 -0.9292 -1.2346 -0.3588
 8059SOL     OW35809   0.575   0.897   8.362 -0.1843  0.0532 -0.3202
 8059SOL    HW135810   0.546   0.969   8.306  1.3222  0.3731 -0.7063
 8059SOL    HW235811   0.511   0.888   8.432  1.5426 -0.4740  1.2147
 8060SOL     OW35812   2.470   3.174  13.390  0.4583  0.3198 -0.4733
 8060SOL    HW135813   2.434   3.178  13.479  0.6115  0.3146 -0.4095
 8060SOL    HW235814   2.456   3.082  13.366 -1.6671  0.0327  1.8028
 8061SOL     OW35815   1.904   4.379   7.696 -0.3135  0.4356 -0.6524
 8061SOL    HW135816   1.870   4.466   7.717 -2.7095 -0.5441 -0.4991
 8061SOL    HW235817   1.918   4.346   7.785 -0.5101  1.5419 -0.2147
 8062SOL     OW35818   1.089   0.751   4.416 -0.0049 -0.2347  0.5855
 8062SOL    HW135819   1.032   0.699   4.359 -0.3535 -1.0753  1.6927
 8062SOL    HW235820   1.043   0.834   4.424 -2.8602 -1.6319 -1.2228
 8063SOL     OW35821   4.652   4.623   2.334 -0.0715  0.0800 -0.0660
 8063SOL    HW135822   4.611   4.707   2.352  1.8844  0.9156  0.4246
 8063SOL    HW235823   4.690   4.632   2.247  0.8093 -0.3544  0.2701
 8064SOL     OW35824   0.330   3.947   9.266 -0.1863  0.0543 -0.2152
 8064SOL    HW135825   0.393   3.876   9.250 -0.0614  0.6225 -2.1573
 8064SOL    HW235826   0.391   4.014   9.296 -1.4130  0.7162  0.8076
 8065SOL     OW35827   4.612   1.827   7.839  0.2988 -0.4710 -0.2884
 8065SOL    HW135828   4.608   1.807   7.933 -0.1292  2.2136  0.2684
 8065SOL    HW235829   4.524   1.796   7.818  0.0394 -2.3000  3.4341
 8066SOL     OW35830   2.723   4.270   9.545  0.4750  0.3147 -0.4899
 8066SOL    HW135831   2.661   4.326   9.497  0.5507 -0.6109 -1.6809
 8066SOL    HW235832   2.701   4.307   9.630 -1.3331 -0.6829 -0.5303
 8067SOL     OW35833   0.005   2.625   2.322  0.0376  0.1413  0.0268
 8067SOL    HW135834   0.085   2.586   2.287 -0.1041 -1.0525  1.0355
 8067SOL    HW235835   4.720   2.560   2.389 -1.9073 -0.9791 -1.6186
 8068SOL     OW35836   0.784   2.965   4.531  0.3855 -0.0459 -0.3730
 8068SOL    HW135837   0.851   2.901   4.506 -0.4427 -2.2369  3.0058
 8068SOL    HW235838   0.834   3.028   4.583  1.2181 -0.8599 -0.1719
 8069SOL     OW35839   3.783   2.994  14.647  0.5353  0.2816  0.1490
 8069SOL    HW135840   3.697   3.034  14.635  0.8950  1.0478  0.1036
 8069SOL    HW235841   3.835   3.066  14.684 -0.4640  0.4643  1.1999
 8070SOL     OW35842   1.539   2.881   1.998 -0.4145 -0.2879 -0.3743
 8070SOL    HW135843   1.622   2.928   2.000  1.2561 -3.1741 -1.6568
 8070SOL    HW235844   1.473   2.950   1.996  0.1598  0.2221 -1.9897
 8071SOL     OW35845   2.092   3.951   6.987 -0.2792 -0.1444 -0.0597
 8071SOL    HW135846   2.065   4.041   7.007  0.1254 -0.4331  1.7017
 8071SOL    HW235847   2.009   3.922   6.950  0.6322 -1.7959 -0.8149
 8072SOL     OW35848   3.551   1.174   3.417  0.2803  0.5600  0.1292
 8072SOL    HW135849   3.487   1.244   3.426  1.9011  1.6652  3.2077
 8072SOL    HW235850   3.498   1.116   3.471  1.6642 -1.0967 -0.2716
 8073SOL     OW35851   2.246   0.558   8.222 -0.5278  0.0375 -0.1287
 8073SOL    HW135852   2.151   0.554   8.206 -0.4404  0.9933 -0.8555
 8073SOL    HW235853   2.277   0.646   8.200  1.6615 -0.1882  2.0306
 8074SOL     OW35854   2.004   3.679  17.478 -0.6621  0.2697  0.3330
 8074SOL    HW135855   2.040   3.748  17.532 -4.0036  2.4862 -0.3223
 8074SOL    HW235856   1.910   3.687  17.492 -0.6846  1.0563 -0.2711
 8075SOL     OW35857   0.972   4.409   6.871  0.6602  0.0459  0.5728
 8075SOL    HW135858   1.001   4.472   6.805 -3.2348 -1.1826 -2.3315
 8075SOL    HW235859   0.923   4.350   6.813 -0.6045 -0.0466  1.7462
 8076SOL     OW35860   3.480   4.680   8.161 -0.5832 -0.5378 -0.1799
 8076SOL    HW135861   3.505   4.596   8.123  1.1713  0.7346 -1.8127
 8076SOL    HW235862   3.428   4.725   8.094 -0.7546 -0.2456  0.1477
 8077SOL     OW35863   3.294   0.258   5.643 -0.4520  0.1401  0.5510
 8077SOL    HW135864   3.386   0.237   5.663 -0.2006  1.0159  0.3259
 8077SOL    HW235865   3.267   0.317   5.713  1.5116  3.2801 -1.2843
 8078SOL     OW35866   1.245   4.357   1.968  0.0986 -0.3032  0.2126
 8078SOL    HW135867   1.231   4.273   1.924 -1.2043  0.4392 -0.7574
 8078SOL    HW235868   1.194   4.408   1.906  0.0502  0.8876  1.2342
 8079SOL     OW35869   0.206   2.128   5.733 -0.1308  0.2441 -0.2736
 8079SOL    HW135870   0.287   2.106   5.687 -0.4911  0.9472 -1.2420
 8079SOL    HW235871   0.185   2.038   5.757  0.3993 -1.1340 -5.0384
 8080SOL     OW35872   3.110   0.695   0.383 -0.2700  0.4612 -0.0619
 8080SOL    HW135873   3.192   0.745   0.377  0.9367 -1.6119 -0.9415
 8080SOL    HW235874   3.052   0.770   0.374  0.3099  0.7801 -1.1288
 8081SOL     OW35875   2.997   1.936   8.092  0.4711 -0.2457 -0.3019
 8081SOL    HW135876   3.021   2.019   8.134 -1.0144  0.1474 -0.2296
 8081SOL    HW235877   2.927   1.914   8.153  1.3094  0.0532  0.7663
 8082SOL     OW35878   1.373   4.348   7.252  0.4399 -0.1124 -0.4441
 8082SOL    HW135879   1.387   4.253   7.247 -0.0029 -0.2322  0.7204
 8082SOL    HW235880   1.281   4.355   7.277 -0.0459 -0.3988 -2.1330
 8083SOL     OW35881   1.085   4.391   2.175 -0.6583 -0.2426  0.3438
 8083SOL    HW135882   1.032   4.326   2.128 -1.2538  0.9577 -0.6301
 8083SOL    HW235883   1.155   4.406   2.112  1.0565  0.7864  2.4735
 8084SOL     OW35884   1.111   3.879   5.893 -0.6467  0.7321 -0.0121
 8084SOL    HW135885   1.167   3.953   5.872 -1.0735  0.8232 -0.8253
 8084SOL    HW235886   1.149   3.822   5.826  0.3938  0.9696  0.3639
 8085SOL     OW35887   3.886   3.748  14.237  0.3053 -0.6130  0.4525
 8085SOL    HW135888   3.809   3.694  14.222 -1.0870  1.2261  0.9721
 8085SOL    HW235889   3.847   3.823  14.281  3.1573  1.8681 -1.2303
 8086SOL     OW35890   4.730   1.097   2.076 -0.2783 -0.4690 -0.3891
 8086SOL    HW135891   4.682   1.148   2.142  0.1041  0.0133 -0.4865
 8086SOL    HW235892   0.060   1.162   2.052  0.5306 -0.6906  1.1973
 8087SOL     OW35893   3.903   3.921   3.457  0.5272 -0.4510  0.1624
 8087SOL    HW135894   3.889   3.847   3.517  0.4079  2.5220  3.7788
 8087SOL    HW235895   3.811   3.930   3.432  0.2826 -2.9579  0.1016
 8088SOL     OW35896   1.224   4.614   0.688 -0.3049 -0.3086 -0.2319
 8088SOL    HW135897   1.191   4.660   0.611 -2.3332  0.6770  1.2228
 8088SOL    HW235898   1.318   4.632   0.680 -0.4716  1.7714  2.7379
 8089SOL     OW35899   1.791   0.087   9.020  0.7943 -0.1528 -0.1539
 8089SOL    HW135900   1.807   4.730   9.044 -1.4516 -0.4507  0.2171
 8089SOL    HW235901   1.880   0.114   8.996  1.9678 -1.3526  2.7729
 8090SOL     OW35902   2.265   0.276   8.667 -0.0530 -0.1106 -0.4489
 8090SOL    HW135903   2.257   0.211   8.738 -0.7684  0.7450  0.2502
 8090SOL    HW235904   2.177   0.268   8.629  0.0921  0.5963 -0.9232
 8091SOL     OW35905   0.250   3.036  11.642 -0.2516  0.0480 -0.6282
 8091SOL    HW135906   0.259   3.035  11.737  2.8569  1.3008 -0.9161
 8091SOL    HW235907   0.330   2.987  11.623  0.3263  0.5063  0.6178
 8092SOL     OW35908   3.399   2.330   7.305  0.5336 -0.0696 -0.3340
 8092SOL    HW135909   3.491   2.344   7.328  0.3023  1.1587 -0.1471
 8092SOL    HW235910   3.358   2.379   7.377 -1.4725 -1.2009 -0.7092
 8093SOL     OW35911   0.647   2.946   7.246 -0.3168  0.0463  0.5601
 8093SOL    HW135912   0.574   2.960   7.185 -0.6661 -0.5771  0.8376
 8093SOL    HW235913   0.713   2.992   7.195 -0.5986 -1.4883 -1.1720
 8094SOL     OW35914   3.934   3.598   7.685 -0.0184 -0.5486  0.5213
 8094SOL    HW135915   4.005   3.610   7.748 -1.3981 -2.4499  2.4194
 8094SOL    HW235916   3.983   3.595   7.602 -0.3877  1.6900  0.2153
 8095SOL     OW35917   4.725   0.744   7.715 -0.2759  0.5351 -0.3548
 8095SOL    HW135918   0.077   0.774   7.690  0.6769 -1.0820  0.9837
 8095SOL    HW235919   4.730   0.648   7.715  1.2378  0.6259 -2.2627
 8096SOL     OW35920   3.340   0.614   2.000  0.2506 -0.3209  0.0396
 8096SOL    HW135921   3.252   0.578   2.000  1.0155 -2.2231  0.5251
 8096SOL    HW235922   3.397   0.539   2.018  0.9194  0.8577  2.9500
 8097SOL     OW35923   2.346   2.323   9.018 -0.5921 -0.2930  0.3220
 8097SOL    HW135924   2.368   2.413   9.043 -1.4327 -0.1944  0.7342
 8097SOL    HW235925   2.309   2.333   8.931 -0.2997  0.4250  0.2805
 8098SOL     OW35926   1.985   2.737  15.428  0.4948  0.6852  0.0509
 8098SOL    HW135927   1.973   2.812  15.371  0.7009 -0.0617 -0.9659
 8098SOL    HW235928   1.897   2.698  15.426  0.3392  1.0142  0.3325
 8099SOL     OW35929   0.499   3.550  13.540  0.1372 -0.5360  0.5030
 8099SOL    HW135930   0.590   3.521  13.551  0.6588  1.2007  0.7788
 8099SOL    HW235931   0.485   3.601  13.619 -0.9850  1.6602 -1.1240
 8100SOL     OW35932   3.856   2.117   8.014 -0.3065 -0.5350  0.7454
 8100SOL    HW135933   3.767   2.130   7.980  0.3692 -1.5782 -1.4243
 8100SOL    HW235934   3.860   2.022   8.000 -1.1864 -0.2647 -1.3359
 8101SOL     OW35935   3.404   0.623   6.236 -0.0762  0.0889  0.1011
 8101SOL    HW135936   3.463   0.583   6.300 -1.0138 -2.4539 -0.6655
 8101SOL    HW235937   3.318   0.597   6.269 -1.4069  2.0555 -1.7917
 8102SOL     OW35938   4.642   3.164  15.270 -0.2941 -0.3524  0.0537
 8102SOL    HW135939   4.599   3.239  15.229  4.3084  1.8154 -0.7436
 8102SOL    HW235940   4.734   3.183  15.256 -0.2853  0.2659  0.9493
 8103SOL     OW35941   3.632   1.232  12.857 -0.1385  0.3944  0.2071
 8103SOL    HW135942   3.624   1.319  12.897  0.5639  1.5807 -2.2268
 8103SOL    HW235943   3.606   1.255  12.768  1.5423 -2.8472 -1.1161
 8104SOL     OW35944   3.250   1.774  16.912 -0.4898 -0.7609  0.1702
 8104SOL    HW135945   3.284   1.724  16.838 -1.7149 -1.1021 -0.1633
 8104SOL    HW235946   3.195   1.838  16.868 -0.7528 -0.4843  0.8945
 8105SOL     OW35947   3.293   3.485   3.384 -0.0044  0.9766 -0.2721
 8105SOL    HW135948   3.384   3.480   3.413  0.5329  2.3057 -1.7391
 8105SOL    HW235949   3.311   3.475   3.291 -0.5872 -0.3522 -0.2461
 8106SOL     OW35950   0.741   2.724   9.453 -0.0839  0.4834 -0.0219
 8106SOL    HW135951   0.775   2.784   9.386 -0.1112  0.1367 -0.3458
 8106SOL    HW235952   0.794   2.646   9.441  0.5892  0.7026  1.4909
 8107SOL     OW35953   4.612   1.283   2.272  0.0554 -0.0151 -0.5384
 8107SOL    HW135954   4.655   1.329   2.344  1.0488 -0.8336 -0.5900
 8107SOL    HW235955   4.578   1.354   2.219 -1.5481 -0.7612 -0.5025
 8108SOL     OW35956   2.900   1.011   5.852 -0.0712  0.5386 -0.2363
 8108SOL    HW135957   2.815   0.982   5.822 -0.4240 -0.6189  1.8646
 8108SOL    HW235958   2.925   0.923   5.880  0.7339  0.2716 -1.7718
 8109SOL     OW35959   3.189   4.301   9.068 -0.4122  0.2463  0.2532
 8109SOL    HW135960   3.270   4.347   9.090  0.1165 -1.5045  1.9707
 8109SOL    HW235961   3.179   4.341   8.981 -0.8320 -0.6536 -0.1170
 8110SOL     OW35962   0.516   2.596  15.020  0.7882  0.3634  0.1657
 8110SOL    HW135963   0.563   2.523  15.059  2.2247  1.6929  0.9047
 8110SOL    HW235964   0.425   2.566  15.008  1.4680 -0.0555 -3.7823
 8111SOL     OW35965   1.203   4.506   1.263  0.4162  0.4564 -0.1219
 8111SOL    HW135966   1.265   4.524   1.193 -0.7122  0.5310 -1.1134
 8111SOL    HW235967   1.115   4.530   1.234  0.7471  1.5240 -0.2550
 8112SOL     OW35968   2.807   3.080  12.337 -0.2409  0.1919 -0.2676
 8112SOL    HW135969   2.862   3.157  12.322 -0.2439  0.3797  0.6977
 8112SOL    HW235970   2.850   3.049  12.417 -0.9828  1.2339  0.5342
 8113SOL     OW35971   4.516   1.756  16.079 -0.2104  0.2578 -0.2785
 8113SOL    HW135972   4.423   1.733  16.082  0.0247 -0.4084  1.6325
 8113SOL    HW235973   4.542   1.666  16.100 -2.3156 -0.6496 -1.5549
 8114SOL     OW35974   0.623   4.554   4.136 -0.1154  0.3426  0.0889
 8114SOL    HW135975   0.614   4.649   4.131 -1.1852  0.1971 -0.9080
 8114SOL    HW235976   0.549   4.531   4.193 -0.6878  0.2135 -0.6950
 8115SOL     OW35977   0.925   3.413   4.793  0.8535  0.3747 -0.0203
 8115SOL    HW135978   0.889   3.482   4.850 -2.9813 -1.3666 -0.3464
 8115SOL    HW235979   0.969   3.471   4.731 -0.4829  1.9736  0.4957
 8116SOL     OW35980   1.087   0.520   6.887  0.1056 -1.0901 -0.5293
 8116SOL    HW135981   1.133   0.590   6.840 -0.7678 -0.1814 -0.0372
 8116SOL    HW235982   1.006   0.563   6.914  1.1763  0.5737 -0.0166
 8117SOL     OW35983   0.495   2.227  11.542 -0.0510  0.4405  0.0559
 8117SOL    HW135984   0.468   2.291  11.608  0.4939  0.2901  0.4264
 8117SOL    HW235985   0.463   2.141  11.569  1.3159  0.1609  0.7731
 8118SOL     OW35986   4.382   1.144   2.289 -0.0416 -0.3674 -0.0187
 8118SOL    HW135987   4.308   1.198   2.318  0.3502  0.5750 -0.7478
 8118SOL    HW235988   4.450   1.210   2.304  1.1101 -1.1349 -1.7914
 8119SOL     OW35989   2.429   0.928   7.882 -0.3241  0.1778  0.3770
 8119SOL    HW135990   2.448   1.006   7.935  0.6794 -1.5791  2.6323
 8119SOL    HW235991   2.377   0.969   7.813 -0.7750 -0.5588  0.2860
 8120SOL     OW35992   4.503   0.544   2.470 -0.1815 -0.1858 -0.4668
 8120SOL    HW135993   4.440   0.616   2.471 -1.6478 -1.4716  0.4027
 8120SOL    HW235994   4.501   0.512   2.561 -0.0974  0.9772 -0.0519
 8121SOL     OW35995   2.409   0.559   5.051  0.4665  0.3817 -0.6376
 8121SOL    HW135996   2.419   0.654   5.046 -2.3972  0.6549 -1.2628
 8121SOL    HW235997   2.320   0.558   5.015  0.1405  0.4889  0.1653
 8122SOL     OW35998   3.968   3.659   9.399  0.7892 -0.6489 -0.4965
 8122SOL    HW135999   3.931   3.618   9.477  0.8411  1.5977  0.7218
 8122SOL    HW236000   4.057   3.675   9.431  1.2100 -0.3349 -1.8216
 8123SOL     OW36001   0.172   4.586   4.140 -0.2596  0.3684 -0.4571
 8123SOL    HW136002   0.087   4.615   4.108  0.3827  1.8057 -0.8458
 8123SOL    HW236003   0.152   4.573   4.232 -0.5698 -2.3875 -0.9144
 8124SOL     OW36004   1.802   3.320   5.665  0.7989 -0.4927  0.1402
 8124SOL    HW136005   1.802   3.414   5.682 -3.8648 -0.3696 -0.5192
 8124SOL    HW236006   1.730   3.286   5.718  0.2230 -1.9265 -1.5563
 8125SOL     OW36007   0.377   3.632  13.840 -0.3256  0.3553  0.7143
 8125SOL    HW136008   0.429   3.555  13.860 -0.5666  0.5630  2.1157
 8125SOL    HW236009   0.317   3.636  13.914  0.7269  2.2849  1.4684
 8126SOL     OW36010   2.062   1.825   6.663 -0.4497  0.3213 -0.1061
 8126SOL    HW136011   2.115   1.778   6.727  0.1798 -3.2162 -3.2275
 8126SOL    HW236012   2.120   1.902   6.660  0.9422 -0.7172  0.2133
 8127SOL     OW36013   1.841   4.136  14.847 -0.4898  0.6940 -0.1113
 8127SOL    HW136014   1.828   4.230  14.843  0.8924  0.8371 -1.2626
 8127SOL    HW236015   1.752   4.105  14.862  0.7680 -2.9517 -0.1175
 8128SOL     OW36016   1.806   0.401   5.627  0.1136 -0.5467 -0.7416
 8128SOL    HW136017   1.811   0.306   5.629  0.4607 -0.5517 -2.4800
 8128SOL    HW236018   1.813   0.421   5.721  0.0855 -2.6899 -0.2782
 8129SOL     OW36019   4.076   4.430   2.264  0.0950  0.0332  0.0180
 8129SOL    HW136020   4.011   4.500   2.266 -0.6467 -0.7016  2.2536
 8129SOL    HW236021   4.023   4.353   2.243  1.0605 -1.5629  3.4378
 8130SOL     OW36022   2.674   4.013  15.060 -0.4613  0.2524 -0.0807
 8130SOL    HW136023   2.601   4.072  15.079 -1.4805 -1.4528  1.2589
 8130SOL    HW236024   2.736   4.031  15.131 -1.7151 -0.3051  1.1501
 8131SOL     OW36025   1.700   0.711   8.168  0.6935  0.0707 -0.4263
 8131SOL    HW136026   1.678   0.619   8.153  1.3146 -0.2770  0.8020
 8131SOL    HW236027   1.613   0.748   8.181 -0.2970 -2.1976 -0.6220
 8132SOL     OW36028   4.629   4.436  10.250  0.2331 -0.0196 -0.2442
 8132SOL    HW136029   4.598   4.353  10.215  1.6343  0.7284 -3.2224
 8132SOL    HW236030   4.705   4.448  10.193 -0.1028 -1.5860 -1.0026
 8133SOL     OW36031   1.016   0.871   7.882  0.2921  0.9092 -0.6705
 8133SOL    HW136032   1.075   0.796   7.868 -0.7062  0.1546 -0.8344
 8133SOL    HW236033   0.963   0.841   7.808  0.7086 -0.3599 -0.4661
 8134SOL     OW36034   4.596   3.547  14.944 -0.7251 -0.1392  0.7826
 8134SOL    HW136035   4.666   3.609  14.965  0.1540 -0.8111 -0.2255
 8134SOL    HW236036   4.604   3.489  15.020  0.4671 -0.1975  0.6110
 8135SOL     OW36037   2.210   4.209   0.941  1.1043 -0.4762 -0.2347
 8135SOL    HW136038   2.160   4.127   0.944  1.2182 -0.4277  2.6997
 8135SOL    HW236039   2.160   4.282   0.977  0.0948 -1.1958 -0.1693
 8136SOL     OW36040   1.444   3.845   5.644  0.9377  0.1189  0.0292
 8136SOL    HW136041   1.492   3.763   5.650  0.7723 -0.1908 -2.6685
 8136SOL    HW236042   1.368   3.817   5.695  0.4219  1.1191 -0.1745
 8137SOL     OW36043   1.314   2.095  11.227 -0.2805  0.1689 -0.1449
 8137SOL    HW136044   1.381   2.106  11.294 -2.4633  1.5974  1.8293
 8137SOL    HW236045   1.277   2.183  11.233  1.8002  0.9824  0.9003
 8138SOL     OW36046   3.255   0.213  10.283 -0.2963 -0.2644  0.0604
 8138SOL    HW136047   3.188   0.281  10.294  0.5034  0.7915 -1.6534
 8138SOL    HW236048   3.243   0.149  10.353  0.4586  1.0651  1.4035
 8139SOL     OW36049   4.247   0.455   6.713  0.4052  0.5403  0.2876
 8139SOL    HW136050   4.272   0.363   6.722 -1.8848 -0.1032 -0.1369
 8139SOL    HW236051   4.322   0.500   6.753  2.3117 -1.6348 -0.8287
 8140SOL     OW36052   3.118   1.148   4.037 -0.0038  0.2323  0.1432
 8140SOL    HW136053   3.158   1.157   4.123 -0.0297  0.8837  0.0818
 8140SOL    HW236054   3.136   1.054   4.027 -1.6774  0.0597 -1.2237
 8141SOL     OW36055   4.402   0.255   8.596 -0.6100 -0.5142  0.6282
 8141SOL    HW136056   4.368   0.166   8.607  1.5465 -1.5440 -1.2375
 8141SOL    HW236057   4.397   0.286   8.687 -1.7838  0.1178  0.3489
 8142SOL     OW36058   0.446   4.705   2.908 -0.2214 -0.2072 -0.4742
 8142SOL    HW136059   0.542   4.710   2.906 -0.1459 -0.9239  0.9403
 8142SOL    HW236060   0.426   4.698   3.002 -1.8185  1.8202 -0.6475
 8143SOL     OW36061   2.848   4.094   0.221  0.6179  0.5400 -0.2080
 8143SOL    HW136062   2.843   4.059   0.132 -1.0397 -0.8725  0.4418
 8143SOL    HW236063   2.802   4.178   0.219  0.0344  0.2161 -0.3560
 8144SOL     OW36064   2.354   2.872  10.279 -0.1857  0.1517  0.3269
 8144SOL    HW136065   2.270   2.854  10.236 -0.3038  0.6050  0.3605
 8144SOL    HW236066   2.332   2.902  10.367 -1.4588 -0.7306  0.3010
 8145SOL     OW36067   2.025   2.137   7.479 -0.3370 -0.2135  0.0076
 8145SOL    HW136068   1.941   2.158   7.518 -0.7630 -2.5579  0.3724
 8145SOL    HW236069   1.998   2.079   7.408 -1.0420  0.3085 -0.1408
 8146SOL     OW36070   2.123   1.129   3.268 -0.2521  0.3367  0.3412
 8146SOL    HW136071   2.093   1.123   3.177 -0.8998  1.3367  0.4857
 8146SOL    HW236072   2.047   1.105   3.320  0.9551 -0.6523  1.6599
 8147SOL     OW36073   4.651   3.628   9.383  0.4252 -0.0522  0.0757
 8147SOL    HW136074   4.646   3.677   9.301 -1.4428  0.6407  0.6130
 8147SOL    HW236075   4.733   3.665   9.416  0.9559 -1.2206  0.0800
 8148SOL     OW36076   0.299   2.131   4.406  0.2057 -0.6808 -0.0119
 8148SOL    HW136077   0.293   2.067   4.335  0.3323 -0.1363 -0.5150
 8148SOL    HW236078   0.257   2.091   4.482  0.6642 -0.4652  0.3585
 8149SOL     OW36079   0.483   2.680   4.827 -0.0845 -0.1277  0.2908
 8149SOL    HW136080   0.563   2.628   4.838 -0.2226 -0.1296  1.2750
 8149SOL    HW236081   0.522   2.759   4.789 -1.7120  0.2696 -0.5331
 8150SOL     OW36082   3.152   0.251   7.943 -0.5437  0.4617  0.3505
 8150SOL    HW136083   3.058   0.257   7.924 -0.6052  2.3729  1.2832
 8150SOL    HW236084   3.170   0.341   7.971 -1.3716 -0.0742  2.5105
 8151SOL     OW36085   3.478   3.921   0.109  0.0948 -0.5200 -0.0724
 8151SOL    HW136086   3.568   3.926   0.142  0.8191  0.2907 -2.1828
 8151SOL    HW236087   3.477   3.835   0.068  0.1533 -0.2263 -0.6879
 8152SOL     OW36088   3.171   0.232   4.561 -0.2267 -0.0162 -0.0113
 8152SOL    HW136089   3.205   0.319   4.538  2.2716 -1.1331 -0.4338
 8152SOL    HW236090   3.185   0.183   4.481 -0.4813  1.3220 -0.8692
 8153SOL     OW36091   2.281   3.905  15.547  0.5328 -0.3434 -0.2614
 8153SOL    HW136092   2.221   3.894  15.621  0.7626  1.1730  0.1597
 8153SOL    HW236093   2.232   3.878  15.470 -1.8541  1.2899  0.6699
 8154SOL     OW36094   3.174   2.236   8.725 -0.2552  0.1922  0.2052
 8154SOL    HW136095   3.166   2.305   8.791 -2.8562 -0.3536  0.4532
 8154SOL    HW236096   3.094   2.183   8.734 -0.9239  1.0943 -0.4649
 8155SOL     OW36097   3.739   2.729   4.853 -0.5143  0.0961  0.0257
 8155SOL    HW136098   3.768   2.641   4.879  1.3258  1.0019  1.0179
 8155SOL    HW236099   3.799   2.789   4.896 -0.0652 -1.9286  2.2529
 8156SOL     OW36100   0.730   0.553   0.108 -0.3161 -0.3509 -0.2639
 8156SOL    HW136101   0.721   0.564   0.013 -0.7643 -3.4618 -0.5843
 8156SOL    HW236102   0.808   0.604   0.126 -0.8945  0.1574  0.8003
 8157SOL     OW36103   0.798   2.875   2.531 -0.1591  0.1250 -0.1639
 8157SOL    HW136104   0.891   2.851   2.537 -0.8856 -2.4955  0.6640
 8157SOL    HW236105   0.786   2.960   2.573 -0.7800 -0.1469  0.2069
 8158SOL     OW36106   3.500   3.173   8.944 -0.3706  0.3696 -0.5795
 8158SOL    HW136107   3.509   3.095   9.000 -2.2099  1.3278  1.0553
 8158SOL    HW236108   3.468   3.132   8.863 -1.1313 -1.1454  0.4936
 8159SOL     OW36109   2.383   2.301  16.703  0.9282 -0.2723  0.0423
 8159SOL    HW136110   2.320   2.240  16.665  2.1157 -0.3430 -1.7751
 8159SOL    HW236111   2.408   2.361  16.633 -0.6927 -0.5784 -0.7825
 8160SOL     OW36112   0.257   1.993   9.630 -0.3009 -0.1654 -0.7605
 8160SOL    HW136113   0.204   1.978   9.552  0.8375 -4.2892 -0.7377
 8160SOL    HW236114   0.191   1.975   9.698  1.1025 -2.1424  0.0515
 8161SOL     OW36115   4.296   1.230   1.504  0.3354 -0.0521  0.2203
 8161SOL    HW136116   4.237   1.224   1.579  0.4406  0.7609  0.3714
 8161SOL    HW236117   4.236   1.190   1.441  0.0764 -1.2187  1.1977
 8162SOL     OW36118   4.433   0.523   4.066 -0.1047  0.0423 -0.2376
 8162SOL    HW136119   4.416   0.617   4.058 -1.0682 -0.1050  0.1026
 8162SOL    HW236120   4.458   0.515   4.158 -2.4438  0.2612  0.4097
 8163SOL     OW36121   0.130   2.634   4.468 -0.1569 -0.4456 -0.1185
 8163SOL    HW136122   0.176   2.705   4.512 -0.8721  0.6076 -1.0603
 8163SOL    HW236123   0.194   2.612   4.400  0.4007  0.2384  0.1872
 8164SOL     OW36124   3.011   2.945   4.024 -0.0631 -0.5254 -0.1135
 8164SOL    HW136125   3.062   2.950   4.105 -1.4738  1.8896  0.6130
 8164SOL    HW236126   3.063   2.897   3.959  0.2258  0.3874 -0.5488
 8165SOL     OW36127   4.388   4.126   0.661  0.2300 -0.0337 -0.3794
 8165SOL    HW136128   4.408   4.106   0.570  1.6652 -0.9718  0.1349
 8165SOL    HW236129   4.294   4.118   0.678  0.4256 -1.7788 -0.0958
 8166SOL     OW36130   3.892   2.108   1.470  0.5013  0.5330 -0.0521
 8166SOL    HW136131   3.837   2.052   1.526 -0.4647  0.2514 -1.2693
 8166SOL    HW236132   3.888   2.194   1.511 -3.0470 -0.2809  1.3880
 8167SOL     OW36133   2.227   4.575   2.321  0.3422 -0.0198 -0.0251
 8167SOL    HW136134   2.196   4.554   2.233 -0.4006  0.6159  0.0854
 8167SOL    HW236135   2.275   4.656   2.304 -0.5072  0.5851  0.4253
 8168SOL     OW36136   0.492   1.189   3.688  0.2847  0.1994 -0.0269
 8168SOL    HW136137   0.588   1.195   3.691  0.2517  1.8650 -2.0355
 8168SOL    HW236138   0.472   1.276   3.652  0.6400  0.6037  0.7472
 8169SOL     OW36139   0.957   1.644  13.963 -0.3916 -0.0410  0.2382
 8169SOL    HW136140   0.901   1.721  13.965 -0.7115 -0.2934  1.3390
 8169SOL    HW236141   0.952   1.616  14.055 -0.0812 -0.7005  0.0553
 8170SOL     OW36142   4.156   3.415  17.351 -0.2456 -0.4346  0.0230
 8170SOL    HW136143   4.193   3.473  17.285  1.5011 -0.5067  0.9493
 8170SOL    HW236144   4.228   3.414  17.414  0.0051  1.5574 -0.2186
 8171SOL     OW36145   1.720   0.356   6.860 -0.0212  0.8499 -0.7196
 8171SOL    HW136146   1.773   0.430   6.889  0.3348 -0.1402  1.1832
 8171SOL    HW236147   1.667   0.341   6.938  2.2584  1.6023  0.9830
 8172SOL     OW36148   2.655   0.604   2.939  0.5038  0.0287 -0.3171
 8172SOL    HW136149   2.672   0.658   2.862 -0.1371  2.0892  0.9934
 8172SOL    HW236150   2.630   0.679   2.993 -0.6133 -2.3049  2.4074
 8173SOL     OW36151   4.525   2.608   2.909 -0.4585 -0.3399 -0.3035
 8173SOL    HW136152   4.616   2.635   2.897 -0.2404 -0.5972  0.7972
 8173SOL    HW236153   4.512   2.656   2.991 -0.7634 -0.0313 -0.5292
 8174SOL     OW36154   0.960   3.855   0.863 -0.7821  0.1655 -0.1239
 8174SOL    HW136155   0.895   3.924   0.878  1.5601  2.3238  0.0517
 8174SOL    HW236156   0.979   3.819   0.950 -2.4319 -0.6828 -0.1141
 8175SOL     OW36157   2.958   1.338   0.683 -0.6337 -0.1898 -0.3620
 8175SOL    HW136158   2.982   1.246   0.686 -0.3400 -0.1622 -2.3539
 8175SOL    HW236159   2.867   1.340   0.655 -0.6621 -0.6377 -0.2919
 8176SOL     OW36160   2.524   2.841  11.349 -0.1212  0.3972 -0.2342
 8176SOL    HW136161   2.454   2.904  11.334  1.4673  2.1068 -0.4085
 8176SOL    HW236162   2.598   2.895  11.377  0.1683  0.6024 -1.3625
 8177SOL     OW36163   0.136   1.186   5.638  0.7373  0.7713 -0.2694
 8177SOL    HW136164   0.211   1.167   5.694 -0.1934  1.4307  1.1819
 8177SOL    HW236165   0.071   1.120   5.661  2.1931 -0.3748  0.5562
 8178SOL     OW36166   3.907   1.066   1.866 -0.1655 -0.4308  0.2865
 8178SOL    HW136167   3.923   1.036   1.776 -0.6707  0.2668 -0.0307
 8178SOL    HW236168   3.819   1.103   1.855 -0.0806 -1.0128 -2.4361
 8179SOL     OW36169   0.113   4.085   7.015 -0.4647  0.0838  0.4186
 8179SOL    HW136170   0.051   4.043   7.075 -1.4768  1.3429  0.2641
 8179SOL    HW236171   0.103   4.028   6.939  2.5551 -1.3526  1.0916
 8180SOL     OW36172   0.743   3.997   2.759 -0.1631  0.0463  0.3142
 8180SOL    HW136173   0.783   3.981   2.844  0.2379  1.9150  0.4709
 8180SOL    HW236174   0.825   3.992   2.710 -0.9399  0.5897 -1.0478
 8181SOL     OW36175   3.399   4.134   8.240 -0.6591  0.1046  0.5142
 8181SOL    HW136176   3.383   4.040   8.231  0.6018 -0.2509  1.9399
 8181SOL    HW236177   3.487   4.116   8.273 -1.1587 -0.7215  1.4136
 8182SOL     OW36178   3.574   1.226   3.881  0.0197  0.4280 -0.0158
 8182SOL    HW136179   3.585   1.149   3.826 -0.9952  1.1458 -1.2143
 8182SOL    HW236180   3.510   1.283   3.838 -0.9107 -0.4709  0.1774
 8183SOL     OW36181   0.596   1.989   8.371 -0.0039 -0.1943 -0.6260
 8183SOL    HW136182   0.630   2.075   8.344  0.0461  0.4804  1.5820
 8183SOL    HW236183   0.682   1.950   8.382 -0.9219 -1.3160  2.5978
 8184SOL     OW36184   1.166   3.404   7.345 -0.3588  0.6218  0.0953
 8184SOL    HW136185   1.181   3.456   7.266 -0.2216  1.1251  0.4525
 8184SOL    HW236186   1.073   3.382   7.349  0.1970 -1.5356  0.9701
 8185SOL     OW36187   3.430   2.100   3.485 -0.5333  0.3384  0.1069
 8185SOL    HW136188   3.399   2.157   3.414 -2.3719  1.8427  2.1416
 8185SOL    HW236189   3.349   2.053   3.502 -0.8792  0.1793 -2.0171
 8186SOL     OW36190   1.145   2.849   6.972  0.2909  0.3526  0.4691
 8186SOL    HW136191   1.216   2.895   6.928  1.3344 -0.2016  1.5644
 8186SOL    HW236192   1.171   2.757   6.962 -1.0371  0.0969 -0.6532
 8187SOL     OW36193   3.431   0.371   2.274  0.5747 -0.1363 -0.4953
 8187SOL    HW136194   3.460   0.354   2.364  0.0639 -1.8853 -0.6604
 8187SOL    HW236195   3.337   0.379   2.289  0.6101  0.1865 -0.4526
 8188SOL     OW36196   1.078   2.879   5.427  0.2746 -0.1272  0.4689
 8188SOL    HW136197   1.084   2.837   5.513  0.0866 -0.3219  0.3893
 8188SOL    HW236198   1.156   2.934   5.421  0.3957 -0.1046  2.3567
 8189SOL     OW36199   2.241   0.314  13.414  0.9921 -0.7911  0.4885
 8189SOL    HW136200   2.155   0.330  13.376  0.9696 -0.6625  0.5947
 8189SOL    HW236201   2.243   0.219  13.427  2.1150 -0.9032 -0.4608
 8190SOL     OW36202   0.533   4.340   0.396  0.3938 -0.1068 -0.6110
 8190SOL    HW136203   0.610   4.302   0.439 -0.1621 -0.2347  0.2817
 8190SOL    HW236204   0.496   4.404   0.456  1.2883 -0.8529  0.7622
 8191SOL     OW36205   3.224   2.518  17.618  0.6704  0.7926 -0.6692
 8191SOL    HW136206   3.248   2.547  17.530 -1.6729 -0.8455 -1.8444
 8191SOL    HW236207   3.295   2.546  17.676 -0.2615  1.9852 -0.0917
 8192SOL     OW36208   2.594   1.618   5.455  0.6031  0.4514  0.7558
 8192SOL    HW136209   2.578   1.672   5.533 -0.6882  1.1131  0.0280
 8192SOL    HW236210   2.556   1.674   5.388 -1.6590 -1.5160  0.4151
 8193SOL     OW36211   0.218   1.752   1.801 -0.1236  0.8035  0.0287
 8193SOL    HW136212   0.293   1.698   1.777 -0.8195  0.2112 -0.7523
 8193SOL    HW236213   0.272   1.826   1.829 -1.4581  1.8015 -0.0518
 8194SOL     OW36214   0.619   2.892   4.722 -0.0416 -0.1413 -0.3314
 8194SOL    HW136215   0.689   2.910   4.786  0.0682  0.1920 -0.5461
 8194SOL    HW236216   0.662   2.923   4.643 -1.0633  0.2421 -0.7327
 8195SOL     OW36217   2.384   3.328   7.720 -0.1628 -0.0200  0.0367
 8195SOL    HW136218   2.431   3.411   7.725  0.2700 -0.4182  2.3532
 8195SOL    HW236219   2.453   3.263   7.734  0.7651  0.6859 -1.2291
 8196SOL     OW36220   1.003   0.543  11.751  0.4472  0.6500  0.0220
 8196SOL    HW136221   0.953   0.470  11.788 -0.8191  1.9440  0.8675
 8196SOL    HW236222   1.032   0.494  11.674  0.1812 -0.9578  0.9273
 8197SOL     OW36223   2.717   1.731   5.859  0.1563 -0.3129 -0.0751
 8197SOL    HW136224   2.795   1.710   5.807  1.0252  0.9663  0.7182
 8197SOL    HW236225   2.643   1.738   5.799  0.2363  0.6141 -0.0618
 8198SOL     OW36226   2.097   0.576   1.806 -0.0990 -0.0360 -0.3564
 8198SOL    HW136227   2.019   0.599   1.755  1.1017  1.0395 -1.6996
 8198SOL    HW236228   2.074   0.485   1.825 -1.6873  0.6716  1.1451
 8199SOL     OW36229   4.252   4.027   6.604  0.5699 -0.3516 -0.4015
 8199SOL    HW136230   4.313   4.073   6.661  0.4873 -2.0906  1.0773
 8199SOL    HW236231   4.173   4.080   6.609  0.2339 -0.8022 -0.9409
 8200SOL     OW36232   0.333   0.713   1.747 -0.4084 -0.0295 -0.2382
 8200SOL    HW136233   0.289   0.787   1.788 -1.0285 -1.6098  1.9722
 8200SOL    HW236234   0.413   0.754   1.712 -0.2637 -1.9541 -2.1518
 8201SOL     OW36235   2.334   1.721   3.814  0.2273 -0.3586  0.4531
 8201SOL    HW136236   2.311   1.628   3.818 -2.6196  0.1941 -2.8738
 8201SOL    HW236237   2.248   1.757   3.837  1.7150  1.8979  2.4164
 8202SOL     OW36238   1.842   2.204  13.190  0.0553  0.5208  0.3348
 8202SOL    HW136239   1.781   2.129  13.191 -1.2491  1.5623 -1.2355
 8202SOL    HW236240   1.808   2.257  13.118 -1.1324 -1.8010 -0.8509
 8203SOL     OW36241   4.558   0.462   1.866  0.0493  0.0830  0.2612
 8203SOL    HW136242   4.524   0.530   1.808  0.5999  1.3261  1.4168
 8203SOL    HW236243   4.482   0.405   1.856  0.4879 -0.3530 -0.5996
 8204SOL     OW36244   2.459   4.048  16.182 -0.1687  0.0355 -0.2851
 8204SOL    HW136245   2.393   4.058  16.251 -0.3810 -0.7639 -0.3665
 8204SOL    HW236246   2.537   4.039  16.236 -0.5497 -1.5317 -0.0080
 8205SOL     OW36247   1.569   2.032   8.498  0.2697 -0.1645 -0.5507
 8205SOL    HW136248   1.614   2.044   8.581  0.7292  0.7547 -0.9314
 8205SOL    HW236249   1.646   2.021   8.442 -0.5627 -1.2552 -1.4854
 8206SOL     OW36250   0.437   4.730   9.359 -0.4186  0.2528  0.1307
 8206SOL    HW136251   0.492   4.684   9.422 -2.9221  0.2706  2.3652
 8206SOL    HW236252   0.464   0.086   9.365  2.0332 -0.4288 -0.7511
 8207SOL     OW36253   2.936   2.376  10.529 -0.3200  0.1074 -0.3804
 8207SOL    HW136254   3.014   2.319  10.535 -0.8485 -0.5503  0.2581
 8207SOL    HW236255   2.976   2.453  10.569  1.6672 -1.5785  0.8798
 8208SOL     OW36256   0.328   2.438  11.374 -0.1125  0.2766 -0.0490
 8208SOL    HW136257   0.370   2.373  11.430 -1.3807 -0.6923 -0.2280
 8208SOL    HW236258   0.349   2.397  11.290  2.1763  0.3856  0.4568
 8209SOL     OW36259   2.863   1.237   9.808  0.1580  0.2451  0.3446
 8209SOL    HW136260   2.847   1.294   9.733  1.0559 -0.6352 -0.5087
 8209SOL    HW236261   2.782   1.186   9.808  0.7939 -0.8105  2.4058
 8210SOL     OW36262   0.822   2.014   3.277 -0.1336  0.3894 -0.6801
 8210SOL    HW136263   0.903   2.047   3.314 -1.3901  2.1424  0.5108
 8210SOL    HW236264   0.836   1.924   3.306  0.7275  1.3798  1.9864
 8211SOL     OW36265   3.233   0.674  11.311  0.0797  0.1425  0.0808
 8211SOL    HW136266   3.297   0.739  11.281  0.8247 -1.2155 -1.3050
 8211SOL    HW236267   3.196   0.649  11.226 -0.5481 -0.0487  0.4065
 8212SOL     OW36268   4.054   0.334  17.722  0.6119  0.6659 -0.3460
 8212SOL    HW136269   4.148   0.318  17.713  0.1102 -0.6473 -3.2700
 8212SOL    HW236270   4.056   0.425   0.011  0.8077 -0.0954  2.0798
 8213SOL     OW36271   0.052   4.725  11.632 -0.9404 -0.1412  0.0347
 8213SOL    HW136272   4.721   0.018  11.569 -0.9941  0.2040  0.2385
 8213SOL    HW236273   0.054   0.061  11.697  1.5846 -0.4256  0.2513
 8214SOL     OW36274   0.410   1.734   4.559 -0.2168  0.1789  0.4084
 8214SOL    HW136275   0.397   1.640   4.568  0.6757 -0.1590 -1.8108
 8214SOL    HW236276   0.328   1.763   4.520  1.1742  0.9583 -1.9234
 8215SOL     OW36277   2.376   1.765   5.994 -0.5084  0.3104  0.3148
 8215SOL    HW136278   2.318   1.833   5.958  0.7619  1.8471  1.2228
 8215SOL    HW236279   2.318   1.688   6.000  0.2893 -0.4223 -1.2343
 8216SOL     OW36280   2.548   3.129   7.785 -0.4096 -0.0869 -0.0930
 8216SOL    HW136281   2.640   3.104   7.776  0.1900  1.7566  0.8893
 8216SOL    HW236282   2.536   3.128   7.880 -0.7265  0.2669 -0.1285
 8217SOL     OW36283   3.046   3.803   5.049  0.0994 -0.6617  0.0627
 8217SOL    HW136284   3.051   3.896   5.028 -2.1955 -0.1209  1.7685
 8217SOL    HW236285   3.136   3.772   5.053  0.5323  0.7847  1.2864
 8218SOL     OW36286   3.257   3.459   5.484  0.3432 -0.5389 -0.2164
 8218SOL    HW136287   3.347   3.428   5.496  1.1425  0.9536 -2.3369
 8218SOL    HW236288   3.226   3.466   5.574 -0.5959 -1.9386 -0.4285
 8219SOL     OW36289   2.804   2.020  10.250 -0.3970  0.9251  0.5185
 8219SOL    HW136290   2.729   1.981  10.205 -1.2299  1.5417  1.3699
 8219SOL    HW236291   2.757   2.088  10.298  1.3066  1.3440  1.5728
 8220SOL     OW36292   3.990   0.017  11.488 -0.0532 -0.0043  0.1112
 8220SOL    HW136293   4.013   0.011  11.581  1.1495  0.7211 -0.1507
 8220SOL    HW236294   3.974   4.660  11.466  1.3643 -0.2973  0.3242
 8221SOL     OW36295   2.847   0.553   3.799 -0.1328 -0.3561 -0.5847
 8221SOL    HW136296   2.818   0.467   3.828  1.6510 -1.1575 -1.1834
 8221SOL    HW236297   2.834   0.590   3.887  0.1814 -0.6287 -0.4278
 8222SOL     OW36298   3.812   0.572  14.161  0.2186 -0.6280 -0.1491
 8222SOL    HW136299   3.741   0.535  14.213  0.1866  0.1747  0.3736
 8222SOL    HW236300   3.833   0.504  14.097 -1.7082  1.3595 -2.8926
 8223SOL     OW36301   1.813   4.185   6.270  0.2350  0.2001 -0.2594
 8223SOL    HW136302   1.753   4.258   6.254 -0.3906 -0.2692 -0.0840
 8223SOL    HW236303   1.807   4.137   6.188  0.9401 -0.8175  0.2812
 8224SOL     OW36304   1.481   3.324   5.258  0.2923  0.1542 -0.4316
 8224SOL    HW136305   1.490   3.253   5.321 -0.1042 -0.4656 -1.0714
 8224SOL    HW236306   1.387   3.341   5.260 -0.3096 -2.9680 -1.4388
 8225SOL     OW36307   2.200   3.004   4.232 -0.1917  0.4507 -0.2994
 8225SOL    HW136308   2.129   2.980   4.291  0.5511  2.0790  1.2355
 8225SOL    HW236309   2.165   2.989   4.144 -0.3167 -2.0259  0.1634
 8226SOL     OW36310   1.309   3.390   8.764 -0.0037 -0.0049 -0.3156
 8226SOL    HW136311   1.297   3.420   8.674  2.2235  1.3756 -0.1489
 8226SOL    HW236312   1.291   3.296   8.760  2.4823 -0.5023  0.8043
 8227SOL     OW36313   1.415   0.228  10.655 -1.0899 -0.5944 -0.2434
 8227SOL    HW136314   1.418   0.309  10.604  0.4648 -0.0407  0.7153
 8227SOL    HW236315   1.481   0.255  10.720  0.2791 -1.3391 -1.3295
 8228SOL     OW36316   4.712   3.973   0.243  0.8015  0.0592  0.0978
 8228SOL    HW136317   0.046   4.039   0.234  0.8264  0.0534  0.2452
 8228SOL    HW236318   0.022   3.893   0.220 -0.8238 -0.5792 -0.8580
 8229SOL     OW36319   0.652   4.376   5.792 -0.0357 -0.3115 -0.2749
 8229SOL    HW136320   0.615   4.398   5.706 -2.4489  0.2349  0.9128
 8229SOL    HW236321   0.583   4.408   5.850  0.0868 -3.0958  1.3610
 8230SOL     OW36322   3.614   1.143  11.446 -0.4758  0.6075  0.3055
 8230SOL    HW136323   3.602   1.198  11.368  1.2229 -0.4446 -0.6952
 8230SOL    HW236324   3.582   1.059  11.415  0.9312  0.3766 -0.5013
 8231SOL     OW36325   3.485   2.609   9.036  0.2249 -0.9409  0.2370
 8231SOL    HW136326   3.477   2.576   8.946 -0.5798  1.0584 -0.4335
 8231SOL    HW236327   3.417   2.555   9.076 -2.0534  0.5251 -1.6227
 8232SOL     OW36328   3.825   0.510  15.674 -0.0268 -0.2753 -0.4515
 8232SOL    HW136329   3.776   0.449  15.728  1.1977  0.5587  1.5998
 8232SOL    HW236330   3.883   0.550  15.739  0.0169 -0.0321 -0.6405
 8233SOL     OW36331   4.262   1.927   1.252  0.0599 -0.1823  1.0016
 8233SOL    HW136332   4.270   2.000   1.313  0.3598 -0.1941  0.9797
 8233SOL    HW236333   4.260   1.976   1.169 -1.2016 -0.7636  0.6929
 8234SOL     OW36334   3.996   3.384   8.814 -0.4891  0.2955  0.1988
 8234SOL    HW136335   4.029   3.300   8.783 -0.8810  0.6629 -1.2537
 8234SOL    HW236336   3.982   3.427   8.729 -1.1519 -0.3370 -0.0194
 8235SOL     OW36337   1.512   1.336   3.623 -0.4625 -0.2551  0.5023
 8235SOL    HW136338   1.546   1.247   3.626 -2.9557 -1.2149  0.9323
 8235SOL    HW236339   1.554   1.377   3.699 -0.3051  1.0102 -0.2730
 8236SOL     OW36340   2.711   2.262   8.907  0.0938 -0.4734  0.4569
 8236SOL    HW136341   2.723   2.349   8.944 -2.9945 -0.2577  0.9853
 8236SOL    HW236342   2.698   2.300   8.821 -2.3453 -1.8153  0.2120
 8237SOL     OW36343   3.916   4.417  14.369 -0.3354 -0.3688  0.5530
 8237SOL    HW136344   3.890   4.474  14.441  1.5876  1.3791 -0.1282
 8237SOL    HW236345   3.829   4.407  14.331 -0.1607 -1.3982  0.4001
 8238SOL     OW36346   0.522   1.878   7.093 -0.7123 -0.4523  0.5438
 8238SOL    HW136347   0.445   1.934   7.109  0.9901  1.5900  1.5836
 8238SOL    HW236348   0.573   1.902   7.170 -0.7070  1.8800 -0.1846
 8239SOL     OW36349   4.187   0.768   4.587 -0.0745 -0.4328 -0.2195
 8239SOL    HW136350   4.191   0.746   4.680  1.0507 -0.9750 -0.4042
 8239SOL    HW236351   4.092   0.756   4.579 -0.2277 -0.7441  1.8833
 8240SOL     OW36352   1.004   1.254   5.175  0.0887 -0.1768 -0.0078
 8240SOL    HW136353   0.992   1.159   5.166  1.3545 -0.3166 -0.2168
 8240SOL    HW236354   0.992   1.261   5.270  0.3374 -1.5606  0.1275
 8241SOL     OW36355   3.662   3.363   8.806 -0.1325 -0.6228  0.1862
 8241SOL    HW136356   3.612   3.290   8.842 -0.2565 -1.1573 -1.0501
 8241SOL    HW236357   3.728   3.382   8.873  0.0028  0.0401 -0.1336
 8242SOL     OW36358   2.729   2.821   9.177  0.3174  0.3914  0.0778
 8242SOL    HW136359   2.782   2.866   9.243 -1.1514  0.5802  1.1157
 8242SOL    HW236360   2.802   2.776   9.134 -2.6197 -3.3191 -1.0066
 8243SOL     OW36361   3.487   0.105   2.907 -0.7639 -0.6035  0.3938
 8243SOL    HW136362   3.527   0.148   2.832 -0.9508 -0.3995  0.4076
 8243SOL    HW236363   3.557   0.096   2.971  0.2946 -0.6119 -0.7704
 8244SOL     OW36364   2.450   1.054  14.618 -0.4824  0.0480 -0.1474
 8244SOL    HW136365   2.384   0.986  14.603 -1.3272  0.6015  1.0268
 8244SOL    HW236366   2.409   1.139  14.636 -1.1050 -0.3151  0.1387
 8245SOL     OW36367   0.183   1.554  10.339 -0.3556  0.4347 -0.2772
 8245SOL    HW136368   0.097   1.523  10.367  0.6090 -0.4917  1.6557
 8245SOL    HW236369   0.166   1.596  10.254 -2.1580  0.8116  0.2885
 8246SOL     OW36370   2.138   3.256   9.398 -0.2471  0.3596  0.3223
 8246SOL    HW136371   2.226   3.241   9.363  0.4517  2.1131  1.3609
 8246SOL    HW236372   2.102   3.294   9.317  0.4003  1.3094  0.4762
 8247SOL     OW36373   1.011   1.904   9.238 -0.0865  0.0001 -0.2354
 8247SOL    HW136374   1.036   1.821   9.197 -1.0249  0.7537 -2.3346
 8247SOL    HW236375   0.981   1.880   9.326  1.3500  1.2491  0.5854
 8248SOL     OW36376   2.370   2.168  10.568  0.5745  0.8779 -0.4117
 8248SOL    HW136377   2.422   2.207  10.639 -0.5335  1.2336  0.1948
 8248SOL    HW236378   2.331   2.098  10.620  0.6799  2.3383  1.6801
 8249SOL     OW36379   3.527   2.992   2.883 -0.3154 -0.1775  0.0333
 8249SOL    HW136380   3.550   3.031   2.798 -2.4025  0.0079 -0.4267
 8249SOL    HW236381   3.501   2.904   2.857 -2.6335  0.2963  0.8146
 8250SOL     OW36382   2.500   1.839   3.633 -0.2207  0.3867 -0.1674
 8250SOL    HW136383   2.445   1.917   3.640  0.6204  0.9850 -0.2650
 8250SOL    HW236384   2.453   1.791   3.701 -0.9403  0.0167 -0.9280
 8251SOL     OW36385   1.208   3.495   2.641 -0.3055  0.5666  0.3059
 8251SOL    HW136386   1.252   3.503   2.556 -0.8443 -0.7013 -0.0938
 8251SOL    HW236387   1.230   3.409   2.680 -0.1342 -0.4117 -1.9714
 8252SOL     OW36388   1.837   4.059   5.678 -0.3504 -0.1774 -0.2629
 8252SOL    HW136389   1.914   4.114   5.666 -0.2157  0.2785  2.8292
 8252SOL    HW236390   1.770   4.127   5.687  0.3453  0.4216  0.3245
 8253SOL     OW36391   1.526   1.030   5.955  0.9064 -0.5312  0.6228
 8253SOL    HW136392   1.592   1.033   5.886 -0.2380  1.5607 -0.3741
 8253SOL    HW236393   1.523   1.120   5.988 -0.7709 -0.7024  0.9577
 8254SOL     OW36394   2.598   0.613   5.339  0.2003  0.5530 -0.3392
 8254SOL    HW136395   2.679   0.627   5.387  0.8931 -0.9569 -1.0908
 8254SOL    HW236396   2.629   0.548   5.276 -0.1189 -0.3437  0.4255
 8255SOL     OW36397   3.522   0.751   5.917  0.1376  0.6889 -0.2105
 8255SOL    HW136398   3.448   0.691   5.920 -1.5321  2.8260  0.9231
 8255SOL    HW236399   3.596   0.694   5.941 -0.9332 -0.4293  0.4185
 8256SOL     OW36400   3.285   4.374  13.410  0.3067 -0.0397 -0.4034
 8256SOL    HW136401   3.279   4.470  13.405 -0.8367 -0.0537  0.6431
 8256SOL    HW236402   3.245   4.355  13.325  1.0571 -2.2456 -0.2559
 8257SOL     OW36403   4.495   3.344   2.375  0.2679 -0.2053  0.2262
 8257SOL    HW136404   4.447   3.427   2.381 -0.5836 -0.7287  0.7356
 8257SOL    HW236405   4.575   3.374   2.419 -0.6285 -1.1778  2.5086
 8258SOL     OW36406   0.083   4.334   4.670 -0.1346  0.0521  0.0136
 8258SOL    HW136407   0.013   4.400   4.661 -1.2754 -1.0966  0.4813
 8258SOL    HW236408   0.099   4.322   4.577 -0.0998 -0.4249  0.0815
 8259SOL     OW36409   2.738   3.295  11.706  0.1632  0.0362  0.0037
 8259SOL    HW136410   2.803   3.350  11.751  0.7880 -1.3458  0.7875
 8259SOL    HW236411   2.797   3.221  11.692 -1.0978 -0.9531 -0.0042
 8260SOL     OW36412   4.718   2.680  13.484  0.0099  0.3503 -0.0641
 8260SOL    HW136413   4.673   2.612  13.535 -0.3330  2.4525  2.4432
 8260SOL    HW236414   4.680   2.763  13.515  1.7699  1.4056 -0.7736
 8261SOL     OW36415   0.731   3.052  14.120  0.2447 -0.3740 -0.3548
 8261SOL    HW136416   0.798   3.044  14.052  1.2952  3.8857  0.2032
 8261SOL    HW236417   0.677   2.979  14.090  1.8748 -1.7762  0.1193
 8262SOL     OW36418   4.189   1.419   2.675  0.6579  0.0201  0.0540
 8262SOL    HW136419   4.275   1.453   2.653  1.0127  0.3211  1.8961
 8262SOL    HW236420   4.205   1.401   2.768 -1.4843  0.5970  0.5336
 8263SOL     OW36421   3.390   1.811   5.196  0.9127 -0.2301 -0.1709
 8263SOL    HW136422   3.472   1.788   5.239  1.2878  0.2485 -0.6147
 8263SOL    HW236423   3.360   1.725   5.167 -1.4012  0.1563  1.0581
 8264SOL     OW36424   2.243   4.637  15.633 -0.1908  0.3400  0.0895
 8264SOL    HW136425   2.196   4.641  15.716 -1.4026  1.4645 -0.6479
 8264SOL    HW236426   2.186   4.593  15.570 -0.5980  0.7576  0.1689
 8265SOL     OW36427   0.391   2.760  16.773 -0.0984  0.0472  0.1875
 8265SOL    HW136428   0.339   2.707  16.713  1.4766 -1.3966  0.1188
 8265SOL    HW236429   0.434   2.822  16.715  1.8417 -0.6584  0.8773
 8266SOL     OW36430   1.877   1.035   9.380 -0.4674  0.9260 -0.4452
 8266SOL    HW136431   1.933   1.070   9.311 -0.7518  2.8226  0.2963
 8266SOL    HW236432   1.794   1.071   9.348  0.1494  3.2651  0.5856
 8267SOL     OW36433   0.353   4.693   6.524  0.3075 -0.9382 -0.3271
 8267SOL    HW136434   0.390   0.014   6.593 -0.2619 -0.8945 -0.0559
 8267SOL    HW236435   0.263   4.693   6.556  0.0763  1.3411 -0.9450
 8268SOL     OW36436   1.316   0.800   4.245 -0.0694 -0.1316 -0.1720
 8268SOL    HW136437   1.295   0.854   4.168 -1.4108  0.4344  0.5935
 8268SOL    HW236438   1.240   0.746   4.264  0.5840 -0.5487  1.2041
 8269SOL     OW36439   2.068   0.083   1.618  0.0200  0.3924  0.4803
 8269SOL    HW136440   2.160   0.085   1.645  0.3582  1.8199 -0.7456
 8269SOL    HW236441   2.080   0.038   1.534 -0.7076 -2.6581  2.0043
 8270SOL     OW36442   2.129   3.834  16.242  0.2572  0.4682 -0.0653
 8270SOL    HW136443   2.128   3.767  16.311 -1.6625 -1.6123 -2.1086
 8270SOL    HW236444   2.223   3.829  16.228  0.4559  1.6628  0.8109
 8271SOL     OW36445   4.018   4.038   2.868  0.4219 -0.3081 -0.0921
 8271SOL    HW136446   4.073   3.974   2.913 -1.3978 -1.6884  0.1749
 8271SOL    HW236447   4.079   4.112   2.859 -0.4410  0.5619  1.2550
 8272SOL     OW36448   0.934   4.394   1.446  0.0632 -0.4278  0.5467
 8272SOL    HW136449   0.920   4.485   1.474 -1.6399 -0.8457  1.0690
 8272SOL    HW236450   0.895   4.393   1.358  2.7096 -1.1543 -0.6041
 8273SOL     OW36451   2.014   4.206   0.581  0.6850  0.2756 -0.6366
 8273SOL    HW136452   1.970   4.173   0.659 -0.1115 -0.1227 -1.2416
 8273SOL    HW236453   1.937   4.221   0.524 -1.7556  0.1715  2.6376
 8274SOL     OW36454   0.702   1.429  13.797  0.4739  0.6135  0.1846
 8274SOL    HW136455   0.608   1.442  13.794  0.7225  2.9539  2.7880
 8274SOL    HW236456   0.744   1.483  13.730 -3.3734  2.8098 -0.4153
 8275SOL     OW36457   1.350   4.281   1.308  0.8725 -0.4831 -0.0180
 8275SOL    HW136458   1.279   4.344   1.304  1.8614  0.6008 -0.7238
 8275SOL    HW236459   1.408   4.316   1.376 -1.6762  0.5174  1.6036
 8276SOL     OW36460   0.114   4.428  12.932  0.1620 -0.0725 -0.3895
 8276SOL    HW136461   0.061   4.366  12.982 -1.0646 -0.1939 -1.8423
 8276SOL    HW236462   0.067   4.507  12.959  0.4586  0.1578 -0.5368
 8277SOL     OW36463   1.246   3.250   0.581  0.9157  0.6559  0.3358
 8277SOL    HW136464   1.153   3.246   0.559  0.6718 -2.2505  1.9149
 8277SOL    HW236465   1.276   3.319   0.521 -0.5698  1.8824  0.9947
 8278SOL     OW36466   2.332   0.080   8.913 -0.0428 -0.6389 -0.1061
 8278SOL    HW136467   2.336   0.006   8.973 -1.8123 -0.9691 -0.4146
 8278SOL    HW236468   2.404   0.132   8.950 -0.9508  0.1474  0.5459
 8279SOL     OW36469   3.637   1.523   1.862  0.5864 -0.3510  0.2949
 8279SOL    HW136470   3.596   1.470   1.931 -1.5031  1.5821  0.5374
 8279SOL    HW236471   3.557   1.552   1.817  2.3238 -1.7607 -3.6772
 8280SOL     OW36472   0.033   0.503   4.964  0.0025  0.0771  0.6317
 8280SOL    HW136473   0.065   0.456   5.040  0.6062 -0.7150 -0.1225
 8280SOL    HW236474   0.055   0.594   4.986 -2.7692  1.1096 -0.8311
 8281SOL     OW36475   0.768   4.668   0.782  0.1767 -0.4578  0.2388
 8281SOL    HW136476   0.766   4.669   0.686 -1.3404  1.0769  0.2930
 8281SOL    HW236477   0.852   4.626   0.802  0.4515  0.8553  1.7897
 8282SOL     OW36478   1.466   0.620   6.851  0.0501 -0.2044  0.8402
 8282SOL    HW136479   1.553   0.647   6.878 -0.3629 -0.3673  2.3548
 8282SOL    HW236480   1.407   0.673   6.904  0.6393 -0.6207  1.8992
 8283SOL     OW36481   3.012   3.323   3.700  0.1384  0.8998  0.1511
 8283SOL    HW136482   2.951   3.393   3.678 -0.1220  0.0776 -1.7498
 8283SOL    HW236483   3.092   3.363   3.666  0.3329  0.3217 -0.0881
 8284SOL     OW36484   2.748   3.779   4.394 -0.0552 -0.2327 -0.0895
 8284SOL    HW136485   2.825   3.733   4.426  1.8384  0.4545 -3.5862
 8284SOL    HW236486   2.714   3.792   4.482  2.0715  0.1197  0.6704
 8285SOL     OW36487   4.158   2.808   2.611 -0.0914 -0.5956  0.6013
 8285SOL    HW136488   4.186   2.802   2.703 -0.0004  4.0142  0.8456
 8285SOL    HW236489   4.171   2.716   2.586  1.1697 -0.4752  0.8269
 8286SOL     OW36490   2.288   3.028   7.756  0.1921 -0.4606 -0.2999
 8286SOL    HW136491   2.298   2.972   7.834  1.5370  0.9329  0.5165
 8286SOL    HW236492   2.368   3.080   7.754  0.2413 -0.4897  1.0541
 8287SOL     OW36493   3.046   2.964   4.763 -0.1524  0.3771 -0.3360
 8287SOL    HW136494   3.131   2.938   4.799 -0.1433  1.3804  0.3698
 8287SOL    HW236495   3.057   3.003   4.677 -0.4566 -1.2328 -1.0991
 8288SOL     OW36496   0.412   3.723   2.538 -1.0989 -0.7408  0.5985
 8288SOL    HW136497   0.385   3.806   2.577 -1.7180  0.0802 -1.5577
 8288SOL    HW236498   0.369   3.723   2.453 -0.3336 -0.1481  0.2080
 8289SOL     OW36499   2.315   3.126   2.769 -0.3544  0.0261  0.2075
 8289SOL    HW136500   2.374   3.139   2.695  1.5483 -1.1828  1.5206
 8289SOL    HW236501   2.306   3.218   2.793 -2.2827 -0.2188  0.4215
 8290SOL     OW36502   0.259   2.629   6.434  0.3225 -0.2045  0.0373
 8290SOL    HW136503   0.259   2.592   6.522 -0.8380  2.1975  1.0593
 8290SOL    HW236504   0.164   2.640   6.431  0.5403  1.5418 -0.3031
 8291SOL     OW36505   2.434   4.509   6.612  0.5463  0.3389  0.1601
 8291SOL    HW136506   2.444   4.487   6.704  1.2802  3.0354  0.7157
 8291SOL    HW236507   2.465   4.429   6.569 -2.0938 -0.1652 -0.8733
 8292SOL     OW36508   2.780   4.017  17.681  0.1142  0.2232  0.1926
 8292SOL    HW136509   2.706   4.069  17.648  0.2936  0.7518  0.6345
 8292SOL    HW236510   2.735   3.933  17.694  2.4479 -0.8908  1.1096
 8293SOL     OW36511   1.317   2.478   7.930 -0.0478 -0.5439 -0.1463
 8293SOL    HW136512   1.366   2.450   7.853  0.6181  0.4508 -0.0905
 8293SOL    HW236513   1.235   2.513   7.895 -0.6048 -3.0878 -1.3409
 8294SOL     OW36514   0.461   3.265   0.834 -0.3000  0.2474 -0.3881
 8294SOL    HW136515   0.369   3.284   0.855 -0.0592  0.0946  0.7693
 8294SOL    HW236516   0.500   3.337   0.882 -0.4149  1.3768 -1.9744
 8295SOL     OW36517   0.358   2.400  11.978  0.9434 -0.1846  0.2678
 8295SOL    HW136518   0.397   2.430  12.060 -0.8797 -0.5147  1.2511
 8295SOL    HW236519   0.308   2.323  12.006 -2.7774  2.5338  1.1092
 8296SOL     OW36520   0.744   0.071   4.744 -0.0110 -1.1003 -0.1771
 8296SOL    HW136521   0.680   0.122   4.694  0.0642  0.5843  1.4204
 8296SOL    HW236522   0.692   0.013   4.800 -1.2414  0.7623  0.6204
 8297SOL     OW36523   4.527   1.989   9.134  0.1886  0.0226 -0.1568
 8297SOL    HW136524   4.556   1.960   9.047 -0.5750 -0.9379 -0.1012
 8297SOL    HW236525   4.604   2.026   9.176 -1.1726  0.0380  2.2777
 8298SOL     OW36526   3.537   2.025   4.222  0.2213  0.3684  0.0153
 8298SOL    HW136527   3.617   2.004   4.270  0.5165 -0.7478 -0.9548
 8298SOL    HW236528   3.580   2.068   4.148  1.1492  0.0340  0.3534
 8299SOL     OW36529   4.254   2.746   6.238  0.0508 -0.0048 -0.1224
 8299SOL    HW136530   4.309   2.747   6.160  1.6882 -1.8718  1.0127
 8299SOL    HW236531   4.262   2.833   6.278 -2.9136  0.6659 -0.9974
 8300SOL     OW36532   3.628   1.957   6.408  0.0679  0.3373 -0.0532
 8300SOL    HW136533   3.558   2.022   6.416 -1.2140 -0.7910 -1.9489
 8300SOL    HW236534   3.711   2.001   6.392  1.4117 -2.1311  0.2116
 8301SOL     OW36535   4.012   2.067   4.329  0.1129 -0.1638  0.4057
 8301SOL    HW136536   3.956   2.125   4.379  0.4283  0.5229 -0.0371
 8301SOL    HW236537   3.953   2.037   4.260 -1.3519  1.1777  1.0966
 8302SOL     OW36538   4.197   3.600   4.775  0.9395 -0.0880 -0.4525
 8302SOL    HW136539   4.244   3.558   4.703  0.8789  0.3307 -0.7372
 8302SOL    HW236540   4.193   3.694   4.755 -1.0874 -0.3591 -1.3186
 8303SOL     OW36541   3.483   2.605   6.026 -0.2056 -0.3290  0.2475
 8303SOL    HW136542   3.568   2.561   6.033  1.3873  2.3324 -2.5045
 8303SOL    HW236543   3.494   2.691   6.067 -1.1466 -0.5385  0.9463
 8304SOL     OW36544   3.062   2.040  15.128 -0.2447 -0.0806  0.3738
 8304SOL    HW136545   3.054   1.950  15.098 -0.5075  0.3188 -0.7225
 8304SOL    HW236546   2.990   2.078  15.079 -1.1265 -0.1837  1.5720
 8305SOL     OW36547   3.731   0.709   8.853 -0.5108  0.1573 -0.1374
 8305SOL    HW136548   3.704   0.701   8.761 -0.5655  0.4526 -0.1471
 8305SOL    HW236549   3.648   0.739   8.892 -0.2655  2.0907 -1.0948
 8306SOL     OW36550   4.090   0.382   5.904  0.2223 -0.3552  0.0531
 8306SOL    HW136551   4.105   0.437   5.981 -1.6365  2.1144 -1.3702
 8306SOL    HW236552   4.090   0.456   5.844  1.4468  0.6342  1.2741
 8307SOL     OW36553   2.024   3.500   1.869  0.2635  0.0408  0.1473
 8307SOL    HW136554   2.050   3.561   1.800 -1.0438 -1.5694 -1.7786
 8307SOL    HW236555   1.986   3.560   1.933  0.3469  1.3544 -1.0378
 8308SOL     OW36556   0.922   3.808  15.133  0.2462 -0.1366 -0.4136
 8308SOL    HW136557   0.870   3.887  15.117 -0.4185 -0.0592  2.1059
 8308SOL    HW236558   0.861   3.742  15.166 -0.0208 -0.2773 -1.1785
 8309SOL     OW36559   2.116   4.360   6.797 -0.7376  0.2274  0.2033
 8309SOL    HW136560   2.090   4.315   6.877  2.0950 -3.0877 -0.7320
 8309SOL    HW236561   2.150   4.293   6.737  0.5625 -0.5066  1.7484
 8310SOL     OW36562   3.496   3.778   3.362  0.2651 -0.8946  0.3121
 8310SOL    HW136563   3.511   3.871   3.347  0.8675 -1.2315 -1.2298
 8310SOL    HW236564   3.548   3.738   3.293 -2.0064  2.8838 -3.6028
 8311SOL     OW36565   1.673   0.031   7.982 -0.1259  0.4376  0.0636
 8311SOL    HW136566   1.750   0.066   8.024  0.7150  0.3268 -1.3782
 8311SOL    HW236567   1.697   0.005   7.893 -2.2431 -0.7630 -0.1826
 8312SOL     OW36568   2.946   4.673   3.791 -0.4306 -0.4617  0.0633
 8312SOL    HW136569   2.873   4.663   3.852  0.5396 -0.7920  1.1639
 8312SOL    HW236570   2.907   4.725   3.721  1.9026  2.9995  1.3157
 8313SOL     OW36571   3.894   3.373   4.710  0.0594  0.2189 -0.2875
 8313SOL    HW136572   3.903   3.425   4.790  1.6465  1.8456 -1.4959
 8313SOL    HW236573   3.803   3.371   4.683 -0.0534 -0.3113  0.1389
 8314SOL     OW36574   3.147   1.240  16.945  0.0180  0.6867 -0.0992
 8314SOL    HW136575   3.202   1.175  16.902  0.4935  1.3234 -0.4461
 8314SOL    HW236576   3.169   1.221  17.036 -1.2550 -1.1382 -0.1604
 8315SOL     OW36577   4.414   0.855  16.526  0.1051  0.2285  0.1535
 8315SOL    HW136578   4.414   0.760  16.517 -0.2853  0.1119  1.3683
 8315SOL    HW236579   4.417   0.866  16.621  1.1147  0.5043  0.0870
 8316SOL     OW36580   0.869   2.807   3.498  0.2373 -0.0053 -0.1541
 8316SOL    HW136581   0.806   2.875   3.523  0.4133 -0.7266  2.1783
 8316SOL    HW236582   0.845   2.727   3.545 -0.3921 -0.0454 -0.5360
 8317SOL     OW36583   4.146   1.881   4.136 -0.5054 -0.3440  0.6928
 8317SOL    HW136584   4.217   1.942   4.157 -0.7154  0.9324 -2.2543
 8317SOL    HW236585   4.162   1.818   4.206 -0.8473 -0.6961  0.4502
 8318SOL     OW36586   0.626   3.532   2.086 -1.2760 -0.0454  0.0459
 8318SOL    HW136587   0.673   3.602   2.132  1.5255 -1.4115 -0.7095
 8318SOL    HW236588   0.569   3.581   2.027 -2.1328 -1.1954 -0.0659
 8319SOL     OW36589   1.611   0.141   0.940 -0.0018  0.4764  0.2508
 8319SOL    HW136590   1.555   0.162   1.015 -2.3033  0.6792 -1.4936
 8319SOL    HW236591   1.700   0.157   0.971 -0.3346 -0.1817  1.5158
 8320SOL     OW36592   3.347   3.619  11.957  0.1427  0.6996 -0.0252
 8320SOL    HW136593   3.367   3.662  12.040 -0.7980  1.7283 -0.3291
 8320SOL    HW236594   3.273   3.670  11.923 -0.3458  0.1840  0.2655
 8321SOL     OW36595   3.303   1.473   3.028 -0.5687  0.1106  0.2366
 8321SOL    HW136596   3.326   1.532   3.100  0.5063 -1.5971  1.2858
 8321SOL    HW236597   3.381   1.418   3.034 -0.4668  0.2050 -0.2328
 8322SOL     OW36598   1.176   3.615   6.722 -0.5900 -0.3513 -0.0682
 8322SOL    HW136599   1.230   3.681   6.766 -2.1813  0.0633  1.2735
 8322SOL    HW236600   1.089   3.641   6.754  0.3530  2.1420  0.4883
 8323SOL     OW36601   3.700   4.307   4.606  0.5835 -0.4401  0.2688
 8323SOL    HW136602   3.673   4.396   4.587 -0.2629 -0.5877  0.8169
 8323SOL    HW236603   3.645   4.264   4.541  2.0055 -1.2330 -0.4367
 8324SOL     OW36604   0.081   1.278   7.840 -0.1297  0.2211  0.2732
 8324SOL    HW136605   0.008   1.282   7.901  2.2339  0.5141  3.1002
 8324SOL    HW236606   0.058   1.201   7.789  0.9814 -0.7994  1.3341
 8325SOL     OW36607   0.812   3.485   5.809  0.4154  0.1609  0.1508
 8325SOL    HW136608   0.806   3.421   5.738  1.7735 -0.5418  0.6732
 8325SOL    HW236609   0.731   3.460   5.852 -0.4428  0.3275 -1.3442
 8326SOL     OW36610   1.430   1.013   8.534 -1.0772 -0.5508  0.1998
 8326SOL    HW136611   1.421   1.061   8.616  2.2380  1.3309 -0.5146
 8326SOL    HW236612   1.346   1.030   8.493 -0.1770 -0.7076 -1.7012
 8327SOL     OW36613   1.053   1.930   4.846 -0.1166 -0.5858  0.1264
 8327SOL    HW136614   0.961   1.952   4.836 -0.6069 -2.9995 -0.8798
 8327SOL    HW236615   1.045   1.834   4.844  1.6546 -0.7524  0.3261
 8328SOL     OW36616   4.390   1.349   3.218  0.2520  0.0570  0.6171
 8328SOL    HW136617   4.466   1.372   3.272  1.4078 -1.9834 -0.1129
 8328SOL    HW236618   4.316   1.380   3.271  0.0627  1.3721 -0.4337
 8329SOL     OW36619   3.411   2.142   8.639  0.1648 -0.2626  0.7050
 8329SOL    HW136620   3.316   2.139   8.646  0.3412 -3.2690  2.0929
 8329SOL    HW236621   3.432   2.170   8.728 -0.2580  1.4057  0.2830
 8330SOL     OW36622   0.589   1.308   4.004  0.2093  0.2762  0.3544
 8330SOL    HW136623   0.595   1.391   4.052 -0.0690  1.5167 -1.7038
 8330SOL    HW236624   0.679   1.300   3.974  0.5072 -0.1144  1.3621
 8331SOL     OW36625   3.624   1.084   0.450 -0.1554 -0.0344  0.2298
 8331SOL    HW136626   3.706   1.100   0.403 -0.5830 -2.0613 -1.1823
 8331SOL    HW236627   3.672   1.043   0.521  1.2027  0.2037 -0.5393
 8332SOL     OW36628   2.868   0.673   8.459 -0.4178  0.2099 -0.4076
 8332SOL    HW136629   2.836   0.643   8.375 -0.8001  0.0704 -0.2115
 8332SOL    HW236630   2.782   0.693   8.495 -0.8978 -1.5606 -0.6129
 8333SOL     OW36631   1.332   2.493   5.757  0.1966 -0.3254  0.8030
 8333SOL    HW136632   1.384   2.432   5.704  1.5748  2.7691 -1.4316
 8333SOL    HW236633   1.298   2.432   5.822  2.5026  0.9639  3.2224
 8334SOL     OW36634   1.282   2.027  12.566 -0.3572  0.1192  0.1443
 8334SOL    HW136635   1.279   1.947  12.513  0.4643  1.1864 -1.5200
 8334SOL    HW236636   1.282   1.994  12.656 -0.3669  1.6377  0.6886
 8335SOL     OW36637   0.092   3.559  15.216 -0.1216  0.6614 -0.1857
 8335SOL    HW136638   0.115   3.475  15.176  0.1852  0.9317 -0.5738
 8335SOL    HW236639   0.078   3.613  15.139 -0.1437 -1.0593 -1.3968
 8336SOL     OW36640   3.186   2.969   7.235 -0.4230 -0.6967 -0.6126
 8336SOL    HW136641   3.209   2.901   7.298  0.3623  0.2529  0.1245
 8336SOL    HW236642   3.261   2.958   7.176  1.2074  0.5608  1.2332
 8337SOL     OW36643   1.859   4.591  12.351  0.2916 -0.6933  0.3603
 8337SOL    HW136644   1.770   4.556  12.346  0.4624 -0.7611 -2.5178
 8337SOL    HW236645   1.862   4.655  12.421 -0.1074  0.4896 -0.7034
 8338SOL     OW36646   4.576   2.268   3.119  0.4340  0.1447 -0.2756
 8338SOL    HW136647   4.590   2.194   3.179  1.5604  1.2355  0.8171
 8338SOL    HW236648   4.560   2.338   3.183 -0.1602  1.8738 -2.3184
 8339SOL     OW36649   1.561   4.507   1.182 -0.3932 -0.1863 -0.1473
 8339SOL    HW136650   1.499   4.569   1.143  0.4401  2.4170  2.6121
 8339SOL    HW236651   1.506   4.485   1.257 -1.8221 -0.4084 -1.2593
 8340SOL     OW36652   2.253   0.165   7.619 -0.7366 -0.1960 -0.1953
 8340SOL    HW136653   2.314   0.092   7.612 -1.8945 -1.2915  1.1680
 8340SOL    HW236654   2.232   0.159   7.712  0.2151 -0.2397  0.0180
 8341SOL     OW36655   0.835   4.461  12.534  0.2868 -0.0381 -0.7515
 8341SOL    HW136656   0.778   4.438  12.460 -0.8368 -2.6718  0.9247
 8341SOL    HW236657   0.915   4.502  12.502 -0.7841  2.1368 -0.5905
 8342SOL     OW36658   0.587   3.273   1.114 -0.3463  0.2441  0.5850
 8342SOL    HW136659   0.669   3.255   1.067  0.6216 -0.3471  2.4661
 8342SOL    HW236660   0.615   3.273   1.205 -0.7334  0.7227  0.7040
 8343SOL     OW36661   0.259   4.698   0.538 -0.3597  0.1958  0.0888
 8343SOL    HW136662   0.229   4.719   0.627  4.6085  1.7286  1.3731
 8343SOL    HW236663   0.222   0.034   0.486  0.9928  0.5309 -0.4100
 8344SOL     OW36664   4.168   2.274   9.221 -0.3207  0.4887  0.5109
 8344SOL    HW136665   4.231   2.205   9.201 -1.8528 -1.9006  4.0396
 8344SOL    HW236666   4.208   2.298   9.305  0.8108  0.5418 -0.0436
 8345SOL     OW36667   0.501   2.060   3.973 -0.2641 -0.7990  0.4864
 8345SOL    HW136668   0.505   2.151   4.001  0.5575 -0.5304 -0.5215
 8345SOL    HW236669   0.421   2.021   4.007  0.2268 -1.4186  0.9532
 8346SOL     OW36670   0.839   2.472   5.942  0.7521 -0.0115  0.1406
 8346SOL    HW136671   0.763   2.435   5.987  0.3138  1.0208  0.2481
 8346SOL    HW236672   0.901   2.415   5.988 -0.0575 -2.1581 -1.4130
 8347SOL     OW36673   3.908   4.014   0.692 -0.3128 -0.3054 -0.3653
 8347SOL    HW136674   3.865   3.931   0.709 -0.8640  0.1200  0.3149
 8347SOL    HW236675   3.945   4.030   0.779  1.3744  1.7802 -1.4740
 8348SOL     OW36676   4.309   2.653  11.875  0.6442  0.2881  0.1677
 8348SOL    HW136677   4.275   2.645  11.964 -2.2026 -2.0278 -1.1267
 8348SOL    HW236678   4.223   2.649  11.835 -0.0109  0.6217  1.5369
 8349SOL     OW36679   2.441   0.165   6.128 -0.7091 -0.2747 -0.2023
 8349SOL    HW136680   2.382   0.090   6.132  0.7931 -1.3385  2.4966
 8349SOL    HW236681   2.527   0.138   6.161 -0.9111 -0.1324  0.4307
 8350SOL     OW36682   2.566   4.632  11.674 -0.1161 -0.0310 -0.0948
 8350SOL    HW136683   2.475   4.611  11.694 -0.6166  1.3461 -0.9907
 8350SOL    HW236684   2.559   4.718  11.633 -1.8534 -0.3091 -0.3617
 8351SOL     OW36685   3.034   4.076  13.847  0.2630 -0.1966 -0.1584
 8351SOL    HW136686   3.104   4.065  13.912 -0.6153  1.1393  1.0019
 8351SOL    HW236687   3.043   4.171  13.835 -2.0627 -0.0591 -0.7413
 8352SOL     OW36688   4.099   0.481   5.452 -0.5962 -0.1328  0.2575
 8352SOL    HW136689   4.125   0.568   5.422 -0.7801  0.0639  0.6672
 8352SOL    HW236690   4.181   0.431   5.459 -0.6922 -0.1966  0.9391
 8353SOL     OW36691   3.155   4.075   5.554  0.3918 -0.1526  0.6888
 8353SOL    HW136692   3.105   3.995   5.540  1.7699 -0.8878 -0.0561
 8353SOL    HW236693   3.197   4.078   5.468  0.7173 -1.4608  0.8016
 8354SOL     OW36694   0.064   4.340   7.220  0.9901 -0.1736  0.3793
 8354SOL    HW136695   0.150   4.312   7.189  0.6995 -0.9703  0.3057
 8354SOL    HW236696   0.010   4.363   7.145 -2.0233 -1.8133  2.0846
 8355SOL     OW36697   0.235   3.756   4.272 -0.3821  0.4981 -0.0793
 8355SOL    HW136698   0.265   3.845   4.255 -2.1719  0.5713 -2.8429
 8355SOL    HW236699   0.195   3.727   4.190 -2.8115  0.4560  1.1310
 8356SOL     OW36700   1.694   2.087   6.639 -0.0256 -0.3250  0.1280
 8356SOL    HW136701   1.790   2.082   6.639  0.0773  2.0125 -3.4011
 8356SOL    HW236702   1.698   2.115   6.731 -0.7603  0.5601 -0.1136
 8357SOL     OW36703   2.058   2.462   0.135  0.6671 -0.1509  0.4837
 8357SOL    HW136704   2.120   2.432   0.068 -0.5671 -1.6807  0.0376
 8357SOL    HW236705   2.011   2.527   0.082 -0.4536 -1.6952 -0.4336
 8358SOL     OW36706   0.503   2.857   5.719 -0.7326  0.5522 -0.5062
 8358SOL    HW136707   0.462   2.770   5.719  0.1335  0.1218  1.2115
 8358SOL    HW236708   0.428   2.905   5.753 -0.8559 -0.5900  0.8423
 8359SOL     OW36709   2.282   3.675   9.086  0.5706 -0.1334  0.2458
 8359SOL    HW136710   2.195   3.636   9.094  1.5714 -1.9143  2.4883
 8359SOL    HW236711   2.306   3.677   9.179  0.3323  0.7762  0.2875
 8360SOL     OW36712   0.834   0.929   4.871  0.0174  0.1165  0.0838
 8360SOL    HW136713   0.826   1.022   4.852 -1.3463  0.0547  0.3611
 8360SOL    HW236714   0.929   0.919   4.873  0.5302  5.1972  0.2206
 8361SOL     OW36715   4.446   1.874   5.474  0.4760  0.0831 -0.0709
 8361SOL    HW136716   4.478   1.786   5.494  1.1482  0.4475  0.4642
 8361SOL    HW236717   4.424   1.867   5.381  1.2382 -3.0485 -0.0191
 8362SOL     OW36718   4.620   3.028   2.698 -0.4528 -0.1066 -0.4578
 8362SOL    HW136719   4.694   2.968   2.692 -1.1303 -0.9671 -0.2304
 8362SOL    HW236720   4.557   2.993   2.634 -0.6065 -1.2518  0.3191
 8363SOL     OW36721   1.643   2.314   2.959  0.1805  0.9831 -0.1394
 8363SOL    HW136722   1.684   2.324   2.874 -0.2747 -0.5684 -0.5346
 8363SOL    HW236723   1.722   2.321   3.013  0.9634 -0.7298 -1.0710
 8364SOL     OW36724   3.687   0.434   7.162  0.2337 -0.0321 -0.0076
 8364SOL    HW136725   3.683   0.445   7.067 -0.2421  2.6653  0.3353
 8364SOL    HW236726   3.762   0.374   7.167  1.0225  0.8596 -1.4741
 8365SOL     OW36727   0.655   3.520   2.905 -0.1140  0.7958  0.5417
 8365SOL    HW136728   0.715   3.540   2.976 -0.7266 -2.1510  1.8941
 8365SOL    HW236729   0.576   3.501   2.956 -0.6223 -0.0742 -0.5684
 8366SOL     OW36730   0.296   3.283   9.164  0.0481  0.2835  0.0106
 8366SOL    HW136731   0.276   3.371   9.194  1.5564  0.7798 -0.4262
 8366SOL    HW236732   0.383   3.276   9.205 -0.4441 -0.8057  0.8721
 8367SOL     OW36733   4.088   3.061   2.537 -0.1611 -0.2180 -0.0164
 8367SOL    HW136734   4.136   3.087   2.616 -0.7647  1.1170 -0.0906
 8367SOL    HW236735   4.110   2.968   2.537  2.0175  0.2873  2.1787
 8368SOL     OW36736   4.091   2.347   6.001  0.4757  0.0879 -0.4025
 8368SOL    HW136737   4.088   2.435   6.037 -0.7831 -0.8265  1.7043
 8368SOL    HW236738   4.120   2.363   5.911  3.5641 -2.8953  0.0494
 8369SOL     OW36739   2.228   4.207   6.621 -0.5862  0.5736  0.1412
 8369SOL    HW136740   2.302   4.164   6.664 -1.2664 -0.7545 -0.0066
 8369SOL    HW236741   2.214   4.140   6.555  0.4543  2.1049 -1.6390
 8370SOL     OW36742   0.322   3.686   3.255  0.4100  0.6051 -0.0702
 8370SOL    HW136743   0.254   3.724   3.199 -1.2642 -1.4130  0.5946
 8370SOL    HW236744   0.270   3.614   3.290  0.6844  0.7132  0.5574
 8371SOL     OW36745   4.556   3.311   8.399 -0.0423  0.2180 -0.1790
 8371SOL    HW136746   4.609   3.252   8.451  1.0009  1.2271 -0.0915
 8371SOL    HW236747   4.594   3.278   8.318 -1.3230 -1.1884 -0.1943
 8372SOL     OW36748   1.626   1.642   8.949  0.2906 -0.2677 -0.4278
 8372SOL    HW136749   1.628   1.677   9.038  1.6640  2.0613 -1.3450
 8372SOL    HW236750   1.681   1.565   8.960 -1.9424 -1.8285 -0.2891
 8373SOL     OW36751   2.530   0.061  15.316  0.7001  0.2674  0.2951
 8373SOL    HW136752   2.437   0.042  15.300  0.8666  0.5369 -1.0336
 8373SOL    HW236753   2.570   0.012  15.244 -0.9937 -0.3962 -0.1905
 8374SOL     OW36754   0.999   0.203   3.581 -0.1807  0.1767  0.0972
 8374SOL    HW136755   1.016   0.181   3.673  0.6007 -0.6356 -0.2386
 8374SOL    HW236756   1.026   0.295   3.574 -1.2864  0.4748 -0.2083
 8375SOL     OW36757   2.116   2.245   4.930  0.2643  0.8419 -0.5396
 8375SOL    HW136758   2.028   2.268   4.898 -0.6682 -0.3642  1.1840
 8375SOL    HW236759   2.141   2.338   4.929  0.5773  0.7603  1.9010
 8376SOL     OW36760   4.630   3.743  14.030  0.2599 -0.2824 -0.5038
 8376SOL    HW136761   4.638   3.834  14.002 -1.8528 -1.3042 -4.3464
 8376SOL    HW236762   4.607   3.707  13.945 -1.1332  0.2656 -0.3619
 8377SOL     OW36763   2.322   4.084   7.549  0.2121 -0.2019  0.2676
 8377SOL    HW136764   2.275   4.106   7.630  0.5628 -1.0512  0.7106
 8377SOL    HW236765   2.269   4.009   7.521 -0.7517  0.6277 -0.1033
 8378SOL     OW36766   3.631   2.643   3.384 -0.2387  0.2158 -0.0652
 8378SOL    HW136767   3.667   2.676   3.466 -0.6084  0.2588  0.0830
 8378SOL    HW236768   3.660   2.710   3.323  0.7570 -1.7536 -1.7507
 8379SOL     OW36769   3.574   1.817  11.970  0.3411 -0.3681 -0.4917
 8379SOL    HW136770   3.481   1.839  11.961  0.4442  0.5745  0.6817
 8379SOL    HW236771   3.621   1.897  11.993 -1.1055  0.1818  0.5530
 8380SOL     OW36772   2.018   1.001  14.458  0.1561 -0.1991  0.1277
 8380SOL    HW136773   1.975   1.042  14.533 -0.7365  0.0573 -0.5162
 8380SOL    HW236774   2.083   0.954  14.509 -0.6506 -0.2511  1.1069
 8381SOL     OW36775   2.111   3.305  17.206 -0.6060 -0.8065 -0.0063
 8381SOL    HW136776   2.109   3.400  17.193 -0.1566 -1.0353 -1.7527
 8381SOL    HW236777   2.092   3.295  17.300 -0.4981 -0.4149  0.0576
 8382SOL     OW36778   3.364   1.685  12.221 -0.6773  0.1925  0.8092
 8382SOL    HW136779   3.291   1.742  12.198 -1.6312 -1.7540 -0.9249
 8382SOL    HW236780   3.320   1.608  12.256  0.2474 -0.6201  0.1956
 8383SOL     OW36781   2.075   1.139   6.216 -0.2904  0.5972  0.4609
 8383SOL    HW136782   1.986   1.115   6.190 -0.1764 -1.9586  2.3596
 8383SOL    HW236783   2.088   1.068   6.279  1.5827  0.1959 -0.3928
 8384SOL     OW36784   4.705   1.838   5.039  0.6184 -0.2650 -0.0016
 8384SOL    HW136785   0.005   1.895   5.107  1.5246  0.4779 -1.0877
 8384SOL    HW236786   4.645   1.783   5.089 -0.7372  1.1704 -0.0217
 8385SOL     OW36787   2.278   1.481   6.462  0.2858  0.5165 -0.0285
 8385SOL    HW136788   2.219   1.556   6.455  0.1932  0.2906 -1.6408
 8385SOL    HW236789   2.357   1.528   6.436  1.3065 -2.3017 -2.0293
 8386SOL     OW36790   2.101   2.864   6.865  0.4635  0.3783 -0.3141
 8386SOL    HW136791   2.118   2.864   6.771 -1.3478 -3.2046 -0.6267
 8386SOL    HW236792   2.191   2.864   6.898  0.4280  0.4940 -0.2139
 8387SOL     OW36793   0.937   4.261   1.756 -0.2032 -0.4650 -0.6874
 8387SOL    HW136794   0.842   4.275   1.756  0.2350  2.4479  0.2007
 8387SOL    HW236795   0.951   4.265   1.661 -1.8680  0.9939 -0.8742
 8388SOL     OW36796   0.299   1.123   5.000  0.0670 -0.1055  0.0601
 8388SOL    HW136797   0.219   1.121   4.949 -0.5380  2.7835  0.8658
 8388SOL    HW236798   0.300   1.038   5.044  1.6948  0.2344  0.6991
 8389SOL     OW36799   0.625   2.979   5.088 -0.0045 -0.2984 -0.1984
 8389SOL    HW136800   0.699   2.930   5.051  1.2680  1.0157  0.6210
 8389SOL    HW236801   0.571   2.921   5.142  0.0332  0.7717  0.9866
 8390SOL     OW36802   3.358   2.883   0.486 -0.5041 -0.0581 -0.1595
 8390SOL    HW136803   3.297   2.814   0.511  0.3597 -1.3545 -1.6251
 8390SOL    HW236804   3.390   2.913   0.572 -1.6054  1.7651 -0.3784
 8391SOL     OW36805   2.428   0.481   2.159  0.4268  0.1861  0.0057
 8391SOL    HW136806   2.343   0.462   2.200  0.8075 -0.4319  0.5168
 8391SOL    HW236807   2.395   0.534   2.086 -2.6393 -3.3418 -1.1470
 8392SOL     OW36808   1.461   3.905   5.954  0.3216 -0.0407 -0.1543
 8392SOL    HW136809   1.536   3.846   5.963  0.6183  0.5427  1.2028
 8392SOL    HW236810   1.502   3.974   5.903  0.6553 -0.0509  0.1012
 8393SOL     OW36811   3.537   1.223  16.477  0.5032 -0.3586 -0.0357
 8393SOL    HW136812   3.559   1.136  16.513 -1.4858 -0.8998 -0.1322
 8393SOL    HW236813   3.622   1.264  16.491  0.4463 -0.6262  1.1408
 8394SOL     OW36814   2.368   3.700  16.865  0.0187 -0.4836 -0.0063
 8394SOL    HW136815   2.430   3.648  16.814  1.4138  0.0730  1.1029
 8394SOL    HW236816   2.285   3.668  16.830 -0.1958  0.0417  0.0143
 8395SOL     OW36817   2.697   2.516   8.991  0.1134 -0.3579  0.3459
 8395SOL    HW136818   2.640   2.547   9.060 -1.4134 -0.5849 -0.8133
 8395SOL    HW236819   2.770   2.573   9.015 -0.6780  1.7242 -2.2180
 8396SOL     OW36820   0.533   0.117   1.379  0.5038  0.6391 -0.0744
 8396SOL    HW136821   0.614   0.103   1.329 -0.2844 -0.9310 -0.9011
 8396SOL    HW236822   0.564   0.102   1.468 -1.4374 -0.1666  0.4668
 8397SOL     OW36823   4.670   2.974   3.475  0.0560  0.5054  0.1524
 8397SOL    HW136824   4.603   2.924   3.522  0.0048  0.2620 -0.1815
 8397SOL    HW236825   4.646   3.058   3.516  0.4188  1.6200 -1.9660
 8398SOL     OW36826   1.129   0.830   6.809 -0.2831 -0.2127  0.1543
 8398SOL    HW136827   1.072   0.867   6.741  1.0052  0.6317 -0.4536
 8398SOL    HW236828   1.212   0.857   6.769 -0.1432 -1.7520 -0.6199
 8399SOL     OW36829   4.368   4.012   3.717 -0.7692 -0.6170  0.3959
 8399SOL    HW136830   4.367   3.933   3.662  1.1231 -0.3457 -0.0132
 8399SOL    HW236831   4.297   3.983   3.774 -0.5585 -1.0191  0.4530
 8400SOL     OW36832   0.076   0.817   6.858 -0.4892  0.5773  0.1840
 8400SOL    HW136833   0.037   0.856   6.936  0.8367  0.2630  1.0007
 8400SOL    HW236834   0.163   0.854   6.850 -0.5279  1.2359  2.8828
 8401SOL     OW36835   0.005   3.116  12.993 -0.1936  0.4406  0.0701
 8401SOL    HW136836   0.015   3.028  13.031  0.1939  0.1728 -0.6558
 8401SOL    HW236837   4.671   3.095  12.930 -1.0761 -0.7934  1.4405
 8402SOL     OW36838   4.010   2.071   3.493 -0.4603  0.4329  0.1227
 8402SOL    HW136839   3.988   2.007   3.561 -0.7414  0.3299 -0.0658
 8402SOL    HW236840   3.984   2.154   3.532  0.9909  0.2788  1.4015
 8403SOL     OW36841   3.201   1.798   1.465  0.1710 -0.2775 -0.5024
 8403SOL    HW136842   3.152   1.864   1.513 -3.4267 -3.1184 -0.2254
 8403SOL    HW236843   3.155   1.718   1.491  0.8560 -0.7465 -0.7331
 8404SOL     OW36844   3.002   1.909  10.114  0.1741 -0.9304 -0.3526
 8404SOL    HW136845   2.948   1.974  10.159  0.4872 -0.9205  0.0084
 8404SOL    HW236846   2.956   1.907  10.030 -0.1482  0.8785 -0.2230
 8405SOL     OW36847   0.869   1.510   5.424  0.0141 -0.4728  0.3749
 8405SOL    HW136848   0.875   1.549   5.336 -1.3719 -1.0788  0.0009
 8405SOL    HW236849   0.873   1.592   5.473 -0.6741 -0.4920  0.4692
 8406SOL     OW36850   1.792   3.079  11.657 -0.2639 -0.0290  0.3248
 8406SOL    HW136851   1.848   3.156  11.658 -0.1740 -0.0744 -1.6221
 8406SOL    HW236852   1.726   3.100  11.724 -2.0036 -1.4131 -0.9572
 8407SOL     OW36853   1.549   3.409  11.682  0.2564 -0.8131 -0.0178
 8407SOL    HW136854   1.560   3.475  11.614  0.4886 -0.0486  0.7785
 8407SOL    HW236855   1.539   3.327  11.633 -0.3566  0.2541 -1.6856
 8408SOL     OW36856   3.389   2.580   4.223  0.0272  0.2392 -0.3143
 8408SOL    HW136857   3.422   2.513   4.163 -0.2934  1.6342 -2.0277
 8408SOL    HW236858   3.301   2.587   4.187 -0.8491 -1.3647  1.5103
 8409SOL     OW36859   3.291   1.544   8.993  0.1193  0.5322  0.1185
 8409SOL    HW136860   3.306   1.567   8.902  0.5018 -1.3257 -0.2976
 8409SOL    HW236861   3.360   1.595   9.035 -0.2953  0.1279  1.3200
 8410SOL     OW36862   1.325   0.744  17.183  0.2219 -0.0931  0.1213
 8410SOL    HW136863   1.327   0.654  17.216 -0.4929 -0.0121  0.4035
 8410SOL    HW236864   1.303   0.739  17.090 -1.9061  2.2752  0.5013
 8411SOL     OW36865   1.925   4.290   7.971  0.2444 -0.1052 -0.1578
 8411SOL    HW136866   1.984   4.324   8.038  1.1168 -0.8785 -0.5412
 8411SOL    HW236867   1.840   4.298   8.015  0.1963 -0.4929 -0.1782
 8412SOL     OW36868   2.671   2.589   4.669  0.1475 -0.2745  0.1484
 8412SOL    HW136869   2.628   2.656   4.616  0.7846  0.1422  0.1576
 8412SOL    HW236870   2.698   2.522   4.605  0.0848 -1.1037  0.9929
 8413SOL     OW36871   3.538   1.704   3.878 -0.3022 -0.6105  0.0582
 8413SOL    HW136872   3.513   1.755   3.800 -0.9875 -1.6694 -0.4181
 8413SOL    HW236873   3.488   1.748   3.947  1.1918  1.6113 -0.2902
 8414SOL     OW36874   2.616   1.049  14.275  0.8113  0.1994 -0.2963
 8414SOL    HW136875   2.533   1.071  14.233  0.2403  0.5581  0.9935
 8414SOL    HW236876   2.672   1.121  14.245 -0.8430  2.4318  1.9020
 8415SOL     OW36877   3.449   2.496  17.352 -0.7229 -0.7968 -0.7252
 8415SOL    HW136878   3.440   2.571  17.410 -2.7630 -0.7891 -1.0331
 8415SOL    HW236879   3.543   2.477  17.351 -0.2350  1.4347  1.4109
 8416SOL     OW36880   2.664   0.281   4.801  0.1509  0.2036 -0.3879
 8416SOL    HW136881   2.678   0.282   4.706 -1.0136  0.0633 -0.5612
 8416SOL    HW236882   2.673   0.376   4.813  3.0195 -0.4222  2.2390
 8417SOL     OW36883   4.192   0.256   5.041 -0.2207  0.1336  0.5259
 8417SOL    HW136884   4.218   0.176   4.995  2.8156  2.5463 -2.0178
 8417SOL    HW236885   4.277   0.281   5.078 -0.1338  0.3053  0.2132
 8418SOL     OW36886   2.432   3.164   9.776  0.0109  0.1395  0.3368
 8418SOL    HW136887   2.467   3.127   9.856  1.0549 -0.9722 -0.6355
 8418SOL    HW236888   2.424   3.087   9.720  0.9327 -0.9827  1.7683
 8419SOL     OW36889   3.643   1.656  14.085 -0.4716  0.0617  0.2616
 8419SOL    HW136890   3.722   1.606  14.106  0.5537  1.1736 -0.9340
 8419SOL    HW236891   3.586   1.586  14.116 -0.5216 -0.7313 -1.6503
 8420SOL     OW36892   4.315   1.265   6.450 -0.5388  0.1133 -0.4030
 8420SOL    HW136893   4.333   1.332   6.384  0.6824  0.1821  0.0067
 8420SOL    HW236894   4.267   1.198   6.401  2.2130 -1.9624 -0.2557
 8421SOL     OW36895   2.637   1.793   1.568  0.0789 -0.2978 -0.2422
 8421SOL    HW136896   2.669   1.707   1.540  0.3362 -0.2476 -0.0983
 8421SOL    HW236897   2.617   1.827   1.481  0.5722 -0.2567 -0.3366
 8422SOL     OW36898   1.228   0.831   6.088  0.5520  0.0230  0.1075
 8422SOL    HW136899   1.321   0.818   6.106  0.1675 -0.4589  1.7458
 8422SOL    HW236900   1.206   0.745   6.051 -1.9082  0.7154 -0.0460
 8423SOL     OW36901   1.918   2.212   8.423 -0.3316  0.0342 -0.1747
 8423SOL    HW136902   2.007   2.194   8.453  0.0798  1.6469 -0.4077
 8423SOL    HW236903   1.889   2.262   8.500 -1.1916  0.0184 -0.4815
 8424SOL     OW36904   2.150   4.615   6.879 -0.6330  0.1703 -0.3024
 8424SOL    HW136905   2.138   4.529   6.838 -0.4705  0.9351 -1.9728
 8424SOL    HW236906   2.201   4.604   6.959  1.0477 -0.2091 -1.4284
 8425SOL     OW36907   1.579   2.474   4.208 -0.7602  0.0866 -0.6389
 8425SOL    HW136908   1.486   2.484   4.224 -0.6387 -1.2194  0.8789
 8425SOL    HW236909   1.588   2.501   4.117  0.8351  0.9221 -0.2383
 8426SOL     OW36910   1.467   2.300   9.471 -0.2275 -0.0923 -0.3789
 8426SOL    HW136911   1.539   2.363   9.460 -0.8216  0.3920 -1.5014
 8426SOL    HW236912   1.447   2.280   9.379 -0.9365 -0.0306 -0.2347
 8427SOL     OW36913   0.915   1.418   7.578 -0.0073  0.2634 -0.4538
 8427SOL    HW136914   0.862   1.341   7.596  0.8423  0.5892  3.5809
 8427SOL    HW236915   0.904   1.477   7.653  0.0253 -0.1328 -0.1398
 8428SOL     OW36916   4.419   1.354   3.635  0.1905 -0.1412 -0.5274
 8428SOL    HW136917   4.433   1.361   3.730 -0.8019 -1.1830 -0.3101
 8428SOL    HW236918   4.330   1.319   3.631  0.8511 -1.9683  0.7271
 8429SOL     OW36919   4.097   1.398   3.375 -0.5030 -0.0332  0.1297
 8429SOL    HW136920   4.037   1.361   3.311 -0.0173  1.1820 -1.0227
 8429SOL    HW236921   4.080   1.350   3.456  0.7297  0.8363  0.9145
 8430SOL     OW36922   2.803   1.119   6.863  0.0778 -0.2322 -0.1614
 8430SOL    HW136923   2.848   1.199   6.836  0.1838 -0.1225  0.3253
 8430SOL    HW236924   2.881   1.072   6.892  0.2094 -0.5675 -1.0735
 8431SOL     OW36925   3.192   2.280  13.714  0.2442 -0.1300  0.3737
 8431SOL    HW136926   3.263   2.236  13.666  0.2302 -0.2256  0.4405
 8431SOL    HW236927   3.231   2.353  13.763 -1.4848  0.1039  1.3863
 8432SOL     OW36928   1.129   2.270  10.451  0.3363  0.3487 -0.1901
 8432SOL    HW136929   1.143   2.194  10.395  1.0646 -0.2449  0.7921
 8432SOL    HW236930   1.218   2.290  10.482  0.1470  0.7891  0.0690
 8433SOL     OW36931   0.457   1.590  13.803  0.3525 -0.1152  0.1199
 8433SOL    HW136932   0.529   1.626  13.751  0.0893 -1.1365 -0.9494
 8433SOL    HW236933   0.403   1.668  13.814  1.8006  0.6429  1.8710
 8434SOL     OW36934   4.658   1.546   9.149 -0.6439  0.2717 -0.0672
 8434SOL    HW136935   4.572   1.522   9.183  0.2535 -0.8853  1.3600
 8434SOL    HW236936   4.634   1.538   9.057  0.7640 -0.2484 -0.3969
 8435SOL     OW36937   2.126   1.636   4.379 -0.5460  0.1987 -0.0578
 8435SOL    HW136938   2.045   1.596   4.409 -0.4939 -0.4187 -0.7522
 8435SOL    HW236939   2.194   1.568   4.379 -0.6660  0.0513  2.4637
 8436SOL     OW36940   0.604   4.150  13.668  0.1560  0.0814  0.5006
 8436SOL    HW136941   0.655   4.229  13.681  0.3949 -0.1436  0.9234
 8436SOL    HW236942   0.539   4.160  13.737  0.6461 -1.9032  1.2561
 8437SOL     OW36943   0.248   2.793  16.999  0.0977 -0.3674  0.7021
 8437SOL    HW136944   0.161   2.757  16.982 -0.1738  0.1313  1.0293
 8437SOL    HW236945   0.292   2.784  16.914 -2.3255 -1.2350 -0.4587
 8438SOL     OW36946   0.552   3.691  11.112  0.2488 -0.3293  0.4588
 8438SOL    HW136947   0.564   3.604  11.150 -1.2214  0.0259  1.7515
 8438SOL    HW236948   0.458   3.690  11.095  0.4089  2.5465 -0.5882
 8439SOL     OW36949   4.341   3.335   8.796 -0.1102 -0.4033 -0.0854
 8439SOL    HW136950   4.425   3.305   8.830  0.0416 -0.7363 -0.7638
 8439SOL    HW236951   4.287   3.336   8.875  0.3535  4.0953  0.1685
 8440SOL     OW36952   3.449   0.360  13.198 -0.0618  0.3194  0.1654
 8440SOL    HW136953   3.490   0.274  13.192 -3.0864 -0.8444 -3.9137
 8440SOL    HW236954   3.361   0.325  13.211 -0.8067  1.4904 -1.7168
 8441SOL     OW36955   2.166   0.530   6.640 -0.5347 -0.1979 -0.0877
 8441SOL    HW136956   2.124   0.577   6.712  1.6708  0.1726  0.9279
 8441SOL    HW236957   2.245   0.582   6.630  1.3932 -2.6153  2.3184
 8442SOL     OW36958   0.591   0.749   6.271 -0.7578  0.3480  0.3177
 8442SOL    HW136959   0.680   0.761   6.305 -0.5187  0.0074 -0.1884
 8442SOL    HW236960   0.563   0.840   6.277 -2.0438 -0.1969  2.4985
 8443SOL     OW36961   3.109   3.111   5.739  0.3272 -0.1593  0.8837
 8443SOL    HW136962   3.049   3.152   5.801  1.7422  3.0491  0.1053
 8443SOL    HW236963   3.035   3.084   5.684  1.4348  0.1595 -0.7649
 8444SOL     OW36964   2.569   3.030   5.361 -0.4026 -0.1998  0.0454
 8444SOL    HW136965   2.523   3.035   5.278 -1.2054  0.5502  0.5303
 8444SOL    HW236966   2.639   3.089   5.335 -1.7334  0.3228 -2.3291
 8445SOL     OW36967   1.584   1.878   2.692  0.0373 -0.4497  0.8538
 8445SOL    HW136968   1.547   1.958   2.730 -0.1199 -0.7114  1.2531
 8445SOL    HW236969   1.670   1.877   2.733  1.1126  1.5053 -1.3238
 8446SOL     OW36970   0.383   1.831   6.331 -0.4021 -1.0766  0.4961
 8446SOL    HW136971   0.475   1.845   6.356 -0.7874 -2.4800  2.6616
 8446SOL    HW236972   0.383   1.891   6.256 -2.7677 -0.8727  0.6617
 8447SOL     OW36973   2.464   3.002  12.680  0.9112 -0.2719  0.2874
 8447SOL    HW136974   2.503   3.040  12.602 -1.5166  0.0706 -0.7573
 8447SOL    HW236975   2.398   2.945  12.641  0.4937  0.3839  0.0555
 8448SOL     OW36976   3.867   3.553   2.463 -0.3095 -0.2500 -0.3971
 8448SOL    HW136977   3.843   3.554   2.556 -0.6564  1.2508 -0.4989
 8448SOL    HW236978   3.930   3.481   2.460 -0.7720 -0.6213 -1.1942
 8449SOL     OW36979   4.609   0.404   3.536  0.9287 -0.4275 -1.0140
 8449SOL    HW136980   4.640   0.353   3.611  1.6223 -1.0730 -1.7312
 8449SOL    HW236981   4.515   0.410   3.550  1.2975 -2.4861  2.3436
 8450SOL     OW36982   0.802   2.379   4.475 -0.2803  0.0215  0.2003
 8450SOL    HW136983   0.741   2.441   4.514  1.5667  1.2222  1.2006
 8450SOL    HW236984   0.775   2.301   4.524 -0.4154 -0.2415 -0.2979
 8451SOL     OW36985   2.570   3.500   8.061 -0.2179 -0.0550  0.3267
 8451SOL    HW136986   2.589   3.406   8.067 -0.8445 -0.0788  1.8219
 8451SOL    HW236987   2.569   3.523   7.968 -1.3636 -0.1407  0.3190
 8452SOL     OW36988   1.669   1.605   6.439 -0.7196 -0.6432  0.0600
 8452SOL    HW136989   1.610   1.601   6.513 -0.7745  0.3931  0.0753
 8452SOL    HW236990   1.721   1.684   6.456 -2.8416  0.8693 -0.5628
 8453SOL     OW36991   3.653   1.578   5.144 -0.1548  0.0378 -0.5010
 8453SOL    HW136992   3.605   1.495   5.148  1.9397 -1.3169 -3.2500
 8453SOL    HW236993   3.607   1.618   5.070  1.4989  0.5366 -1.2487
 8454SOL     OW36994   2.975   2.142  13.784 -0.1116 -0.5482 -0.1466
 8454SOL    HW136995   3.056   2.187  13.760  0.4369 -1.6409 -0.3625
 8454SOL    HW236996   2.919   2.215  13.811 -1.8358 -1.5667 -0.9679
 8455SOL     OW36997   2.727   1.273  14.158  0.3525 -0.2953 -0.3773
 8455SOL    HW136998   2.633   1.287  14.151  0.4375  0.2431 -0.4783
 8455SOL    HW236999   2.757   1.363  14.143 -0.0045 -0.3771 -1.6351
 8456SOL     OW37000   0.001   2.997   4.115  0.4034  0.3006  0.2997
 8456SOL    HW137001   4.695   2.967   4.197 -0.1064 -1.1044 -0.4812
 8456SOL    HW237002   4.694   2.944   4.048  0.8230 -1.2472  1.2666
 8457SOL     OW37003   3.651   3.144   3.949 -0.0870 -0.5410  0.1623
 8457SOL    HW137004   3.610   3.216   3.901  0.6872  0.5849  1.1745
 8457SOL    HW237005   3.658   3.183   4.037 -1.8447  2.8517 -1.1902
 8458SOL     OW37006   0.030   0.855   8.563  0.2936 -0.2880  0.0910
 8458SOL    HW137007   4.707   0.931   8.570  0.4198 -0.3499  1.6809
 8458SOL    HW237008   4.711   0.777   8.579  0.0174  0.1438  1.2116
 8459SOL     OW37009   2.252   0.047   9.600  1.2687  0.5037  0.0286
 8459SOL    HW137010   2.293   4.719   9.658 -0.0907 -0.3030  0.0952
 8459SOL    HW237011   2.184   0.087   9.654  0.5762 -1.6502  0.7132
 8460SOL     OW37012   2.761   2.766   8.615  0.0152  0.4083 -0.7672
 8460SOL    HW137013   2.815   2.699   8.574  0.2763  0.6775 -0.8652
 8460SOL    HW237014   2.824   2.833   8.591  1.3395 -0.7633 -0.5718
 8461SOL     OW37015   2.514   3.752   4.902  0.3259  0.4659  0.0019
 8461SOL    HW137016   2.421   3.754   4.879  0.6749  0.1744 -1.4460
 8461SOL    HW237017   2.518   3.832   4.955 -0.9498  1.2234 -1.0538
 8462SOL     OW37018   4.522   3.747   0.446  0.5865  0.3909  0.0117
 8462SOL    HW137019   4.595   3.686   0.455  1.1849  1.2374  0.8008
 8462SOL    HW237020   4.481   3.738   0.532 -1.5657  0.3626 -1.0181
 8463SOL     OW37021   3.721   4.203   6.975 -0.4038  0.1244  0.0009
 8463SOL    HW137022   3.677   4.135   7.025  2.1872 -0.1008  1.9372
 8463SOL    HW237023   3.773   4.251   7.039  0.4107 -1.2271  0.3534
 8464SOL     OW37024   2.933   3.644   4.857 -0.4048  0.2357  0.6501
 8464SOL    HW137025   2.861   3.599   4.900 -0.6445 -0.0841 -0.0822
 8464SOL    HW237026   2.960   3.705   4.925 -0.2890  0.8628  0.0400
 8465SOL     OW37027   3.679   3.645   6.674 -0.0476  0.1626  0.0119
 8465SOL    HW137028   3.614   3.701   6.717  0.2839 -0.3735  1.2352
 8465SOL    HW237029   3.670   3.572   6.736 -0.1325 -0.5484 -0.8414
 8466SOL     OW37030   2.774   4.575   5.258  0.6261  0.2239 -0.4081
 8466SOL    HW137031   2.750   4.548   5.347  0.3785 -1.0053 -0.8398
 8466SOL    HW237032   2.864   4.592   5.286  0.7514  0.8025 -1.1482
 8467SOL     OW37033   0.782   4.150   4.039 -0.3047 -0.3424  0.7871
 8467SOL    HW137034   0.844   4.095   4.086  2.5852  2.3749  0.1153
 8467SOL    HW237035   0.784   4.227   4.096 -1.2236  1.2979 -1.3789
 8468SOL     OW37036   0.333   2.401   4.456  0.8549  0.3082  0.4137
 8468SOL    HW137037   0.281   2.431   4.381  0.7569 -1.2271 -0.1277
 8468SOL    HW237038   0.327   2.307   4.444  2.3991  0.3835 -0.9391
 8469SOL     OW37039   2.030   2.792   7.247 -0.5555 -0.2990  0.5885
 8469SOL    HW137040   2.108   2.799   7.302  0.4346  1.2264 -1.0166
 8469SOL    HW237041   1.976   2.736   7.304 -1.0466  0.0821  0.4986
 8470SOL     OW37042   3.089   0.943   3.614  0.1608 -0.5515 -0.0290
 8470SOL    HW137043   3.078   1.032   3.581  1.3821  0.3374  1.9273
 8470SOL    HW237044   3.029   0.953   3.688 -0.4108  0.5047 -0.6410
 8471SOL     OW37045   3.380   2.059  17.043  0.0536 -0.3435 -0.0201
 8471SOL    HW137046   3.368   2.151  17.069  0.1948  0.0773 -1.4160
 8471SOL    HW237047   3.414   2.071  16.954  0.8595  1.8809  0.5817
 8472SOL     OW37048   2.050   3.806   2.171  0.1094 -0.3717  0.1386
 8472SOL    HW137049   2.108   3.730   2.174 -2.7253 -2.5948 -2.1345
 8472SOL    HW237050   2.106   3.875   2.136 -0.6437 -0.4719 -1.2470
 8473SOL     OW37051   0.870   3.105   3.117 -0.4188 -0.0044  0.7331
 8473SOL    HW137052   0.923   3.184   3.110 -2.4075  1.2479 -0.2298
 8473SOL    HW237053   0.887   3.058   3.035 -1.7356 -1.5664  1.3609
 8474SOL     OW37054   0.488   3.943   0.816  0.4759  0.2734 -0.3331
 8474SOL    HW137055   0.495   3.868   0.757  2.4679 -0.5749  0.9753
 8474SOL    HW237056   0.400   3.967   0.787  0.7039 -0.1438 -1.3540
 8475SOL     OW37057   3.403   3.385   6.929 -0.4229  0.0707 -0.5537
 8475SOL    HW137058   3.377   3.295   6.906  0.3156 -0.2037 -0.3273
 8475SOL    HW237059   3.332   3.412   6.986 -0.8611 -1.2146 -0.4839
 8476SOL     OW37060   2.770   4.632   6.112  0.2956  0.0356 -0.2865
 8476SOL    HW137061   2.729   4.596   6.034  1.6976  0.9472 -1.4278
 8476SOL    HW237062   2.823   4.700   6.070  0.0480  0.1962 -0.3418
 8477SOL     OW37063   2.855   0.339   3.525 -0.3504  0.2735  0.1131
 8477SOL    HW137064   2.854   0.378   3.437  0.5136 -0.3551 -0.1712
 8477SOL    HW237065   2.770   0.295   3.522  0.2520 -0.9913  1.6276
 8478SOL     OW37066   3.833   2.410   4.373  0.0624 -0.3095  0.3000
 8478SOL    HW137067   3.798   2.322   4.389  0.4070 -0.2110  1.5791
 8478SOL    HW237068   3.905   2.416   4.435 -1.0335  0.0305  1.5525
 8479SOL     OW37069   4.342   2.824   5.996  0.0006 -0.4532  0.3993
 8479SOL    HW137070   4.378   2.904   5.956 -2.8420 -0.4006 -2.0138
 8479SOL    HW237071   4.300   2.786   5.919 -1.9699  2.5859 -0.0167
 8480SOL     OW37072   0.043   3.138   3.026  0.4273 -0.9065 -0.0192
 8480SOL    HW137073   4.690   3.123   2.994 -0.8807  1.4118  2.4663
 8480SOL    HW237074   0.042   3.082   3.104  0.3126 -2.5696 -1.2250
 8481SOL     OW37075   1.191   4.699  13.824  0.2045  0.2421 -0.2520
 8481SOL    HW137076   1.140   0.035  13.785  0.3988 -0.1346 -1.1916
 8481SOL    HW237077   1.283   4.722  13.810 -0.2161  0.4353 -2.8410
 8482SOL     OW37078   2.615   2.529  15.115  0.2688 -0.5412  0.0997
 8482SOL    HW137079   2.604   2.562  15.204 -0.9371  0.7776 -0.5306
 8482SOL    HW237080   2.686   2.587  15.089  0.1496 -1.2610 -1.8322
 8483SOL     OW37081   0.804   4.286   0.569 -0.4305  0.1862 -0.0195
 8483SOL    HW137082   0.883   4.324   0.607 -0.3785 -0.1883  0.2470
 8483SOL    HW237083   0.844   4.202   0.549 -0.0121  0.7313 -1.4748
 8484SOL     OW37084   0.982   0.168   5.889 -0.0504  0.0414  0.6030
 8484SOL    HW137085   0.959   0.162   5.796 -1.3110  1.1173  0.8522
 8484SOL    HW237086   0.915   0.228   5.921 -0.3135 -0.5858  1.2170
 8485SOL     OW37087   2.464   1.159   8.024 -0.0901  0.7137 -0.0931
 8485SOL    HW137088   2.544   1.179   8.073  0.7385 -1.5930 -0.5418
 8485SOL    HW237089   2.434   1.248   8.004 -0.8679  0.5344  0.2643
 8486SOL     OW37090   0.256   4.627   8.654  0.2901 -0.1572  0.1183
 8486SOL    HW137091   0.334   4.662   8.610  0.4472  0.0172  0.5427
 8486SOL    HW237092   0.189   4.635   8.585 -1.1529  1.7859  1.7430
 8487SOL     OW37093   3.950   1.441   4.093  0.2894 -0.6855 -0.6349
 8487SOL    HW137094   3.945   1.346   4.084 -1.7629 -0.4625 -1.7931
 8487SOL    HW237095   3.879   1.466   4.035 -0.9492  1.1474  1.6691
 8488SOL     OW37096   3.147   2.587   4.055  0.0383  0.2327 -0.0768
 8488SOL    HW137097   3.107   2.514   4.007  0.5460  0.5461 -0.9810
 8488SOL    HW237098   3.142   2.657   3.991 -2.3700 -1.4575 -1.7411
 8489SOL     OW37099   3.145   2.428   2.480 -0.0825 -0.3059  0.1840
 8489SOL    HW137100   3.115   2.337   2.486  0.9578 -0.4757  2.9089
 8489SOL    HW237101   3.240   2.418   2.482 -0.1549 -1.6405 -1.9915
 8490SOL     OW37102   0.706   1.517   3.034  0.6145 -0.5695 -0.4789
 8490SOL    HW137103   0.709   1.607   3.001 -1.3562  0.3526  1.8991
 8490SOL    HW237104   0.633   1.485   2.981 -0.1206  0.2972  0.0111
 8491SOL     OW37105   3.203   2.970   2.196 -0.2888 -0.3336 -0.1845
 8491SOL    HW137106   3.298   2.982   2.185  0.0624 -2.3875  0.5972
 8491SOL    HW237107   3.170   3.002   2.113  1.6844 -0.5049 -1.0376
 8492SOL     OW37108   4.167   0.232  10.895 -0.6052 -0.2803  0.4874
 8492SOL    HW137109   4.212   0.196  10.819 -1.7991  0.2224 -0.4581
 8492SOL    HW237110   4.179   0.160  10.957 -0.8325 -1.5843 -0.9919
 8493SOL     OW37111   3.797   4.457   3.179  0.0592  0.3645  0.0432
 8493SOL    HW137112   3.718   4.490   3.222 -1.7474 -1.4672 -1.8640
 8493SOL    HW237113   3.840   4.539   3.153  0.8168 -0.0894 -0.1275
 8494SOL     OW37114   4.569   1.716   8.138 -0.2564 -0.0604  0.2899
 8494SOL    HW137115   4.505   1.782   8.114  0.7300  0.0965 -1.9555
 8494SOL    HW237116   4.547   1.703   8.230 -0.3486  0.8364  0.3997
 8495SOL     OW37117   4.177   3.628   7.832 -0.0723 -0.0052  0.1881
 8495SOL    HW137118   4.232   3.700   7.799 -1.7967  0.4386 -1.7418
 8495SOL    HW237119   4.240   3.567   7.871 -0.4217  0.4416  1.4459
 8496SOL     OW37120   1.395   3.145   1.476 -0.6320 -0.2187 -0.2666
 8496SOL    HW137121   1.341   3.210   1.431  3.1433  1.8922 -1.7516
 8496SOL    HW237122   1.332   3.074   1.479 -1.5480  0.5641 -0.8803
 8497SOL     OW37123   1.189   0.530   7.342 -0.1983 -0.4161 -0.1271
 8497SOL    HW137124   1.178   0.436   7.358  0.1025 -0.7030 -1.5695
 8497SOL    HW237125   1.202   0.529   7.247  1.3747  0.8204  0.0736
 8498SOL     OW37126   4.341   1.764   6.151  0.4366  0.1264 -0.4319
 8498SOL    HW137127   4.275   1.826   6.180  2.4024  1.6518  0.7826
 8498SOL    HW237128   4.332   1.704   6.225  3.2778 -0.6393 -0.6861
 8499SOL     OW37129   4.474   0.652   5.283  0.2256  0.2769  0.2680
 8499SOL    HW137130   4.418   0.624   5.356 -1.3603 -0.2302 -1.1343
 8499SOL    HW237131   4.551   0.669   5.337 -0.2146 -0.1343  1.0121
 8500SOL     OW37132   1.302   3.296   2.156  0.2825 -0.5452  0.5516
 8500SOL    HW137133   1.264   3.381   2.136 -0.1815 -1.3425 -2.0248
 8500SOL    HW237134   1.378   3.325   2.205  0.3556 -2.0821  1.3409
 8501SOL     OW37135   0.538   1.031   6.309  0.8399 -0.0140  0.2063
 8501SOL    HW137136   0.447   1.052   6.291  0.5736 -0.5697  0.9094
 8501SOL    HW237137   0.576   1.104   6.259 -0.2812  0.3053 -0.1738
 8502SOL     OW37138   2.444   3.298   6.456 -0.2634 -0.1091  0.2258
 8502SOL    HW137139   2.511   3.263   6.397  0.4791  0.4291  0.7563
 8502SOL    HW237140   2.489   3.311   6.539  0.0281 -0.2645  0.0926
 8503SOL     OW37141   4.475   1.840   7.006 -0.3940  0.3190  0.2457
 8503SOL    HW137142   4.456   1.849   7.100 -0.9276  2.8357 -0.0971
 8503SOL    HW237143   4.423   1.764   6.982 -1.4256  1.1267 -0.0727
 8504SOL     OW37144   0.352   4.498  17.253  0.3876 -0.5643 -0.0735
 8504SOL    HW137145   0.360   4.435  17.324  0.9728  1.5326  1.7159
 8504SOL    HW237146   0.429   4.553  17.266 -1.1143  0.8691  2.9299
 8505SOL     OW37147   1.174   2.455   9.115  0.0111 -0.1129 -0.0909
 8505SOL    HW137148   1.179   2.403   9.035  1.7396  2.4967 -1.6313
 8505SOL    HW237149   1.197   2.543   9.086 -0.1604  0.0386  0.2345
 8506SOL     OW37150   2.787   1.255   5.641 -0.4251  0.2043  0.1269
 8506SOL    HW137151   2.878   1.281   5.627  0.4757 -2.9631  0.0254
 8506SOL    HW237152   2.766   1.291   5.727 -1.2657 -1.7556  0.7460
 8507SOL     OW37153   4.494   0.765   2.077  0.3996 -0.0086 -0.8503
 8507SOL    HW137154   4.421   0.825   2.087  1.7038  1.4368 -0.0688
 8507SOL    HW237155   4.449   0.681   2.063  1.3344 -1.2811  3.5278
 8508SOL     OW37156   3.492   3.306   7.432 -0.5929 -0.5279 -0.5576
 8508SOL    HW137157   3.458   3.237   7.489  0.5267 -2.4162 -2.1712
 8508SOL    HW237158   3.460   3.290   7.343  0.2057 -0.0300 -0.9275
 8509SOL     OW37159   1.849   1.072   6.087 -0.4364 -0.9261  0.3446
 8509SOL    HW137160   1.848   1.069   5.991  0.1904  0.5729  0.2870
 8509SOL    HW237161   1.787   1.143   6.102  0.2187 -0.2353 -0.1965
 8510SOL     OW37162   1.587   2.746   7.627  0.3292  0.0728  0.5383
 8510SOL    HW137163   1.667   2.772   7.672  1.1889 -0.9295 -0.4147
 8510SOL    HW237164   1.516   2.772   7.686 -0.0939  1.8472 -0.7347
 8511SOL     OW37165   2.280   4.045   6.411  0.4155  0.0648  0.4801
 8511SOL    HW137166   2.207   4.091   6.369 -0.0586 -0.3892  0.8135
 8511SOL    HW237167   2.273   3.962   6.365 -3.1267 -0.2101  1.5238
 8512SOL     OW37168   0.398   0.371   0.985 -0.2826 -0.1815  0.6934
 8512SOL    HW137169   0.321   0.417   1.019  0.4804  1.3192  0.4022
 8512SOL    HW237170   0.371   0.359   0.894  0.1391  1.3169  0.3656
 8513SOL     OW37171   0.850   3.394   3.543  0.4747 -0.5749  0.3384
 8513SOL    HW137172   0.757   3.379   3.525  1.0709 -1.8370 -1.6880
 8513SOL    HW237173   0.862   3.488   3.533 -0.1250 -0.4659  0.6262
 8514SOL     OW37174   0.349   2.778   6.191  0.2134 -0.6272  0.0602
 8514SOL    HW137175   0.271   2.743   6.149  1.9945 -4.2136 -0.2434
 8514SOL    HW237176   0.324   2.752   6.280  3.4595  0.4487  1.2818
 8515SOL     OW37177   0.106   0.846   4.101  0.3791  0.0344  0.0177
 8515SOL    HW137178   0.117   0.938   4.125 -0.9048 -0.0900  1.0976
 8515SOL    HW237179   0.026   0.858   4.049 -0.5216 -0.6505  1.2719
 8516SOL     OW37180   1.638   0.092   4.595  0.1502 -0.2101 -0.3446
 8516SOL    HW137181   1.725   0.126   4.572 -0.6529  1.4870 -0.8772
 8516SOL    HW237182   1.636   0.118   4.688 -1.8696  0.8455 -0.6868
 8517SOL     OW37183   1.253   4.526   1.534 -0.2727  0.5248  0.2570
 8517SOL    HW137184   1.207   4.526   1.451  2.0229 -0.5675 -1.0078
 8517SOL    HW237185   1.340   4.491   1.513 -0.1322  1.3879 -0.5909
 8518SOL     OW37186   4.693   1.146   6.817  0.3154 -0.2845  0.1787
 8518SOL    HW137187   4.705   1.078   6.751 -1.7757 -0.6825  0.2245
 8518SOL    HW237188   4.653   1.215   6.763  2.1211  1.8628  1.5734
 8519SOL     OW37189   0.598   0.741   4.450 -0.6980 -0.3412  0.7567
 8519SOL    HW137190   0.600   0.752   4.545 -0.5054  2.3717  0.4387
 8519SOL    HW237191   0.635   0.826   4.428 -1.3156 -0.1253  0.5340
 8520SOL     OW37192   2.481   0.822  17.017 -0.7016 -0.3827 -0.0280
 8520SOL    HW137193   2.566   0.864  17.027 -0.7362 -1.0894  3.2634
 8520SOL    HW237194   2.464   0.832  16.923 -1.7950 -2.2903 -0.0239
 8521SOL     OW37195   3.203   0.507   7.998  0.0271  0.0700 -0.8657
 8521SOL    HW137196   3.274   0.528   7.936  1.4677  2.1708  1.4795
 8521SOL    HW237197   3.219   0.569   8.069  0.1990  0.9204 -1.6432
 8522SOL     OW37198   2.915   4.364   3.739 -0.0572  0.4363  0.4630
 8522SOL    HW137199   2.841   4.411   3.778  0.7049  0.6823  1.5963
 8522SOL    HW237200   2.950   4.443   3.698  0.4891 -0.4945 -0.8673
 8523SOL     OW37201   1.680   1.598   4.610  0.0735  0.3007  0.4738
 8523SOL    HW137202   1.626   1.540   4.663 -1.0710  1.3112  0.4060
 8523SOL    HW237203   1.610   1.653   4.575 -0.1966 -0.9567 -0.9304
 8524SOL     OW37204   4.188   1.895  16.480 -0.0793 -0.0014 -0.1910
 8524SOL    HW137205   4.207   1.969  16.422  0.6395  0.5022  0.6699
 8524SOL    HW237206   4.114   1.851  16.438  1.8026 -0.7701 -2.6559
 8525SOL     OW37207   2.976   2.773   5.489  0.2531  0.0551 -0.3923
 8525SOL    HW137208   2.896   2.721   5.482 -1.3890  2.6271 -0.6059
 8525SOL    HW237209   3.004   2.793   5.400  0.0270 -1.2601 -0.7480
 8526SOL     OW37210   0.346   1.667  13.550 -0.1210  0.3482 -0.2727
 8526SOL    HW137211   0.334   1.618  13.469  1.5629  2.3611 -1.7335
 8526SOL    HW237212   0.318   1.608  13.619  2.4148 -1.6370 -0.9783
 8527SOL     OW37213   2.858   1.365   8.611 -0.1259 -0.0970  0.3402
 8527SOL    HW137214   2.940   1.414   8.616 -0.7212  0.9213  0.0435
 8527SOL    HW237215   2.786   1.421   8.638  1.9940  2.3088  1.0445
 8528SOL     OW37216   2.056   3.387   2.139  0.4575 -0.0895  0.2145
 8528SOL    HW137217   2.052   3.408   2.046 -1.2422 -1.4468 -0.0202
 8528SOL    HW237218   2.125   3.321   2.139 -0.2877 -0.8723  1.8438
 8529SOL     OW37219   4.289   3.105   9.764 -0.0240 -0.3879  0.0453
 8529SOL    HW137220   4.224   3.143   9.706 -1.6770 -0.9644  1.5150
 8529SOL    HW237221   4.315   3.021   9.726 -1.8209 -1.0219  0.2339
 8530SOL     OW37222   1.545   1.278  16.687  0.5328  0.2726  0.3360
 8530SOL    HW137223   1.523   1.360  16.643  0.5040 -0.4964 -1.0577
 8530SOL    HW237224   1.494   1.213  16.639 -1.0034  0.5146  1.6506
 8531SOL     OW37225   1.453   3.819   2.895 -0.3916  0.3452 -0.4283
 8531SOL    HW137226   1.374   3.785   2.853 -0.2220  0.2576 -0.6754
 8531SOL    HW237227   1.428   3.911   2.900  2.8135  1.1065  1.8241
 8532SOL     OW37228   1.971   1.142   4.282 -0.4789 -0.4836 -0.3717
 8532SOL    HW137229   1.885   1.152   4.321  0.5426  1.2611  1.4420
 8532SOL    HW237230   1.973   1.046   4.284 -1.1272 -0.4642  0.7997
 8533SOL     OW37231   1.968   0.780   6.395  0.1311  0.3979 -0.2205
 8533SOL    HW137232   2.031   0.846   6.422  0.2825 -0.4583  1.5386
 8533SOL    HW237233   1.946   0.793   6.303 -0.8864  0.5528  0.0442
 8534SOL     OW37234   3.977   0.519   1.868 -0.4160 -0.2741 -0.2911
 8534SOL    HW137235   3.944   0.593   1.816 -1.4512  0.3035  1.1944
 8534SOL    HW237236   3.965   0.558   1.954 -2.2945 -2.0574  0.2518
 8535SOL     OW37237   3.321   4.008  16.475 -0.4769 -0.3220  0.1854
 8535SOL    HW137238   3.368   4.067  16.534 -1.1430 -0.9261  1.3213
 8535SOL    HW237239   3.229   4.018  16.500 -0.3482 -0.0349  0.5348
 8536SOL     OW37240   2.444   2.482  13.329 -0.4280 -0.1701  0.3058
 8536SOL    HW137241   2.431   2.569  13.366  2.4490  0.1526  0.5890
 8536SOL    HW237242   2.383   2.488  13.255  0.9469  0.3008 -0.7972
 8537SOL     OW37243   0.546   3.615   3.409  0.1553  0.1823  0.1502
 8537SOL    HW137244   0.510   3.666   3.483  1.4811  0.3148  0.7043
 8537SOL    HW237245   0.503   3.660   3.336 -0.9092  0.1102  0.7320
 8538SOL     OW37246   0.130   2.756   5.094  0.3880  0.1885  0.0393
 8538SOL    HW137247   0.087   2.772   5.179  1.8631  0.7384  0.6745
 8538SOL    HW237248   0.057   2.739   5.034 -0.1897  2.4907  0.1018
 8539SOL     OW37249   0.544   3.059   5.526  0.2608  0.2367  0.1638
 8539SOL    HW137250   0.551   2.988   5.590  2.0719  1.4560  1.3003
 8539SOL    HW237251   0.522   3.136   5.579  1.7553  2.0510 -1.8628
 8540SOL     OW37252   2.514   3.089  16.273 -0.4471  0.4872 -0.0656
 8540SOL    HW137253   2.564   3.090  16.191 -2.0514  0.3794 -1.0712
 8540SOL    HW237254   2.450   3.020  16.253 -1.7737  1.3884  1.0250
 8541SOL     OW37255   1.145   2.444  12.291 -0.1682 -0.3112 -0.5012
 8541SOL    HW137256   1.131   2.376  12.225 -1.2308 -1.2949  0.7336
 8541SOL    HW237257   1.228   2.414  12.329 -1.4375 -1.0939  1.6643
 8542SOL     OW37258   2.264   3.176   5.265 -0.2355 -0.7105 -0.1859
 8542SOL    HW137259   2.293   3.220   5.185  3.3694 -0.6207  1.1633
 8542SOL    HW237260   2.298   3.237   5.331  0.3374 -2.0403  0.7498
 8543SOL     OW37261   0.980   4.181  13.761 -0.0928 -0.1715  0.5407
 8543SOL    HW137262   1.045   4.246  13.734 -0.0091  0.7004  2.8210
 8543SOL    HW237263   0.898   4.213  13.723  2.1773  2.0211 -2.5418
 8544SOL     OW37264   0.661   2.158   0.261  0.1724 -0.3162 -0.1294
 8544SOL    HW137265   0.625   2.165   0.173  2.0623  0.7072 -0.8232
 8544SOL    HW237266   0.622   2.237   0.300  1.5532 -0.0595  0.7477
 8545SOL     OW37267   3.646   3.975   9.050  0.4942  0.0517 -0.1314
 8545SOL    HW137268   3.554   3.996   9.065  0.6986 -0.5848  2.0617
 8545SOL    HW237269   3.644   3.946   8.959  2.5149  0.4512 -0.3031
 8546SOL     OW37270   1.372   4.217   2.221 -0.2561  0.0595  0.4833
 8546SOL    HW137271   1.286   4.248   2.190 -0.6782 -0.4025  1.1947
 8546SOL    HW237272   1.423   4.217   2.140 -0.4738  0.3898  0.3471
 8547SOL     OW37273   1.099   1.944   9.603  0.1235  0.0014  0.4107
 8547SOL    HW137274   1.060   1.955   9.690 -0.2446  0.5059  0.1851
 8547SOL    HW237275   1.036   1.874   9.582 -1.6283  1.5518  0.4361
 8548SOL     OW37276   2.579   3.896   7.304  0.3464 -0.8674  0.3930
 8548SOL    HW137277   2.603   3.939   7.387 -2.0019  2.8003 -0.7972
 8548SOL    HW237278   2.580   3.977   7.253  2.6991 -0.8950  0.3971
 8549SOL     OW37279   3.789   3.164   9.422 -0.0688 -0.3293 -0.0439
 8549SOL    HW137280   3.818   3.230   9.359  2.6204 -2.1348 -0.6865
 8549SOL    HW237281   3.804   3.211   9.505 -0.8992 -1.6922  0.8861
 8550SOL     OW37282   1.168   3.293   7.932  0.2803  0.0065  0.9110
 8550SOL    HW137283   1.081   3.261   7.952 -0.4423  1.1680 -0.3896
 8550SOL    HW237284   1.150   3.357   7.863  1.5139  0.0910  0.6573
 8551SOL     OW37285   0.273   4.076   3.727  0.0104  0.8452  0.0027
 8551SOL    HW137286   0.363   4.046   3.715  0.1351  1.8350 -1.4773
 8551SOL    HW237287   0.257   4.118   3.643 -1.0796 -0.9239 -0.6597
 8552SOL     OW37288   1.805   3.329   2.244  0.1747 -0.3587 -0.2593
 8552SOL    HW137289   1.875   3.384   2.208 -1.4911  1.4421 -0.7096
 8552SOL    HW237290   1.837   3.239   2.231  1.6329  0.2354 -0.7295
 8553SOL     OW37291   0.946   1.766   9.493 -0.3042  0.0523  0.0801
 8553SOL    HW137292   0.966   1.673   9.499 -0.2694  0.1126  1.0019
 8553SOL    HW237293   0.854   1.759   9.470  0.1396  0.1534 -1.6635
 8554SOL     OW37294   4.013   1.225   1.498 -0.7181  0.3148 -0.4408
 8554SOL    HW137295   4.038   1.165   1.568 -1.1279  0.0329 -0.5333
 8554SOL    HW237296   3.959   1.287   1.547  2.3897  0.8975  2.2431
 8555SOL     OW37297   4.671   2.414   5.153  0.2310  0.0233 -0.7948
 8555SOL    HW137298   0.019   2.374   5.127 -0.0708 -0.9958 -0.1851
 8555SOL    HW237299   4.643   2.445   5.067  2.1203  2.1703 -0.6541
 8556SOL     OW37300   3.197   0.820   0.652 -0.1054  0.6635 -0.2726
 8556SOL    HW137301   3.260   0.797   0.583  1.7548  0.8617  1.3570
 8556SOL    HW237302   3.145   0.742   0.671  0.1987  0.9924  1.8952
 8557SOL     OW37303   3.242   4.638   2.016  0.0386 -0.0330 -0.1680
 8557SOL    HW137304   3.266   4.720   1.974 -0.5305 -0.0723 -0.5721
 8557SOL    HW237305   3.263   4.573   1.950 -2.6576 -2.3720  1.2488
 8558SOL     OW37306   2.385   0.964  12.695 -0.0701 -0.8527 -0.1635
 8558SOL    HW137307   2.290   0.968  12.688  0.1929  3.0787 -1.5513
 8558SOL    HW237308   2.398   1.015  12.775  0.4441 -0.6124 -0.3956
 8559SOL     OW37309   1.004   2.593   3.683  0.6351  0.2935 -0.0496
 8559SOL    HW137310   0.994   2.570   3.775 -0.8743 -0.2754 -0.3584
 8559SOL    HW237311   1.096   2.573   3.667 -0.0826 -1.4590 -2.0151
 8560SOL     OW37312   3.558   0.988   6.425 -0.3603 -0.0810 -0.2751
 8560SOL    HW137313   3.593   0.905   6.456  1.4396  0.9111  0.3026
 8560SOL    HW237314   3.522   0.955   6.343  1.4736 -0.5885 -0.8592
 8561SOL     OW37315   4.189   3.478   8.130  0.2922 -0.2523  0.1423
 8561SOL    HW137316   4.161   3.476   8.222 -0.0518  0.7992  0.0626
 8561SOL    HW237317   4.149   3.558   8.098 -1.7165 -0.9191  0.9775
 8562SOL     OW37318   2.464   4.203   9.030  0.1243  0.0664 -0.3195
 8562SOL    HW137319   2.551   4.175   9.060  0.1683  0.3438 -0.1816
 8562SOL    HW237320   2.457   4.163   8.944  1.7965 -1.7819  0.3750
 8563SOL     OW37321   1.812   1.506  15.601  0.5125 -0.5569  0.2380
 8563SOL    HW137322   1.804   1.547  15.515 -1.6001 -0.6199  0.3945
 8563SOL    HW237323   1.872   1.567  15.644 -1.8250  1.0661  1.1813
 8564SOL     OW37324   3.854   4.273   0.630  0.0251  0.1662  0.3046
 8564SOL    HW137325   3.862   4.179   0.644 -0.3075  0.3997  2.0401
 8564SOL    HW237326   3.766   4.273   0.593 -0.1825  1.5938  0.7947
 8565SOL     OW37327   2.662   1.980  13.291  0.3718 -0.0224 -0.5431
 8565SOL    HW137328   2.617   2.047  13.240  1.1183  1.7776  1.1652
 8565SOL    HW237329   2.739   2.015  13.337  1.1569 -1.0386 -1.0698
 8566SOL     OW37330   0.953   0.972   0.535 -0.5065  0.3321 -0.0850
 8566SOL    HW137331   1.014   0.924   0.480  0.4977  1.2064  0.2584
 8566SOL    HW237332   0.954   1.054   0.487  2.0899  0.8518  0.8385
 8567SOL     OW37333   2.362   3.505  15.036  0.1510  0.6581 -0.1475
 8567SOL    HW137334   2.354   3.411  15.020 -0.8058  0.9511 -1.3890
 8567SOL    HW237335   2.403   3.522  14.951 -0.5828  0.2021 -0.5897
 8568SOL     OW37336   2.521   3.561   4.510  0.0905 -0.5588 -0.3218
 8568SOL    HW137337   2.568   3.636   4.545 -1.9874 -0.2762  1.8074
 8568SOL    HW237338   2.523   3.572   4.415 -0.6891 -3.2055 -0.6473
 8569SOL     OW37339   2.780   0.554  12.849 -0.0146 -0.6086 -0.0805
 8569SOL    HW137340   2.792   0.621  12.916 -2.2127 -1.2783  0.9945
 8569SOL    HW237341   2.730   0.483  12.889 -0.2972 -0.3823 -0.0270
 8570SOL     OW37342   0.715   3.685  16.034 -0.5912  0.1578  0.0313
 8570SOL    HW137343   0.806   3.707  16.055 -0.3072 -0.3255 -0.6729
 8570SOL    HW237344   0.727   3.677  15.939  0.6557 -0.5480  0.2625
 8571SOL     OW37345   4.353   1.826   5.194 -0.0689 -0.1915 -0.2650
 8571SOL    HW137346   4.292   1.768   5.149 -0.0221  0.9470 -1.7861
 8571SOL    HW237347   4.343   1.908   5.146 -1.4384  0.0558  0.4451
 8572SOL     OW37348   0.992   2.064   8.018 -0.1326  0.0963  0.2817
 8572SOL    HW137349   1.084   2.085   8.004  0.1227  0.3943  2.4675
 8572SOL    HW237350   0.966   2.136   7.959  0.4984  0.5288  0.5311
 8573SOL     OW37351   3.646   0.551   1.940 -0.1673  0.6739  0.3274
 8573SOL    HW137352   3.700   0.507   2.006  0.9633  2.4114  0.5398
 8573SOL    HW237353   3.685   0.638   1.943 -0.1617  0.7213 -1.4500
 8574SOL     OW37354   3.517   1.742   9.368 -0.0905 -0.1830 -0.3696
 8574SOL    HW137355   3.541   1.751   9.460  0.8646  0.5383 -0.6918
 8574SOL    HW237356   3.434   1.694   9.366 -0.7124  0.8816 -0.1526
 8575SOL     OW37357   0.359   0.209   2.205  0.2739  0.2967  0.6222
 8575SOL    HW137358   0.367   0.159   2.286  2.3009 -0.0891  0.1945
 8575SOL    HW237359   0.270   0.243   2.215 -0.4570 -2.0175  1.9288
 8576SOL     OW37360   3.006   3.545  16.746 -0.1845  0.4606  0.0263
 8576SOL    HW137361   2.934   3.552  16.684  0.2036 -1.4691 -0.6611
 8576SOL    HW237362   2.963   3.511  16.825 -2.6388 -0.5039 -1.7467
 8577SOL     OW37363   3.456   2.942  15.201 -0.2796 -0.8544 -0.0883
 8577SOL    HW137364   3.440   2.882  15.128 -1.7677  0.9162 -1.2144
 8577SOL    HW237365   3.543   2.973  15.177 -0.4551 -0.5069 -0.2768
 8578SOL     OW37366   3.238   2.614  10.971  0.8129  0.1538  0.2335
 8578SOL    HW137367   3.198   2.617  10.884 -0.4676  0.9817  0.8500
 8578SOL    HW237368   3.331   2.627  10.952  0.0454  1.4603 -2.6285
 8579SOL     OW37369   0.207   1.015  16.301  0.7758 -0.0939  0.7927
 8579SOL    HW137370   0.130   1.045  16.349  1.1676 -0.0489  1.3793
 8579SOL    HW237371   0.236   0.936  16.347 -2.7620 -0.7475  1.8834
 8580SOL     OW37372   4.553   1.688   3.497 -0.5344  0.4055 -0.0144
 8580SOL    HW137373   4.488   1.681   3.566 -0.7317  0.2717 -0.2146
 8580SOL    HW237374   4.567   1.596   3.472  1.1093  0.9352 -1.0508
 8581SOL     OW37375   1.927   4.054  15.224 -0.5550  0.1979 -0.1557
 8581SOL    HW137376   1.832   4.056  15.232 -0.5679 -0.3321 -0.1660
 8581SOL    HW237377   1.952   4.111  15.296  0.2345  1.9602 -1.8194
 8582SOL     OW37378   2.302   2.053   7.359  0.2115  0.1637 -0.0736
 8582SOL    HW137379   2.210   2.071   7.375  0.4041  1.1189  0.0051
 8582SOL    HW237380   2.349   2.094   7.431  0.3864 -0.1735  0.0054
 8583SOL     OW37381   3.122   3.378   2.374 -0.6322 -0.2856  0.1180
 8583SOL    HW137382   3.092   3.298   2.331  2.2177 -0.8167 -0.8583
 8583SOL    HW237383   3.090   3.450   2.320  1.7034 -0.8452 -1.9791
 8584SOL     OW37384   3.021   2.172   7.088  0.1985 -0.1683  0.5248
 8584SOL    HW137385   3.113   2.184   7.111  0.2177 -0.1478  0.4371
 8584SOL    HW237386   2.999   2.083   7.116  1.8077 -1.1113 -1.2101
 8585SOL     OW37387   2.522   4.268   4.969  0.1621 -0.3954 -0.2528
 8585SOL    HW137388   2.596   4.228   5.014 -0.9477 -0.9559  1.1101
 8585SOL    HW237389   2.528   4.356   5.007  2.1942 -0.2793 -0.8479
 8586SOL     OW37390   0.043   3.375   6.443  0.1400  0.4245 -0.2279
 8586SOL    HW137391   4.716   3.398   6.512  0.0336 -1.1824  0.1973
 8586SOL    HW237392   4.712   3.358   6.376 -0.5169  0.4141  0.4215
 8587SOL     OW37393   1.294   3.900   3.342 -0.1614 -0.5801  0.3224
 8587SOL    HW137394   1.217   3.850   3.316  3.2078 -4.1376 -2.7959
 8587SOL    HW237395   1.301   3.975   3.283 -1.8376 -1.2434 -0.7059
 8588SOL     OW37396   0.083   0.672   5.645  0.4335 -0.0327  0.1791
 8588SOL    HW137397   0.056   0.729   5.573  0.6528  0.0169  0.1358
 8588SOL    HW237398   0.156   0.727   5.674 -0.5330  1.6065 -0.4804
 8589SOL     OW37399   0.731   0.008   8.279  0.3510 -0.0486  0.4207
 8589SOL    HW137400   0.689   4.660   8.302 -0.9925  0.9627  1.5865
 8589SOL    HW237401   0.821   0.012   8.312  2.0311 -2.1978 -3.9555
 8590SOL     OW37402   3.080   0.566   2.066 -0.1785  0.0955  0.0583
 8590SOL    HW137403   3.051   0.652   2.095  0.4254  0.9645 -1.9315
 8590SOL    HW237404   3.035   0.507   2.126  2.2173  0.1444  1.9204
 8591SOL     OW37405   1.606   3.246   1.950 -0.4666 -0.0320  0.0731
 8591SOL    HW137406   1.522   3.201   1.965  0.7105 -2.9120 -1.8887
 8591SOL    HW237407   1.667   3.180   1.983  0.6035  0.4483 -0.9817
 8592SOL     OW37408   0.998   1.881   7.829 -0.4389  0.3086 -0.1199
 8592SOL    HW137409   1.091   1.861   7.841 -0.9591 -1.8924  0.3905
 8592SOL    HW237410   0.979   1.939   7.903 -1.6590  0.2801 -0.4127
 8593SOL     OW37411   4.085   1.360   6.081 -0.3791  0.4436  0.0304
 8593SOL    HW137412   4.102   1.410   6.002 -1.1496  0.3633 -0.1848
 8593SOL    HW237413   4.171   1.327   6.107 -0.4995  2.3692  2.8944
 8594SOL     OW37414   2.430   3.265   8.921 -0.2940  0.2569  0.1557
 8594SOL    HW137415   2.446   3.349   8.964  0.3629 -0.1287  0.6727
 8594SOL    HW237416   2.335   3.259   8.929 -0.3566  1.3999  0.3593
 8595SOL     OW37417   1.257   2.722  17.650  0.1294  0.0259  0.6109
 8595SOL    HW137418   1.255   2.807  17.605 -0.3096  0.2641  1.0792
 8595SOL    HW237419   1.165   2.706  17.671 -0.1587  1.4349  0.4193
 8596SOL     OW37420   0.315   3.044   5.775  0.2910 -0.0073 -0.0279
 8596SOL    HW137421   0.299   3.010   5.863 -0.4851 -0.9507 -0.5252
 8596SOL    HW237422   0.374   3.113   5.803 -1.1296  0.5830  1.4993
 8597SOL     OW37423   1.250   0.377  17.546 -0.2121 -0.1764  0.0275
 8597SOL    HW137424   1.310   0.313  17.584  0.8089  0.8296  0.1016
 8597SOL    HW237425   1.293   0.458  17.573 -0.0648 -0.3054  0.1765
 8598SOL     OW37426   2.989   2.762  11.432  0.6697  0.4436  0.2904
 8598SOL    HW137427   3.046   2.837  11.451  1.0987  0.0176  0.7135
 8598SOL    HW237428   3.030   2.727  11.353 -3.3218 -1.1623 -1.0432
 8599SOL     OW37429   4.007   2.143   0.485  0.9950  0.0472  0.1652
 8599SOL    HW137430   4.074   2.079   0.462  0.7566  0.1636 -0.8657
 8599SOL    HW237431   3.927   2.090   0.480  0.3806  1.0538 -0.6611
 8600SOL     OW37432   1.087   4.324   7.310  0.2438  0.0399 -0.3796
 8600SOL    HW137433   1.031   4.268   7.364 -0.7386  0.1051 -1.3119
 8600SOL    HW237434   1.059   4.299   7.222  0.5750 -1.8410  0.0528
 8601SOL     OW37435   2.920   2.170   2.076 -0.3298  0.2521  0.1827
 8601SOL    HW137436   2.861   2.100   2.051  0.5775  0.1594 -1.6585
 8601SOL    HW237437   2.863   2.208   2.143  1.8832  1.3949  1.4297
 8602SOL     OW37438   2.798   0.980   7.899  0.4530 -0.1204  0.4575
 8602SOL    HW137439   2.747   0.913   7.853 -0.7714  1.3220 -0.2689
 8602SOL    HW237440   2.797   0.961   7.993 -0.9231 -0.8902  0.2878
 8603SOL     OW37441   3.957   0.381   7.946 -1.0334 -1.0071  0.1664
 8603SOL    HW137442   3.961   0.286   7.933 -0.9609 -1.0733  0.6713
 8603SOL    HW237443   4.039   0.416   7.913  0.0175 -1.4116  2.3278
 8604SOL     OW37444   1.705   3.598   9.586 -0.1277 -0.1199  0.0556
 8604SOL    HW137445   1.616   3.566   9.577  0.0948 -0.7979  0.2700
 8604SOL    HW237446   1.726   3.627   9.497  1.6753  0.7226  0.7585
 8605SOL     OW37447   1.155   1.393  17.491 -0.1004  0.0179  0.0874
 8605SOL    HW137448   1.227   1.438  17.447  0.1084 -0.8201 -0.4203
 8605SOL    HW237449   1.083   1.446  17.455 -0.1130 -0.4111 -0.5220
 8606SOL     OW37450   3.612   4.618   9.221  0.4395  0.8613 -0.1211
 8606SOL    HW137451   3.701   4.595   9.247 -0.6031 -1.6788  1.2625
 8606SOL    HW237452   3.623   4.679   9.149  1.4151  0.9921  0.1454
 8607SOL     OW37453   0.491   4.077   7.177  0.2830 -0.1242 -0.5910
 8607SOL    HW137454   0.476   4.031   7.260  1.3016 -2.9927 -2.0154
 8607SOL    HW237455   0.509   4.004   7.118  0.3522 -1.9241  1.6418
 8608SOL     OW37456   0.015   2.485   8.580  0.1556  0.0605 -0.3474
 8608SOL    HW137457   4.712   2.398   8.564  0.7983 -0.0944 -1.0735
 8608SOL    HW237458   0.075   2.480   8.654  0.9515 -0.7586 -1.0421
 8609SOL     OW37459   2.643   2.830   3.433  0.3239 -0.3099  0.2258
 8609SOL    HW137460   2.558   2.799   3.464  0.7460 -0.2122  1.4625
 8609SOL    HW237461   2.680   2.874   3.509 -1.0416 -1.5693  1.6177
 8610SOL     OW37462   0.948   3.277  16.955 -0.0155 -0.1320 -0.1277
 8610SOL    HW137463   0.954   3.328  16.874 -0.2855 -1.3419 -0.9041
 8610SOL    HW237464   1.033   3.232  16.953 -0.0312 -0.1930  0.6982
 8611SOL     OW37465   1.617   1.760  12.443  0.1193  0.3397 -0.6411
 8611SOL    HW137466   1.601   1.849  12.411 -1.9163  0.0588 -0.3582
 8611SOL    HW237467   1.688   1.727  12.388 -0.3630  0.2002 -1.1787
 8612SOL     OW37468   3.464   1.778   7.414 -0.4658  0.0387 -0.2662
 8612SOL    HW137469   3.368   1.782   7.420 -0.4554  0.9383 -0.7009
 8612SOL    HW237470   3.490   1.870   7.401  2.9535 -0.8897  0.0464
 8613SOL     OW37471   4.726   3.950   7.935 -0.0488  0.2884 -0.1232
 8613SOL    HW137472   0.034   4.006   7.999  1.3351  1.0643 -1.7353
 8613SOL    HW237473   4.694   3.880   7.992 -0.6355  0.9330  0.3405
 8614SOL     OW37474   4.228   1.515   4.565 -0.2592  0.2446 -0.0873
 8614SOL    HW137475   4.307   1.461   4.564  0.3790  1.2154 -2.1905
 8614SOL    HW237476   4.210   1.504   4.658 -1.2692  0.1728 -0.2906
 8615SOL     OW37477   3.713   0.521   7.900  0.5828  0.4693  0.2558
 8615SOL    HW137478   3.798   0.480   7.918 -0.0387 -1.0522 -0.2250
 8615SOL    HW237479   3.700   0.574   7.979  1.1523 -0.6410  1.0990
 8616SOL     OW37480   3.259   2.123   8.116 -0.3140  0.3122  0.5411
 8616SOL    HW137481   3.253   2.090   8.026 -0.9781 -1.3076  1.1962
 8616SOL    HW237482   3.312   2.199   8.092 -0.8048  0.0622 -1.3554
 8617SOL     OW37483   1.341   0.176   5.921  0.1357  0.3893  0.5138
 8617SOL    HW137484   1.340   0.258   5.871 -0.4796 -1.5823 -2.6979
 8617SOL    HW237485   1.425   0.140   5.892 -0.9009 -1.8664  0.3501
 8618SOL     OW37486   1.753   3.116   9.018 -0.2580  0.3543  0.3990
 8618SOL    HW137487   1.772   3.191   9.073 -1.3868 -0.6460  2.1682
 8618SOL    HW237488   1.684   3.071   9.068  0.3504 -0.6391  0.3628
 8619SOL     OW37489   4.658   3.615  14.370 -0.7403  0.1193 -0.2905
 8619SOL    HW137490   0.009   3.576  14.351 -0.2085  1.4862 -0.6422
 8619SOL    HW237491   4.673   3.644  14.460  1.2271 -3.1083  0.4595
 8620SOL     OW37492   2.090   0.671  13.386 -0.6052 -0.0758 -0.4705
 8620SOL    HW137493   2.033   0.595  13.396  0.3082 -0.7783 -0.6262
 8620SOL    HW237494   2.143   0.676  13.465  1.3002 -0.3935 -1.7312
 8621SOL     OW37495   3.452   2.076   5.286  0.3282  0.1321 -0.0631
 8621SOL    HW137496   3.385   2.101   5.349  0.1907  1.4729 -0.7524
 8621SOL    HW237497   3.396   2.004   5.255  0.0179  0.5663 -0.5050
 8622SOL     OW37498   0.569   4.615   0.956  0.2687  0.3555  0.2166
 8622SOL    HW137499   0.500   4.680   0.975  1.5435  1.8328 -0.2306
 8622SOL    HW237500   0.617   4.649   0.881 -0.4266 -1.6361 -1.1318
 8623SOL     OW37501   3.279   3.687   1.984 -0.5478  0.9769  0.1698
 8623SOL    HW137502   3.191   3.654   2.001 -0.1114 -0.9815 -1.3594
 8623SOL    HW237503   3.328   3.608   2.007 -0.2735  0.8871 -0.6969
 8624SOL     OW37504   3.876   1.001   3.344 -0.0994 -0.4445  0.3219
 8624SOL    HW137505   3.884   1.081   3.396 -0.5307 -1.2046  1.5444
 8624SOL    HW237506   3.965   1.001   3.308  0.6434  0.1361  2.1760
 8625SOL     OW37507   4.460   2.408   8.190 -0.0455  0.4246  0.3943
 8625SOL    HW137508   4.447   2.313   8.196  0.8254  0.1715 -1.4177
 8625SOL    HW237509   4.421   2.441   8.109  0.5954  0.3346  0.0468
 8626SOL     OW37510   2.512   3.984   2.421 -0.2776 -0.5287  0.3836
 8626SOL    HW137511   2.447   3.913   2.429 -0.6984 -0.1513  0.2920
 8626SOL    HW237512   2.509   3.990   2.325  0.2228  0.0673  0.4073
 8627SOL     OW37513   1.556   2.545   9.651  1.2173  0.2695  0.1407
 8627SOL    HW137514   1.634   2.529   9.598  0.7602  1.5827 -0.9105
 8627SOL    HW237515   1.583   2.623   9.700 -1.1070  2.0634 -1.4392
 8628SOL     OW37516   1.925   1.116  13.657 -0.2854 -0.3797  0.3188
 8628SOL    HW137517   2.000   1.070  13.620 -0.4083  0.1277 -0.5643
 8628SOL    HW237518   1.881   1.142  13.575  3.7133  0.8149 -1.4507
 8629SOL     OW37519   0.156   0.066   0.764  0.2351 -0.0343  0.3327
 8629SOL    HW137520   0.140   0.133   0.831  1.9252  1.2826 -0.5787
 8629SOL    HW237521   0.142   4.718   0.811 -0.6003  0.3664  0.7968
 8630SOL     OW37522   0.528   3.466   5.870  0.4434  0.2416  0.4479
 8630SOL    HW137523   0.475   3.502   5.800  1.4534 -2.5016 -1.7509
 8630SOL    HW237524   0.514   3.372   5.857  0.6068  0.0472  1.6955
 8631SOL     OW37525   4.047   2.366  13.455  0.0777 -0.3068 -0.1435
 8631SOL    HW137526   4.140   2.349  13.437  0.1899  1.9293 -1.7108
 8631SOL    HW237527   4.027   2.450  13.414  0.4291  0.9488  2.2560
 8632SOL     OW37528   3.208   1.849   9.007  0.3481 -0.6892 -0.1774
 8632SOL    HW137529   3.225   1.761   9.041  0.8529 -0.1414  0.9885
 8632SOL    HW237530   3.288   1.873   8.961  1.4435 -1.7486  1.2005
 8633SOL     OW37531   2.978   2.409   3.647 -0.2107  0.1267 -0.0480
 8633SOL    HW137532   3.034   2.364   3.583  0.3729  0.3809  0.2778
 8633SOL    HW237533   2.956   2.488   3.598  1.4241  0.0127 -0.9650
 8634SOL     OW37534   3.105   2.590  10.655  0.1809  0.1881 -0.6898
 8634SOL    HW137535   3.178   2.562  10.601  0.0870 -0.6149 -0.3955
 8634SOL    HW237536   3.117   2.682  10.632  0.6213  0.2037 -0.3967
 8635SOL     OW37537   3.496   3.054   3.145 -0.0011 -0.3897  0.5657
 8635SOL    HW137538   3.517   3.033   3.053 -0.1642  0.2145  0.3919
 8635SOL    HW237539   3.433   3.125   3.133 -1.2016 -0.9972  3.3699
 8636SOL     OW37540   0.742   0.932   2.744 -0.2999 -0.2755 -0.1870
 8636SOL    HW137541   0.821   0.883   2.720 -0.5327  0.1714 -1.8963
 8636SOL    HW237542   0.668   0.873   2.728  0.0941  0.1380 -3.5174
 8637SOL     OW37543   1.574   2.225  13.866 -0.3063 -0.6406  0.1653
 8637SOL    HW137544   1.534   2.151  13.912  0.3487 -0.7813  0.5039
 8637SOL    HW237545   1.515   2.295  13.894  0.3072 -0.2035  0.3578
 8638SOL     OW37546   0.113   3.986   2.204  0.0966  0.5753  0.9506
 8638SOL    HW137547   0.095   3.968   2.297  0.5663  1.6662  1.2460
 8638SOL    HW237548   0.073   4.069   2.182 -1.9408 -0.4171  0.9254
 8639SOL     OW37549   2.950   4.292  16.945  0.0427 -0.3439 -0.2775
 8639SOL    HW137550   2.940   4.197  16.950  2.2098 -0.5238  0.5601
 8639SOL    HW237551   3.000   4.300  17.027 -1.4631  0.2392  0.6026
 8640SOL     OW37552   3.215   3.874  13.123  0.3458 -0.2298  0.0730
 8640SOL    HW137553   3.259   3.956  13.145  0.0288 -0.0077 -0.1262
 8640SOL    HW237554   3.294   3.830  13.090  0.6970  1.6619 -1.6285
 8641SOL     OW37555   3.452   4.058   9.273  0.4259  0.1150 -0.1678
 8641SOL    HW137556   3.463   4.147   9.240  0.0960 -0.1520 -0.9708
 8641SOL    HW237557   3.480   4.058   9.365 -1.5760  1.2908  0.4414
 8642SOL     OW37558   0.564   1.609  15.912 -0.2430 -0.0859  0.3293
 8642SOL    HW137559   0.534   1.689  15.955  2.0849  1.1272 -0.3113
 8642SOL    HW237560   0.501   1.549  15.950 -1.4001  0.2481 -1.0562
 8643SOL     OW37561   3.469   1.743   9.103  0.3512  0.1857 -0.1778
 8643SOL    HW137562   3.493   1.835   9.093  1.4454 -0.1899 -1.0928
 8643SOL    HW237563   3.481   1.727   9.196  3.9630  1.8464 -0.3228
 8644SOL     OW37564   2.459   2.477   2.680  0.4076  0.5831 -0.2233
 8644SOL    HW137565   2.531   2.517   2.730 -1.1355  0.2284  2.2766
 8644SOL    HW237566   2.414   2.557   2.655  1.2791  1.0084 -0.4473
 8645SOL     OW37567   2.197   0.275   6.725  0.7345  0.2384  0.5091
 8645SOL    HW137568   2.195   0.368   6.703  1.2687 -0.0824 -0.9209
 8645SOL    HW237569   2.115   0.271   6.774  1.1914  2.2718  1.4403
 8646SOL     OW37570   2.791   3.778   5.366  0.5965 -0.1019  0.0431
 8646SOL    HW137571   2.784   3.754   5.274 -0.2758  0.9658 -0.1602
 8646SOL    HW237572   2.700   3.777   5.395 -0.2027 -1.0064 -2.4739
 8647SOL     OW37573   1.618   1.730   2.247  0.0330  0.5893 -0.0105
 8647SOL    HW137574   1.585   1.715   2.336 -3.8968  2.3066 -1.1790
 8647SOL    HW237575   1.595   1.823   2.238  0.8694  0.7652 -0.4145
 8648SOL     OW37576   1.661   3.666   9.887  0.0359 -0.3120 -0.3103
 8648SOL    HW137577   1.597   3.690   9.954  0.2953  0.5820 -0.3879
 8648SOL    HW237578   1.674   3.573   9.906 -0.4657 -0.0886  1.1376
 8649SOL     OW37579   0.330   3.212   9.563  0.2373 -0.6688 -0.1499
 8649SOL    HW137580   0.324   3.295   9.611 -2.2077 -1.3665  0.7683
 8649SOL    HW237581   0.241   3.213   9.527  0.5246 -1.8265 -0.8943
 8650SOL     OW37582   0.819   0.635   1.188 -0.1952 -0.3883  0.0861
 8650SOL    HW137583   0.765   0.574   1.139  0.9401 -1.0437 -0.3478
 8650SOL    HW237584   0.800   0.599   1.275 -1.5556 -3.2979 -1.4613
 8651SOL     OW37585   1.978   0.801   9.059  0.1090 -0.1836 -0.6094
 8651SOL    HW137586   2.068   0.816   9.029  1.3163 -4.6382  0.8252
 8651SOL    HW237587   1.983   0.706   9.050  1.1322  0.0307 -2.4560
 8652SOL     OW37588   0.051   2.927  11.468 -0.0783 -0.0447  0.3527
 8652SOL    HW137589   0.114   2.955  11.533  1.2293  0.8899 -1.3261
 8652SOL    HW237590   4.714   2.882  11.512  0.7206 -1.6487  0.0164
 8653SOL     OW37591   4.608   3.756   3.968 -0.2033 -0.0517  0.1206
 8653SOL    HW137592   4.571   3.829   4.017 -0.8515 -0.2426 -0.0833
 8653SOL    HW237593   4.623   3.798   3.884  2.7521  0.0423  0.7154
 8654SOL     OW37594   0.773   0.604  15.353 -0.8168 -0.4050 -0.1429
 8654SOL    HW137595   0.761   0.658  15.431  2.8902 -2.0558  1.5149
 8654SOL    HW237596   0.865   0.578  15.351 -0.3126  1.4701 -1.3984
 8655SOL     OW37597   0.971   0.791   2.666 -0.1516  0.0527 -0.2958
 8655SOL    HW137598   1.033   0.826   2.603 -1.1410 -1.5851 -2.1723
 8655SOL    HW237599   0.984   0.696   2.661  2.4915  0.1899  3.2394
 8656SOL     OW37600   4.273   0.817   7.434  0.6674 -0.3711 -0.3728
 8656SOL    HW137601   4.253   0.754   7.504 -1.9474  1.0195  0.1023
 8656SOL    HW237602   4.359   0.846   7.464  0.3826  0.0779  0.0088
 8657SOL     OW37603   3.771   4.682  13.571  0.1387  0.0188  0.4759
 8657SOL    HW137604   3.809   4.622  13.635  0.0312 -0.5170  0.0335
 8657SOL    HW237605   3.715   0.005  13.622  1.0535  0.9199  0.4582
 8658SOL     OW37606   1.148   0.817   2.077 -0.0904  0.4054 -0.3695
 8658SOL    HW137607   1.092   0.768   2.017 -2.1868  0.1965  1.7296
 8658SOL    HW237608   1.153   0.761   2.155  0.0264  0.4520 -0.3432
 8659SOL     OW37609   0.439   2.571   8.690  0.1328  0.4484 -0.3270
 8659SOL    HW137610   0.433   2.477   8.675  0.3942  0.6126 -1.4575
 8659SOL    HW237611   0.420   2.600   8.601 -1.9652  3.4966  1.1253
 8660SOL     OW37612   1.034   2.827   6.720 -0.3870  0.0991 -0.5161
 8660SOL    HW137613   1.027   2.822   6.815  0.4731 -1.2017 -0.5298
 8660SOL    HW237614   1.123   2.863   6.726 -0.2768 -0.0075 -1.3903
 8661SOL     OW37615   3.098   1.146   8.107 -0.7443  0.1316 -0.3820
 8661SOL    HW137616   3.190   1.122   8.092 -0.7930 -0.3628  0.1023
 8661SOL    HW237617   3.099   1.229   8.154  2.9068  0.3876 -0.8762
 8662SOL     OW37618   3.080   1.182   5.737 -0.6030 -0.3942  0.1584
 8662SOL    HW137619   3.154   1.156   5.792 -0.8056 -0.5730  0.3503
 8662SOL    HW237620   3.013   1.115   5.754 -1.5924  0.6911  0.5550
 8663SOL     OW37621   1.122   1.350  13.452 -0.0591  0.3050 -0.4663
 8663SOL    HW137622   1.127   1.266  13.498 -1.3003  0.6526  0.3089
 8663SOL    HW237623   1.060   1.340  13.380  3.2176 -0.1043 -3.2114
 8664SOL     OW37624   0.088   0.196  11.807 -0.0938 -0.0348 -0.2721
 8664SOL    HW137625   0.170   0.245  11.814 -0.0579  0.0671 -1.4877
 8664SOL    HW237626   0.075   0.187  11.901  0.6980  1.5005 -0.0111
 8665SOL     OW37627   4.510   0.668   1.700 -0.0039  0.0427  0.6299
 8665SOL    HW137628   4.596   0.699   1.729 -0.2272  0.2502  1.0714
 8665SOL    HW237629   4.478   0.747   1.656 -0.6592 -1.3168 -1.3559
 8666SOL     OW37630   1.901   3.082   1.433  0.3969  0.4104  0.2408
 8666SOL    HW137631   1.925   3.174   1.426 -2.1620  1.0120 -0.5259
 8666SOL    HW237632   1.826   3.088   1.492  0.6859  0.4747  0.6029
 8667SOL     OW37633   0.446   3.172   3.553  0.0462 -0.3535 -0.3154
 8667SOL    HW137634   0.495   3.253   3.536 -0.4650 -0.3611 -1.8533
 8667SOL    HW237635   0.412   3.192   3.640 -1.7894  2.6123 -1.7119
 8668SOL     OW37636   3.937   3.539   0.700  0.0147 -0.0113 -0.0775
 8668SOL    HW137637   4.028   3.535   0.727  0.2714 -0.1061 -0.9400
 8668SOL    HW237638   3.948   3.497   0.615 -1.0585 -1.1159  0.3429
 8669SOL     OW37639   2.856   2.507   8.480  0.1181  0.1805  0.1518
 8669SOL    HW137640   2.808   2.498   8.398  0.3995 -0.7018  0.0789
 8669SOL    HW237641   2.913   2.577   8.448  2.6090 -0.7019  2.6294
 8670SOL     OW37642   1.126   1.284   3.641 -0.0896 -0.2210 -0.6689
 8670SOL    HW137643   1.073   1.213   3.677  2.2819 -1.4517  0.3737
 8670SOL    HW237644   1.117   1.261   3.549 -1.2593 -1.0985 -0.3280
 8671SOL     OW37645   3.147   0.092  13.064  0.4059  0.3138  0.0920
 8671SOL    HW137646   3.232   0.084  13.023  0.7838  0.8452  0.7642
 8671SOL    HW237647   3.087   0.099  12.990 -0.7643  0.0017  0.9984
 8672SOL     OW37648   4.282   1.929  15.410  0.2699 -0.5088 -0.3480
 8672SOL    HW137649   4.310   1.957  15.497 -0.1896 -2.1254  0.3129
 8672SOL    HW237650   4.363   1.928  15.358  1.3868 -1.8073  1.4369
 8673SOL     OW37651   0.615   3.237   8.407  0.0742  0.2557  0.7961
 8673SOL    HW137652   0.697   3.189   8.404 -2.5213 -4.2225  1.2351
 8673SOL    HW237653   0.551   3.183   8.361  1.3671 -0.9089  0.3902
 8674SOL     OW37654   4.119   2.164   6.783  0.3420  0.5495 -0.8417
 8674SOL    HW137655   4.110   2.106   6.708  0.0605  0.5251 -0.7914
 8674SOL    HW237656   4.212   2.187   6.782  1.2796 -3.1168  4.0701
 8675SOL     OW37657   4.046   4.071   7.234 -0.0942  0.3223 -0.4000
 8675SOL    HW137658   4.027   3.997   7.176  2.6534 -1.4936  1.0312
 8675SOL    HW237659   4.007   4.145   7.188  1.0016  2.2166  1.7427
 8676SOL     OW37660   3.774   3.639   7.313 -0.0235 -0.0321 -0.0017
 8676SOL    HW137661   3.739   3.578   7.378 -1.6623  1.3714  0.4222
 8676SOL    HW237662   3.734   3.717   7.349 -1.6318 -1.8515  2.1370
 8677SOL     OW37663   3.275   3.737   5.798  0.3826 -0.1312  0.3619
 8677SOL    HW137664   3.220   3.663   5.771  1.0335 -1.0147  1.4784
 8677SOL    HW237665   3.342   3.698   5.854 -0.4467  0.8750  2.0251
 8678SOL     OW37666   0.188   2.725  14.219 -0.0141 -0.1507  0.3394
 8678SOL    HW137667   0.273   2.727  14.264  0.5646 -0.9888 -0.7166
 8678SOL    HW237668   0.132   2.729  14.296  0.8782 -0.0546  0.9929
 8679SOL     OW37669   1.621   2.001   5.841 -0.4143 -0.3742 -0.1354
 8679SOL    HW137670   1.529   2.022   5.826 -1.1035 -0.7929  3.4325
 8679SOL    HW237671   1.653   2.022   5.753 -2.7156  2.0334 -0.4041
 8680SOL     OW37672   3.765   2.624  17.611 -0.2369  0.6710  0.3519
 8680SOL    HW137673   3.711   2.545  17.609  0.6226  0.1319 -1.6723
 8680SOL    HW237674   3.725   2.679  17.679  0.0956  0.8738  0.3832
 8681SOL     OW37675   3.930   3.998   4.696 -0.0619 -0.5411  0.0534
 8681SOL    HW137676   3.890   3.911   4.693 -1.8835  0.3479 -1.0412
 8681SOL    HW237677   3.884   4.024   4.616  2.3396 -0.1530 -1.2115
 8682SOL     OW37678   2.580   3.400  17.064  0.6356 -0.1203  0.4823
 8682SOL    HW137679   2.513   3.341  17.099  1.4917 -1.0256  0.5742
 8682SOL    HW237680   2.537   3.453  16.997  0.6336 -0.4996  0.1824
 8683SOL     OW37681   1.018   2.100   9.032 -0.5281 -0.2294  0.2451
 8683SOL    HW137682   1.003   2.031   9.097  0.9101 -1.8953 -1.1791
 8683SOL    HW237683   1.001   2.065   8.944  1.5810 -0.8180  0.0494
 8684SOL     OW37684   2.633   2.364   7.188  0.0625 -0.1656  0.0609
 8684SOL    HW137685   2.623   2.455   7.159 -2.5837 -0.5055 -0.0408
 8684SOL    HW237686   2.728   2.367   7.197  0.0742  1.8436 -0.6827
 8685SOL     OW37687   3.327   2.260   3.297  0.3663  1.1309 -0.5056
 8685SOL    HW137688   3.299   2.205   3.224 -0.8132  0.0436  0.7670
 8685SOL    HW237689   3.410   2.302   3.274  1.0353  0.2250  0.2663
 8686SOL     OW37690   1.115   3.644   3.326  0.0714  0.0969 -0.6545
 8686SOL    HW137691   1.069   3.726   3.310 -0.4537  0.1754  1.3133
 8686SOL    HW237692   1.031   3.602   3.340  0.8020 -0.7941  1.0668
 8687SOL     OW37693   1.480   3.299   0.205  0.8687  0.1996 -0.5299
 8687SOL    HW137694   1.526   3.214   0.204  2.8724  1.2832 -0.4861
 8687SOL    HW237695   1.499   3.325   0.295 -0.1873 -1.1637  0.0940
 8688SOL     OW37696   0.646   1.709  13.673  0.3878 -0.3097  0.2151
 8688SOL    HW137697   0.661   1.801  13.654  2.2161 -0.2666  1.7816
 8688SOL    HW237698   0.725   1.680  13.627 -0.0071 -2.3384  0.8044
 8689SOL     OW37699   0.807   2.565   5.452  0.4182 -0.3398  0.2533
 8689SOL    HW137700   0.735   2.524   5.500 -0.6636  2.3686  0.9404
 8689SOL    HW237701   0.866   2.566   5.527 -0.0970  1.0230  0.6441
 8690SOL     OW37702   1.280   2.546  15.088 -0.1040 -0.1199 -0.2719
 8690SOL    HW137703   1.232   2.518  15.011  1.2434 -0.4845 -0.9713
 8690SOL    HW237704   1.286   2.456  15.121 -3.6602 -0.7609 -1.3552
 8691SOL     OW37705   2.132   1.038   8.821 -0.0200 -1.0552 -0.1517
 8691SOL    HW137706   2.161   0.999   8.738 -0.5560 -0.7384 -0.4934
 8691SOL    HW237707   2.143   0.962   8.878  1.3597  1.6024  3.1137
 8692SOL     OW37708   2.618   1.147   5.945  0.4396  0.1578 -0.2578
 8692SOL    HW137709   2.534   1.161   5.902  0.5095 -0.0074 -0.4488
 8692SOL    HW237710   2.682   1.146   5.874  0.8085  0.1337  0.0716
 8693SOL     OW37711   3.966   0.256   2.925  0.0781 -0.2981  0.7682
 8693SOL    HW137712   3.981   0.161   2.921 -0.5855 -0.3132 -1.2836
 8693SOL    HW237713   3.954   0.272   2.831 -0.4770 -0.2604  0.8470
 8694SOL     OW37714   4.495   3.935   4.173 -0.2976  0.0673 -0.6477
 8694SOL    HW137715   4.563   3.996   4.198  0.0569 -0.1368 -1.1131
 8694SOL    HW237716   4.414   3.984   4.189 -1.0359 -1.0459 -0.8984
 8695SOL     OW37717   1.618   4.625   1.472 -0.0215 -0.2106  0.8104
 8695SOL    HW137718   1.625   4.720   1.472  2.3775 -0.3763  0.2441
 8695SOL    HW237719   1.707   4.605   1.502  0.1469 -2.8555 -1.4311
 8696SOL     OW37720   4.524   2.845  13.600  0.4283 -0.3960 -0.0026
 8696SOL    HW137721   4.439   2.838  13.557 -0.6027 -0.0952  1.9948
 8696SOL    HW237722   4.534   2.940  13.594  0.5821 -0.2473  2.6210
 8697SOL     OW37723   0.572   1.896  15.188  0.1373 -0.5560  0.0543
 8697SOL    HW137724   0.626   1.945  15.250  0.2981 -0.2664 -0.3119
 8697SOL    HW237725   0.484   1.928  15.205  0.4082 -0.0378  0.4437
 8698SOL     OW37726   2.563   1.192  15.688  0.6629  0.1934 -0.7005
 8698SOL    HW137727   2.478   1.202  15.645 -1.0504 -2.1250  2.1312
 8698SOL    HW237728   2.617   1.162  15.616 -0.5641 -0.4906 -1.3322
 8699SOL     OW37729   0.918   1.168  12.378  0.0047  0.0364 -0.1317
 8699SOL    HW137730   0.989   1.171  12.442  0.8604 -0.9321 -1.0296
 8699SOL    HW237731   0.973   1.152  12.301 -0.8021  0.5160 -0.8150
 8700SOL     OW37732   2.316   0.511  13.208  0.4290 -0.3165  0.3648
 8700SOL    HW137733   2.276   0.475  13.286  1.7189 -1.8707  0.3088
 8700SOL    HW237734   2.401   0.543  13.240  0.3855 -0.2531  0.4174
 8701SOL     OW37735   0.826   1.215   5.879  0.5117 -0.2790  0.5873
 8701SOL    HW137736   0.882   1.138   5.893 -0.4662 -1.1968 -0.5062
 8701SOL    HW237737   0.888   1.264   5.826 -2.5094  1.1281 -1.6139
 8702SOL     OW37738   0.627   2.035   9.863  0.3056 -0.2542  0.3707
 8702SOL    HW137739   0.569   2.053   9.789  0.7437 -0.9412 -0.1401
 8702SOL    HW237740   0.576   1.974   9.916 -0.5195 -0.6756 -0.9112
 8703SOL     OW37741   2.385   1.554   1.700  0.9520 -0.1371  0.1042
 8703SOL    HW137742   2.364   1.604   1.779 -1.5231  1.7329 -1.7395
 8703SOL    HW237743   2.337   1.474   1.722 -0.4495  0.2628 -1.5425
 8704SOL     OW37744   0.926   1.149   0.946  0.1889  0.6126 -0.0124
 8704SOL    HW137745   0.913   1.095   0.868  0.3795 -2.1659  1.8803
 8704SOL    HW237746   0.854   1.115   0.999  0.7091 -0.3671  0.0563
 8705SOL     OW37747   2.168   4.272  15.648  0.1867  0.3307 -0.0617
 8705SOL    HW137748   2.210   4.339  15.595 -1.2240  1.1071 -0.1792
 8705SOL    HW237749   2.205   4.190  15.616  2.5633  1.6698 -0.7474
 8706SOL     OW37750   3.987   1.544   6.855  0.3492 -0.4251 -0.3192
 8706SOL    HW137751   4.016   1.454   6.867  0.7043 -0.5626 -2.1906
 8706SOL    HW237752   4.023   1.584   6.934 -0.1142  0.4887 -0.5642
 8707SOL     OW37753   4.542   3.427   4.942 -0.2011 -0.3159 -0.5365
 8707SOL    HW137754   4.567   3.343   4.979 -0.7638 -0.5409 -0.6719
 8707SOL    HW237755   4.451   3.433   4.971  0.2105 -1.9467  1.1152
 8708SOL     OW37756   1.758   0.360   1.076  0.2116 -0.4810  0.2155
 8708SOL    HW137757   1.817   0.434   1.080  0.2623 -0.6050  1.6592
 8708SOL    HW237758   1.680   0.407   1.045  1.0513  1.1411  0.5627
 8709SOL     OW37759   4.538   1.067   4.267  0.2039 -0.0882  0.1079
 8709SOL    HW137760   4.562   1.020   4.347  0.6860  0.4297  0.2631
 8709SOL    HW237761   4.512   1.000   4.203 -2.2123 -0.0785  1.0956
 8710SOL     OW37762   3.050   0.641  10.245 -0.2155 -0.3356  0.5720
 8710SOL    HW137763   2.964   0.668  10.212  1.0917  2.3315 -0.6942
 8710SOL    HW237764   3.104   0.667  10.170 -0.7087 -2.5913 -0.5761
 8711SOL     OW37765   1.745   4.043  17.273  0.3139  0.0088  0.3092
 8711SOL    HW137766   1.653   4.017  17.285 -0.2004  3.1477  3.2259
 8711SOL    HW237767   1.742   4.129  17.316 -0.1235  0.3952 -0.4903
 8712SOL     OW37768   2.615   1.620  15.887 -0.3442 -0.4626 -0.1169
 8712SOL    HW137769   2.699   1.647  15.850 -0.5719  1.4912  0.7662
 8712SOL    HW237770   2.546   1.615  15.821 -0.2665 -0.0305 -0.2321
 8713SOL     OW37771   1.812   0.170   7.194 -0.1612  0.0317 -0.0848
 8713SOL    HW137772   1.724   0.208   7.193 -0.2487 -0.1662  0.1448
 8713SOL    HW237773   1.861   0.237   7.240  0.3599 -0.7109  0.4490
 8714SOL     OW37774   3.999   0.553   5.720 -0.0017  0.1156  0.0434
 8714SOL    HW137775   4.052   0.520   5.647 -0.6581 -0.5253 -0.1370
 8714SOL    HW237776   3.977   0.644   5.702 -0.1582  0.4867  2.1732
 8715SOL     OW37777   3.866   4.381   7.706  0.4786 -0.5060  0.2925
 8715SOL    HW137778   3.891   4.469   7.734  0.9379 -1.1607  1.8971
 8715SOL    HW237779   3.835   4.331   7.781  0.9526  0.7510  1.3319
 8716SOL     OW37780   1.225   2.106   4.328  0.3105 -0.3188  0.2475
 8716SOL    HW137781   1.163   2.161   4.281  1.2672  1.2374  0.8167
 8716SOL    HW237782   1.301   2.164   4.326 -0.8366  1.1443 -0.7740
 8717SOL     OW37783   3.546   1.957   2.242  0.3195 -0.7025  0.7296
 8717SOL    HW137784   3.557   1.981   2.334  0.2125 -0.2227  0.6184
 8717SOL    HW237785   3.566   1.864   2.238  0.1551 -0.6936 -0.2983
 8718SOL     OW37786   4.166   1.448   4.823 -0.5693  0.5464 -1.0363
 8718SOL    HW137787   4.100   1.381   4.806 -2.1075  2.5387 -2.9334
 8718SOL    HW237788   4.178   1.439   4.917  1.3121  2.6443 -1.0764
 8719SOL     OW37789   0.570   3.503  16.170 -0.4773  0.3057  0.3593
 8719SOL    HW137790   0.633   3.572  16.148  1.4383 -1.4188  0.3960
 8719SOL    HW237791   0.556   3.477  16.079  0.6562  0.0198  0.2651
 8720SOL     OW37792   3.786   3.376   7.756 -0.6573 -0.0399  0.0647
 8720SOL    HW137793   3.849   3.312   7.789  0.4694  1.6277  1.1169
 8720SOL    HW237794   3.839   3.451   7.729 -0.9119 -0.2127 -0.9213
 8721SOL     OW37795   1.304   0.076  10.157  0.2370  0.3646 -0.8389
 8721SOL    HW137796   1.246   0.151  10.169  0.7769  0.7088 -0.3931
 8721SOL    HW237797   1.380   0.127  10.187 -0.2398  0.0633  0.8569
 8722SOL     OW37798   1.266   1.093  17.505  0.1147 -0.8064 -0.4794
 8722SOL    HW137799   1.204   1.040  17.554  0.9944 -0.6866  0.7659
 8722SOL    HW237800   1.218   1.145  17.441 -0.6910  0.2108  0.9480
 8723SOL     OW37801   0.840   4.607   5.762  0.5742  0.3258  0.2974
 8723SOL    HW137802   0.796   4.522   5.769 -3.3714  2.2484 -1.2278
 8723SOL    HW237803   0.893   4.595   5.684  0.3968 -0.2949  0.2692
 8724SOL     OW37804   4.700   0.799  15.776  0.5212 -0.5039  0.5357
 8724SOL    HW137805   4.719   0.892  15.765  0.7473 -0.5554  0.4985
 8724SOL    HW237806   0.045   0.763  15.738 -0.8436 -0.9655 -1.9227
 8725SOL     OW37807   0.613   2.954   8.728  0.0507 -0.4605 -0.4097
 8725SOL    HW137808   0.621   2.915   8.641  0.2534  1.0361 -1.0571
 8725SOL    HW237809   0.517   2.958   8.730  0.0836  0.1057 -0.1617
 8726SOL     OW37810   2.875   1.091   3.407 -0.3846  0.0451 -0.6995
 8726SOL    HW137811   2.818   1.029   3.452 -1.3191  0.1830 -1.6742
 8726SOL    HW237812   2.805   1.128   3.352 -2.3188 -2.1664  0.2841
 8727SOL     OW37813   1.913   3.881  16.853  0.1208 -0.6180 -0.4932
 8727SOL    HW137814   1.970   3.931  16.794  0.6559 -0.9138 -0.2234
 8727SOL    HW237815   1.835   3.888  16.798  0.6116  0.7461 -0.9970
 8728SOL     OW37816   0.683   3.428  14.340 -0.1680  0.3593 -0.1791
 8728SOL    HW137817   0.614   3.447  14.276 -0.0947 -1.0785 -0.6783
 8728SOL    HW237818   0.682   3.507  14.394  0.4594  0.8725 -0.9423
 8729SOL     OW37819   4.475   2.387  12.769 -0.1263  0.0654  0.0488
 8729SOL    HW137820   4.542   2.396  12.836  2.1650 -0.9119 -2.0854
 8729SOL    HW237821   4.396   2.403  12.820 -0.4050  0.5964 -0.5448
 8730SOL     OW37822   2.328   2.559   6.567 -0.7793  0.8791  0.0186
 8730SOL    HW137823   2.380   2.544   6.488  1.2764  0.8877  1.3743
 8730SOL    HW237824   2.245   2.527   6.533  0.9716 -1.1997 -2.3516
 8731SOL     OW37825   3.479   2.768   6.344 -0.0390  0.1665  0.0668
 8731SOL    HW137826   3.384   2.766   6.360 -0.1805 -0.8037 -0.8451
 8731SOL    HW237827   3.472   2.824   6.267  1.1407  0.3672  0.1152
 8732SOL     OW37828   2.809   0.919   2.180 -0.0733 -0.4684 -0.1858
 8732SOL    HW137829   2.899   0.895   2.158 -0.8831 -1.8702 -2.0066
 8732SOL    HW237830   2.766   0.838   2.151 -0.4196 -1.0039  1.7903
 8733SOL     OW37831   2.821   4.186   4.053 -0.0641  0.2807  0.2581
 8733SOL    HW137832   2.894   4.234   4.093 -1.1376  1.2578  1.0424
 8733SOL    HW237833   2.842   4.099   4.089  3.6038  2.3478  3.1442
 8734SOL     OW37834   4.556   1.930  10.755  0.2352  0.0460 -0.2286
 8734SOL    HW137835   4.635   1.973  10.787 -1.6126  2.1036  1.5931
 8734SOL    HW237836   4.486   1.995  10.746 -1.2590 -1.5306  0.0450
 8735SOL     OW37837   0.693   4.060   5.289  0.0882  0.0896  0.4344
 8735SOL    HW137838   0.624   4.100   5.342 -1.4473 -0.2884 -1.2569
 8735SOL    HW237839   0.678   4.092   5.200 -0.5965 -0.7710  0.2401
 8736SOL     OW37840   3.199   3.686   5.368 -0.4366  0.0250  0.4306
 8736SOL    HW137841   3.171   3.670   5.278 -1.5126 -1.8101  1.0872
 8736SOL    HW237842   3.232   3.598   5.388 -1.6741 -1.0949 -2.5449
 8737SOL     OW37843   3.154   3.198   7.467 -0.0258 -0.2182 -0.2172
 8737SOL    HW137844   3.092   3.251   7.517  0.2709 -0.8128  0.7752
 8737SOL    HW237845   3.095   3.151   7.407  0.6967 -0.2652 -0.8988
 8738SOL     OW37846   0.888   2.028   5.580  0.1994 -0.6097 -0.1491
 8738SOL    HW137847   0.803   2.006   5.618  0.4609  0.6823  1.1781
 8738SOL    HW237848   0.857   2.060   5.495  1.7637 -0.4996 -0.6774
 8739SOL     OW37849   1.580   2.280   3.673  0.2880 -0.3963 -0.1232
 8739SOL    HW137850   1.592   2.375   3.678 -0.7596 -0.1902 -1.6799
 8739SOL    HW237851   1.584   2.267   3.579 -0.6921  1.3587 -0.4168
 8740SOL     OW37852   4.510   4.411   2.958 -0.2061 -0.2405  0.0670
 8740SOL    HW137853   4.508   4.433   3.051 -1.0471  0.0903 -0.0259
 8740SOL    HW237854   4.591   4.449   2.924  0.1721 -0.9541  0.1705
 8741SOL     OW37855   0.513   4.230   8.029 -0.0299 -0.1320  0.7010
 8741SOL    HW137856   0.470   4.229   8.114  2.4820  0.6191  2.0122
 8741SOL    HW237857   0.603   4.240   8.062 -0.3202  0.5728  1.2698
 8742SOL     OW37858   1.699   4.553  13.952  0.1920  0.2271  0.3975
 8742SOL    HW137859   1.773   4.508  13.911 -0.6942 -0.0375 -0.9284
 8742SOL    HW237860   1.729   4.634  13.911  0.8673  0.0312  0.4951
 8743SOL     OW37861   1.164   2.431   4.060  0.2491 -0.5655 -0.1892
 8743SOL    HW137862   1.093   2.456   4.000 -0.0725 -0.9133  0.0476
 8743SOL    HW237863   1.117   2.364   4.109  0.4281 -2.3158 -2.4084
 8744SOL     OW37864   2.774   2.719   4.277  0.2159  0.5861  0.0771
 8744SOL    HW137865   2.850   2.678   4.319 -1.4908 -0.5673  2.0322
 8744SOL    HW237866   2.706   2.710   4.345  1.9579 -0.2582  1.7114
 8745SOL     OW37867   0.154   2.961   1.855  0.4981 -0.0794  0.3580
 8745SOL    HW137868   0.135   2.869   1.834 -0.7463  0.0769  0.7995
 8745SOL    HW237869   0.244   2.954   1.886  0.5538 -1.0080 -0.0290
 8746SOL     OW37870   4.099   0.447   8.822  0.0895  0.4293  0.6097
 8746SOL    HW137871   4.018   0.456   8.872 -1.0483 -1.5442 -0.8677
 8746SOL    HW237872   4.079   0.512   8.754  1.6778 -1.1395 -1.3543
 8747SOL     OW37873   1.340   2.138   7.632 -0.0644 -0.2157 -0.1630
 8747SOL    HW137874   1.260   2.141   7.684 -0.7087 -0.3374 -1.1284
 8747SOL    HW237875   1.312   2.057   7.587 -0.5955 -0.9897  1.5778
 8748SOL     OW37876   0.363   3.857   3.915  0.0508 -0.8532  0.2410
 8748SOL    HW137877   0.405   3.941   3.896 -0.9732 -0.0803  1.4825
 8748SOL    HW237878   0.269   3.875   3.910  0.5286  1.0300 -1.8729
 8749SOL     OW37879   4.414   4.187  14.853  0.1041 -0.1409 -0.0390
 8749SOL    HW137880   4.446   4.157  14.768 -2.3612 -2.2605 -0.2229
 8749SOL    HW237881   4.378   4.110  14.896 -1.8930 -0.2814 -1.9160
 8750SOL     OW37882   3.217   2.975   3.822  0.1591  0.0985  0.2295
 8750SOL    HW137883   3.274   2.964   3.899 -1.6709  0.2123  1.6069
 8750SOL    HW237884   3.163   3.048   3.849  0.2469  0.2895 -0.1106
 8751SOL     OW37885   2.183   3.168  15.505 -0.2836 -0.1684 -0.4127
 8751SOL    HW137886   2.234   3.212  15.437  0.8401 -2.1951 -0.8649
 8751SOL    HW237887   2.113   3.138  15.447  1.1889 -1.8119 -1.3215
 8752SOL     OW37888   0.833   1.125  13.041 -0.1288  0.1655  0.6166
 8752SOL    HW137889   0.884   1.052  13.078 -2.2111 -2.0998 -0.9473
 8752SOL    HW237890   0.814   1.094  12.952 -1.5693  0.8233  0.7066
 8753SOL     OW37891   1.087   4.508  12.369 -0.3688 -0.2220 -0.5165
 8753SOL    HW137892   1.072   4.470  12.283  2.7176 -2.0869 -0.2248
 8753SOL    HW237893   1.146   4.579  12.343 -1.9752  1.2397 -0.1317
 8754SOL     OW37894   2.834   0.451   0.791 -0.1850 -0.1022 -0.1031
 8754SOL    HW137895   2.837   0.370   0.740 -2.5457 -1.5248  2.0340
 8754SOL    HW237896   2.741   0.477   0.787  0.4282  1.9160 -1.5485
 8755SOL     OW37897   1.902   4.091   4.832  0.0871  0.2335  0.2028
 8755SOL    HW137898   1.855   4.168   4.800  0.2180 -0.6305 -2.0325
 8755SOL    HW237899   1.949   4.057   4.756 -2.3300 -0.2210 -1.1072
 8756SOL     OW37900   0.922   0.804  16.988  0.1658 -0.2454 -0.6890
 8756SOL    HW137901   0.944   0.896  16.972  2.3866 -0.6803 -0.1207
 8756SOL    HW237902   1.007   0.761  16.977  0.0259 -1.0535  1.4675
 8757SOL     OW37903   4.278   3.455   0.449 -0.4909 -0.1529 -0.4150
 8757SOL    HW137904   4.187   3.428   0.460 -0.5581  0.4326  0.4296
 8757SOL    HW237905   4.267   3.532   0.393 -0.7614  1.0843  1.3622
 8758SOL     OW37906   0.324   1.747   2.528  0.2261  0.2261  0.5245
 8758SOL    HW137907   0.274   1.704   2.458  1.5343  0.5016 -0.5851
 8758SOL    HW237908   0.282   1.708   2.604  2.1823  0.7864  1.8981
 8759SOL     OW37909   2.481   3.313   3.273 -0.0577 -0.5242 -0.5839
 8759SOL    HW137910   2.517   3.273   3.193 -0.7210 -1.5812 -0.3624
 8759SOL    HW237911   2.393   3.275   3.275 -0.3451  0.1602 -0.5641
 8760SOL     OW37912   3.875   4.011   2.636  0.0567  0.0687  0.0773
 8760SOL    HW137913   3.893   4.104   2.627  1.9008 -0.3481 -0.5000
 8760SOL    HW237914   3.890   4.001   2.730 -1.1074 -0.8768  0.1597
 8761SOL     OW37915   1.248   3.859   8.911 -0.0997  0.3146 -1.1126
 8761SOL    HW137916   1.154   3.844   8.922 -0.1958  0.1249 -2.1393
 8761SOL    HW237917   1.279   3.773   8.940 -1.7735 -0.3156 -1.1296
 8762SOL     OW37918   1.886   3.833   1.484  0.3481  0.6686 -0.1405
 8762SOL    HW137919   1.865   3.828   1.391  1.9313 -2.4603 -0.3399
 8762SOL    HW237920   1.942   3.910   1.482  0.5657  0.5056 -0.3642
 8763SOL     OW37921   3.261   1.855   4.810 -0.9287  0.0484 -0.0347
 8763SOL    HW137922   3.185   1.805   4.839 -0.8167 -0.4001 -0.4948
 8763SOL    HW237923   3.215   1.937   4.795  3.1404  1.8924 -2.3710
 8764SOL     OW37924   2.459   4.095   1.869  0.1353  0.3126  0.1372
 8764SOL    HW137925   2.523   4.058   1.808  1.7370 -0.2848  2.1956
 8764SOL    HW237926   2.445   4.176   1.820  1.2171  0.5490  0.2248
 8765SOL     OW37927   3.376   3.407  16.456 -0.4022  0.2299  0.3325
 8765SOL    HW137928   3.441   3.337  16.445  1.8319  2.2278  0.9394
 8765SOL    HW237929   3.353   3.430  16.366 -1.9290  1.8196  1.1577
 8766SOL     OW37930   3.866   1.497  11.048  0.0615  0.9459 -0.3182
 8766SOL    HW137931   3.950   1.469  11.084 -0.0053  2.5285  1.0747
 8766SOL    HW237932   3.858   1.427  10.983  1.3637 -0.7133  1.2890
 8767SOL     OW37933   2.746   0.263   2.339  0.3720  0.4368 -0.0367
 8767SOL    HW137934   2.674   0.325   2.355 -0.1635 -0.1675 -0.1111
 8767SOL    HW237935   2.754   0.220   2.424 -0.0876 -0.8352 -0.6412
 8768SOL     OW37936   4.130   3.282   5.267  0.5586 -0.0077  0.3749
 8768SOL    HW137937   4.101   3.194   5.293 -0.4522  0.5990  1.3292
 8768SOL    HW237938   4.153   3.323   5.351  3.5062  1.9281 -1.4237
 8769SOL     OW37939   2.637   4.346   0.728  0.1197 -0.6406 -0.2356
 8769SOL    HW137940   2.603   4.279   0.668  2.0174 -0.9323 -0.9774
 8769SOL    HW237941   2.664   4.294   0.804  1.1598 -1.0000 -0.8563
 8770SOL     OW37942   3.315   0.095   7.129 -0.2553 -0.6511 -0.1325
 8770SOL    HW137943   3.340   0.007   7.158 -0.2814  0.2277  2.5254
 8770SOL    HW237944   3.280   0.127   7.212 -0.5300 -0.0542 -0.4810
 8771SOL     OW37945   3.823   0.331   8.698 -0.0853 -0.0521  0.3208
 8771SOL    HW137946   3.740   0.333   8.651  0.2167 -0.5046 -0.2360
 8771SOL    HW237947   3.823   0.412   8.750 -0.3034  0.4230 -0.4145
 8772SOL     OW37948   0.356   1.541   4.263 -0.0672  0.0818  0.1755
 8772SOL    HW137949   0.308   1.612   4.306 -1.6994 -1.5959  1.1356
 8772SOL    HW237950   0.306   1.520   4.184  0.2612 -0.1800  0.0411
 8773SOL     OW37951   0.581   2.136   7.760  0.7092 -0.2551 -0.1105
 8773SOL    HW137952   0.563   2.048   7.729  0.3418  0.5558 -2.1770
 8773SOL    HW237953   0.566   2.127   7.854 -3.6908  0.4123 -0.7367
 8774SOL     OW37954   2.103   0.922   4.895 -0.0032 -0.1684 -0.5027
 8774SOL    HW137955   2.182   0.950   4.848 -0.1965  0.5728 -0.3833
 8774SOL    HW237956   2.041   0.914   4.822 -1.1270 -4.1642  0.9135
 8775SOL     OW37957   1.419   3.821   8.038 -0.2202 -0.6497  0.0968
 8775SOL    HW137958   1.414   3.791   8.129  2.5759  0.6870  0.7118
 8775SOL    HW237959   1.514   3.838   8.036 -0.4539  0.6053 -0.9213
 8776SOL     OW37960   0.438   3.246   8.662 -0.1437 -0.4120 -0.2578
 8776SOL    HW137961   0.454   3.340   8.656 -1.5082 -0.0135  2.8189
 8776SOL    HW237962   0.465   3.215   8.575  1.2837  0.9744 -0.3181
 8777SOL     OW37963   1.174   4.079   6.894  0.7259  0.6988 -0.3298
 8777SOL    HW137964   1.237   4.138   6.853  0.2374  2.5819  1.5899
 8777SOL    HW237965   1.175   4.002   6.837  1.5917  1.2324 -1.0376
 8778SOL     OW37966   0.449   2.303   3.035 -0.1521 -0.3001 -0.0853
 8778SOL    HW137967   0.460   2.209   3.021  1.5600 -0.0471 -0.4471
 8778SOL    HW237968   0.369   2.306   3.087 -0.6200 -0.6599 -0.7778
 8779SOL     OW37969   4.260   0.634   7.663 -0.3053  0.4886 -0.0254
 8779SOL    HW137970   4.343   0.657   7.706  0.3240  0.7436 -1.3476
 8779SOL    HW237971   4.290   0.559   7.611 -0.3941 -0.3055  1.0760
 8780SOL     OW37972   2.766   3.227  12.928 -0.0296 -0.5250 -0.0184
 8780SOL    HW137973   2.802   3.238  12.841 -0.0218  0.4141  0.1084
 8780SOL    HW237974   2.843   3.181  12.962  0.1748  0.9139  1.4732
 8781SOL     OW37975   1.251   3.428   3.402  0.0221 -0.1712 -0.5440
 8781SOL    HW137976   1.199   3.508   3.391 -2.5233 -1.5389  1.5078
 8781SOL    HW237977   1.322   3.448   3.341  0.0782  2.1639  0.2776
 8782SOL     OW37978   3.237   2.992   2.480  0.2864  0.0985  0.0907
 8782SOL    HW137979   3.248   2.949   2.395 -1.9865 -0.4521  0.0627
 8782SOL    HW237980   3.285   3.073   2.461  4.4843 -1.8327  2.4852
 8783SOL     OW37981   0.429   2.664  14.391  0.2770 -0.6425  0.2594
 8783SOL    HW137982   0.505   2.698  14.440 -1.0432  1.2686  1.0007
 8783SOL    HW237983   0.421   2.575  14.424 -1.6207 -0.9061 -0.9449
 8784SOL     OW37984   4.303   0.748  12.151  0.1061 -0.6299 -0.1930
 8784SOL    HW137985   4.321   0.655  12.136  1.9035 -0.1566 -0.9740
 8784SOL    HW237986   4.280   0.742  12.243 -2.8309  2.3149 -0.7499
 8785SOL     OW37987   4.674   1.550   2.149 -0.3629  0.1239  0.1745
 8785SOL    HW137988   4.591   1.592   2.174 -0.3369  0.6378 -0.6091
 8785SOL    HW237989   4.700   1.613   2.082 -2.0364  0.5766 -0.0526
 8786SOL     OW37990   2.961   2.312   1.812  0.5446 -0.0909  0.0804
 8786SOL    HW137991   2.872   2.282   1.830  0.4754  0.9688  1.4872
 8786SOL    HW237992   3.003   2.274   1.889  0.2809 -0.4263  0.0562
 8787SOL     OW37993   3.551   4.097  12.896 -0.0381  0.6073  0.2591
 8787SOL    HW137994   3.634   4.064  12.861  0.1490  2.1500 -0.7344
 8787SOL    HW237995   3.565   4.190  12.914 -2.2406  0.5559  2.1485
 8788SOL     OW37996   2.534   4.199   6.714  0.0641  0.2358  0.1132
 8788SOL    HW137997   2.588   4.120   6.714 -1.5738 -0.8940  1.9980
 8788SOL    HW237998   2.526   4.214   6.620 -0.2483  0.7597  0.2210
 8789SOL     OW37999   1.074   0.260   0.155  0.2006  0.1706 -0.1147
 8789SOL    HW138000   1.044   0.320   0.086  1.4632  0.0956 -0.7380
 8789SOL    HW238001   1.157   0.232   0.114 -0.2541  0.4958 -1.2597
 8790SOL     OW38002   2.191   0.428   2.897 -0.2386 -0.5476 -0.1954
 8790SOL    HW138003   2.212   0.474   2.978 -0.3713 -0.5436 -0.1632
 8790SOL    HW238004   2.271   0.376   2.892  1.9314  2.8741 -0.3439
 8791SOL     OW38005   4.137   1.786   5.475 -0.2480 -0.1867 -0.1850
 8791SOL    HW138006   4.229   1.812   5.467  0.0620 -0.6205  2.1103
 8791SOL    HW238007   4.095   1.798   5.390  0.4971  1.1978 -0.3506
 8792SOL     OW38008   0.988   2.244   6.613 -0.2504  0.1356 -0.3853
 8792SOL    HW138009   1.066   2.240   6.558 -0.2895  1.1838 -0.5182
 8792SOL    HW238010   0.916   2.217   6.555 -0.1789 -0.6756 -0.0933
 8793SOL     OW38011   3.124   0.332   5.843  0.2095 -0.3561  0.1926
 8793SOL    HW138012   3.067   0.296   5.911  1.5851 -1.4204  0.7683
 8793SOL    HW238013   3.058   0.382   5.795 -0.3935  0.1357  1.5439
 8794SOL     OW38014   0.482   1.129  11.774  0.4241 -0.3430 -0.0281
 8794SOL    HW138015   0.568   1.089  11.786  0.2621 -1.1939 -1.7063
 8794SOL    HW238016   0.431   1.056  11.738 -0.2821  0.6720 -1.0745
 8795SOL     OW38017   0.811   4.124  16.777  0.5860 -0.1002 -0.1004
 8795SOL    HW138018   0.808   4.204  16.725 -3.9261 -0.9309 -1.0598
 8795SOL    HW238019   0.753   4.126  16.853 -0.1405 -1.6534 -0.6171
 8796SOL     OW38020   1.622   0.939  15.246  0.1555  0.0573 -0.1440
 8796SOL    HW138021   1.562   0.996  15.198  0.0823  0.9354  0.9901
 8796SOL    HW238022   1.568   0.868  15.280  0.1726 -0.2296 -0.7157
 8797SOL     OW38023   3.718   2.689  10.888 -0.4155  0.7095 -0.3489
 8797SOL    HW138024   3.639   2.697  10.941  0.1251 -1.7113  0.8245
 8797SOL    HW238025   3.774   2.753  10.932 -0.8007  1.2385 -0.6211
 8798SOL     OW38026   3.510   1.844  11.157  0.3074  0.2530  0.7283
 8798SOL    HW138027   3.563   1.792  11.097 -0.8643  3.5950 -3.2343
 8798SOL    HW238028   3.586   1.897  11.182  1.0945  0.4448 -2.0611
 8799SOL     OW38029   0.990   2.246   9.267 -0.7685  0.0794  0.6292
 8799SOL    HW138030   0.901   2.271   9.244 -0.1910 -1.6552 -3.5766
 8799SOL    HW238031   1.025   2.232   9.179  0.7861  1.2672  1.0400
 8800SOL     OW38032   1.392   2.435   3.909 -0.1242  0.2379 -0.1664
 8800SOL    HW138033   1.331   2.425   3.981  0.7619  0.5812  0.6351
 8800SOL    HW238034   1.465   2.479   3.953 -1.9936  4.0811 -0.9427
 8801SOL     OW38035   1.179   2.934   0.775  0.1187  0.2792  0.4465
 8801SOL    HW138036   1.226   2.955   0.694 -0.8589  1.9593  0.3195
 8801SOL    HW238037   1.179   2.839   0.777 -1.4312  0.2568 -1.2667
 8802SOL     OW38038   2.242   4.189   5.629  0.2344 -0.1464 -0.3384
 8802SOL    HW138039   2.253   4.261   5.567  0.7494  0.3099  0.2848
 8802SOL    HW238040   2.287   4.117   5.584 -1.9450 -0.6552 -1.7099
 8803SOL     OW38041   0.721   3.295   0.692 -0.2351  0.2563  0.5058
 8803SOL    HW138042   0.637   3.326   0.726 -1.4132 -1.0874 -1.1637
 8803SOL    HW238043   0.735   3.354   0.618 -1.1086 -0.7385 -0.4444
 8804SOL     OW38044   2.114   4.703   4.412  0.6500 -0.0914 -0.0997
 8804SOL    HW138045   2.127   0.057   4.381  1.8123  0.5396  2.1982
 8804SOL    HW238046   2.131   4.707   4.506  1.0121  1.1279 -0.2111
 8805SOL     OW38047   3.288   2.048   7.865  0.2555  0.2635 -0.1810
 8805SOL    HW138048   3.259   1.959   7.880 -0.9401  0.7772  0.5614
 8805SOL    HW238049   3.352   2.049   7.794 -0.6138  0.8516 -0.9464
 8806SOL     OW38050   0.122   4.707  14.514 -0.4573 -0.2789  0.0004
 8806SOL    HW138051   0.101   4.716  14.607 -0.5018 -0.3784 -0.0006
 8806SOL    HW238052   0.207   0.016  14.514 -1.8409  2.3740 -1.0860
 8807SOL     OW38053   4.397   1.077   6.617 -0.7208 -0.3594  0.3451
 8807SOL    HW138054   4.364   1.145   6.559  0.4505 -0.7245 -0.7487
 8807SOL    HW238055   4.430   1.017   6.550 -0.8223 -1.4622  1.2790
 8808SOL     OW38056   4.275   2.561   3.845  0.0590 -0.4569  0.3114
 8808SOL    HW138057   4.245   2.584   3.933  2.4710 -0.0065  1.0204
 8808SOL    HW238058   4.200   2.598   3.797  0.6737  1.1032  0.5487
 8809SOL     OW38059   4.568   0.322   7.089 -0.1899 -0.3490 -0.0986
 8809SOL    HW138060   4.647   0.276   7.114  1.1069  3.0426  1.9204
 8809SOL    HW238061   4.572   0.398   7.146  0.9675 -1.5445  1.4208
 8810SOL     OW38062   4.237   4.287   9.179 -1.0468 -0.2926 -0.0647
 8810SOL    HW138063   4.327   4.320   9.170 -1.0853  0.6851  3.1025
 8810SOL    HW238064   4.228   4.216   9.116 -1.1330  0.3215 -0.7560
 8811SOL     OW38065   4.209   2.563   2.495  0.3919 -0.4075 -0.3077
 8811SOL    HW138066   4.275   2.557   2.425 -0.0243  0.5639 -0.7863
 8811SOL    HW238067   4.134   2.527   2.448  1.5631 -1.0871 -1.6436
 8812SOL     OW38068   1.986   2.169   6.240  0.1104 -0.4025 -0.3520
 8812SOL    HW138069   1.963   2.158   6.148  1.2287  0.7280 -0.7676
 8812SOL    HW238070   2.037   2.250   6.239  0.8268 -0.8894 -2.9172
 8813SOL     OW38071   0.382   3.973  17.366 -0.5696  0.2705  0.3483
 8813SOL    HW138072   0.312   3.913  17.391 -0.8595  1.4920  2.4183
 8813SOL    HW238073   0.436   3.973  17.445  0.2372  2.1465 -0.1867
 8814SOL     OW38074   4.555   1.353   2.933 -0.1815  1.3774  0.3305
 8814SOL    HW138075   4.569   1.264   2.967  0.1834  0.5327 -2.0336
 8814SOL    HW238076   4.465   1.374   2.959 -0.2329  3.1062 -1.3021
 8815SOL     OW38077   1.591   4.650  16.395 -0.0124 -0.5318 -0.0433
 8815SOL    HW138078   1.581   4.719  16.460  1.2579 -0.7547  0.3798
 8815SOL    HW238079   1.636   4.694  16.323 -0.8384 -1.4647 -1.1406
 8816SOL     OW38080   3.012   2.723   9.927 -0.0573 -0.4802  0.1295
 8816SOL    HW138081   2.937   2.686   9.974 -2.1489  2.3937 -0.9097
 8816SOL    HW238082   3.010   2.677   9.843 -0.9647 -1.3646  0.6390
 8817SOL     OW38083   0.483   3.176   0.460  0.1726 -0.0226 -0.6642
 8817SOL    HW138084   0.462   3.114   0.390  1.5003 -0.3225 -0.8062
 8817SOL    HW238085   0.554   3.222   0.415  1.5252 -1.0793  0.3790
 8818SOL     OW38086   0.509   2.052  10.925 -0.1448  0.5185 -0.0724
 8818SOL    HW138087   0.508   2.063  11.020  0.2212 -0.5038  0.0474
 8818SOL    HW238088   0.447   1.980  10.912 -1.8831  2.3697 -2.0386
 8819SOL     OW38089   4.096   2.134   3.790 -0.5198 -0.3691 -0.4079
 8819SOL    HW138090   4.112   2.162   3.880 -3.1554  0.5032 -0.2044
 8819SOL    HW238091   4.020   2.078   3.806 -0.7702 -0.0413 -0.4421
 8820SOL     OW38092   0.433   0.544  14.736 -0.1870 -0.3914 -0.8648
 8820SOL    HW138093   0.407   0.571  14.648  0.5390 -0.4624 -1.0986
 8820SOL    HW238094   0.351   0.568  14.781  0.9349  2.1533 -0.1824
 8821SOL     OW38095   4.426   1.996   1.797  0.1201 -0.0163 -0.7211
 8821SOL    HW138096   4.482   1.975   1.873 -0.9000 -1.6352 -0.4151
 8821SOL    HW238097   4.462   1.941   1.727  1.5004  0.2591 -0.2398
 8822SOL     OW38098   2.973   4.242   5.683 -0.4938  0.5869 -0.2705
 8822SOL    HW138099   2.923   4.162   5.696 -1.6776  0.8559 -3.2908
 8822SOL    HW238100   3.044   4.200   5.634 -0.6407 -0.0705  0.0810
 8823SOL     OW38101   1.048   1.692   6.572 -0.4943  0.1165  0.0002
 8823SOL    HW138102   1.062   1.785   6.588  0.6953 -0.2545  1.1344
 8823SOL    HW238103   1.042   1.657   6.661 -2.9164 -2.5075 -1.1729
 8824SOL     OW38104   4.677   1.160  12.904 -0.1920 -0.0307 -0.2227
 8824SOL    HW138105   4.659   1.236  12.848  0.0216  0.8699  0.9320
 8824SOL    HW238106   4.646   1.086  12.851 -1.1581  0.4267 -0.2918
 8825SOL     OW38107   2.194   2.147   4.538  0.1195  0.0845 -0.3299
 8825SOL    HW138108   2.101   2.142   4.560 -0.1749  0.3060 -1.5180
 8825SOL    HW238109   2.226   2.091   4.608  1.4304  0.3186 -0.7445
 8826SOL     OW38110   0.699   4.150   7.514  0.2584 -0.2116  0.2790
 8826SOL    HW138111   0.783   4.140   7.558  0.5604 -0.0179 -0.2566
 8826SOL    HW238112   0.654   4.213   7.570  0.1022 -0.3159  0.2716
 8827SOL     OW38113   3.244   0.013   3.247  0.0365  0.2293 -0.0017
 8827SOL    HW138114   3.164   0.064   3.260  1.3008  2.4081 -0.8621
 8827SOL    HW238115   3.229   4.676   3.309 -0.3889  1.3961  1.2637
 8828SOL     OW38116   1.802   3.722   5.219  0.1619 -0.6897 -0.1983
 8828SOL    HW138117   1.854   3.796   5.251 -1.9931  0.9621 -0.4386
 8828SOL    HW238118   1.741   3.709   5.292 -0.5055 -0.1300 -0.6465
 8829SOL     OW38119   0.784   0.938   6.391  0.3683 -0.3971  0.1941
 8829SOL    HW138120   0.828   0.984   6.320 -1.2629  0.7615 -0.0718
 8829SOL    HW238121   0.698   0.980   6.388  0.4547 -0.1752  0.8597
 8830SOL     OW38122   0.805   1.862  14.812  0.1340  0.2681  0.1347
 8830SOL    HW138123   0.794   1.773  14.844  2.1239  0.0076  0.0617
 8830SOL    HW238124   0.719   1.866  14.769  0.4129  1.5526 -0.3108
 8831SOL     OW38125   1.530   2.521   4.612 -0.1981  0.0421 -0.2588
 8831SOL    HW138126   1.601   2.475   4.658 -0.8203 -0.1070  0.5559
 8831SOL    HW238127   1.532   2.483   4.525  2.3362  0.4170 -0.3791
 8832SOL     OW38128   4.675   2.899   7.391  0.6797 -0.2215 -0.0335
 8832SOL    HW138129   4.582   2.894   7.367  0.6406 -0.1821  0.1082
 8832SOL    HW238130   4.682   2.927   7.482 -1.1227 -1.9740  0.6608
 8833SOL     OW38131   1.794   1.050   2.749  0.4109  0.0325 -0.3899
 8833SOL    HW138132   1.710   1.090   2.725  0.6212  0.0021 -1.1933
 8833SOL    HW238133   1.848   1.062   2.670  0.7304 -3.1489 -0.6251
 8834SOL     OW38134   4.262   3.663  17.198 -0.0967  0.3708  0.5476
 8834SOL    HW138135   4.213   3.697  17.273 -2.8420  1.5743 -1.7665
 8834SOL    HW238136   4.332   3.620  17.247  0.7945  0.8598 -0.2931
 8835SOL     OW38137   0.632   3.575   3.836 -0.0250  0.1273  0.5557
 8835SOL    HW138138   0.703   3.530   3.882  0.6597  0.6502  0.0259
 8835SOL    HW238139   0.568   3.586   3.907 -0.1587 -0.7298  0.5660
 8836SOL     OW38140   0.631   3.878   5.006  0.4158  0.4347 -0.6959
 8836SOL    HW138141   0.623   3.965   4.968  0.3818  0.9204  0.4219
 8836SOL    HW238142   0.539   3.852   5.010  0.1854  1.3229 -0.1864
 8837SOL     OW38143   2.323   1.284   2.367 -0.1027  0.0105  0.4565
 8837SOL    HW138144   2.398   1.313   2.419  0.3225  1.0696 -0.7755
 8837SOL    HW238145   2.328   1.193   2.396  0.7351 -0.4036 -0.9733
 8838SOL     OW38146   1.145   4.342   4.446 -0.0831 -0.1011 -0.0382
 8838SOL    HW138147   1.098   4.420   4.419  1.0755  0.1387 -1.3342
 8838SOL    HW238148   1.198   4.387   4.511  0.8803 -1.0666 -0.1470
 8839SOL     OW38149   0.538   2.470   8.014  0.5407  0.3700 -0.2820
 8839SOL    HW138150   0.543   2.375   8.018  1.9953  0.4512  0.0006
 8839SOL    HW238151   0.444   2.484   8.011  0.5558 -0.1376 -3.1000
 8840SOL     OW38152   2.570   1.458   0.260 -0.2171  0.5377 -0.3984
 8840SOL    HW138153   2.575   1.438   0.166 -0.4398  0.0109 -0.2988
 8840SOL    HW238154   2.479   1.432   0.276  0.3430 -1.9797 -1.2851
 8841SOL     OW38155   3.420   1.732   7.720 -0.5009 -0.5211  0.5429
 8841SOL    HW138156   3.450   1.696   7.636  0.0584 -0.2350  0.6228
 8841SOL    HW238157   3.357   1.665   7.746  0.1678 -1.4175 -0.1354
 8842SOL     OW38158   3.954   0.041   2.179 -0.1171  0.3890  0.1672
 8842SOL    HW138159   3.973   4.709   2.112 -0.2776  0.5601 -0.0518
 8842SOL    HW238160   3.880   0.090   2.144  0.5126  1.2659  0.0696
 8843SOL     OW38161   4.328   0.624  15.865 -0.0137  0.1384  0.4998
 8843SOL    HW138162   4.412   0.644  15.906  0.7243 -1.1597 -0.4076
 8843SOL    HW238163   4.265   0.615  15.936  1.0341 -1.6906  1.1930
 8844SOL     OW38164   0.925   1.687   4.575  0.0589  0.1905  0.1863
 8844SOL    HW138165   0.993   1.751   4.556  1.6912 -2.3961 -2.6609
 8844SOL    HW238166   0.849   1.737   4.544  0.9208 -0.2138 -2.6333
 8845SOL     OW38167   2.368   1.048   6.342 -0.1598 -0.6039 -0.2261
 8845SOL    HW138168   2.457   1.078   6.323  0.6593 -2.4131  0.7370
 8845SOL    HW238169   2.325   1.130   6.320  2.4748  0.9251  0.3595
 8846SOL     OW38170   0.165   2.658  13.299  0.1283 -0.1989 -0.1850
 8846SOL    HW138171   0.109   2.651  13.376 -0.9526  1.9460 -0.7884
 8846SOL    HW238172   0.216   2.577  13.300 -1.0121 -0.8916  1.1263
 8847SOL     OW38173   1.819   4.604  16.788  0.1144 -0.0204 -1.1732
 8847SOL    HW138174   1.780   4.564  16.710 -0.0815 -1.4699 -0.3450
 8847SOL    HW238175   1.842   4.534  16.849  0.8317  1.0647 -0.2090
 8848SOL     OW38176   4.367   2.988   5.495  0.3819 -0.2314 -0.0512
 8848SOL    HW138177   4.363   2.906   5.446  0.0998  0.3673 -1.0227
 8848SOL    HW238178   4.274   3.010   5.507  0.8872  1.6659  0.4650
 8849SOL     OW38179   3.992   1.870   6.372 -0.4546 -0.4637 -0.5426
 8849SOL    HW138180   3.943   1.942   6.333  2.9514  2.1836  0.0443
 8849SOL    HW238181   3.939   1.841   6.446  0.9633 -1.1388  0.2166
 8850SOL     OW38182   3.432   3.413   8.020 -0.2550 -0.1417  0.4637
 8850SOL    HW138183   3.457   3.352   8.089  4.2121  1.8100  0.6478
 8850SOL    HW238184   3.478   3.379   7.943 -3.3621 -2.4161 -0.3647
 8851SOL     OW38185   3.136   0.771   5.883  0.6267 -0.1562 -0.0259
 8851SOL    HW138186   3.109   0.734   5.967 -0.2834  0.6017  0.0216
 8851SOL    HW238187   3.182   0.847   5.916 -1.6780  0.9078  0.7370
 8852SOL     OW38188   1.099   1.380   0.624 -0.1055  0.6953 -0.6312
 8852SOL    HW138189   1.058   1.409   0.543 -1.6566  3.1745  1.0137
 8852SOL    HW238190   1.156   1.310   0.592 -0.4744 -0.8487  2.0622
 8853SOL     OW38191   0.873   4.648  17.701 -0.9161  0.1078 -0.1410
 8853SOL    HW138192   0.924   4.654  17.621  1.2539 -0.7372  1.1618
 8853SOL    HW238193   0.834   4.735  17.706  1.1497  1.0639 -0.4250
 8854SOL     OW38194   1.109   3.947   2.085  0.2491 -0.2514 -0.5330
 8854SOL    HW138195   1.058   3.866   2.081  0.1156 -0.2095  0.2351
 8854SOL    HW238196   1.179   3.902   2.133 -0.6904  0.1334  1.2205
 8855SOL     OW38197   3.191   1.896   4.060 -0.1804  0.3730 -0.5467
 8855SOL    HW138198   3.118   1.835   4.050  0.8278 -1.0154  0.5867
 8855SOL    HW238199   3.212   1.927   3.972 -0.9646 -0.9404 -1.1894
 8856SOL     OW38200   1.846   1.524   3.165  0.4504  0.5313 -0.1319
 8856SOL    HW138201   1.911   1.576   3.117  0.1016 -0.2792 -1.4850
 8856SOL    HW238202   1.888   1.525   3.251  0.4091  2.5658 -0.1286
 8857SOL     OW38203   2.560   3.146  12.420 -0.3845 -0.1477 -0.6251
 8857SOL    HW138204   2.556   3.220  12.361  1.5722 -0.4220 -1.0975
 8857SOL    HW238205   2.643   3.109  12.391 -0.9719 -1.1602 -1.0475
 8858SOL     OW38206   2.646   0.105  13.198 -0.6772  0.3485  0.3354
 8858SOL    HW138207   2.641   0.089  13.104 -0.7730 -0.6890  0.5187
 8858SOL    HW238208   2.732   0.064  13.208  0.0222  2.2278  2.1503
 8859SOL     OW38209   2.992   1.632   8.316  0.5204  0.3163 -0.7137
 8859SOL    HW138210   3.073   1.657   8.270 -0.3243  0.3686 -2.1769
 8859SOL    HW238211   2.997   1.685   8.395  1.2435 -0.5945 -0.1525
 8860SOL     OW38212   0.246   1.958  10.919  0.5082 -0.0298 -0.1023
 8860SOL    HW138213   0.195   2.028  10.877  1.5702  0.2621 -0.9403
 8860SOL    HW238214   0.229   1.971  11.012  0.3713 -0.4165 -0.0742
 8861SOL     OW38215   3.155   3.769  11.858 -0.4063  0.0052  0.8363
 8861SOL    HW138216   3.177   3.855  11.821  1.0380 -0.1595  1.3207
 8861SOL    HW238217   3.071   3.779  11.901 -1.0988 -0.0807 -0.4760
 8862SOL     OW38218   2.836   0.546  12.144  0.3282  0.2262  0.0711
 8862SOL    HW138219   2.753   0.531  12.100  0.7246 -1.0268 -0.2548
 8862SOL    HW238220   2.798   0.551  12.232 -1.8144 -0.8144 -0.7933
 8863SOL     OW38221   2.860   4.013   5.733  0.2162 -0.3572  0.0088
 8863SOL    HW138222   2.864   3.927   5.690  0.9004  0.4599 -1.5568
 8863SOL    HW238223   2.905   3.996   5.816  1.3593  0.5842 -0.4135
 8864SOL     OW38224   1.149   2.970   7.871 -0.0541 -0.1053 -0.3215
 8864SOL    HW138225   1.126   3.062   7.855 -0.4338 -0.2261 -0.4703
 8864SOL    HW238226   1.083   2.925   7.818 -0.9124  0.6094  0.1346
 8865SOL     OW38227   3.568   3.058  10.990 -0.1220 -0.7196 -0.0609
 8865SOL    HW138228   3.639   3.122  10.991 -1.4175  0.7154 -0.5336
 8865SOL    HW238229   3.488   3.110  10.982 -0.7909 -1.8048 -0.5270
 8866SOL     OW38230   0.579   2.511   9.531 -0.2312  0.0959  0.4307
 8866SOL    HW138231   0.657   2.471   9.493 -1.8029 -2.5804  0.0394
 8866SOL    HW238232   0.612   2.600   9.546 -0.4685  0.3488 -0.5488
 8867SOL     OW38233   4.101   2.134   1.776  0.7901 -0.2135  0.9381
 8867SOL    HW138234   4.098   2.043   1.747 -2.0138  0.6243 -1.4279
 8867SOL    HW238235   4.051   2.127   1.856 -0.6996  0.0809  0.0328
 8868SOL     OW38236   2.849   0.249   0.966  0.1777 -0.1274  0.2810
 8868SOL    HW138237   2.875   0.311   0.898 -0.5097 -0.0417  0.0938
 8868SOL    HW238238   2.815   0.177   0.912  3.2019  0.4892 -2.4262
 8869SOL     OW38239   4.668   2.097   6.742  0.4319 -0.1462  0.1536
 8869SOL    HW138240   4.593   2.067   6.691  0.2576  0.3130  0.1391
 8869SOL    HW238241   4.695   2.162   6.678 -1.0119 -1.0437 -1.3578
 8870SOL     OW38242   1.494   0.027   2.961 -0.0770  0.5287 -0.2923
 8870SOL    HW138243   1.423   0.090   2.970 -0.2487  0.1915  0.7754
 8870SOL    HW238244   1.539   0.052   2.880  2.6657 -1.9800  0.4160
 8871SOL     OW38245   4.499   0.926  12.807  0.3436  0.5347 -0.1383
 8871SOL    HW138246   4.421   0.896  12.854 -0.2289 -1.5511 -2.4042
 8871SOL    HW238247   4.533   0.850  12.760  1.0996 -0.3400  1.8158
 8872SOL     OW38248   4.682   4.292   8.385  0.2963 -0.2255  0.1249
 8872SOL    HW138249   4.715   4.360   8.326  2.1504 -0.0728  1.2995
 8872SOL    HW238250   4.658   4.221   8.326 -4.2072  0.3800  1.2298
 8873SOL     OW38251   1.479   0.748  15.350  0.0947 -0.1804 -0.2771
 8873SOL    HW138252   1.417   0.775  15.418  0.8415  1.0646 -0.0853
 8873SOL    HW238253   1.496   0.655  15.366  0.2690 -0.2611 -0.9282
 8874SOL     OW38254   3.422   3.131   4.458 -0.0963  0.4423  0.2476
 8874SOL    HW138255   3.386   3.209   4.500  1.9203  0.6388  1.6522
 8874SOL    HW238256   3.514   3.128   4.485 -0.2031 -1.0958  0.4459
 8875SOL     OW38257   2.088   1.319   3.743 -0.0712  0.2731 -0.0069
 8875SOL    HW138258   2.020   1.295   3.680 -0.3823  0.6926  0.1685
 8875SOL    HW238259   2.147   1.246   3.722 -0.3797 -0.3882  1.4327
 8876SOL     OW38260   1.711   2.573   1.826 -0.3051  0.7314  0.1054
 8876SOL    HW138261   1.763   2.527   1.892 -0.8293  0.4359  0.3147
 8876SOL    HW238262   1.777   2.636   1.797 -0.9968  1.6205  0.4489
 8877SOL     OW38263   3.306   2.833   3.130 -0.5799  0.0492  0.2795
 8877SOL    HW138264   3.337   2.908   3.079 -1.0830  0.3236  0.3751
 8877SOL    HW238265   3.264   2.784   3.060  0.5957  2.2054 -1.9114
 8878SOL     OW38266   3.578   1.974  12.275 -0.1830 -0.4116  0.8507
 8878SOL    HW138267   3.539   1.890  12.302  2.1115 -1.4669  0.9023
 8878SOL    HW238268   3.497   2.025  12.277  1.1059  1.6037  0.9148
 8879SOL     OW38269   2.142   4.523   1.495  0.3271  0.0668 -0.5783
 8879SOL    HW138270   2.207   4.574   1.543  1.4644 -1.7805 -0.1544
 8879SOL    HW238271   2.189   4.497   1.416 -0.8099  1.2022 -1.6329
 8880SOL     OW38272   3.449   2.042   2.022  0.1183 -0.3465  0.0584
 8880SOL    HW138273   3.369   2.069   2.067 -0.2792 -0.0729 -0.8248
 8880SOL    HW238274   3.489   2.002   2.100  1.8382 -1.4254 -1.3714
 8881SOL     OW38275   1.494   3.784  16.884 -0.0083  0.3491 -0.0856
 8881SOL    HW138276   1.583   3.759  16.909 -0.3855 -2.2050 -1.2465
 8881SOL    HW238277   1.441   3.769  16.962 -0.5574 -0.3312 -0.5898
 8882SOL     OW38278   0.733   2.564   3.679 -0.0957 -0.6184 -0.2906
 8882SOL    HW138279   0.701   2.651   3.703 -0.2653 -0.8020  0.1487
 8882SOL    HW238280   0.828   2.568   3.694 -0.1022 -0.0352 -0.4053
 8883SOL     OW38281   0.681   1.367   7.204  0.0451  0.1795  0.6132
 8883SOL    HW138282   0.709   1.308   7.274  1.1629 -1.0431 -0.8666
 8883SOL    HW238283   0.631   1.429   7.256  1.6387  0.1108  2.2328
 8884SOL     OW38284   3.905   3.694   3.660 -0.4696 -0.4867 -0.7765
 8884SOL    HW138285   3.898   3.600   3.672  0.6589 -0.7281 -2.0093
 8884SOL    HW238286   3.999   3.702   3.642 -0.7328  0.6678 -1.6661
 8885SOL     OW38287   3.612   0.856  12.768 -0.1658  0.1598 -0.0420
 8885SOL    HW138288   3.524   0.877  12.736 -0.2016  2.0729  1.2763
 8885SOL    HW238289   3.589   0.766  12.790 -0.4339  0.5989  1.5315
 8886SOL     OW38290   0.183   3.546   8.422  0.3601 -0.1357 -0.4774
 8886SOL    HW138291   0.107   3.525   8.476 -0.6883 -1.4323 -2.4322
 8886SOL    HW238292   0.143   3.610   8.363  1.6487  1.1695  0.0759
 8887SOL     OW38293   1.344   0.552   2.510  0.0175 -0.0578 -0.1577
 8887SOL    HW138294   1.358   0.645   2.529 -1.2515 -0.5031  3.0058
 8887SOL    HW238295   1.408   0.507   2.565 -0.9997 -1.8461 -0.4321
 8888SOL     OW38296   4.693   2.549  15.266  0.0005 -0.0724  0.0837
 8888SOL    HW138297   0.022   2.563  15.336 -0.3794  1.6437  0.0941
 8888SOL    HW238298   4.619   2.594  15.307 -0.8215 -0.7017 -0.7258
 8889SOL     OW38299   2.210   0.218   4.346 -0.5064 -0.2297  0.4698
 8889SOL    HW138300   2.216   0.203   4.252  1.9836  1.6110  0.3191
 8889SOL    HW238301   2.143   0.286   4.355  0.5081  0.7890  0.3135
 8890SOL     OW38302   0.291   3.275   8.120 -0.0940  0.4381 -0.0470
 8890SOL    HW138303   0.249   3.232   8.194  2.7076 -1.9517  0.1518
 8890SOL    HW238304   0.219   3.261   8.058  0.8840  0.7800 -1.2763
 8891SOL     OW38305   1.400   1.200  13.616  0.0398  0.1833 -0.1099
 8891SOL    HW138306   1.474   1.205  13.677  0.9280  0.8313 -1.2447
 8891SOL    HW238307   1.327   1.228  13.670 -1.0499 -1.6222 -0.6434
 8892SOL     OW38308   1.186   0.736   8.822  0.6858 -0.5788 -0.1347
 8892SOL    HW138309   1.109   0.679   8.825  2.0870 -2.3903  1.6576
 8892SOL    HW238310   1.193   0.767   8.732  1.8525  0.0457  0.1754
 8893SOL     OW38311   0.487   4.552   0.545  0.1546  0.2216  0.3208
 8893SOL    HW138312   0.406   4.601   0.560  0.1635 -0.3098  2.1762
 8893SOL    HW238313   0.526   4.542   0.632  1.2111  2.1900  0.0708
 8894SOL     OW38314   4.451   0.470  15.467  0.4276 -0.0738  0.0301
 8894SOL    HW138315   4.461   0.394  15.410 -1.5090 -1.7265  1.9032
 8894SOL    HW238316   4.409   0.439  15.547  0.9488  1.9779  1.1069
 8895SOL     OW38317   1.445   4.480   5.999 -0.4783 -0.1288  0.1260
 8895SOL    HW138318   1.405   4.566   6.009 -1.3863 -0.7856  2.0541
 8895SOL    HW238319   1.538   4.500   6.007 -0.8203  1.0494  1.0184
 8896SOL     OW38320   4.511   0.143   9.858  0.5525 -0.0380 -0.3748
 8896SOL    HW138321   4.457   0.100   9.923  0.2078  1.7185  0.5117
 8896SOL    HW238322   4.450   0.150   9.784  0.1435  0.5002  0.0110
 8897SOL     OW38323   3.250   0.682   5.345  0.4943  0.1691  0.2596
 8897SOL    HW138324   3.253   0.658   5.252  0.1393  0.7864  0.0953
 8897SOL    HW238325   3.228   0.595   5.378 -0.0116 -0.1992 -1.0619
 8898SOL     OW38326   1.580   2.379   1.688  0.0183 -0.1892  0.5707
 8898SOL    HW138327   1.625   2.446   1.740 -0.3769  1.5135 -1.3023
 8898SOL    HW238328   1.581   2.424   1.603  3.8302 -4.5210 -1.6235
 8899SOL     OW38329   0.382   4.056  16.084  0.3269 -0.0447 -0.0998
 8899SOL    HW138330   0.475   4.034  16.085  0.6556  1.2959 -1.1511
 8899SOL    HW238331   0.389   4.144  16.122 -0.7373 -0.6770  1.5405
 8900SOL     OW38332   0.257   0.426   7.562  0.0087 -0.1491 -0.0943
 8900SOL    HW138333   0.232   0.341   7.598  3.2521 -1.1515 -0.1490
 8900SOL    HW238334   0.294   0.471   7.638  1.3476 -0.5630 -0.4987
 8901SOL     OW38335   1.548   1.998   2.276 -0.4521  0.6209  0.1881
 8901SOL    HW138336   1.568   2.041   2.359 -4.0581  1.1752  0.7330
 8901SOL    HW238337   1.464   2.040   2.259 -0.7399 -0.7796 -1.8571
 8902SOL     OW38338   2.124   2.501   4.977 -0.1389 -0.2040 -0.3097
 8902SOL    HW138339   2.107   2.580   4.926 -0.3452 -0.3799 -0.5138
 8902SOL    HW238340   2.195   2.529   5.034  1.1292 -2.1457 -0.9168
 8903SOL     OW38341   2.293   0.591  13.760  0.3704 -0.4651  0.2149
 8903SOL    HW138342   2.359   0.562  13.697 -1.3404  1.2072 -2.3379
 8903SOL    HW238343   2.276   0.509  13.808 -2.0690 -0.1175 -0.0331
 8904SOL     OW38344   4.027   1.557  16.483  0.2115  0.1425  0.1062
 8904SOL    HW138345   4.014   1.647  16.452  1.7804 -0.6416 -2.7541
 8904SOL    HW238346   3.981   1.547  16.567  0.0665 -0.7031 -0.0751
 8905SOL     OW38347   2.689   3.079   2.688  0.2333  0.2436 -0.1932
 8905SOL    HW138348   2.741   3.154   2.717 -0.9555  0.5901  1.0306
 8905SOL    HW238349   2.721   3.012   2.748  2.1307 -0.4510 -1.9602
 8906SOL     OW38350   1.750   4.481  13.115 -0.2156  0.2422  0.5358
 8906SOL    HW138351   1.802   4.416  13.068 -0.5457 -0.2685  0.8826
 8906SOL    HW238352   1.783   4.566  13.085 -0.3036  0.0663 -0.0638
 8907SOL     OW38353   1.285   1.692   6.237 -0.1887  0.4204  0.9240
 8907SOL    HW138354   1.290   1.628   6.308 -2.7355 -0.7922  0.0277
 8907SOL    HW238355   1.338   1.764   6.270  1.0703  0.0383 -0.2645
 8908SOL     OW38356   0.584   4.543   8.590  0.7360  0.0437 -0.1845
 8908SOL    HW138357   0.555   4.633   8.601 -2.7390 -1.1595  0.4963
 8908SOL    HW238358   0.675   4.562   8.613  1.0555 -1.4347 -0.1889
 8909SOL     OW38359   2.998   0.145   4.090 -0.6795 -0.0541  0.3720
 8909SOL    HW138360   3.087   0.158   4.123 -0.6016  1.4333 -0.4651
 8909SOL    HW238361   2.994   0.050   4.075  1.0076  0.3936 -2.8807
 8910SOL     OW38362   1.121   2.704   8.321  0.4044 -0.7066  0.2961
 8910SOL    HW138363   1.073   2.751   8.389 -3.1291 -0.4804 -2.2911
 8910SOL    HW238364   1.114   2.771   8.253  2.1347  1.1095  1.9417
 8911SOL     OW38365   2.680   4.180   1.136 -0.4556 -0.3556 -0.5488
 8911SOL    HW138366   2.725   4.160   1.053  1.0357 -3.0697  0.9078
 8911SOL    HW238367   2.604   4.222   1.095 -1.5852  0.1491  2.1016
 8912SOL     OW38368   2.888   2.363   7.197 -0.2964  0.8002 -0.2432
 8912SOL    HW138369   2.913   2.275   7.170 -2.0469  0.3237 -0.3079
 8912SOL    HW238370   2.963   2.388   7.251 -1.5125 -0.7533  2.1651
 8913SOL     OW38371   3.990   0.737   2.803  0.1375 -0.1707 -0.3643
 8913SOL    HW138372   4.077   0.723   2.841  0.5662 -0.5925 -1.5068
 8913SOL    HW238373   3.928   0.728   2.875 -1.8084 -1.3755 -2.1555
 8914SOL     OW38374   0.908   1.691   5.936 -0.0124  0.0716 -0.9575
 8914SOL    HW138375   0.956   1.705   5.855  2.0798 -1.8558 -0.0436
 8914SOL    HW238376   0.950   1.749   5.999 -2.3620  1.9642 -1.1353
 8915SOL     OW38377   2.194   3.374   2.781  0.0151 -0.1102 -0.3236
 8915SOL    HW138378   2.108   3.415   2.775  0.0920  0.5986  3.5522
 8915SOL    HW238379   2.252   3.445   2.752 -0.8436  2.6780  4.7575
 8916SOL     OW38380   0.535   3.175  15.356  0.3425 -0.0957  0.6263
 8916SOL    HW138381   0.483   3.255  15.350  1.1226  0.1588 -2.6220
 8916SOL    HW238382   0.514   3.123  15.278 -2.4221  0.7565  0.8031
 8917SOL     OW38383   1.296   2.817  14.558  0.4138 -0.5580  0.1076
 8917SOL    HW138384   1.292   2.901  14.604 -1.3780  0.4525 -1.8739
 8917SOL    HW238385   1.272   2.748  14.620 -0.5142  0.1021  0.4699
 8918SOL     OW38386   4.038   0.452   9.758 -1.0010 -0.0144 -0.2796
 8918SOL    HW138387   3.980   0.484   9.827 -1.6632 -2.4882  0.3088
 8918SOL    HW238388   4.068   0.539   9.732  0.3779 -0.3761  0.1360
 8919SOL     OW38389   1.332   0.132   1.935 -0.1116 -0.3409 -0.1841
 8919SOL    HW138390   1.405   0.093   1.886  1.5703  1.8010  0.6309
 8919SOL    HW238391   1.331   0.073   2.010  1.4905 -0.3773 -0.1886
 8920SOL     OW38392   4.444   4.334   4.260  0.0268 -0.3203 -0.3942
 8920SOL    HW138393   4.433   4.329   4.355 -0.4511 -0.0976 -0.4403
 8920SOL    HW238394   4.491   4.415   4.241  2.6299 -0.9258  3.3352
 8921SOL     OW38395   0.021   0.822   2.068  0.1223 -0.3405 -0.6260
 8921SOL    HW138396   0.033   0.908   2.108  0.3527 -0.9956  0.7082
 8921SOL    HW238397   4.661   0.808   2.069  0.3510 -1.6296  4.1344
 8922SOL     OW38398   2.299   4.277   3.407  0.3329 -0.5769  0.3581
 8922SOL    HW138399   2.352   4.320   3.340 -0.1671 -0.1836  0.2179
 8922SOL    HW238400   2.346   4.194   3.396 -1.6598 -1.4522 -1.4110
 8923SOL     OW38401   3.144   2.593   8.553  0.4202 -0.0986  0.7298
 8923SOL    HW138402   3.092   2.661   8.509  0.3802 -2.1536 -2.3908
 8923SOL    HW238403   3.229   2.615   8.517  0.2197  0.1473  0.4009
 8924SOL     OW38404   1.678   0.808  10.728  0.5107  0.4526 -0.1305
 8924SOL    HW138405   1.587   0.783  10.715  0.5029 -0.1321  1.1155
 8924SOL    HW238406   1.676   0.901  10.702  3.4241  0.5320 -0.0625
 8925SOL     OW38407   0.756   2.137   7.459 -0.5559 -0.8163  0.0061
 8925SOL    HW138408   0.781   2.099   7.374  1.9124 -2.5900  1.5282
 8925SOL    HW238409   0.748   2.057   7.511  0.9940 -2.3251 -2.0432
 8926SOL     OW38410   4.205   3.228   3.837  0.7005 -0.0967  0.7296
 8926SOL    HW138411   4.151   3.187   3.769  1.2574  2.6215 -1.3445
 8926SOL    HW238412   4.247   3.298   3.786 -2.7913  1.8835  0.5322
 8927SOL     OW38413   3.753   3.318  14.521 -0.3264 -0.3783  0.1851
 8927SOL    HW138414   3.820   3.288  14.583 -0.4486  0.5602  0.7676
 8927SOL    HW238415   3.776   3.411  14.522  0.4931 -0.5924  1.5119
 8928SOL     OW38416   1.470   4.307   6.898  0.0544 -0.0781 -0.2903
 8928SOL    HW138417   1.440   4.340   6.813 -1.5162  0.1003  0.3322
 8928SOL    HW238418   1.429   4.355   6.970 -0.1966  0.3036 -0.6838
 8929SOL     OW38419   1.431   0.331   9.685 -0.2366 -0.5168 -0.0677
 8929SOL    HW138420   1.399   0.241   9.690 -1.1847 -0.1506  0.4700
 8929SOL    HW238421   1.421   0.372   9.770 -0.7274  1.1118 -0.9152
 8930SOL     OW38422   1.469   2.391  12.602 -0.2451  0.0982 -0.1175
 8930SOL    HW138423   1.446   2.324  12.538 -1.4783  0.4821 -0.0655
 8930SOL    HW238424   1.525   2.333  12.653  2.2003  1.0771 -1.6777
 8931SOL     OW38425   1.985   1.663  10.384  1.1142  0.0019 -0.0723
 8931SOL    HW138426   1.915   1.620  10.335 -0.1858  2.6664 -0.5865
 8931SOL    HW238427   2.064   1.634  10.339 -0.2235  0.3110 -2.6446
 8932SOL     OW38428   1.289   3.158   8.559 -0.1846 -0.3319 -0.0983
 8932SOL    HW138429   1.274   3.081   8.614  2.4108 -0.5594  0.2593
 8932SOL    HW238430   1.229   3.134   8.489 -2.1577 -0.7701  1.7396
 8933SOL     OW38431   0.340   2.684   8.415  0.0689  0.3836 -0.0311
 8933SOL    HW138432   0.248   2.698   8.392 -0.8678 -1.4032  2.5769
 8933SOL    HW238433   0.363   2.594   8.392  1.5583  1.0219 -0.9898
 8934SOL     OW38434   3.032   2.193   0.296 -0.2461  0.6169 -0.2421
 8934SOL    HW138435   2.982   2.275   0.285 -0.7140  0.3449 -0.1446
 8934SOL    HW238436   2.953   2.145   0.321  1.3804 -1.0320  1.6124
 8935SOL     OW38437   4.061   3.834   4.384  0.3723 -0.4628  0.2878
 8935SOL    HW138438   4.079   3.780   4.461  2.6690  0.1218  0.1422
 8935SOL    HW238439   4.073   3.774   4.311  0.1716 -0.4635  0.2534
 8936SOL     OW38440   3.879   0.943   1.575  0.4405 -0.6384  0.2315
 8936SOL    HW138441   3.785   0.949   1.594  0.0917 -0.6158 -1.5196
 8936SOL    HW238442   3.882   0.945   1.480 -1.5148 -1.2826  0.1623
 8937SOL     OW38443   0.994   4.597  14.280  0.0184  0.4822 -0.6368
 8937SOL    HW138444   0.909   4.638  14.265 -1.4812 -2.2047  0.4668
 8937SOL    HW238445   0.999   4.625  14.371 -0.0785 -3.4369  0.5671
 8938SOL     OW38446   1.783   3.511  11.812 -0.4906 -0.4914 -0.2658
 8938SOL    HW138447   1.699   3.470  11.789 -1.0949 -0.0794  1.2499
 8938SOL    HW238448   1.832   3.438  11.850  2.7514  0.2590 -2.9283
 8939SOL     OW38449   2.514   1.360   5.071  0.2479 -0.0094  0.1676
 8939SOL    HW138450   2.587   1.304   5.098  0.5256 -0.4108 -1.4432
 8939SOL    HW238451   2.445   1.295   5.080  1.3677 -1.0468  1.3304
 8940SOL     OW38452   3.236   4.335   6.938  0.1267 -0.3444 -0.0803
 8940SOL    HW138453   3.209   4.282   7.014  2.4233  0.5612  1.3785
 8940SOL    HW238454   3.174   4.408   6.950 -0.6656 -0.8254 -1.3005
 8941SOL     OW38455   1.118   4.539   3.851  0.0880  0.6647 -0.6983
 8941SOL    HW138456   1.082   4.472   3.908  0.0227 -0.8059 -2.4830
 8941SOL    HW238457   1.212   4.528   3.858  0.1656  2.0168  0.4522
 8942SOL     OW38458   2.232   2.025   6.329 -0.2992 -0.1676  0.3398
 8942SOL    HW138459   2.155   2.072   6.297 -1.7580 -2.6251  0.2480
 8942SOL    HW238460   2.297   2.042   6.260 -2.2356  1.4827 -1.0584
 8943SOL     OW38461   0.124   0.847   0.663 -0.0070  0.2877 -0.1690
 8943SOL    HW138462   0.058   0.902   0.705 -0.2673  1.4333 -2.0710
 8943SOL    HW238463   0.168   0.805   0.737 -1.1382 -1.5803 -0.5555
 8944SOL     OW38464   3.712   1.217  14.078  0.2193 -0.3567  0.4509
 8944SOL    HW138465   3.770   1.291  14.056  0.6263 -1.1050 -1.0080
 8944SOL    HW238466   3.777   1.150  14.059  1.4798  1.1555 -0.6412
 8945SOL     OW38467   3.889   0.991   0.465  0.2053 -0.7711  0.4969
 8945SOL    HW138468   3.979   0.990   0.432  0.4552  1.9319  1.1132
 8945SOL    HW238469   3.886   0.916   0.525  3.0094 -1.1670  0.1679
 8946SOL     OW38470   0.393   0.158   8.785  0.1604  0.6004  0.4168
 8946SOL    HW138471   0.429   0.121   8.867  1.4902  1.5445  0.2668
 8946SOL    HW238472   0.325   0.093   8.769  0.1856  0.2951  1.5175
 8947SOL     OW38473   2.016   0.906   6.904  0.0077  0.1481  0.1621
 8947SOL    HW138474   2.103   0.946   6.911 -0.0771  0.5773 -1.2823
 8947SOL    HW238475   1.977   0.934   6.987 -0.6510 -2.5430  0.7466
 8948SOL     OW38476   1.022   2.774   2.305 -0.4239 -0.3083 -0.0486
 8948SOL    HW138477   1.008   2.869   2.308 -0.4487 -0.3521  1.0724
 8948SOL    HW238478   0.932   2.745   2.291  0.6395 -2.1016 -3.2495
 8949SOL     OW38479   1.821   1.719  12.243  0.0793 -0.6583  0.3726
 8949SOL    HW138480   1.905   1.750  12.278  0.8621 -0.7021 -1.4683
 8949SOL    HW238481   1.833   1.757  12.156 -0.2418 -0.2477  0.5037
 8950SOL     OW38482   0.637   4.342   1.779  0.3734 -0.0091  0.2408
 8950SOL    HW138483   0.615   4.424   1.823  0.9302 -0.0149  0.5272
 8950SOL    HW238484   0.633   4.374   1.689 -2.5913  0.9839  0.7363
 8951SOL     OW38485   2.676   2.896   3.817 -0.1149 -0.3358  0.5172
 8951SOL    HW138486   2.722   2.850   3.887  1.1622  1.0777  0.6015
 8951SOL    HW238487   2.689   2.985   3.849  2.8142 -0.7194  0.3407
 8952SOL     OW38488   2.826   4.171   0.909  0.4443 -0.3870 -0.1366
 8952SOL    HW138489   2.892   4.171   0.978 -1.7405 -3.2248  1.9115
 8952SOL    HW238490   2.876   4.157   0.828  1.5463 -0.5319  0.5739
 8953SOL     OW38491   4.096   2.786   8.428  0.2598 -0.4496 -0.0528
 8953SOL    HW138492   4.070   2.789   8.336  4.9598  0.5820 -1.3471
 8953SOL    HW238493   4.101   2.879   8.448 -0.2663 -0.2865 -0.6902
 8954SOL     OW38494   0.865   1.986  10.183 -0.3186  0.0890  0.3567
 8954SOL    HW138495   0.777   2.019  10.202 -0.2050  0.5751  0.0344
 8954SOL    HW238496   0.854   1.891  10.189 -0.2151  0.0639  0.1728
 8955SOL     OW38497   2.633   3.802   1.996 -0.3299 -0.5334  0.0817
 8955SOL    HW138498   2.606   3.877   2.048  0.1377  0.0263 -0.4976
 8955SOL    HW238499   2.714   3.779   2.040  1.9171 -1.2247 -4.3861
 8956SOL     OW38500   2.268   2.801   3.835 -0.1802 -0.2421 -0.7049
 8956SOL    HW138501   2.296   2.735   3.899 -0.1774 -1.5918 -2.1177
 8956SOL    HW238502   2.265   2.882   3.886  0.8673 -0.2240 -0.6664
 8957SOL     OW38503   4.190   1.768  17.037  0.1590  0.4347  0.4494
 8957SOL    HW138504   4.233   1.762  16.951 -0.8871  0.9164 -0.1098
 8957SOL    HW238505   4.101   1.800  17.020  0.7405  1.4482 -0.7633
 8958SOL     OW38506   0.949   0.889  13.151  0.5527 -0.6721  0.0413
 8958SOL    HW138507   1.019   0.859  13.093  1.6808  1.0507  0.5023
 8958SOL    HW238508   0.956   0.832  13.227 -2.3861 -0.8718  0.1775
 8959SOL     OW38509   3.827   2.324   8.707  0.0483 -0.0161 -0.2975
 8959SOL    HW138510   3.806   2.336   8.615  2.1411  3.7634 -0.2762
 8959SOL    HW238511   3.918   2.296   8.706  0.4436  1.2603  0.1926
 8960SOL     OW38512   2.221   3.258  11.380  0.1512  0.4347 -0.4333
 8960SOL    HW138513   2.314   3.241  11.367 -0.0060  1.1021 -2.4348
 8960SOL    HW238514   2.189   3.172  11.355  1.3210  0.6419 -2.5799
 8961SOL     OW38515   0.589   4.699   9.806 -0.0359  0.6174  0.6612
 8961SOL    HW138516   0.638   4.713   9.724 -1.4721  1.7067  0.0028
 8961SOL    HW238517   0.639   0.021   9.864  1.9021 -0.7701  0.3833
 8962SOL     OW38518   4.397   1.200   6.862 -0.0870  0.0331  0.3066
 8962SOL    HW138519   4.424   1.157   6.781 -1.2738  0.6782 -0.4322
 8962SOL    HW238520   4.305   1.176   6.872  0.2638 -1.2673  0.4312
 8963SOL     OW38521   4.450   4.156  10.503 -0.2511 -0.3274  0.3795
 8963SOL    HW138522   4.471   4.243  10.536 -1.6946  0.6088 -1.1530
 8963SOL    HW238523   4.361   4.158  10.467  0.0545  0.7261 -0.3022
 8964SOL     OW38524   4.400   0.933   3.159  0.2019 -0.1233  0.4284
 8964SOL    HW138525   4.415   0.870   3.230 -0.9203 -2.2647 -1.2514
 8964SOL    HW238526   4.452   1.007   3.190  0.5792  0.3679 -1.3694
 8965SOL     OW38527   4.421   0.832   3.415  0.2798 -0.0252  0.2624
 8965SOL    HW138528   4.362   0.898   3.452 -0.9141 -0.8480 -0.1729
 8965SOL    HW238529   4.381   0.749   3.441  0.6117 -0.0862  0.5798
 8966SOL     OW38530   2.688   4.667   6.397  0.5792 -0.3283  0.0404
 8966SOL    HW138531   2.713   4.679   6.305  0.2119  2.3719  0.2964
 8966SOL    HW238532   2.718   4.577   6.410 -2.1785 -1.6289 -2.2678
 8967SOL     OW38533   1.578   1.466  14.810  0.1054  0.4425 -0.1707
 8967SOL    HW138534   1.605   1.548  14.854 -2.2301  1.2790 -0.3068
 8967SOL    HW238535   1.571   1.491  14.718 -0.5292  0.5394 -0.0992
 8968SOL     OW38536   4.318   0.928   8.078 -0.5714  0.7065  0.6548
 8968SOL    HW138537   4.373   0.855   8.050 -0.4416  0.5089  1.4294
 8968SOL    HW238538   4.318   0.910   8.172 -3.4411  1.2584  0.7725
 8969SOL     OW38539   1.947   1.844   4.274  0.6284 -0.0878  0.4939
 8969SOL    HW138540   1.865   1.864   4.228  2.0756  0.8482 -1.7048
 8969SOL    HW238541   1.930   1.766   4.326  0.1045  0.0898  0.5935
 8970SOL     OW38542   2.391   4.381   8.180 -0.3142  0.4064 -0.1088
 8970SOL    HW138543   2.407   4.302   8.128 -0.0872  0.1941  0.2831
 8970SOL    HW238544   2.298   4.364   8.194  0.1966 -1.3514  1.2462
 8971SOL     OW38545   4.399   4.603   7.346 -0.4348  0.3072  0.2407
 8971SOL    HW138546   4.406   4.693   7.315 -3.4294  0.7111  0.7094
 8971SOL    HW238547   4.341   4.574   7.276 -0.3968 -0.0921  0.3736
 8972SOL     OW38548   0.838   0.496   0.426 -0.3054 -0.4282  0.0504
 8972SOL    HW138549   0.745   0.517   0.418 -0.3145 -0.7927 -0.7857
 8972SOL    HW238550   0.872   0.558   0.362  0.7410 -0.4583  0.5922
 8973SOL     OW38551   3.166   0.924  14.397  0.3374  0.2365 -0.3369
 8973SOL    HW138552   3.075   0.953  14.405 -0.1235 -2.2055  3.1523
 8973SOL    HW238553   3.186   0.981  14.322  1.2261  0.0067 -0.2679
 8974SOL     OW38554   0.154   1.576   4.923 -0.2237 -0.0983 -0.4544
 8974SOL    HW138555   0.084   1.532   4.875 -0.3133  1.3383 -1.6568
 8974SOL    HW238556   0.107   1.659   4.938  0.9616  0.4678  0.1133
 8975SOL     OW38557   4.730   4.120  14.983 -0.3575 -0.0555 -0.0342
 8975SOL    HW138558   0.029   4.078  15.062  0.2766 -1.2424 -0.9281
 8975SOL    HW238559   4.724   4.048  14.920 -1.0225  1.4578 -1.7042
 8976SOL     OW38560   3.866   4.253   8.567 -0.2747  0.1662 -0.0123
 8976SOL    HW138561   3.872   4.159   8.581  3.3002  0.5925  1.2687
 8976SOL    HW238562   3.858   4.284   8.657 -0.3548  0.2606 -0.0520
 8977SOL     OW38563   4.151   2.286   7.125  0.6446  0.4886  0.2911
 8977SOL    HW138564   4.191   2.342   7.192  1.4090  0.0734  0.1861
 8977SOL    HW238565   4.229   2.251   7.081  0.8501  1.1802  0.1070
 8978SOL     OW38566   2.994   0.873   2.585 -0.3042  0.1395  0.9130
 8978SOL    HW138567   3.064   0.816   2.618  0.7261 -0.9231 -3.1887
 8978SOL    HW238568   2.925   0.820   2.545 -0.3738  1.2295 -0.3926
 8979SOL     OW38569   2.309   1.450   2.686 -1.0462  0.2230 -1.1042
 8979SOL    HW138570   2.288   1.482   2.774  3.7218 -0.0500  0.1093
 8979SOL    HW238571   2.251   1.375   2.677 -1.6144  0.4225  1.0018
 8980SOL     OW38572   4.524   2.373   4.209  0.3815  0.1252  0.0913
 8980SOL    HW138573   4.559   2.433   4.275 -0.3967 -0.3209  0.9038
 8980SOL    HW238574   4.477   2.309   4.262 -0.3015 -1.5025 -2.4757
 8981SOL     OW38575   1.938   1.230  14.302 -0.7576  0.2294 -0.0052
 8981SOL    HW138576   1.951   1.137  14.320  1.5657  0.2968 -1.1724
 8981SOL    HW238577   1.951   1.262  14.391  0.9077  0.4457 -0.3079
 8982SOL     OW38578   0.010   2.950   8.246  0.4491 -0.3007  0.3384
 8982SOL    HW138579   4.703   2.905   8.174  2.4267 -2.2683  0.4259
 8982SOL    HW238580   4.680   2.937   8.315  0.7223 -1.1892  0.4280
 8983SOL     OW38581   2.694   1.208  10.435 -0.5388 -0.7690  0.3215
 8983SOL    HW138582   2.759   1.196  10.504  1.3793  0.4650 -1.2480
 8983SOL    HW238583   2.647   1.281  10.476 -0.2060 -0.2360 -0.2309
 8984SOL     OW38584   1.340   4.480  13.944 -0.2288 -0.0376  0.9187
 8984SOL    HW138585   1.313   4.392  13.968  1.4710 -1.1505 -1.1906
 8984SOL    HW238586   1.297   4.495  13.860  1.0264  0.2263  0.3237
 8985SOL     OW38587   2.736   0.313   6.432  0.2039  0.3057 -0.0856
 8985SOL    HW138588   2.697   0.333   6.518 -0.7430 -0.7544 -0.2625
 8985SOL    HW238589   2.715   0.222   6.413  1.1261  0.2595 -0.8425
 8986SOL     OW38590   4.270   1.370   2.927 -0.5056 -0.4041  0.3461
 8986SOL    HW138591   4.291   1.282   2.898 -1.3438 -1.3075  2.4630
 8986SOL    HW238592   4.270   1.371   3.023 -4.2237  0.7499  0.3758
 8987SOL     OW38593   1.193   3.242   6.999 -0.4466  0.2848  0.5734
 8987SOL    HW138594   1.250   3.318   7.012 -2.2905  1.0074  4.5168
 8987SOL    HW238595   1.253   3.184   7.046 -0.6057 -0.1907  0.1901
 8988SOL     OW38596   4.359   0.117   0.888 -0.1426 -0.4707  0.0929
 8988SOL    HW138597   4.411   0.055   0.837 -1.0738 -1.2441  0.1014
 8988SOL    HW238598   4.379   0.105   0.981  2.9371  1.3398 -0.3417
 8989SOL     OW38599   2.481   3.996  14.816 -0.0196  0.1995  0.0798
 8989SOL    HW138600   2.542   3.972  14.887 -1.9046 -1.4075  1.1557
 8989SOL    HW238601   2.541   4.010  14.743  1.7378 -1.8313  1.1092
 8990SOL     OW38602   3.306   1.896  16.259  0.2059  0.4989 -0.7384
 8990SOL    HW138603   3.219   1.924  16.231 -1.0620  0.0801  2.7561
 8990SOL    HW238604   3.357   1.870  16.182  0.7731 -0.1552 -0.1407
 8991SOL     OW38605   1.598   0.347   2.184  0.2509 -0.2981  0.0810
 8991SOL    HW138606   1.598   0.396   2.102  1.0763  1.2227  0.9784
 8991SOL    HW238607   1.509   0.343   2.218  0.4140 -1.0912  0.4325
 8992SOL     OW38608   0.872   3.262   6.270  0.1640  1.0147  0.0428
 8992SOL    HW138609   0.959   3.230   6.293 -0.8738 -2.4337 -0.8843
 8992SOL    HW238610   0.866   3.327   6.340  1.9251  1.0781  0.1492
 8993SOL     OW38611   0.941   0.555   5.226  1.1788  0.6687 -1.0676
 8993SOL    HW138612   0.884   0.479   5.221 -1.6817  2.9761 -3.1853
 8993SOL    HW238613   1.001   0.536   5.299 -2.9440 -2.7534  1.4422
 8994SOL     OW38614   2.624   4.129   7.194 -0.0390  0.5139  0.4028
 8994SOL    HW138615   2.664   4.213   7.214  0.9630 -0.5817  2.9369
 8994SOL    HW238616   2.584   4.159   7.112  0.7720 -1.5014 -0.7361
 8995SOL     OW38617   2.078   2.191  16.901  0.0551 -0.6726 -0.3110
 8995SOL    HW138618   2.039   2.115  16.944 -1.7939  0.6552  0.3741
 8995SOL    HW238619   2.040   2.265  16.948 -0.5502 -1.7219  0.8351
 8996SOL     OW38620   2.782   3.373   2.942 -0.4161 -0.0047 -0.5888
 8996SOL    HW138621   2.858   3.323   2.913  0.4769 -0.0177  1.7737
 8996SOL    HW238622   2.728   3.304   2.981  0.2520 -0.7929 -1.0806
 8997SOL     OW38623   0.085   1.732   9.782  0.5972 -0.0357  0.7053
 8997SOL    HW138624   0.173   1.741   9.819  0.0819  3.1078  1.1197
 8997SOL    HW238625   0.055   1.645   9.810  0.9780 -0.2655  0.4035
 8998SOL     OW38626   2.497   2.977   4.040  0.0152 -0.1907 -0.4540
 8998SOL    HW138627   2.551   3.013   3.970  1.9859  0.3881  1.3372
 8998SOL    HW238628   2.420   3.034   4.038  0.6192  0.6389 -0.1329
 8999SOL     OW38629   1.686   0.363   3.290 -0.4915 -0.1440 -0.3038
 8999SOL    HW138630   1.734   0.399   3.216 -2.3744  0.7347 -1.1008
 8999SOL    HW238631   1.699   0.270   3.274 -0.9777  0.0292 -1.7268
 9000SOL     OW38632   3.736   0.381   3.376 -0.0599 -0.0830 -0.1536
 9000SOL    HW138633   3.742   0.350   3.286 -0.1861 -2.2538  0.5905
 9000SOL    HW238634   3.694   0.301   3.409 -1.1063  0.0062 -1.2698
 9001SOL     OW38635   1.065   1.009   3.664  0.4971 -0.2413  0.3580
 9001SOL    HW138636   1.010   1.015   3.743  0.3106  0.3028  0.1886
 9001SOL    HW238637   1.086   0.917   3.648  0.7716 -0.1688  0.3157
 9002SOL     OW38638   0.704   3.712  12.224  0.1441 -0.3585 -0.0310
 9002SOL    HW138639   0.730   3.735  12.313 -2.6644  0.8214  0.4808
 9002SOL    HW238640   0.615   3.678  12.233 -0.1579  0.9890  2.0839
 9003SOL     OW38641   3.153   2.937  11.528 -0.1785 -0.2823 -0.0898
 9003SOL    HW138642   3.148   2.954  11.622  1.0554  1.3593 -0.3210
 9003SOL    HW238643   3.209   3.014  11.520 -2.3821  1.5898  2.4724
 9004SOL     OW38644   0.750   0.838   6.823  0.1931 -0.4314  0.4328
 9004SOL    HW138645   0.745   0.807   6.732 -2.0862  0.0511  0.3908
 9004SOL    HW238646   0.740   0.760   6.878  0.2448 -1.0108 -0.3693
 9005SOL     OW38647   0.823   0.476  16.943  0.3074 -0.3622 -0.4182
 9005SOL    HW138648   0.753   0.505  16.884  0.5860  2.7592  0.8274
 9005SOL    HW238649   0.838   0.552  16.999  1.7154 -0.5683 -0.5290
 9006SOL     OW38650   4.351   4.364  11.230  0.1531 -0.1487  0.0442
 9006SOL    HW138651   4.419   4.422  11.267 -1.7930  1.2568  1.4242
 9006SOL    HW238652   4.282   4.428  11.214  0.4368  0.1541  0.0140
 9007SOL     OW38653   3.485   4.152  10.173 -0.6576 -0.4076 -0.4963
 9007SOL    HW138654   3.579   4.146  10.156 -0.4877 -0.3538  0.4444
 9007SOL    HW238655   3.450   4.180  10.088 -0.7831 -1.3833 -0.7761
 9008SOL     OW38656   0.846   2.949   7.431 -0.3225  0.4253  0.3564
 9008SOL    HW138657   0.890   2.877   7.387  0.4636  0.9820  0.2343
 9008SOL    HW238658   0.778   2.966   7.366  1.1890  0.6728 -1.1594
 9009SOL     OW38659   1.552   4.668   3.771 -0.6868 -0.0421  0.1352
 9009SOL    HW138660   1.483   4.687   3.707  1.0269  0.1053 -1.6823
 9009SOL    HW238661   1.530   4.581   3.804 -1.6591 -0.5469 -1.8535
 9010SOL     OW38662   2.375   0.629   6.981 -0.3339  0.4902 -0.7327
 9010SOL    HW138663   2.394   0.704   6.925 -0.1770  2.7456  2.3929
 9010SOL    HW238664   2.287   0.657   7.005 -0.5570  0.8746 -2.0104
 9011SOL     OW38665   3.370   2.378   5.975  0.0237 -0.1354 -0.4117
 9011SOL    HW138666   3.410   2.459   6.007 -0.0721 -0.3066  0.1366
 9011SOL    HW238667   3.417   2.306   6.019  1.5938  1.0462 -0.1712
 9012SOL     OW38668   4.705   2.694  15.898  0.2615  0.5680 -0.2268
 9012SOL    HW138669   0.007   2.772  15.857 -2.0541  3.3958  3.0714
 9012SOL    HW238670   4.695   2.724  15.989 -0.5035  3.4367 -1.2453
 9013SOL     OW38671   4.315   4.302   1.229 -0.2023  0.3141 -0.2072
 9013SOL    HW138672   4.379   4.308   1.300 -1.6946  1.2680  1.0542
 9013SOL    HW238673   4.365   4.345   1.159 -0.4835 -0.8309 -1.1085
 9014SOL     OW38674   3.152   3.641   2.260 -0.2499 -0.3564  0.1124
 9014SOL    HW138675   3.226   3.660   2.202  0.9233 -2.7088  0.8364
 9014SOL    HW238676   3.177   3.664   2.350 -0.4949  1.0521 -0.1878
 9015SOL     OW38677   0.590   2.194  12.073  0.6061  0.1289  0.4529
 9015SOL    HW138678   0.502   2.232  12.079  0.7507 -0.0506  4.2532
 9015SOL    HW238679   0.637   2.253  12.132 -0.5180 -0.0056  1.5005
 9016SOL     OW38680   1.711   0.303   9.143 -0.0047 -0.3640 -0.1482
 9016SOL    HW138681   1.745   0.215   9.161  2.6853  0.6872 -0.0835
 9016SOL    HW238682   1.716   0.297   9.048  1.9387  0.5538 -0.1146
 9017SOL     OW38683   3.646   2.974  12.876  0.1258  0.5537  0.8246
 9017SOL    HW138684   3.708   3.000  12.944  0.4585  3.0897 -0.4683
 9017SOL    HW238685   3.562   3.009  12.905 -0.2650 -0.4546  0.9253
 9018SOL     OW38686   2.506   4.714   8.550 -0.9841 -0.5052 -0.7000
 9018SOL    HW138687   2.533   4.677   8.634  0.4326  0.4208 -0.7436
 9018SOL    HW238688   2.516   4.641   8.488  1.1529 -0.5548 -0.3035
 9019SOL     OW38689   1.383   1.577   3.590 -0.1866  0.0880  0.2285
 9019SOL    HW138690   1.426   1.492   3.599 -0.1133 -0.1527 -2.3780
 9019SOL    HW238691   1.356   1.599   3.679  0.2013 -1.9043  0.8463
 9020SOL     OW38692   0.294   4.342   8.264  0.7400 -0.3102  0.2953
 9020SOL    HW138693   0.221   4.393   8.229  1.0556 -0.4901 -0.6210
 9020SOL    HW238694   0.352   4.403   8.309  0.8431 -0.1336 -0.0810
 9021SOL     OW38695   4.460   3.106   3.322 -0.1487  0.3689  0.0859
 9021SOL    HW138696   4.496   3.128   3.236 -1.1344  0.6185 -0.2688
 9021SOL    HW238697   4.459   3.010   3.321  4.4320  0.3198  3.3856
 9022SOL     OW38698   1.032   3.375   3.058  0.1999  0.2266  0.3033
 9022SOL    HW138699   0.995   3.461   3.035  0.3606  0.1910 -0.0961
 9022SOL    HW238700   1.063   3.385   3.148  0.2091 -0.9400  0.4182
 9023SOL     OW38701   3.556   0.825   4.732 -0.5546  0.3110  0.0947
 9023SOL    HW138702   3.493   0.871   4.788 -1.8764  0.9085 -1.8777
 9023SOL    HW238703   3.636   0.849   4.779 -0.8345  1.8334 -0.2122
 9024SOL     OW38704   3.471   4.000   9.812  0.2223 -0.0781  0.2808
 9024SOL    HW138705   3.392   3.969   9.857  0.1541  0.2908  0.4167
 9024SOL    HW238706   3.453   3.977   9.721 -1.7558  2.1904  0.0874
 9025SOL     OW38707   2.690   2.913   2.948 -0.1648 -0.1894  0.6031
 9025SOL    HW138708   2.782   2.901   2.970 -0.0018  2.1915  1.2369
 9025SOL    HW238709   2.658   2.962   3.024 -0.4408  1.3761 -0.5084
 9026SOL     OW38710   2.409   3.513   8.304  0.2702  0.3483  0.0426
 9026SOL    HW138711   2.338   3.449   8.295 -2.8476  4.2999 -3.6597
 9026SOL    HW238712   2.457   3.504   8.222 -0.2513  1.1085 -0.3466
 9027SOL     OW38713   4.005   1.049   4.366  0.0122 -0.0180 -0.1872
 9027SOL    HW138714   4.065   1.122   4.352 -0.6248  0.3461 -0.9999
 9027SOL    HW238715   4.049   1.008   4.441 -0.3824 -0.0552  0.0230
 9028SOL     OW38716   2.500   2.006   8.254  0.5081  0.5622  0.0006
 9028SOL    HW138717   2.519   2.057   8.175  3.4077 -1.7097 -0.7584
 9028SOL    HW238718   2.405   1.996   8.245  0.6252 -0.9946  0.5260
 9029SOL     OW38719   1.022   1.443   1.258  0.5806  0.4289  0.1049
 9029SOL    HW138720   1.013   1.520   1.315  1.2490  0.5229  0.0769
 9029SOL    HW238721   1.109   1.449   1.220  1.0473  0.7526  1.2127
 9030SOL     OW38722   3.124   1.650  12.024 -0.3887 -0.2749 -0.1249
 9030SOL    HW138723   3.103   1.639  11.931 -0.0320  1.5385 -0.4269
 9030SOL    HW238724   3.187   1.579  12.039  2.5110  2.5232  1.0670
 9031SOL     OW38725   3.001   1.436   5.518  0.2858  0.4950 -0.0224
 9031SOL    HW138726   3.054   1.376   5.570 -0.9229  1.6893  2.6200
 9031SOL    HW238727   3.015   1.396   5.432  2.7155  0.9755  0.1770
 9032SOL     OW38728   3.366   1.984   2.756  0.0819  0.5565 -0.4812
 9032SOL    HW138729   3.453   1.947   2.766 -0.6889 -0.8659  1.0365
 9032SOL    HW238730   3.309   1.921   2.801 -0.0597  0.5563 -0.6606
 9033SOL     OW38731   4.606   4.327   2.202 -0.1696  0.6096 -0.2664
 9033SOL    HW138732   4.534   4.290   2.151 -0.2587 -0.1139  0.3999
 9033SOL    HW238733   4.569   4.352   2.286  1.5935 -0.2194  0.7705
 9034SOL     OW38734   1.031   3.861  15.687  0.7082 -0.2939  0.4061
 9034SOL    HW138735   1.062   3.842  15.776 -1.2131 -0.3733  1.0576
 9034SOL    HW238736   1.044   3.956  15.689 -0.9765 -0.0464 -0.7646
 9035SOL     OW38737   2.823   4.471   0.580 -0.2935  0.0706  0.0912
 9035SOL    HW138738   2.824   4.380   0.551  1.3847 -0.0243  0.4312
 9035SOL    HW238739   2.774   4.450   0.660  0.5201 -0.9780  0.3164
 9036SOL     OW38740   4.429   2.342   2.882  0.4320  0.1212 -0.0424
 9036SOL    HW138741   4.469   2.429   2.878 -0.9518  0.7951  1.0653
 9036SOL    HW238742   4.478   2.296   2.950  2.3511  1.7340 -0.3011
 9037SOL     OW38743   0.061   0.559  14.635  0.0205 -0.6105 -0.7193
 9037SOL    HW138744   0.048   0.611  14.556  2.0800 -0.7756 -1.1472
 9037SOL    HW238745   4.709   0.518  14.634 -0.2333 -0.2417  3.1868
 9038SOL     OW38746   2.574   4.458   3.653  0.3048 -0.3304  0.3964
 9038SOL    HW138747   2.480   4.443   3.644  0.5777 -0.9412 -1.4794
 9038SOL    HW238748   2.605   4.372   3.682 -0.2622 -1.0521 -1.1396
 9039SOL     OW38749   3.090   3.823   3.515  0.0129  0.2446  0.0359
 9039SOL    HW138750   3.135   3.883   3.456 -0.6767  0.9514  0.2237
 9039SOL    HW238751   3.168   3.780   3.550 -0.2326 -0.1290  0.1213
 9040SOL     OW38752   3.909   3.442  17.436 -0.4978  0.0173 -0.1489
 9040SOL    HW138753   4.002   3.429  17.416 -0.4003 -1.6265  1.3011
 9040SOL    HW238754   3.907   3.509  17.368 -1.1733  0.4036  0.2492
 9041SOL     OW38755   2.695   3.198   5.182 -0.2360  0.0165  0.1560
 9041SOL    HW138756   2.777   3.208   5.134  0.6555 -1.9305  1.2946
 9041SOL    HW238757   2.644   3.164   5.108  1.2147  0.5039 -1.0413
 9042SOL     OW38758   1.990   1.374   5.889 -0.0977  0.9011 -0.5094
 9042SOL    HW138759   1.921   1.334   5.942  0.3248  0.2299 -0.4810
 9042SOL    HW238760   1.959   1.465   5.882  1.1469  1.1574 -2.5699
 9043SOL     OW38761   3.200   1.637   7.381 -0.5762  0.6492 -0.2200
 9043SOL    HW138762   3.144   1.566   7.349 -1.8192  2.0873 -1.2219
 9043SOL    HW238763   3.280   1.586   7.368 -0.5134  0.8595 -0.6671
 9044SOL     OW38764   4.348   2.933   9.565 -0.0905  0.0831  0.6431
 9044SOL    HW138765   4.387   3.002   9.511 -0.1471 -0.9141 -0.6644
 9044SOL    HW238766   4.255   2.943   9.543  0.8779  2.3555 -2.3996
 9045SOL     OW38767   0.736   4.061  12.353 -0.0019 -0.2908  0.2236
 9045SOL    HW138768   0.714   4.128  12.418 -1.8759 -1.6985  1.0569
 9045SOL    HW238769   0.738   3.977  12.400 -1.6158  0.3760  1.4889
 9046SOL     OW38770   2.115   1.745  16.693 -0.0746  0.5746 -0.3766
 9046SOL    HW138771   2.142   1.703  16.611 -1.2451  1.2452 -1.0936
 9046SOL    HW238772   2.187   1.804  16.716 -1.8497  2.1234  1.0699
 9047SOL     OW38773   0.196   2.276   8.118 -0.7016 -0.1260 -0.9084
 9047SOL    HW138774   0.209   2.223   8.196 -1.5154  0.2854 -0.4908
 9047SOL    HW238775   0.195   2.207   8.051  1.2580  0.1692 -1.2282
 9048SOL     OW38776   2.184   4.384   5.928  0.2086  0.0726  0.0238
 9048SOL    HW138777   2.199   4.397   6.022 -0.7337  3.1055 -0.2547
 9048SOL    HW238778   2.089   4.374   5.924  0.0840  0.8938  0.9338
 9049SOL     OW38779   0.486   0.642   6.702  0.0802  0.3625 -0.1688
 9049SOL    HW138780   0.469   0.565   6.757  0.9434 -1.0352 -1.8549
 9049SOL    HW238781   0.581   0.640   6.694  0.1832  0.7336  0.9824
 9050SOL     OW38782   1.288   1.465   2.763 -0.1920  0.1458  0.1755
 9050SOL    HW138783   1.340   1.517   2.825  1.9844  0.0838 -1.5778
 9050SOL    HW238784   1.206   1.511   2.779  0.4836  1.3123  0.3326
 9051SOL     OW38785   0.840   4.582   3.266 -0.6261 -0.2552 -0.6063
 9051SOL    HW138786   0.750   4.569   3.294 -0.2157  1.4827  1.4910
 9051SOL    HW238787   0.840   4.660   3.211  1.4123  2.8518  3.7599
 9052SOL     OW38788   4.326   4.070   8.029 -0.1432 -0.0077 -0.4202
 9052SOL    HW138789   4.355   4.061   7.939 -1.3779  1.0476 -0.9207
 9052SOL    HW238790   4.231   4.061   8.023 -0.5420  1.7166  3.1366
 9053SOL     OW38791   3.179   4.692   0.346 -0.2358 -0.1413  0.2955
 9053SOL    HW138792   3.143   0.046   0.339  1.8214  0.6976  0.2555
 9053SOL    HW238793   3.124   4.661   0.418 -0.7971  0.9980  0.3675
 9054SOL     OW38794   1.722   3.405   1.494  0.0366  0.2496 -0.7328
 9054SOL    HW138795   1.804   3.414   1.543 -1.1324 -2.3359  1.6507
 9054SOL    HW238796   1.695   3.324   1.536  0.3255  0.7580  0.4403
 9055SOL     OW38797   3.638   1.876   2.728 -0.3967  0.0716  0.5904
 9055SOL    HW138798   3.728   1.884   2.759 -0.4868  1.3693  0.5061
 9055SOL    HW238799   3.606   1.818   2.797  0.9475  0.7668  1.7859
 9056SOL     OW38800   0.686   3.115   9.099 -0.0186 -0.6736 -0.0185
 9056SOL    HW138801   0.728   3.123   9.014 -0.1038 -0.7872 -0.0703
 9056SOL    HW238802   0.677   3.020   9.108  0.4490 -0.5047  2.3320
 9057SOL     OW38803   2.202   4.265  16.615  0.1602  0.3352  0.0493
 9057SOL    HW138804   2.177   4.357  16.618 -1.8978 -0.3192  3.1995
 9057SOL    HW238805   2.247   4.257  16.699  2.0305 -0.9838 -1.0776
 9058SOL     OW38806   3.712   3.092  16.628 -0.0258 -0.0197 -0.1873
 9058SOL    HW138807   3.786   3.031  16.632 -0.9367 -1.1628 -1.0904
 9058SOL    HW238808   3.749   3.159  16.686  1.0467 -0.9948  0.2651
 9059SOL     OW38809   3.711   2.831   8.225 -0.1059  0.1287  0.3108
 9059SOL    HW138810   3.679   2.759   8.170 -0.9962  0.5654  0.2611
 9059SOL    HW238811   3.656   2.902   8.193  0.0462  0.5550  1.0039
 9060SOL     OW38812   4.696   1.702   4.241 -0.3344 -0.0342  0.2736
 9060SOL    HW138813   4.644   1.739   4.170  0.5522 -0.9102 -0.8242
 9060SOL    HW238814   4.632   1.655   4.293  0.6471 -0.7653  0.8222
 9061SOL     OW38815   2.548   2.008   1.754  0.0256 -0.2814 -0.1184
 9061SOL    HW138816   2.566   1.938   1.691 -0.2993 -0.2643 -0.2342
 9061SOL    HW238817   2.455   1.996   1.776 -0.0026 -0.2589 -0.2248
 9062SOL     OW38818   0.997   3.377   9.174 -0.1299  0.2273  0.3507
 9062SOL    HW138819   1.076   3.377   9.229 -1.8493  0.0373  2.8464
 9062SOL    HW238820   1.030   3.318   9.106  1.3580 -1.1775  2.2765
 9063SOL     OW38821   2.191   0.701   5.883  0.3879  0.2204  0.5562
 9063SOL    HW138822   2.202   0.621   5.933 -5.4667 -0.3965  0.8709
 9063SOL    HW238823   2.238   0.689   5.801  0.0039  0.8833  0.2315
 9064SOL     OW38824   4.351   2.599  11.077  0.1349  0.1460 -0.4945
 9064SOL    HW138825   4.421   2.596  11.012  1.2436  4.6887  0.4380
 9064SOL    HW238826   4.362   2.693  11.092 -0.4268  0.4298 -1.8507
 9065SOL     OW38827   0.634   0.323   8.478  0.2126 -0.1027  0.1701
 9065SOL    HW138828   0.575   0.361   8.543 -0.4897 -2.2116  0.7636
 9065SOL    HW238829   0.612   0.379   8.404  0.6539  0.1165  0.2063
 9066SOL     OW38830   1.626   3.079  15.294 -0.2481 -0.1909  0.1048
 9066SOL    HW138831   1.622   2.994  15.248 -0.3571 -0.5676  0.8138
 9066SOL    HW238832   1.595   3.135  15.223 -0.1700  1.1256  1.1259
 9067SOL     OW38833   0.739   4.491  15.261  0.1256  0.1370 -0.0423
 9067SOL    HW138834   0.718   4.573  15.215  2.9648  0.3962 -0.8862
 9067SOL    HW238835   0.670   4.498  15.327  0.3670 -0.3833  0.2601
 9068SOL     OW38836   3.158   3.399   8.506 -0.1640  0.3976 -0.1747
 9068SOL    HW138837   3.145   3.483   8.463  1.5257  0.0980 -1.2560
 9068SOL    HW238838   3.228   3.406   8.571  0.3606  0.7155 -0.7768
 9069SOL     OW38839   2.101   3.066  10.654 -0.3735  0.2179  0.0762
 9069SOL    HW138840   2.012   3.043  10.680 -1.1241 -0.5910 -3.2139
 9069SOL    HW238841   2.128   3.119  10.729 -0.6609  2.4268 -1.4131
 9070SOL     OW38842   2.312   3.561  15.467  0.4440 -0.4831  0.0257
 9070SOL    HW138843   2.279   3.540  15.380  0.5214 -1.8389  0.3312
 9070SOL    HW238844   2.387   3.502  15.465  0.3841 -0.5519 -0.2135
 9071SOL     OW38845   0.006   1.439   6.290  0.4500  0.7185 -0.3476
 9071SOL    HW138846   0.099   1.451   6.271  0.6726  1.0045  0.8730
 9071SOL    HW238847   4.734   1.346   6.312  0.6443  1.0972  1.3278
 9072SOL     OW38848   0.341   3.007   6.044 -1.2129  0.0031 -0.5298
 9072SOL    HW138849   0.402   3.048   6.106 -2.5210  0.1479  0.6510
 9072SOL    HW238850   0.349   2.920   6.085  1.7110  1.1945  1.4567
 9073SOL     OW38851   1.229   4.699  11.188 -0.2555  0.1748  0.0778
 9073SOL    HW138852   1.246   4.605  11.186 -0.2174  0.1314  2.0097
 9073SOL    HW238853   1.308   0.003  11.152  0.1259 -0.1305  0.5781
 9074SOL     OW38854   0.683   3.764   0.181  0.0900  0.4924  0.2745
 9074SOL    HW138855   0.682   3.679   0.136 -1.1795  0.5532  0.1718
 9074SOL    HW238856   0.615   3.745   0.246  0.0905 -3.4032 -0.8487
 9075SOL     OW38857   3.847   1.254   2.546 -0.6094 -0.1719  0.1243
 9075SOL    HW138858   3.756   1.275   2.524 -0.2787  0.3068 -0.7538
 9075SOL    HW238859   3.823   1.192   2.616 -0.2207  1.3867  1.6461
 9076SOL     OW38860   2.978   4.288  17.622 -0.1285 -0.8679  0.1330
 9076SOL    HW138861   3.024   4.214  17.663  0.6672 -0.7894 -0.6062
 9076SOL    HW238862   3.030   4.295  17.542 -0.9098  2.3161 -0.0771
 9077SOL     OW38863   2.682   1.026   9.938 -0.2678  0.5296 -0.4576
 9077SOL    HW138864   2.713   1.081  10.011 -0.2213 -2.1720  1.5632
 9077SOL    HW238865   2.595   1.067   9.936  0.1601  1.6206  2.1753
 9078SOL     OW38866   4.230   1.099   0.150 -0.2707 -0.8014  0.1145
 9078SOL    HW138867   4.301   1.082   0.089 -0.3504 -0.3036 -0.1107
 9078SOL    HW238868   4.205   1.184   0.114  4.0649  0.8388  0.9874
 9079SOL     OW38869   4.624   3.680   6.443 -0.2497  0.1822 -0.1363
 9079SOL    HW138870   4.644   3.596   6.401  1.4946 -0.2492  1.5703
 9079SOL    HW238871   4.678   3.743   6.396 -1.4472  1.4719  0.2073
 9080SOL     OW38872   3.688   4.504  16.827  0.0765 -0.4283 -0.2021
 9080SOL    HW138873   3.658   4.414  16.834 -3.4477  0.7882  0.4028
 9080SOL    HW238874   3.695   4.535  16.917  2.1704 -1.2994 -0.0660
 9081SOL     OW38875   4.648   1.843   1.847  0.2130  0.2625  0.4144
 9081SOL    HW138876   4.689   1.911   1.794 -0.5395  0.4385  0.0642
 9081SOL    HW238877   4.680   1.767   1.798 -1.6165  0.3908 -0.9833
 9082SOL     OW38878   0.675   3.546  15.120 -0.1422  0.2643  0.1968
 9082SOL    HW138879   0.701   3.541  15.028 -1.9351 -0.6763 -0.2587
 9082SOL    HW238880   0.749   3.507  15.167 -0.4581  2.0298  2.1453
 9083SOL     OW38881   3.619   1.495   9.831 -0.1507  0.4246 -0.2318
 9083SOL    HW138882   3.532   1.459   9.848 -0.4204  2.3307  2.5565
 9083SOL    HW238883   3.625   1.486   9.736 -0.3250  2.3365 -0.4293
 9084SOL     OW38884   3.805   2.054  12.399 -0.2183  0.0696 -0.9040
 9084SOL    HW138885   3.714   2.039  12.375 -0.6026 -1.4604  1.5612
 9084SOL    HW238886   3.828   1.965  12.423  3.6407  0.7574 -1.9824
 9085SOL     OW38887   1.968   0.089  15.340  0.3821  0.0565  0.1071
 9085SOL    HW138888   1.944   0.034  15.415  2.0785 -0.8547 -0.0328
 9085SOL    HW238889   1.964   0.168  15.395  0.4407  0.8129 -0.9776
 9086SOL     OW38890   3.099   3.223   6.096  0.0580 -0.0320 -0.1456
 9086SOL    HW138891   3.137   3.142   6.130  1.3308  1.2409  1.4560
 9086SOL    HW238892   3.181   3.270   6.082 -0.1255  0.0941 -0.7854
 9087SOL     OW38893   1.713   3.774   2.814 -0.1075 -0.2912  0.4026
 9087SOL    HW138894   1.620   3.764   2.835 -1.0601  2.5535 -2.5708
 9087SOL    HW238895   1.701   3.853   2.762  3.8105 -0.8005 -1.2253
 9088SOL     OW38896   4.381   2.477   9.995 -0.0489 -0.2894  0.1995
 9088SOL    HW138897   4.360   2.440  10.081 -1.1055  1.4703  0.6951
 9088SOL    HW238898   4.292   2.484   9.961 -0.2542 -1.2594  0.5200
 9089SOL     OW38899   2.232   2.841  13.642 -0.0681  0.3706 -0.0637
 9089SOL    HW138900   2.163   2.896  13.679 -0.5028 -0.4228  0.3130
 9089SOL    HW238901   2.311   2.895  13.645 -0.1353  0.4805 -0.2674
 9090SOL     OW38902   4.025   3.090   3.693 -0.4325 -0.2533 -0.1226
 9090SOL    HW138903   3.947   3.034   3.684 -0.0394 -0.7747 -0.2741
 9090SOL    HW238904   3.998   3.165   3.641  1.5271  0.0388 -0.7141
 9091SOL     OW38905   2.323   2.058  13.282  0.0323  0.0121  0.0871
 9091SOL    HW138906   2.251   2.115  13.255 -0.1324 -1.9044 -3.5533
 9091SOL    HW238907   2.360   2.021  13.201  2.5945 -0.2192  1.3494
 9092SOL     OW38908   0.502   4.503   4.506  0.1058  0.0745 -0.0927
 9092SOL    HW138909   0.554   4.432   4.468  0.7791  1.1127 -1.1207
 9092SOL    HW238910   0.448   4.511   4.426  0.2122 -1.0884 -0.2732
 9093SOL     OW38911   1.147   4.729   4.162 -0.3206  0.2251  0.2090
 9093SOL    HW138912   1.190   0.055   4.222 -2.0507  3.0030 -1.3870
 9093SOL    HW238913   1.216   4.669   4.136 -1.4043 -1.4865  1.2813
 9094SOL     OW38914   3.651   0.392   6.897 -0.2669 -0.8124 -0.4062
 9094SOL    HW138915   3.558   0.376   6.880 -0.1049 -0.1477 -1.9433
 9094SOL    HW238916   3.687   0.314   6.856  0.7546 -1.4081  1.6143
 9095SOL     OW38917   3.685   0.701   8.595 -0.0915 -0.3071  0.0491
 9095SOL    HW138918   3.667   0.662   8.510 -2.3925  0.3194  0.2558
 9095SOL    HW238919   3.650   0.789   8.580  2.8395  0.8105 -0.3059
 9096SOL     OW38920   4.553   2.244   9.415 -0.2816 -0.4192 -0.6369
 9096SOL    HW138921   4.524   2.291   9.337 -1.7411  1.3829  1.0083
 9096SOL    HW238922   4.596   2.169   9.373 -0.3921 -1.1332  0.5317
 9097SOL     OW38923   1.509   1.325   5.384  0.4216  0.6699 -0.3755
 9097SOL    HW138924   1.498   1.270   5.306 -0.8124  1.0577 -0.4789
 9097SOL    HW238925   1.418   1.343   5.410  0.8579 -1.1113  2.3185
 9098SOL     OW38926   1.341   4.114   8.958  0.2262  0.6409 -0.0339
 9098SOL    HW138927   1.326   4.032   8.912  1.2068 -0.3677  1.4407
 9098SOL    HW238928   1.260   4.118   9.010 -0.0763  0.9465 -0.5237
 9099SOL     OW38929   1.251   1.430  13.689 -0.2629 -0.4687  0.1052
 9099SOL    HW138930   1.216   1.397  13.606  0.2956  0.8368 -0.6654
 9099SOL    HW238931   1.211   1.368  13.750  1.4074 -2.7461 -1.0965
 9100SOL     OW38932   0.553   0.795   3.328  0.3656 -0.4122 -0.4191
 9100SOL    HW138933   0.511   0.739   3.263  0.2263 -2.4101  1.4010
 9100SOL    HW238934   0.633   0.828   3.287  0.8209  2.7253  2.9460
 9101SOL     OW38935   1.739   4.436   4.209 -0.0509  0.1059 -0.3059
 9101SOL    HW138936   1.791   4.503   4.253  1.0433 -1.5120  0.8333
 9101SOL    HW238937   1.669   4.419   4.273  0.6210 -1.9093 -0.1175
 9102SOL     OW38938   1.444   3.069   4.771 -0.5424  0.1753 -0.0228
 9102SOL    HW138939   1.364   3.060   4.719 -0.3230 -0.6164 -0.2302
 9102SOL    HW238940   1.412   3.130   4.838 -0.5265  0.9620 -0.7310
 9103SOL     OW38941   0.099   0.857  17.354 -0.2050 -1.2637 -0.2487
 9103SOL    HW138942   0.107   0.841  17.260 -0.7496  2.4818 -0.9562
 9103SOL    HW238943   0.133   0.946  17.367  2.1905 -2.0830 -0.8101
 9104SOL     OW38944   0.513   2.401   9.836 -0.0321 -0.5237  0.7358
 9104SOL    HW138945   0.581   2.334   9.830  0.8595  0.7008 -2.9132
 9104SOL    HW238946   0.484   2.416   9.745  0.2677  1.2021  0.9140
 9105SOL     OW38947   0.465   4.232   5.314 -0.1478 -0.0032  0.4143
 9105SOL    HW138948   0.473   4.327   5.311  0.6560 -0.1356 -1.6424
 9105SOL    HW238949   0.406   4.211   5.242 -2.0534 -1.9440  2.5830
 9106SOL     OW38950   1.889   1.168   4.853 -0.0826 -0.3912 -0.2632
 9106SOL    HW138951   1.926   1.186   4.939 -0.5718  1.1104 -0.3702
 9106SOL    HW238952   1.953   1.205   4.793  2.2610 -2.6009  0.8950
 9107SOL     OW38953   3.202   4.295   4.194 -0.0234 -0.2010 -0.0680
 9107SOL    HW138954   3.213   4.323   4.103  1.6059 -1.7293 -0.3554
 9107SOL    HW238955   3.252   4.213   4.186  1.0142  0.4351 -0.1037
 9108SOL     OW38956   3.419   3.282   6.597  0.3865 -0.2087 -0.2110
 9108SOL    HW138957   3.452   3.292   6.508 -0.0447  0.0189 -0.3429
 9108SOL    HW238958   3.504   3.269   6.640  0.8344  1.1911 -0.6747
 9109SOL     OW38959   3.928   1.836  17.001  0.3191  0.4445 -0.3071
 9109SOL    HW138960   3.945   1.927  17.025 -1.5875  0.5548  0.6191
 9109SOL    HW238961   3.836   1.815  17.016  1.4268 -2.9915  1.7786
 9110SOL     OW38962   0.970   4.182   1.999  0.4074 -0.8427 -0.0015
 9110SOL    HW138963   1.019   4.100   1.997  0.7725 -0.6672  1.6427
 9110SOL    HW238964   0.964   4.201   1.905 -1.9492  1.0246  0.5138
 9111SOL     OW38965   0.339   0.432   2.731 -0.3153  0.6285 -0.9479
 9111SOL    HW138966   0.256   0.478   2.728 -1.0025 -0.6068 -0.8636
 9111SOL    HW238967   0.378   0.454   2.646  0.2646  1.3446 -0.5001
 9112SOL     OW38968   0.051   4.134   7.384 -0.2118  0.2484  0.0373
 9112SOL    HW138969   0.026   4.217   7.345  0.3405  0.9754  1.2528
 9112SOL    HW238970   0.005   4.072   7.326 -0.4116 -1.9246  2.5193
 9113SOL     OW38971   4.300   0.819  12.955 -0.5514  0.0082 -0.2401
 9113SOL    HW138972   4.207   0.837  12.945 -0.6063 -0.5177 -0.6844
 9113SOL    HW238973   4.301   0.739  13.007  3.0526  0.6455  0.6744
 9114SOL     OW38974   0.934   3.414   6.497 -0.1707  0.5714 -0.1140
 9114SOL    HW138975   1.000   3.351   6.527  0.1197 -0.0449 -1.9904
 9114SOL    HW238976   0.877   3.411   6.574 -0.7574 -0.4580 -0.5832
 9115SOL     OW38977   2.887   1.033   9.064  0.1273 -0.3070  0.1193
 9115SOL    HW138978   2.873   1.072   8.978  0.9131  1.4415  0.7848
 9115SOL    HW238979   2.797   1.006   9.085 -0.5298  1.2564 -0.7430
 9116SOL     OW38980   1.156   3.469   1.898  0.2246 -0.5048 -0.6054
 9116SOL    HW138981   1.173   3.402   1.832 -2.4806 -2.4523  0.7101
 9116SOL    HW238982   1.081   3.426   1.939 -0.6916 -0.2653 -2.0306
 9117SOL     OW38983   0.767   3.222   5.129 -0.4951 -1.0138  0.0634
 9117SOL    HW138984   0.697   3.182   5.078 -1.4052 -1.8020  1.9404
 9117SOL    HW238985   0.774   3.155   5.197 -2.4890  0.7174  1.9637
 9118SOL     OW38986   4.361   2.611   0.575  0.0685  0.0638 -0.0925
 9118SOL    HW138987   4.271   2.630   0.602 -0.0304  0.6620 -0.8277
 9118SOL    HW238988   4.405   2.668   0.639  1.2678 -0.3611 -0.5444
 9119SOL     OW38989   1.433   4.196  10.613  0.1855  0.0374  0.1692
 9119SOL    HW138990   1.471   4.212  10.526 -2.1542  4.0387 -0.0880
 9119SOL    HW238991   1.493   4.127  10.643  0.6473  0.4978  0.2933
 9120SOL     OW38992   2.281   2.189  10.166  0.3604 -0.0832  0.2449
 9120SOL    HW138993   2.348   2.251  10.196 -2.3184  1.5095  2.9528
 9120SOL    HW238994   2.297   2.113  10.221  0.5459 -0.3167 -0.1335
 9121SOL     OW38995   2.050   1.981   5.694 -0.0906 -0.9395  0.9490
 9121SOL    HW138996   2.012   2.062   5.728  2.7352 -0.0170  1.8530
 9121SOL    HW238997   1.967   1.934   5.679 -2.5645  3.3867  1.1380
 9122SOL     OW38998   1.259   2.947   6.517  0.3188  0.7048 -0.2382
 9122SOL    HW138999   1.318   2.991   6.456 -1.2768  1.1378 -1.4706
 9122SOL    HW239000   1.195   2.906   6.458  1.4965  1.8662 -2.3177
 9123SOL     OW39001   0.292   2.379   7.578 -0.0286 -0.0144 -0.5225
 9123SOL    HW139002   0.285   2.389   7.483 -0.8776  1.7682 -0.2740
 9123SOL    HW239003   0.380   2.341   7.582 -1.1049 -2.6242 -1.7117
 9124SOL     OW39004   1.365   1.291  11.524  0.1168  0.4483 -0.4326
 9124SOL    HW139005   1.272   1.289  11.501  0.1030 -2.4829 -0.0202
 9124SOL    HW239006   1.365   1.384  11.547 -0.2958  0.9778 -2.5358
 9125SOL     OW39007   3.635   4.733  14.573  0.2479  0.0544  0.2360
 9125SOL    HW139008   3.631   0.025  14.665 -0.7850 -0.6609  0.3939
 9125SOL    HW239009   3.554   0.039  14.542  1.6316  1.6106 -1.3778
 9126SOL     OW39010   1.231   1.514   8.108  1.0631 -0.4619 -0.0248
 9126SOL    HW139011   1.252   1.467   8.028  0.4388 -0.7303 -0.0346
 9126SOL    HW239012   1.166   1.454   8.146  0.7846 -0.2319 -0.1380
 9127SOL     OW39013   2.482   2.259   6.296 -0.1320 -0.5145  0.3610
 9127SOL    HW139014   2.427   2.337   6.290 -1.0566 -0.9188  3.8480
 9127SOL    HW239015   2.459   2.195   6.229  0.6926 -0.6600  0.2119
 9128SOL     OW39016   1.610   1.309  17.006 -0.0189  0.3533  0.6544
 9128SOL    HW139017   1.628   1.393  16.963 -1.0643 -0.4255 -1.2846
 9128SOL    HW239018   1.661   1.255  16.945  0.4574  0.5353  0.8953
 9129SOL     OW39019   0.049   2.237   9.084 -0.3590 -0.5357  0.1573
 9129SOL    HW139020   0.104   2.160   9.071  1.8856  0.8315  1.6311
 9129SOL    HW239021   0.107   2.291   9.138  0.8593 -1.1427 -0.5444
 9130SOL     OW39022   1.588   2.856   7.111 -0.4239  0.2725 -0.7384
 9130SOL    HW139023   1.571   2.873   7.204 -0.8104 -3.3322 -0.1669
 9130SOL    HW239024   1.528   2.783   7.097 -3.1495  2.6160 -1.2159
 9131SOL     OW39025   1.585   2.612   3.963  0.3818  0.0872 -0.1639
 9131SOL    HW139026   1.645   2.687   3.970  0.9188 -0.0672 -3.5468
 9131SOL    HW239027   1.529   2.627   3.888  0.8418  2.3894 -0.0769
 9132SOL     OW39028   4.251   4.171   6.042 -0.4399  0.0792 -0.4210
 9132SOL    HW139029   4.294   4.175   6.127 -0.8081  0.0062 -0.2346
 9132SOL    HW239030   4.184   4.109   6.069  2.3801 -2.1225  1.6151
 9133SOL     OW39031   1.578   0.049   3.321 -0.0502  0.4528 -0.6379
 9133SOL    HW139032   1.546   0.097   3.245  1.4982  0.5741 -1.2120
 9133SOL    HW239033   1.671   0.071   3.321 -0.2013  1.0854 -1.3002
 9134SOL     OW39034   2.900   3.976   9.264 -0.7433  0.0885 -0.3416
 9134SOL    HW139035   2.895   3.881   9.268 -0.2825  0.0930  0.4035
 9134SOL    HW239036   2.985   3.991   9.223  0.3897  1.1153  2.3998
 9135SOL     OW39037   2.145   1.846   2.522 -0.2295 -0.1326 -0.4858
 9135SOL    HW139038   2.120   1.838   2.614 -0.3855 -0.6292 -0.5691
 9135SOL    HW239039   2.237   1.868   2.539 -1.1815  1.0807  3.0463
 9136SOL     OW39040   1.430   3.105  10.985 -0.1493  0.0675 -0.2319
 9136SOL    HW139041   1.335   3.094  10.995  0.0624  0.1513  1.8554
 9136SOL    HW239042   1.432   3.186  10.934  4.7395  0.7503  1.0758
 9137SOL     OW39043   2.744   2.776   8.003 -0.0196  0.4458  0.4991
 9137SOL    HW139044   2.681   2.843   8.031 -0.2935  0.4357 -0.0859
 9137SOL    HW239045   2.702   2.730   7.931  0.3500  0.4273  0.2974
 9138SOL     OW39046   0.943   2.940   1.418 -0.0179  0.3529  0.2433
 9138SOL    HW139047   1.029   2.977   1.401 -0.4113 -0.5265 -3.4566
 9138SOL    HW239048   0.926   2.945   1.513  1.5774  0.6109  0.5011
 9139SOL     OW39049   2.497   4.720  12.540  0.5327  0.0588  0.2541
 9139SOL    HW139050   2.583   4.678  12.545  0.9427  0.6734 -1.8660
 9139SOL    HW239051   2.493   0.015  12.631  0.1781  0.0172  0.2523
 9140SOL     OW39052   0.679   4.455   6.699 -0.0768  0.1729 -0.0920
 9140SOL    HW139053   0.605   4.454   6.638 -2.0006 -0.4960  2.2537
 9140SOL    HW239054   0.645   4.482   6.784  1.4361  1.6656  0.0361
 9141SOL     OW39055   1.540   2.394   2.586  0.6648 -0.2030  0.0035
 9141SOL    HW139056   1.586   2.445   2.518 -0.6328  0.6153 -0.2642
 9141SOL    HW239057   1.618   2.385   2.641  0.0257 -0.8750  0.7824
 9142SOL     OW39058   3.157   0.586  11.854 -0.0766 -0.4829  0.0326
 9142SOL    HW139059   3.082   0.564  11.799  0.9960 -2.3324 -0.6873
 9142SOL    HW239060   3.213   0.619  11.784  0.4881 -0.0712  0.6638
 9143SOL     OW39061   1.577   4.560   1.859  0.0199  0.4255  0.2240
 9143SOL    HW139062   1.579   4.473   1.819  2.5994 -0.0555  1.3996
 9143SOL    HW239063   1.577   4.535   1.951 -1.3242 -1.2067 -0.2159
 9144SOL     OW39064   3.851   1.938   5.068 -0.4306  0.2307 -0.1688
 9144SOL    HW139065   3.839   2.008   5.133 -1.3802 -2.3681  2.4553
 9144SOL    HW239066   3.764   1.899   5.066  0.1324 -1.1302  1.7721
 9145SOL     OW39067   1.353   1.096  16.601  0.0792  0.1207  0.0073
 9145SOL    HW139068   1.324   1.117  16.512  2.7119 -1.5853 -1.2696
 9145SOL    HW239069   1.285   1.037  16.635  1.4964 -0.5337  1.6968
 9146SOL     OW39070   0.618   4.243  14.539  0.3390 -0.0229  0.1233
 9146SOL    HW139071   0.539   4.203  14.503 -0.2730  1.4370 -0.1424
 9146SOL    HW239072   0.584   4.251  14.629 -0.6182 -0.7083 -0.1744
 9147SOL     OW39073   1.163   2.186   9.475 -0.2458  0.0984 -0.7210
 9147SOL    HW139074   1.121   2.109   9.514  0.7651  0.8255  1.7553
 9147SOL    HW239075   1.094   2.228   9.422  1.7574  1.1625 -2.4684
 9148SOL     OW39076   2.092   4.377   8.242  0.0269  0.0407 -0.3120
 9148SOL    HW139077   2.008   4.335   8.258  0.2373  0.0580  0.8003
 9148SOL    HW239078   2.059   4.467   8.245  0.7286  0.2609  0.6324
 9149SOL     OW39079   0.324   1.306   3.888  0.1584 -0.1803 -0.1971
 9149SOL    HW139080   0.417   1.313   3.907 -0.1910  1.2626  0.9908
 9149SOL    HW239081   0.311   1.338   3.798  0.6006  1.7293  0.4121
 9150SOL     OW39082   1.784   4.022   2.092 -0.4541 -0.4432 -0.4091
 9150SOL    HW139083   1.718   4.048   2.028  0.2048 -0.8012 -1.2349
 9150SOL    HW239084   1.828   3.946   2.054  2.5140 -0.0565  2.2226
 9151SOL     OW39085   1.480   4.351   5.153  0.0686 -0.4559  0.2043
 9151SOL    HW139086   1.388   4.346   5.127  0.9218  0.6150 -2.9392
 9151SOL    HW239087   1.522   4.304   5.081  1.0494  0.9610 -0.1459
 9152SOL     OW39088   1.863   4.069   7.724  0.0345 -0.4683  0.1644
 9152SOL    HW139089   1.794   4.131   7.747  0.4845  0.8607 -2.0789
 9152SOL    HW239090   1.823   3.985   7.703  0.6344 -1.4401  2.9686
 9153SOL     OW39091   2.633   0.898  12.621  0.5132  0.0621  0.3792
 9153SOL    HW139092   2.627   0.804  12.604 -0.7151  0.1583  0.2909
 9153SOL    HW239093   2.549   0.910  12.664  0.5849 -0.3676  0.6429
 9154SOL     OW39094   4.606   1.485   8.857  0.1255  0.2231 -0.3582
 9154SOL    HW139095   4.645   1.420   8.799  3.1659  2.7433 -1.1637
 9154SOL    HW239096   4.520   1.445   8.867  1.0899 -2.0046 -1.0878
 9155SOL     OW39097   4.574   1.224  12.500  0.5108 -0.2745  0.1252
 9155SOL    HW139098   4.663   1.205  12.527 -0.3038 -3.2034  0.7122
 9155SOL    HW239099   4.580   1.308  12.454  1.2062 -0.4007 -0.0070
 9156SOL     OW39100   1.601   0.067   1.765  0.1637 -0.0528 -0.5057
 9156SOL    HW139101   1.585   4.715   1.801  1.4991 -0.4896 -0.9911
 9156SOL    HW239102   1.696   0.057   1.759  0.1903 -0.5488  0.7437
 9157SOL     OW39103   2.869   3.952   4.795 -0.4031 -0.3995 -0.5519
 9157SOL    HW139104   2.796   4.003   4.832 -1.2624 -1.8327 -0.2606
 9157SOL    HW239105   2.821   3.872   4.774 -1.0192  0.5641 -2.7782
 9158SOL     OW39106   3.999   1.794   8.225  0.4563  0.1299 -0.0020
 9158SOL    HW139107   3.966   1.855   8.291 -0.3809  0.1283 -0.4222
 9158SOL    HW239108   3.996   1.712   8.274 -2.3282 -0.4088 -1.0881
 9159SOL     OW39109   0.013   0.728   1.163  0.1260  0.0854 -0.2771
 9159SOL    HW139110   0.042   0.791   1.097  0.2785 -0.6454 -0.9151
 9159SOL    HW239111   4.674   0.774   1.203 -0.1281  0.6387 -1.3911
 9160SOL     OW39112   2.424   3.072  17.365  0.2074 -0.0343 -0.1991
 9160SOL    HW139113   2.413   3.124  17.285  2.6492  2.0011  0.8235
 9160SOL    HW239114   2.469   3.001  17.320  0.8043  0.8246 -0.9594
 9161SOL     OW39115   0.242   0.982   6.255  0.1598  0.5609 -0.0851
 9161SOL    HW139116   0.175   1.000   6.188  0.8654  2.5354 -0.2465
 9161SOL    HW239117   0.248   1.073   6.284 -0.0514  1.0378 -1.5246
 9162SOL     OW39118   4.396   4.664   4.323 -0.1438  0.6206 -0.0068
 9162SOL    HW139119   4.417   0.018   4.353  1.1174  0.6634 -0.9832
 9162SOL    HW239120   4.318   4.641   4.372 -0.5283 -0.7472 -1.2608
 9163SOL     OW39121   0.388   2.475  13.345 -0.1270 -0.2167 -0.4549
 9163SOL    HW139122   0.415   2.404  13.404 -0.1955  0.0929 -0.0478
 9163SOL    HW239123   0.462   2.534  13.356 -0.1298 -0.1148 -0.9689
 9164SOL     OW39124   3.738   1.951  15.227 -0.1002  0.0470 -0.5496
 9164SOL    HW139125   3.776   2.038  15.213  0.3518 -0.1607 -0.6154
 9164SOL    HW239126   3.668   1.936  15.164 -2.7832 -0.2653  2.5202
 9165SOL     OW39127   2.715   4.004   6.676 -0.0849 -0.5743  0.5007
 9165SOL    HW139128   2.655   3.940   6.637 -2.0724  0.7886  1.2711
 9165SOL    HW239129   2.789   3.958   6.715  0.0126 -0.3764  0.5459
 9166SOL     OW39130   1.744   0.430   8.238  0.3821 -0.2580  0.1112
 9166SOL    HW139131   1.669   0.393   8.191  0.7831 -0.9760  0.0226
 9166SOL    HW239132   1.706   0.454   8.322 -2.2977 -1.7052 -0.6769
 9167SOL     OW39133   2.025   4.463   3.098  0.1530  0.3534  0.0993
 9167SOL    HW139134   1.947   4.452   3.153  0.3391 -0.3006  0.2270
 9167SOL    HW239135   2.067   4.377   3.102  1.5148  0.8630 -3.3535
 9168SOL     OW39136   3.681   1.705  11.026 -0.4430  0.2406  0.5528
 9168SOL    HW139137   3.686   1.742  10.938 -1.8541  3.0593  1.6742
 9168SOL    HW239138   3.747   1.636  11.027 -0.2930  0.3840  0.3764
 9169SOL     OW39139   2.271   2.751   5.670  0.3482  0.3384 -0.1940
 9169SOL    HW139140   2.194   2.766   5.617 -1.2453  0.6585  2.2066
 9169SOL    HW239141   2.343   2.774   5.611  0.7369  0.9962  0.5442
 9170SOL     OW39142   2.787   4.379   2.988  0.2677 -0.3104 -0.1801
 9170SOL    HW139143   2.822   4.444   2.926  1.3845 -1.2373 -0.5120
 9170SOL    HW239144   2.748   4.308   2.936 -0.4883  0.1251 -0.2095
 9171SOL     OW39145   3.170   4.102   8.819 -0.1267  0.0126 -0.9769
 9171SOL    HW139146   3.227   4.147   8.756 -0.3717  1.4172 -0.1954
 9171SOL    HW239147   3.148   4.034   8.755  0.9691 -1.1833 -0.0852
 9172SOL     OW39148   1.195   2.929  15.865 -0.6283 -0.2562 -0.1978
 9172SOL    HW139149   1.132   2.935  15.937  0.3624 -1.0823  0.7493
 9172SOL    HW239150   1.270   2.883  15.903 -0.4561  1.4571  1.5637
 9173SOL     OW39151   1.209   2.602   2.388 -0.4655  0.7130 -0.0142
 9173SOL    HW139152   1.269   2.658   2.437  1.1763  0.9347 -2.2895
 9173SOL    HW239153   1.135   2.660   2.371  0.5130  1.6208 -1.2174
 9174SOL     OW39154   0.999   3.442   5.409  0.4195 -0.4836  0.1838
 9174SOL    HW139155   0.979   3.525   5.451  0.0233 -0.3452 -0.2741
 9174SOL    HW239156   1.046   3.398   5.480  1.0075 -0.5180 -0.2209
 9175SOL     OW39157   3.245   3.211  14.281  0.9072  0.3413 -0.7738
 9175SOL    HW139158   3.177   3.266  14.243 -0.4145 -2.7163 -2.8315
 9175SOL    HW239159   3.272   3.260  14.359  1.8290 -0.9149 -0.2946
 9176SOL     OW39160   2.942   2.218   4.107 -0.2931 -0.1052 -0.4080
 9176SOL    HW139161   2.880   2.146   4.122 -1.2867  0.4258 -1.9367
 9176SOL    HW239162   2.956   2.249   4.196  0.5275  0.5540 -0.7716
 9177SOL     OW39163   0.844   3.484  16.523 -0.1343  0.0753  0.3766
 9177SOL    HW139164   0.756   3.477  16.561  0.2830 -0.7191  1.2124
 9177SOL    HW239165   0.887   3.469  16.607 -0.7988  2.0863  1.0675
 9178SOL     OW39166   1.550   2.215   8.045 -0.0662  0.0126  0.0098
 9178SOL    HW139167   1.494   2.216   8.122  2.0980  2.2516  1.5463
 9178SOL    HW239168   1.503   2.184   7.967 -2.4546 -0.2569  1.5635
 9179SOL     OW39169   0.461   4.292  12.087  0.1102  0.4242  0.7718
 9179SOL    HW139170   0.397   4.231  12.124 -0.5140  0.1235 -0.8225
 9179SOL    HW239171   0.498   4.242  12.015  2.8099  4.1371 -0.3892
 9180SOL     OW39172   2.546   2.749   4.456  0.1781  0.3920 -0.0706
 9180SOL    HW139173   2.536   2.837   4.420 -1.0051  0.3216  0.0941
 9180SOL    HW239174   2.457   2.715   4.467  0.3478  0.3929  1.4380
 9181SOL     OW39175   0.810   0.588   7.487 -0.1401  0.4348 -0.1274
 9181SOL    HW139176   0.840   0.525   7.421 -1.6611 -1.0501  0.6263
 9181SOL    HW239177   0.771   0.532   7.553  0.7755  1.5065  1.3321
 9182SOL     OW39178   2.969   1.943  16.921  0.3267  0.3850  0.1436
 9182SOL    HW139179   2.978   1.873  16.986  0.7062  0.2973 -0.0025
 9182SOL    HW239180   2.976   2.023  16.972 -0.4938  0.2555  0.4599
 9183SOL     OW39181   2.301   2.945   1.039  0.3855  0.5104  0.3277
 9183SOL    HW139182   2.218   2.923   1.082  0.0022 -0.1027 -0.7309
 9183SOL    HW239183   2.275   2.995   0.961 -2.0115 -2.4869 -0.8013
 9184SOL     OW39184   3.356   0.968   0.873 -0.6589 -0.2960  0.4833
 9184SOL    HW139185   3.440   1.004   0.847 -0.4115 -0.5048  0.9984
 9184SOL    HW239186   3.322   0.928   0.793 -1.5658  1.8305 -0.1783
 9185SOL     OW39187   4.429   0.350   5.124 -0.3179  0.4598  0.1605
 9185SOL    HW139188   4.482   0.318   5.197 -0.9480  1.4388  1.0335
 9185SOL    HW239189   4.442   0.445   5.133  0.8427  0.2996  0.2495
 9186SOL     OW39190   0.081   2.288   7.034 -0.6468 -0.0860  0.1373
 9186SOL    HW139191   0.156   2.304   6.976 -0.7053  2.7794  0.8446
 9186SOL    HW239192   0.056   2.198   7.013 -0.2058 -0.1352 -0.1839
 9187SOL     OW39193   0.963   2.617   3.098 -0.0507 -0.8578  0.2973
 9187SOL    HW139194   1.049   2.639   3.134 -0.0325  1.2319 -1.0110
 9187SOL    HW239195   0.921   2.703   3.089 -1.4125 -1.5807 -0.1861
 9188SOL     OW39196   4.429   1.199   5.864  0.0264 -0.3480  0.0817
 9188SOL    HW139197   4.468   1.209   5.778  0.5069 -0.9171  0.2392
 9188SOL    HW239198   4.348   1.150   5.850  1.3919 -2.2820 -1.0004
 9189SOL     OW39199   4.341   4.008  10.717 -0.0530  0.1414 -0.9770
 9189SOL    HW139200   4.392   4.023  10.638 -1.3373  0.7512 -1.6864
 9189SOL    HW239201   4.358   3.915  10.733  0.4645  0.4493  0.2253
 9190SOL     OW39202   3.492   4.125   5.508  0.1201  0.2742 -0.1348
 9190SOL    HW139203   3.499   4.069   5.585  1.9823 -1.8716 -1.8636
 9190SOL    HW239204   3.556   4.194   5.526  1.9339 -2.1794  2.9809
 9191SOL     OW39205   2.116   1.002   6.483 -0.6841 -0.5413  0.1011
 9191SOL    HW139206   2.098   1.096   6.491  2.3261  0.1901 -1.5721
 9191SOL    HW239207   2.210   0.995   6.502 -0.3310  1.6466 -0.8833
 9192SOL     OW39208   0.971   4.219  11.826 -0.1881  0.0031 -0.2480
 9192SOL    HW139209   1.062   4.193  11.815 -0.4821  0.3137 -3.4696
 9192SOL    HW239210   0.946   4.163  11.900 -0.6368 -1.8573 -1.8103
 9193SOL     OW39211   0.640   0.450  10.016 -0.1715 -0.2044 -0.3419
 9193SOL    HW139212   0.721   0.444  10.066 -1.9788 -0.6953  2.5212
 9193SOL    HW239213   0.570   0.440  10.081  1.1984  0.0354  1.1523
 9194SOL     OW39214   3.623   0.739  16.581  0.2578  0.2291  0.0292
 9194SOL    HW139215   3.560   0.729  16.510 -0.9431  0.8695  1.0059
 9194SOL    HW239216   3.687   0.669  16.566  0.5856  0.3804  0.7392
 9195SOL     OW39217   4.531   1.231   5.592 -0.0788 -0.1500 -0.3692
 9195SOL    HW139218   4.567   1.282   5.520 -0.6351  2.0055  0.8733
 9195SOL    HW239219   4.571   1.150   5.559  0.6148  0.0776 -0.0864
 9196SOL     OW39220   3.563   1.185   7.059  0.1096 -0.1075 -0.1515
 9196SOL    HW139221   3.583   1.147   7.144 -2.1959 -2.1293 -0.5083
 9196SOL    HW239222   3.653   1.198   7.029 -0.5296  1.5664 -1.3337
 9197SOL     OW39223   0.084   0.229  16.837  0.7993 -0.4855 -0.8880
 9197SOL    HW139224   4.729   0.214  16.866  1.0855  0.8478  0.7160
 9197SOL    HW239225   0.069   0.221  16.743 -1.6014 -1.1039 -0.4481
 9198SOL     OW39226   1.761   1.056  12.751 -0.8861  0.6112  0.3900
 9198SOL    HW139227   1.730   1.096  12.670  0.7461  1.1470  0.0385
 9198SOL    HW239228   1.787   0.970  12.717  2.6308  1.2143  1.5414
 9199SOL     OW39229   1.630   0.631   8.962 -0.1714  0.3450 -0.4190
 9199SOL    HW139230   1.608   0.619   9.054 -1.2960  0.0225 -0.7326
 9199SOL    HW239231   1.720   0.598   8.965  0.2127  1.3059 -1.2036
 9200SOL     OW39232   1.197   1.037   8.010 -0.4767  0.2336  0.1136
 9200SOL    HW139233   1.171   1.102   7.944 -0.0939 -0.5982 -0.8633
 9200SOL    HW239234   1.124   0.975   8.003  0.6182 -0.9825 -0.4759
 9201SOL     OW39235   4.276   4.729   4.931  0.0262 -0.9110 -0.4720
 9201SOL    HW139236   4.271   4.667   5.004  0.4184 -2.0985 -1.4526
 9201SOL    HW239237   4.186   4.734   4.900  0.2522  2.1773 -0.7031
 9202SOL     OW39238   0.516   0.068   8.548  0.1754 -0.0072  0.2778
 9202SOL    HW139239   0.540   0.136   8.485  0.5730 -0.3611  0.0491
 9202SOL    HW239240   0.488   0.122   8.621 -0.6433  0.7661 -0.6081
 9203SOL     OW39241   2.177   2.854  15.589 -0.4060 -0.1441 -0.5147
 9203SOL    HW139242   2.108   2.919  15.574 -0.1409  0.5921  1.4160
 9203SOL    HW239243   2.135   2.781  15.543 -0.7332  0.9414 -1.9580
 9204SOL     OW39244   1.816   4.054   6.028  0.1753  0.7069 -0.0152
 9204SOL    HW139245   1.794   3.963   6.006  0.2006  0.4303  1.0620
 9204SOL    HW239246   1.911   4.044   6.025  0.1092 -0.4717  1.3507
 9205SOL     OW39247   3.414   1.978   0.300  0.5084  0.4766  0.1479
 9205SOL    HW139248   3.413   2.024   0.383  0.0390 -0.1691  0.5069
 9205SOL    HW239249   3.472   1.903   0.318  0.8268  0.2854 -1.6548
 9206SOL     OW39250   1.916   1.747   4.717 -0.2053  0.4218 -0.2713
 9206SOL    HW139251   1.937   1.670   4.770  2.9401  1.2264 -0.3080
 9206SOL    HW239252   1.834   1.716   4.679  0.0416 -0.5423 -0.0078
 9207SOL     OW39253   4.036   3.481   1.890  0.2363  0.3044 -0.4169
 9207SOL    HW139254   4.104   3.463   1.955 -0.3399 -0.8059 -0.1152
 9207SOL    HW239255   3.989   3.399   1.904  0.0049  0.2538 -1.4761
 9208SOL     OW39256   0.417   2.987   7.106 -0.2815 -0.3202 -0.1681
 9208SOL    HW139257   0.403   3.066   7.054  0.8496 -0.0274 -0.0274
 9208SOL    HW239258   0.333   2.943   7.092  0.6323 -1.7268 -1.4118
 9209SOL     OW39259   4.339   0.473   1.493 -0.0874 -0.5997 -0.3676
 9209SOL    HW139260   4.363   0.391   1.536  0.5979  0.1437  0.6515
 9209SOL    HW239261   4.397   0.528   1.545  0.2293 -0.3389 -0.9888
 9210SOL     OW39262   0.151   1.482   8.150 -0.4535 -0.3141 -0.6508
 9210SOL    HW139263   0.146   1.545   8.222  2.2157  0.9825 -1.5970
 9210SOL    HW239264   0.062   1.449   8.139 -0.0017 -1.0503 -2.0892
 9211SOL     OW39265   3.138   1.346  16.263 -0.1879 -0.1112  0.3415
 9211SOL    HW139266   3.059   1.363  16.211 -0.5338  0.2024  0.9804
 9211SOL    HW239267   3.117   1.385  16.347  0.8505 -1.8868  1.4186
 9212SOL     OW39268   3.813   3.324  14.027 -0.4271 -0.3582  0.1327
 9212SOL    HW139269   3.869   3.360  13.958  0.7119  0.6676  1.5603
 9212SOL    HW239270   3.738   3.287  13.981 -1.0756  0.2426  0.7094
 9213SOL     OW39271   3.753   3.280  12.964  0.5446 -0.0318  0.3957
 9213SOL    HW139272   3.751   3.216  13.036  0.9391 -1.5731 -0.9586
 9213SOL    HW239273   3.806   3.348  13.004  1.9132  0.3552 -2.1005
 9214SOL     OW39274   3.808   3.494   5.750  0.2346 -0.3380 -0.0449
 9214SOL    HW139275   3.861   3.458   5.679  1.5565 -0.7393  1.1415
 9214SOL    HW239276   3.749   3.548   5.698 -0.4177 -0.6228  0.4015
 9215SOL     OW39277   0.513   2.228   6.598 -0.2403 -0.2504  0.1966
 9215SOL    HW139278   0.426   2.267   6.611 -0.2989 -0.7656  1.3160
 9215SOL    HW239279   0.500   2.144   6.641 -0.8522  0.4716  1.4038
 9216SOL     OW39280   1.418   2.751   3.748 -0.6065 -0.0489 -0.0061
 9216SOL    HW139281   1.364   2.824   3.720  0.3268  1.4230  2.0693
 9216SOL    HW239282   1.431   2.718   3.659 -0.9525  1.0482 -0.4600
 9217SOL     OW39283   3.281   4.618   4.808  0.2051  0.7327 -0.3284
 9217SOL    HW139284   3.365   4.663   4.797  0.2547  0.5869 -0.5411
 9217SOL    HW239285   3.228   4.695   4.828  0.6596  0.6073  1.4317
 9218SOL     OW39286   4.268   4.378   3.921 -0.4901  0.2377  0.0654
 9218SOL    HW139287   4.297   4.465   3.952  2.6417 -0.3969 -1.0924
 9218SOL    HW239288   4.207   4.348   3.988 -1.2037  1.4318 -0.0405
 9219SOL     OW39289   1.846   3.023   5.734  0.3119 -0.7097  0.2249
 9219SOL    HW139290   1.753   3.015   5.714  0.0362 -1.3401  1.7114
 9219SOL    HW239291   1.861   3.108   5.693  0.2554 -0.3950  0.8491
 9220SOL     OW39292   2.585   4.319   5.547  0.1637  0.5649  0.0261
 9220SOL    HW139293   2.552   4.300   5.635 -0.6747 -3.3781 -1.1571
 9220SOL    HW239294   2.633   4.240   5.525  1.1918  1.3618 -0.5632
 9221SOL     OW39295   1.816   1.259   4.589 -0.0842  0.2661 -0.2503
 9221SOL    HW139296   1.744   1.230   4.533  0.6467  0.7481 -1.4245
 9221SOL    HW239297   1.782   1.265   4.678  2.0789 -2.2700  0.7534
 9222SOL     OW39298   0.399   4.480   4.254  0.3745 -0.4535 -0.1891
 9222SOL    HW139299   0.318   4.510   4.214 -0.4701 -1.0919  1.0513
 9222SOL    HW239300   0.399   4.384   4.249  1.4688 -0.4410 -0.5558
 9223SOL     OW39301   0.550   4.169   8.397  0.7810  0.5672  0.7635
 9223SOL    HW139302   0.478   4.120   8.436 -0.1222 -0.0429 -1.6376
 9223SOL    HW239303   0.595   4.197   8.476 -0.1007  1.7095  0.8676
 9224SOL     OW39304   0.421   3.512   3.059 -0.1046 -0.0972  0.3372
 9224SOL    HW139305   0.345   3.465   3.026 -0.1084 -1.4902  2.3702
 9224SOL    HW239306   0.380   3.552   3.136  0.0961  0.9108 -0.0781
 9225SOL     OW39307   0.239   0.216   1.711 -0.2634 -0.4586 -0.0392
 9225SOL    HW139308   0.174   0.286   1.702  2.0529  1.9318  1.7466
 9225SOL    HW239309   0.307   0.275   1.742 -0.8720  0.9940 -1.4816
 9226SOL     OW39310   4.213   4.640   1.870  0.0386  0.0792 -0.1766
 9226SOL    HW139311   4.221   4.665   1.962  0.7343 -0.6258 -0.0465
 9226SOL    HW239312   4.271   4.564   1.861 -0.6150 -0.4719  0.2801
 9227SOL     OW39313   4.641   1.926   8.885 -0.3610 -0.7053  0.0340
 9227SOL    HW139314   4.577   1.855   8.877 -0.7521 -0.2660 -0.7576
 9227SOL    HW239315   4.710   1.886   8.938 -0.8373 -3.2487 -1.2725
 9228SOL     OW39316   1.853   4.121   8.731  0.0523 -0.0802 -0.1672
 9228SOL    HW139317   1.783   4.167   8.776  0.0374 -1.3085  1.0678
 9228SOL    HW239318   1.921   4.186   8.711  1.2473 -0.6131  2.1089
 9229SOL     OW39319   4.712   3.354   1.951 -0.2403 -0.0275 -0.7550
 9229SOL    HW139320   4.701   3.411   1.875  1.9646  3.0406  1.2645
 9229SOL    HW239321   4.622   3.335   1.978  0.1358 -0.3564  0.2412
 9230SOL     OW39322   0.532   0.759   2.355 -0.3124 -0.7223  0.6163
 9230SOL    HW139323   0.540   0.852   2.334  1.4034 -1.1559 -0.6669
 9230SOL    HW239324   0.559   0.727   2.269 -0.5045  2.6907 -0.7353
 9231SOL     OW39325   2.569   1.465   6.984 -0.7390  0.6420 -0.2458
 9231SOL    HW139326   2.534   1.515   7.057 -0.5133  1.0836 -0.4340
 9231SOL    HW239327   2.545   1.525   6.913  2.7681  1.0272 -1.1536
 9232SOL     OW39328   3.281   1.310   7.629 -0.4065  0.0473  0.1953
 9232SOL    HW139329   3.271   1.221   7.596  2.8502 -0.9387  1.9031
 9232SOL    HW239330   3.314   1.345   7.546  0.3363  0.2679  0.5762
 9233SOL     OW39331   0.206   1.582   8.632 -0.0234 -0.1632 -0.2592
 9233SOL    HW139332   0.262   1.612   8.704  2.2063  0.5501 -2.2831
 9233SOL    HW239333   0.181   1.492   8.655  0.5883 -0.4066 -0.5375
 9234SOL     OW39334   0.402   2.634   5.459 -0.1577  0.0806 -0.1821
 9234SOL    HW139335   0.486   2.673   5.483 -0.8851  0.9498  0.9388
 9234SOL    HW239336   0.389   2.598   5.546 -2.0301  0.6341 -0.2475
 9235SOL     OW39337   3.621   2.334  12.627 -0.0192 -0.5471  0.1186
 9235SOL    HW139338   3.648   2.411  12.677 -2.2908  0.6436 -0.5103
 9235SOL    HW239339   3.699   2.278  12.633  1.8562  2.0932  0.2539
 9236SOL     OW39340   2.651   2.047  11.636  0.5236 -0.2143  0.1844
 9236SOL    HW139341   2.602   1.978  11.592 -0.1935  1.0940 -1.0472
 9236SOL    HW239342   2.582   2.109  11.659  0.2731  0.7212 -3.1210
 9237SOL     OW39343   1.207   0.299   2.699  0.3772  0.9296  0.2934
 9237SOL    HW139344   1.296   0.333   2.713  0.2232  0.5876  2.0942
 9237SOL    HW239345   1.167   0.382   2.725 -0.6255 -0.7901  4.0986
 9238SOL     OW39346   1.638   2.336   5.879  0.9108 -0.3894 -0.1666
 9238SOL    HW139347   1.637   2.373   5.791 -1.0635 -0.7687 -0.3147
 9238SOL    HW239348   1.587   2.256   5.866 -2.7710  1.4456  2.7817
 9239SOL     OW39349   1.413   2.090   5.454 -0.0582  0.2388 -0.0763
 9239SOL    HW139350   1.410   2.185   5.441  2.3146  0.3831  0.4228
 9239SOL    HW239351   1.324   2.072   5.486 -0.2231 -1.3006 -1.3847
 9240SOL     OW39352   3.963   0.243   2.636  0.5109  0.0212 -0.0132
 9240SOL    HW139353   3.928   0.176   2.578 -0.0089 -0.0865  0.4205
 9240SOL    HW239354   3.931   0.328   2.605  1.1292  1.8912  4.3634
 9241SOL     OW39355   4.627   1.401  10.365  0.3690 -0.2928 -0.1596
 9241SOL    HW139356   4.584   1.330  10.413  0.9812 -0.0627  0.7314
 9241SOL    HW239357   4.621   1.474  10.427 -1.8320 -0.9648  0.4333
 9242SOL     OW39358   0.002   0.528   1.375 -0.1947 -0.1096  0.1045
 9242SOL    HW139359   4.693   0.605   1.338 -0.7653 -1.0851 -1.2514
 9242SOL    HW239360   4.698   0.455   1.328 -2.1203  2.6095 -2.5305
 9243SOL     OW39361   2.956   1.874   8.912 -0.6097 -0.5711  0.3472
 9243SOL    HW139362   2.957   1.944   8.846  3.6168  0.2433  1.2719
 9243SOL    HW239363   3.048   1.860   8.934  0.0510 -0.3529 -2.3079
 9244SOL     OW39364   2.028   3.204  13.764 -0.3643 -0.7696 -0.1577
 9244SOL    HW139365   2.080   3.191  13.843  0.1104 -1.1517 -0.5350
 9244SOL    HW239366   1.957   3.260  13.798 -1.9667 -2.9731  0.1124
 9245SOL     OW39367   3.965   0.028   2.450  0.6356  0.1565  0.2576
 9245SOL    HW139368   3.929   4.674   2.448  0.1276  0.4209 -2.6036
 9245SOL    HW239369   3.975   0.054   2.358  1.1546 -0.5670  0.1109
 9246SOL     OW39370   2.238   0.872   2.822  0.3520 -0.1308 -0.8380
 9246SOL    HW139371   2.271   0.794   2.777  2.4983 -0.5946  1.5635
 9246SOL    HW239372   2.318   0.890   2.871 -0.7984 -3.0503  2.1109
 9247SOL     OW39373   2.115   1.961   3.813 -0.1585 -0.5560 -0.2577
 9247SOL    HW139374   2.116   2.054   3.792 -1.2569 -0.3601  0.5739
 9247SOL    HW239375   2.150   1.968   3.902 -3.0653 -0.1100  0.8396
 9248SOL     OW39376   3.491   1.116  13.967  0.4516 -0.3143 -0.2777
 9248SOL    HW139377   3.579   1.135  14.000  0.4542 -1.4435  0.3319
 9248SOL    HW239378   3.469   1.206  13.941  0.0047 -0.3662 -0.0699
 9249SOL     OW39379   1.797   1.429   0.980  0.7690 -0.9137  0.9000
 9249SOL    HW139380   1.729   1.460   0.921  1.0628 -0.3610  0.8461
 9249SOL    HW239381   1.757   1.395   1.060  0.6926  2.0340  2.1373
 9250SOL     OW39382   2.094   2.274   3.958  0.2052 -0.0016  0.5894
 9250SOL    HW139383   2.059   2.349   3.911 -3.1218 -2.7330 -1.2965
 9250SOL    HW239384   2.032   2.268   4.031 -0.6332  0.7976 -0.0687
 9251SOL     OW39385   4.238   1.752   9.241  0.2329 -0.2920  0.1028
 9251SOL    HW139386   4.326   1.729   9.270  0.2030 -1.3791 -0.6543
 9251SOL    HW239387   4.201   1.664   9.239  1.9007 -0.9917  0.3406
 9252SOL     OW39388   3.039   2.066   3.036  0.0208  0.0959 -0.0890
 9252SOL    HW139389   3.001   2.133   2.980  1.3963 -0.1874 -1.3661
 9252SOL    HW239390   3.126   2.104   3.049 -0.5144  0.5323  2.1576
 9253SOL     OW39391   1.724   3.571   4.958  0.7868  0.3154  0.0040
 9253SOL    HW139392   1.737   3.644   4.898  2.8375 -0.5325 -0.5895
 9253SOL    HW239393   1.732   3.617   5.042  2.0410  2.7959 -1.4695
 9254SOL     OW39394   1.949   0.813   3.149 -0.1604  0.2066 -0.5106
 9254SOL    HW139395   2.040   0.836   3.171  0.7802 -1.1436 -3.0464
 9254SOL    HW239396   1.919   0.889   3.098 -0.5445 -0.6626 -1.5668
 9255SOL     OW39397   4.364   0.340  10.616 -0.3992 -0.5802 -0.3206
 9255SOL    HW139398   4.359   0.428  10.653  0.0851 -1.1530  1.1028
 9255SOL    HW239399   4.449   0.313  10.650 -0.8798 -0.6568  0.7933
 9256SOL     OW39400   3.967   3.405   5.556  0.0367 -0.1572 -0.8226
 9256SOL    HW139401   3.906   3.347   5.510  0.0110 -0.7221 -0.0796
 9256SOL    HW239402   4.053   3.376   5.525 -0.3938 -0.8556 -1.3780
 9257SOL     OW39403   4.417   2.838   6.983 -0.2438 -0.0021  0.5644
 9257SOL    HW139404   4.405   2.744   7.001 -0.4897 -0.1646 -0.4280
 9257SOL    HW239405   4.510   2.835   6.961  0.1226  0.6956  2.0171
 9258SOL     OW39406   1.556   2.915  15.511 -0.0832 -0.0483  0.2123
 9258SOL    HW139407   1.550   2.969  15.433  1.0432 -1.9176 -1.1532
 9258SOL    HW239408   1.469   2.947  15.537  0.1815  0.8995 -0.0877
 9259SOL     OW39409   3.527   0.024   4.271 -0.0696  0.2144  0.1852
 9259SOL    HW139410   3.619   0.003   4.259 -0.0564 -0.6108  1.8038
 9259SOL    HW239411   3.542   0.053   4.361  0.0392 -0.7068  0.4654
 9260SOL     OW39412   4.182   4.338   2.479 -0.2520 -0.3549 -0.6073
 9260SOL    HW139413   4.242   4.412   2.489 -0.6889  0.1482 -1.7161
 9260SOL    HW239414   4.144   4.360   2.394 -3.8064 -0.3761  0.9403
 9261SOL     OW39415   2.686   1.167   7.575 -0.0785  0.4365 -0.4842
 9261SOL    HW139416   2.719   1.178   7.665  1.5645  0.0096 -1.0516
 9261SOL    HW239417   2.714   1.248   7.533  0.6221  0.0390 -0.7748
 9262SOL     OW39418   3.122   0.206   0.547 -0.2268  0.2350 -0.9078
 9262SOL    HW139419   3.140   0.300   0.549  0.9100 -0.0531  2.5347
 9262SOL    HW239420   3.086   0.197   0.459 -0.0402 -0.7704 -0.8756
 9263SOL     OW39421   2.477   3.010   9.023  0.2221  0.8240  0.4058
 9263SOL    HW139422   2.470   3.006   8.928 -0.6404 -2.4486  0.5966
 9263SOL    HW239423   2.446   3.099   9.036 -1.6505  0.2453 -0.1067
 9264SOL     OW39424   0.389   2.916   5.301 -0.5342 -0.1792  0.0099
 9264SOL    HW139425   0.451   2.928   5.374  1.3230 -1.5136 -1.3517
 9264SOL    HW239426   0.320   2.861   5.338 -0.7115 -0.4163 -0.6826
 9265SOL     OW39427   4.164   3.697   5.357  0.2818  0.4272 -0.2996
 9265SOL    HW139428   4.171   3.672   5.449 -0.6858 -0.2370 -0.4023
 9265SOL    HW239429   4.237   3.643   5.327  3.1695  2.3603  3.2255
 9266SOL     OW39430   3.849   1.675   3.779 -0.0050  0.5594  0.3485
 9266SOL    HW139431   3.828   1.762   3.745  0.7444  0.6823  0.2113
 9266SOL    HW239432   3.773   1.652   3.834  0.7932 -0.8959  0.8470
 9267SOL     OW39433   2.196   1.264   4.229 -0.3778 -0.3007 -0.2023
 9267SOL    HW139434   2.106   1.236   4.245  0.0167 -0.9035  0.9046
 9267SOL    HW239435   2.239   1.182   4.205 -1.4987 -0.8518 -0.3150
 9268SOL     OW39436   2.152   0.863  10.901 -0.9885 -1.0009 -0.1245
 9268SOL    HW139437   2.231   0.818  10.871 -1.6773 -2.3872  0.1442
 9268SOL    HW239438   2.149   0.944  10.849  1.0898 -0.7147  0.1922
 9269SOL     OW39439   0.329   3.367  14.590 -0.0907  0.1586  0.0423
 9269SOL    HW139440   0.408   3.409  14.623 -0.4016  2.0581 -1.6481
 9269SOL    HW239441   0.273   3.373  14.668 -0.1105 -0.7791  0.1079
 9270SOL     OW39442   2.771   1.811   3.731 -0.5173 -0.9613 -0.0108
 9270SOL    HW139443   2.756   1.859   3.812 -0.4547  1.9490 -1.7171
 9270SOL    HW239444   2.684   1.796   3.693 -0.0082 -0.0315 -1.5683
 9271SOL     OW39445   2.010   3.054  14.038  0.0572  0.1465 -0.3620
 9271SOL    HW139446   1.921   3.067  14.007  0.0560  1.1526  0.0613
 9271SOL    HW239447   2.052   3.130  13.998  0.6285 -0.8326 -1.6071
 9272SOL     OW39448   1.826   4.526   2.608 -0.9087 -0.7854 -0.0351
 9272SOL    HW139449   1.879   4.548   2.684 -0.6869  2.3912 -1.0670
 9272SOL    HW239450   1.885   4.481   2.548 -0.0780 -0.6360  0.6878
 9273SOL     OW39451   3.598   0.995   8.065  0.1551  0.4319  0.1918
 9273SOL    HW139452   3.639   0.936   8.128 -3.7276 -0.2874  2.0530
 9273SOL    HW239453   3.638   1.078   8.093 -1.8855  1.5865 -0.2723
 9274SOL     OW39454   0.987   4.361  16.734 -0.3247  0.2988  0.7630
 9274SOL    HW139455   0.905   4.406  16.716 -0.0706 -0.0351 -1.2098
 9274SOL    HW239456   1.018   4.340  16.646 -0.9023  0.0039  0.6317
 9275SOL     OW39457   2.860   3.517   7.246  0.0256  0.0779 -0.4757
 9275SOL    HW139458   2.857   3.604   7.205  1.6462  0.1542 -0.4200
 9275SOL    HW239459   2.921   3.531   7.318 -0.7036  2.5192 -0.3277
 9276SOL     OW39460   2.650   1.795  17.068  0.2180  0.3121  0.1463
 9276SOL    HW139461   2.651   1.789  17.164  1.8918  1.2206  0.1958
 9276SOL    HW239462   2.742   1.772  17.052  0.1637 -1.4633  2.3380
 9277SOL     OW39463   1.813   3.304   7.236  0.0766  0.2406  0.1213
 9277SOL    HW139464   1.876   3.359   7.191  0.4419  0.4271  0.8556
 9277SOL    HW239465   1.790   3.236   7.172  2.2886  0.7267 -1.1688
 9278SOL     OW39466   1.875   0.982   6.682  0.1030 -0.3954  0.1356
 9278SOL    HW139467   1.918   0.951   6.762 -0.6708 -4.2300 -0.9557
 9278SOL    HW239468   1.926   0.935   6.616 -0.0574  0.8815 -0.8926
 9279SOL     OW39469   2.212   3.438  12.262 -0.6293  0.2467  0.5715
 9279SOL    HW139470   2.231   3.377  12.333  0.3147 -1.7842 -1.4662
 9279SOL    HW239471   2.150   3.503  12.298 -0.0812  0.8000  0.5116
 9280SOL     OW39472   3.892   4.654   7.077 -0.2235  0.4002 -0.2705
 9280SOL    HW139473   3.802   4.635   7.105 -0.7657  1.4145 -1.3452
 9280SOL    HW239474   3.912   4.734   7.126 -1.7566  1.8846 -2.0832
 9281SOL     OW39475   3.402   0.401   7.572  0.1800 -0.2205  0.3611
 9281SOL    HW139476   3.480   0.364   7.614  0.4402 -0.4356 -0.3145
 9281SOL    HW239477   3.427   0.417   7.481 -0.6296  1.0929  0.3592
 9282SOL     OW39478   1.925   3.942   8.537 -0.9394 -0.7395  0.3974
 9282SOL    HW139479   1.969   3.901   8.612 -1.5104 -0.9937  0.5876
 9282SOL    HW239480   1.875   4.006   8.588 -0.3637  2.0954 -2.5897
 9283SOL     OW39481   2.042   2.377   4.443 -0.0575 -0.0157  0.2355
 9283SOL    HW139482   1.954   2.367   4.406  0.1302 -0.2156 -0.1522
 9283SOL    HW239483   2.060   2.286   4.467 -1.2423 -0.0221  1.1257
 9284SOL     OW39484   3.960   0.805  14.215 -0.2371  0.8998  0.0436
 9284SOL    HW139485   3.907   0.733  14.182  0.4546 -0.0919  1.0713
 9284SOL    HW239486   3.969   0.789  14.309  0.7915 -0.1423 -0.2375
 9285SOL     OW39487   3.146   2.306   4.620  0.2967 -0.1552 -0.5147
 9285SOL    HW139488   3.221   2.342   4.668  1.1326 -1.8647 -0.5306
 9285SOL    HW239489   3.107   2.241   4.679  1.9354  0.2746  1.0540
 9286SOL     OW39490   4.335   1.779   2.451 -0.2352  0.3337  0.8333
 9286SOL    HW139491   4.291   1.810   2.371 -0.9837 -4.4906 -0.6100
 9286SOL    HW239492   4.360   1.692   2.422 -0.9133 -0.5993  3.1177
 9287SOL     OW39493   2.408   1.910   2.583  0.0992 -0.4092  0.2063
 9287SOL    HW139494   2.494   1.869   2.571  0.2663 -0.4318  1.4171
 9287SOL    HW239495   2.420   1.990   2.531  0.2427 -0.0597  0.7675
 9288SOL     OW39496   0.235   0.657   2.243 -0.5141  0.0110  0.0899
 9288SOL    HW139497   0.150   0.692   2.269 -0.0473  1.0965  0.1621
 9288SOL    HW239498   0.276   0.738   2.213  1.8310 -1.1071  0.2659
 9289SOL     OW39499   4.383   3.069  16.950 -0.3624  0.0027  0.4986
 9289SOL    HW139500   4.437   3.084  16.872 -0.8555 -0.9047 -0.0195
 9289SOL    HW239501   4.439   3.009  17.000 -0.5503 -1.4059 -1.0000
 9290SOL     OW39502   0.089   1.668   3.755  0.6222  0.0367 -0.1463
 9290SOL    HW139503   0.027   1.689   3.685  0.0671  2.5641  1.0742
 9290SOL    HW239504   0.085   1.742   3.815 -1.0315 -0.4952  0.3791
 9291SOL     OW39505   1.662   3.596   5.629  0.2785 -0.1339  0.3783
 9291SOL    HW139506   1.638   3.578   5.538  1.4029  1.1452 -0.1770
 9291SOL    HW239507   1.751   3.631   5.617 -0.3119  0.6743 -1.6856
 9292SOL     OW39508   3.101   1.511  14.808  0.9487  0.2365  0.9118
 9292SOL    HW139509   3.017   1.533  14.848 -0.3671  0.1572 -1.8230
 9292SOL    HW239510   3.083   1.421  14.783 -0.4344  1.2297 -1.7159
 9293SOL     OW39511   0.031   0.399   1.671 -0.7156 -0.0530 -0.4840
 9293SOL    HW139512   0.022   0.468   1.605  0.7768 -0.0905 -0.7081
 9293SOL    HW239513   4.717   0.433   1.747 -2.1821 -2.6043 -0.3041
 9294SOL     OW39514   1.910   3.047   8.565  0.0857 -0.0182  0.6612
 9294SOL    HW139515   1.947   3.121   8.613  0.5048  0.0991  0.1606
 9294SOL    HW239516   1.881   3.085   8.482  0.1222 -1.8711 -0.2013
 9295SOL     OW39517   1.492   2.041   1.874 -0.0745  0.7988 -0.7437
 9295SOL    HW139518   1.417   1.995   1.835  1.5462 -2.5417  0.1313
 9295SOL    HW239519   1.446   2.120   1.906 -0.0052  0.2923  0.5924
 9296SOL     OW39520   4.488   4.520  13.110  0.5687 -0.6576  0.2737
 9296SOL    HW139521   4.513   4.570  13.032 -1.0375 -2.8434 -1.6360
 9296SOL    HW239522   4.447   4.592  13.159 -1.0114 -0.9549 -0.5993
 9297SOL     OW39523   1.933   2.201  12.599  0.3092 -0.0134  0.1580
 9297SOL    HW139524   1.899   2.117  12.630  0.0612  0.1818  0.4139
 9297SOL    HW239525   1.903   2.212  12.509 -1.7176  1.1398  0.9725
 9298SOL     OW39526   3.797   1.218   6.896  0.4312 -0.5076  0.2547
 9298SOL    HW139527   3.795   1.123   6.884 -0.0492 -0.2677 -1.5823
 9298SOL    HW239528   3.781   1.251   6.807 -0.4932 -0.3570  0.4791
 9299SOL     OW39529   0.572   2.350   7.573  0.0885 -0.1638 -0.5553
 9299SOL    HW139530   0.590   2.270   7.623  0.5490  0.8339  0.8583
 9299SOL    HW239531   0.631   2.335   7.498 -0.6358 -1.6824 -0.8306
 9300SOL     OW39532   4.162   4.721   4.599  0.1213  0.4566  0.3044
 9300SOL    HW139533   4.114   0.046   4.543  0.2463  0.6894  0.4442
 9300SOL    HW239534   4.138   4.643   4.549 -2.4810  0.9825  0.7815
 9301SOL     OW39535   0.566   3.370  16.408 -0.7794 -0.0063  0.6043
 9301SOL    HW139536   0.604   3.408  16.329  0.9367 -0.8829  1.0210
 9301SOL    HW239537   0.491   3.430  16.410  1.0947  2.3039  0.7556
 9302SOL     OW39538   4.476   0.779   7.802 -0.4754 -1.1681 -0.0934
 9302SOL    HW139539   4.511   0.770   7.891  0.1731 -0.2042 -0.2504
 9302SOL    HW239540   4.557   0.752   7.758 -0.1645  1.8502 -1.3859
 9303SOL     OW39541   3.100   0.774   4.654  0.2247  0.0741  0.6391
 9303SOL    HW139542   3.047   0.773   4.574  2.0954 -2.6410 -0.5553
 9303SOL    HW239543   3.027   0.780   4.716 -0.8227  1.5277 -0.7428
 9304SOL     OW39544   0.909   3.505   8.565  0.0734  0.2439  0.3156
 9304SOL    HW139545   0.923   3.413   8.589  0.0056 -0.1755 -1.2551
 9304SOL    HW239546   0.847   3.526   8.634 -1.7494  0.1800 -1.3112
 9305SOL     OW39547   4.554   4.523  11.320 -0.1083 -0.0806 -0.5957
 9305SOL    HW139548   4.643   4.551  11.300 -0.1301  1.2094  1.1085
 9305SOL    HW239549   4.553   4.511  11.415 -0.0371 -0.4959 -0.6448
 9306SOL     OW39550   1.862   0.470   8.594  0.0287 -0.1942  0.2283
 9306SOL    HW139551   1.911   0.551   8.611  0.6335 -0.5547  0.2314
 9306SOL    HW239552   1.789   0.505   8.543 -1.5901 -3.4566  0.3133
 9307SOL     OW39553   1.695   0.131  11.577 -0.3365  0.3319 -0.2018
 9307SOL    HW139554   1.719   0.039  11.583 -1.2763  0.1243  0.3337
 9307SOL    HW239555   1.770   0.166  11.528  1.9308 -0.7718  2.5044
 9308SOL     OW39556   3.997   1.606   1.591  0.2597 -0.0441  0.0042
 9308SOL    HW139557   3.916   1.565   1.621  0.1708 -0.1033 -0.3132
 9308SOL    HW239558   3.976   1.604   1.497  0.4733  0.7682 -0.0616
 9309SOL     OW39559   4.645   0.168  14.126  0.1473 -0.0605  0.0106
 9309SOL    HW139560   4.666   0.261  14.122  0.0929 -0.0216  0.5640
 9309SOL    HW239561   4.697   0.154  14.047 -0.2649  0.9296 -0.4429
 9310SOL     OW39562   1.245   4.133   1.794 -0.1675  0.4980 -0.2062
 9310SOL    HW139563   1.170   4.085   1.758 -0.0222  0.5771 -0.6210
 9310SOL    HW239564   1.288   4.066   1.847  1.3339  1.1928 -0.5545
 9311SOL     OW39565   2.048   3.531   7.647  0.0575 -0.2432  0.5441
 9311SOL    HW139566   1.960   3.568   7.647  0.3870  0.5211  1.1148
 9311SOL    HW239567   2.019   3.449   7.607  0.9820  0.1711 -0.9703
 9312SOL     OW39568   1.714   0.390  17.482  0.7434  0.7841 -0.1048
 9312SOL    HW139569   1.711   0.379  17.387 -1.0675 -0.4220  0.0913
 9312SOL    HW239570   1.705   0.298  17.506 -0.8919  0.7522 -0.8584
 9313SOL     OW39571   2.396   0.190  13.739 -0.4996 -0.2894  0.3132
 9313SOL    HW139572   2.352   0.267  13.773 -0.7219 -0.7628  1.1041
 9313SOL    HW239573   2.320   0.138  13.765 -0.6329  0.3218  1.1384
 9314SOL     OW39574   0.514   0.732   8.596 -0.0791 -0.2066 -0.4756
 9314SOL    HW139575   0.472   0.648   8.611 -0.0201 -0.2696 -0.6622
 9314SOL    HW239576   0.605   0.702   8.593 -0.1228 -0.4962  0.9713
 9315SOL     OW39577   0.247   1.583   6.791  0.1906 -0.3305 -0.4170
 9315SOL    HW139578   0.242   1.678   6.785  0.3550 -0.3693 -1.0817
 9315SOL    HW239579   0.313   1.573   6.859 -0.5311  0.2851  0.3862
 9316SOL     OW39580   4.514   3.809   0.919  0.4774  0.0291 -0.0749
 9316SOL    HW139581   4.445   3.755   0.958 -1.0096  0.2813 -2.3536
 9316SOL    HW239582   4.510   3.895   0.959 -1.6200  0.3504 -0.9811
 9317SOL     OW39583   0.337   0.939   5.407 -0.8018 -0.3053 -0.6238
 9317SOL    HW139584   0.334   0.854   5.365 -0.3480 -0.4054 -0.4602
 9317SOL    HW239585   0.397   0.993   5.355 -0.8567  0.5789  0.2125
 9318SOL     OW39586   1.801   1.218  16.787  0.6563  0.2588 -0.6700
 9318SOL    HW139587   1.852   1.293  16.756  1.2964  0.5345  1.0013
 9318SOL    HW239588   1.721   1.236  16.738  1.2756  1.2277 -1.3140
 9319SOL     OW39589   0.050   1.757   6.526 -0.8190 -0.3989 -0.0290
 9319SOL    HW139590   4.716   1.737   6.462 -1.7406  2.3775  0.0971
 9319SOL    HW239591   0.003   1.788   6.604 -0.4844 -2.6718  1.0714
 9320SOL     OW39592   3.973   3.441   8.545 -0.5578 -0.0920  0.1248
 9320SOL    HW139593   3.885   3.475   8.526  0.6787  1.8265 -2.1214
 9320SOL    HW239594   4.026   3.505   8.499 -0.5896  1.4794  2.3123
 9321SOL     OW39595   0.485   0.430   2.953 -0.0079 -0.0626 -0.2107
 9321SOL    HW139596   0.443   0.442   2.868 -2.2958 -2.4611  0.5703
 9321SOL    HW239597   0.407   0.399   3.000  0.2722  0.2164  0.4342
 9322SOL     OW39598   2.131   3.441   4.815  0.0028  0.0529  0.3331
 9322SOL    HW139599   2.127   3.372   4.748  0.4040  2.2942 -2.0119
 9322SOL    HW239600   2.157   3.511   4.755 -0.0952  1.2038  1.6454
 9323SOL     OW39601   3.387   2.441   1.460  0.3425 -0.1896  0.0773
 9323SOL    HW139602   3.440   2.398   1.528 -1.1853 -3.2236 -0.6678
 9323SOL    HW239603   3.457   2.486   1.412  1.0762 -0.8083  0.5824
 9324SOL     OW39604   3.175   3.725  12.169 -0.6360  0.5007 -0.0120
 9324SOL    HW139605   3.183   3.775  12.250  2.1364  0.5091 -0.2980
 9324SOL    HW239606   3.096   3.768  12.135  0.7812  1.5971 -1.9256
 9325SOL     OW39607   1.969   4.271   7.265  0.1739 -0.2021  0.0214
 9325SOL    HW139608   2.012   4.213   7.328 -0.4965  1.4744  2.0052
 9325SOL    HW239609   1.875   4.253   7.268  0.4234 -1.7274 -1.3086
 9326SOL     OW39610   0.257   4.648   6.188  0.7153 -0.5526  0.0297
 9326SOL    HW139611   0.318   4.673   6.256 -1.1286  1.5152  0.9439
 9326SOL    HW239612   0.259   4.553   6.188  0.2667 -0.5659  0.0745
 9327SOL     OW39613   0.448   1.995   3.494 -0.2285 -0.4009 -0.6155
 9327SOL    HW139614   0.463   1.930   3.426 -1.5094 -2.0903  0.6854
 9327SOL    HW239615   0.390   2.056   3.448  0.2423  1.2890  1.0290
 9328SOL     OW39616   0.005   2.666   3.229  0.1142 -0.0527  0.4529
 9328SOL    HW139617   0.096   2.666   3.259  0.5382  0.8916 -0.8063
 9328SOL    HW239618   4.698   2.662   3.315 -1.7687 -0.1578 -0.4775
 9329SOL     OW39619   2.261   1.488   8.971 -1.0030 -0.2435 -0.2470
 9329SOL    HW139620   2.277   1.452   9.058  0.5665 -1.8186 -1.2066
 9329SOL    HW239621   2.198   1.557   8.993 -0.6997 -0.1382  0.2799
 9330SOL     OW39622   2.772   3.115   7.496  0.2167 -0.0907 -0.4161
 9330SOL    HW139623   2.857   3.155   7.511  1.0405 -0.7575 -3.2571
 9330SOL    HW239624   2.721   3.176   7.550  0.6615  0.6109 -0.7894
 9331SOL     OW39625   0.290   3.536   6.185 -0.2284  0.1387 -0.5314
 9331SOL    HW139626   0.378   3.572   6.180  0.2936 -1.5043 -3.0670
 9331SOL    HW239627   0.311   3.445   6.169  0.4783  0.2856 -0.4189
 9332SOL     OW39628   3.457   3.659   7.145 -0.3623  0.0722 -0.0782
 9332SOL    HW139629   3.515   3.734   7.153  0.3124 -0.7088  2.2804
 9332SOL    HW239630   3.404   3.674   7.066 -2.8910 -0.8938  1.4396
 9333SOL     OW39631   2.139   4.503   6.525  0.3104  0.0052  0.0911
 9333SOL    HW139632   2.153   4.503   6.430  0.3154 -2.7075  0.0673
 9333SOL    HW239633   2.227   4.480   6.554  0.3311 -0.4661 -0.3382
 9334SOL     OW39634   2.886   2.268  17.636  0.4754 -1.3707  0.0661
 9334SOL    HW139635   2.843   2.189  17.668 -0.9243 -0.6222  0.0530
 9334SOL    HW239636   2.940   2.232  17.566  1.2295 -2.0903  1.0260
 9335SOL     OW39637   0.469   4.450   6.554 -0.3618 -0.2141 -0.0488
 9335SOL    HW139638   0.434   4.537   6.535  0.1570  0.3482  1.6114
 9335SOL    HW239639   0.388   4.399   6.549 -0.1207 -0.8330  2.4170
 9336SOL     OW39640   0.971   3.859   2.663 -0.0711  0.0600 -0.1981
 9336SOL    HW139641   1.017   3.848   2.580 -1.3813  1.1097 -1.0686
 9336SOL    HW239642   0.950   3.768   2.685  1.2879 -0.5414 -1.4328
 9337SOL     OW39643   2.925   1.030  11.420 -0.3148 -0.3306  0.1920
 9337SOL    HW139644   2.986   0.966  11.384 -0.3555 -0.6790  0.7396
 9337SOL    HW239645   2.951   1.011  11.510  1.3065  0.4530 -0.1087
 9338SOL     OW39646   0.760   0.997   3.585 -0.0569 -0.0295 -0.2702
 9338SOL    HW139647   0.743   1.087   3.612  2.2556  0.3327 -0.0588
 9338SOL    HW239648   0.824   0.965   3.648 -1.3924 -1.3925  0.4040
 9339SOL     OW39649   3.786   2.983   5.484  0.4765 -0.2677 -0.2812
 9339SOL    HW139650   3.855   2.935   5.440 -0.8175 -1.2923 -1.1767
 9339SOL    HW239651   3.702   2.942   5.466 -0.5122  1.1625  1.0086
 9340SOL     OW39652   0.834   0.976   8.052  0.1822  0.2091  0.2580
 9340SOL    HW139653   0.882   0.956   7.971  1.2399 -2.8840  1.6772
 9340SOL    HW239654   0.745   0.994   8.022 -0.1735 -0.9264  0.6320
 9341SOL     OW39655   0.402   0.562   8.170  0.4260 -0.2330  0.0033
 9341SOL    HW139656   0.489   0.525   8.185  0.0844 -1.3281 -0.6859
 9341SOL    HW239657   0.355   0.499   8.115 -2.5134  1.3762  0.7074
 9342SOL     OW39658   2.131   1.125  10.769  0.5105  0.3841  0.5551
 9342SOL    HW139659   2.201   1.144  10.707 -0.9418  0.7839 -0.9463
 9342SOL    HW239660   2.160   1.181  10.841  1.7940 -2.0532  1.9580
 9343SOL     OW39661   1.298   0.641   3.294 -0.4251  0.4129 -0.4400
 9343SOL    HW139662   1.324   0.733   3.297 -0.3258  0.3907 -0.6546
 9343SOL    HW239663   1.212   0.639   3.252 -0.8295  0.5257  0.3758
 9344SOL     OW39664   0.015   0.184   8.686 -0.0285 -0.0109  0.4186
 9344SOL    HW139665   4.688   0.153   8.751 -0.9270  0.5474 -0.1722
 9344SOL    HW239666   0.044   0.266   8.727 -1.4843  0.4196  0.5665
 9345SOL     OW39667   1.343   0.878   6.681 -0.6785  0.0909  0.0015
 9345SOL    HW139668   1.389   0.903   6.601 -0.8695 -0.4988 -0.2922
 9345SOL    HW239669   1.403   0.816   6.722  0.6905  0.6457 -1.2041
 9346SOL     OW39670   1.131   2.111   3.346 -0.3432  0.3678 -0.4416
 9346SOL    HW139671   1.137   2.151   3.432 -1.5244 -1.6479  0.5972
 9346SOL    HW239672   1.213   2.149   3.315 -0.0106 -0.2649 -0.3296
 9347SOL     OW39673   4.061   2.580  12.265  0.0202  0.2111  0.3275
 9347SOL    HW139674   4.051   2.519  12.337 -2.7908 -1.1522 -1.2098
 9347SOL    HW239675   3.972   2.612  12.248  0.4650  1.8252  1.0972
 9348SOL     OW39676   3.888   2.646   3.566  0.4332 -0.6724 -0.4121
 9348SOL    HW139677   3.930   2.589   3.501  1.7634 -0.7883  0.5615
 9348SOL    HW239678   3.888   2.596   3.648  1.2246  1.3657  0.8163
 9349SOL     OW39679   4.055   2.127  16.553  0.6122 -0.0954  0.2694
 9349SOL    HW139680   4.079   2.035  16.549  0.5939 -0.1027  0.3466
 9349SOL    HW239681   4.082   2.150  16.642  1.3684 -0.1420  0.0592
 9350SOL     OW39682   0.494   2.915  13.392 -0.9307 -0.1846  0.0973
 9350SOL    HW139683   0.546   2.860  13.333  0.0306 -0.3032  1.0506
 9350SOL    HW239684   0.507   2.863  13.471 -0.4513 -0.2814 -0.0393
 9351SOL     OW39685   3.761   2.835  16.891  0.0730  0.0704 -0.5025
 9351SOL    HW139686   3.730   2.837  16.982  0.9078  2.4184 -0.2678
 9351SOL    HW239687   3.715   2.758  16.858 -1.3329 -0.0847  1.7896
 9352SOL     OW39688   0.354   0.757   6.064 -0.1407 -0.9389  0.0146
 9352SOL    HW139689   0.410   0.767   6.142 -0.6368  0.4521  0.1901
 9352SOL    HW239690   0.308   0.840   6.069  1.4107 -0.0800  0.1382
 9353SOL     OW39691   3.815   2.071   9.624  0.2271 -0.5454 -0.0774
 9353SOL    HW139692   3.884   2.049   9.560  2.2358  1.1572  1.5028
 9353SOL    HW239693   3.852   2.078   9.712  1.0336 -2.0938 -0.2879
 9354SOL     OW39694   0.730   2.321  12.277 -0.6214  0.2700  0.0382
 9354SOL    HW139695   0.788   2.248  12.297 -0.1042  0.7260  0.2035
 9354SOL    HW239696   0.794   2.385  12.246 -1.4318  1.3434  0.5672
 9355SOL     OW39697   0.829   0.851   3.362  0.4492  0.2397  0.3416
 9355SOL    HW139698   0.885   0.779   3.391 -1.5134 -1.0152  0.9782
 9355SOL    HW239699   0.813   0.883   3.451  0.1858  2.1270 -0.3813
 9356SOL     OW39700   1.361   1.365  14.930 -0.4198 -0.0411  0.4147
 9356SOL    HW139701   1.401   1.324  15.006  0.7087  0.2647 -0.0136
 9356SOL    HW239702   1.440   1.405  14.892 -0.6216 -0.3820 -0.3659
 9357SOL     OW39703   1.997   2.421  13.696  0.4782 -0.6027 -0.0700
 9357SOL    HW139704   2.075   2.476  13.694  0.1054 -0.1034 -0.6263
 9357SOL    HW239705   1.997   2.401  13.790  0.6505  2.4660  0.5736
 9358SOL     OW39706   0.766   3.500   0.515 -0.3912  0.8969  0.5124
 9358SOL    HW139707   0.682   3.486   0.470  0.9271  3.2791 -2.6619
 9358SOL    HW239708   0.787   3.593   0.509 -0.2955  0.8803  0.5902
 9359SOL     OW39709   3.422   1.984   1.762  0.1771 -0.0081  0.2181
 9359SOL    HW139710   3.362   2.054   1.737 -0.0061  0.1674  1.1535
 9359SOL    HW239711   3.443   2.006   1.853 -0.2623 -1.0269  0.5659
 9360SOL     OW39712   2.121   1.062   9.901  0.2015 -0.1544  0.0273
 9360SOL    HW139713   2.060   1.135   9.911 -0.5714 -0.8088  0.1292
 9360SOL    HW239714   2.059   0.989   9.898  1.4767 -1.2781  1.2435
 9361SOL     OW39715   1.009   3.637   3.726  0.4876  0.2137  0.1694
 9361SOL    HW139716   1.034   3.730   3.725 -3.6154  1.3340 -2.4742
 9361SOL    HW239717   1.092   3.590   3.727 -0.8454 -2.0947  0.6375
 9362SOL     OW39718   3.595   4.118   7.214  0.3119 -0.1675 -0.2360
 9362SOL    HW139719   3.572   4.040   7.266 -0.3765  1.1691  1.4796
 9362SOL    HW239720   3.674   4.149   7.257 -1.6069  2.5139  1.4195
 9363SOL     OW39721   4.475   1.412   4.556 -0.1511 -0.2520  0.0315
 9363SOL    HW139722   4.503   1.503   4.564  0.7445 -0.6207  1.0598
 9363SOL    HW239723   4.528   1.367   4.490  0.1150 -0.0587  0.1152
 9364SOL     OW39724   0.692   0.112   2.688 -0.1167 -0.3739  0.7857
 9364SOL    HW139725   0.602   0.137   2.668  0.2571  0.7318  0.4983
 9364SOL    HW239726   0.709   0.060   2.609 -0.9423 -0.0648  0.4045
 9365SOL     OW39727   0.452   4.172  14.741 -0.1141  0.1344 -0.1517
 9365SOL    HW139728   0.360   4.154  14.761 -0.6962  1.4625 -1.5959
 9365SOL    HW239729   0.488   4.212  14.820  1.1495 -0.5597 -0.3762
 9366SOL     OW39730   3.098   0.726  16.781  0.2634  0.7126 -0.3785
 9366SOL    HW139731   3.174   0.696  16.730 -1.3407 -1.9531 -1.2122
 9366SOL    HW239732   3.083   0.814  16.748  0.9427  1.4116  1.1433
 9367SOL     OW39733   0.902   1.295   3.930 -0.1026  0.0968 -0.3355
 9367SOL    HW139734   0.943   1.295   4.017 -2.0338 -0.3220  0.5728
 9367SOL    HW239735   0.960   1.356   3.885  1.0878  0.8361  2.2000
 9368SOL     OW39736   0.139   3.763   9.469  0.0412  0.1793 -0.0503
 9368SOL    HW139737   0.093   3.847   9.465  0.1574  0.2542  0.2018
 9368SOL    HW239738   0.228   3.797   9.459  0.3123 -0.3001  0.7721
 9369SOL     OW39739   0.090   1.046   7.692  0.5363 -0.4501 -0.0776
 9369SOL    HW139740   0.105   0.952   7.705 -0.4253 -0.8266 -1.5822
 9369SOL    HW239741   0.004   1.035   7.651 -0.8801 -0.0647  2.8230
 9370SOL     OW39742   0.298   0.542   7.317  0.2361  0.1181  1.0584
 9370SOL    HW139743   0.206   0.567   7.304  0.6795 -0.0719 -2.2343
 9370SOL    HW239744   0.285   0.500   7.402 -1.1504 -0.3248  0.6295
 9371SOL     OW39745   0.688   3.157   2.289 -0.2192  0.1163 -0.4662
 9371SOL    HW139746   0.630   3.233   2.294  1.5331  1.4501 -0.3927
 9371SOL    HW239747   0.652   3.099   2.222 -0.8467 -0.8049  0.6622
 9372SOL     OW39748   3.144   2.348   5.831 -0.0903  0.2707 -0.4418
 9372SOL    HW139749   3.222   2.360   5.885  1.3919  0.1803 -2.5427
 9372SOL    HW239750   3.077   2.365   5.897  2.4973  1.2170  1.9661
 9373SOL     OW39751   2.205   4.442   9.372 -0.2066 -0.4587 -0.1473
 9373SOL    HW139752   2.110   4.450   9.368 -0.3911 -1.7174  1.5243
 9373SOL    HW239753   2.233   4.403   9.290  1.4145 -0.4346  0.3912
 9374SOL     OW39754   1.221   2.360   8.489 -0.0741  0.0563  0.4183
 9374SOL    HW139755   1.288   2.411   8.443  0.4918 -0.6599  0.4579
 9374SOL    HW239756   1.271   2.295   8.537 -1.9904 -1.3496  0.4813
 9375SOL     OW39757   1.859   3.146   4.861 -0.3396 -0.5869 -0.0909
 9375SOL    HW139758   1.928   3.187   4.914  0.1532 -0.3127 -0.9434
 9375SOL    HW239759   1.785   3.205   4.876  0.4155  0.7242 -1.5025
 9376SOL     OW39760   4.670   1.360  14.386  0.1277 -0.0822 -0.4390
 9376SOL    HW139761   4.625   1.282  14.353 -1.5084  1.0209 -0.8054
 9376SOL    HW239762   4.660   1.421  14.313 -1.4623 -0.0483 -0.1926
 9377SOL     OW39763   2.008   2.681   3.774  0.1136  0.8092  0.0954
 9377SOL    HW139764   1.969   2.760   3.738  0.5208  1.9734  2.2257
 9377SOL    HW239765   2.103   2.696   3.768  0.5086 -2.5411 -1.8343
 9378SOL     OW39766   0.938   1.381  13.905  0.0588 -0.7928 -0.0710
 9378SOL    HW139767   0.951   1.475  13.899 -0.0846 -0.7951 -0.4808
 9378SOL    HW239768   0.850   1.366  13.870  0.0008 -1.8234  0.5122
 9379SOL     OW39769   2.860   4.083   6.190 -0.2678 -0.1136 -0.0583
 9379SOL    HW139770   2.777   4.118   6.158 -0.6393 -1.1102 -0.1842
 9379SOL    HW239771   2.858   4.114   6.281 -1.8609 -0.8539  0.1597
 9380SOL     OW39772   4.082   4.630  17.471  0.3976 -0.7423 -0.2165
 9380SOL    HW139773   4.101   4.723  17.483 -0.9882 -0.2581 -1.6413
 9380SOL    HW239774   4.051   4.640  17.381 -2.6521 -1.0636  0.7848
 9381SOL     OW39775   4.665   4.222   7.896  0.6296  0.3050  0.0735
 9381SOL    HW139776   4.668   4.131   7.866 -2.7432  1.0246 -2.5457
 9381SOL    HW239777   4.631   4.259   7.815 -0.2912  2.3300  1.4004
 9382SOL     OW39778   4.381   1.263   4.759  0.2776  0.1730 -0.0277
 9382SOL    HW139779   4.358   1.342   4.807  0.1417 -0.7774  1.4816
 9382SOL    HW239780   4.449   1.301   4.703 -1.0572  0.5017 -1.4237
 9383SOL     OW39781   4.715   4.561  12.686  0.5619  0.0411  0.6364
 9383SOL    HW139782   0.026   4.491  12.733 -1.0972 -2.3508 -1.2950
 9383SOL    HW239783   4.649   4.509  12.640  1.2100 -0.5076  0.3309
 9384SOL     OW39784   1.623   3.269  15.924 -0.2052  0.6255 -0.4267
 9384SOL    HW139785   1.651   3.355  15.894 -1.3407  1.2855  0.4251
 9384SOL    HW239786   1.685   3.211  15.879 -0.5042  0.5292 -0.7123
 9385SOL     OW39787   3.826   3.810   4.178  0.5644  0.5606  0.0320
 9385SOL    HW139788   3.784   3.862   4.247 -0.1431  0.6558 -0.4609
 9385SOL    HW239789   3.887   3.757   4.229  0.5893  0.8215  0.2743
 9386SOL     OW39790   2.655   1.716   2.464 -0.1318 -0.5202 -0.2471
 9386SOL    HW139791   2.704   1.694   2.543  0.1394  0.8528 -0.0248
 9386SOL    HW239792   2.580   1.656   2.466  0.5137 -1.2879  0.8303
 9387SOL     OW39793   3.886   4.502   6.121 -0.3196 -0.1736 -0.1052
 9387SOL    HW139794   3.864   4.580   6.071  0.4256  0.0157 -0.1483
 9387SOL    HW239795   3.948   4.459   6.061 -0.6719 -0.8612  0.0254
 9388SOL     OW39796   3.179   0.895   1.091 -0.5480 -0.0174 -0.7081
 9388SOL    HW139797   3.250   0.914   1.031  1.0761 -2.8506  0.3090
 9388SOL    HW239798   3.148   0.806   1.070 -0.4630 -0.2787  0.2713
 9389SOL     OW39799   1.197   1.003   8.389 -0.4957 -0.2605 -0.6831
 9389SOL    HW139800   1.262   1.037   8.327  0.7474  0.8825  1.2537
 9389SOL    HW239801   1.122   0.990   8.330 -1.3564 -0.2214  0.3992
 9390SOL     OW39802   0.184   1.438   3.639 -0.2380 -0.0740 -0.1026
 9390SOL    HW139803   0.173   1.531   3.661  3.6490  0.0312  1.4113
 9390SOL    HW239804   0.127   1.401   3.705  0.6150  0.3018  0.8384
 9391SOL     OW39805   2.535   0.282   8.023 -0.1735 -0.4419  0.2801
 9391SOL    HW139806   2.497   0.352   8.076 -0.6804 -0.7755  0.3571
 9391SOL    HW239807   2.542   0.326   7.938 -3.4979 -2.4019 -1.0004
 9392SOL     OW39808   0.639   1.880   0.192  0.3591  0.0404 -0.0484
 9392SOL    HW139809   0.554   1.866   0.235  0.8369  2.1685  1.6094
 9392SOL    HW239810   0.668   1.965   0.226 -0.9438 -0.3370  2.0340
 9393SOL     OW39811   2.299   4.182   2.937  0.2646 -0.4607 -0.1029
 9393SOL    HW139812   2.244   4.200   3.013  0.5620  1.3565 -0.3055
 9393SOL    HW239813   2.331   4.272   2.924 -0.6388  0.0945  1.4543
 9394SOL     OW39814   3.862   1.520   0.865 -0.3418  0.1322 -0.0117
 9394SOL    HW139815   3.784   1.465   0.865  0.5068 -1.0694 -0.2614
 9394SOL    HW239816   3.868   1.524   0.770  1.7830  0.1694  0.1145
 9395SOL     OW39817   3.179   1.715   5.610  0.4157 -0.0567 -0.0077
 9395SOL    HW139818   3.148   1.707   5.520  1.4667  1.3027 -0.4859
 9395SOL    HW239819   3.135   1.641   5.650  1.1383 -0.5574 -0.1448
 9396SOL     OW39820   3.294   4.116   4.774 -0.3594 -1.1973 -0.2908
 9396SOL    HW139821   3.295   4.206   4.744 -1.3115 -1.9701 -2.5798
 9396SOL    HW239822   3.354   4.119   4.849 -0.0676 -0.6653 -0.5540
 9397SOL     OW39823   0.382   4.387   3.689 -0.3067 -0.4695  1.2646
 9397SOL    HW139824   0.294   4.398   3.723 -0.6258  2.8178 -0.6768
 9397SOL    HW239825   0.440   4.414   3.760  0.1718 -0.0617  0.7187
 9398SOL     OW39826   1.053   0.895   2.404  0.0816 -0.2922 -0.1331
 9398SOL    HW139827   1.107   0.818   2.388 -0.2091 -0.5488  0.1270
 9398SOL    HW239828   1.120   0.962   2.395  0.0759 -0.2850 -0.1233
 9399SOL     OW39829   1.772   2.309   7.881  0.3769  0.1651 -0.0511
 9399SOL    HW139830   1.695   2.278   7.928  0.1498 -0.5263 -0.8730
 9399SOL    HW239831   1.766   2.403   7.899  0.6329 -0.1759  1.7489
 9400SOL     OW39832   0.852   1.331   6.908  0.3934  0.2872 -0.1668
 9400SOL    HW139833   0.855   1.270   6.834 -0.3122 -0.2549  0.2492
 9400SOL    HW239834   0.757   1.344   6.906  0.2462 -0.8203 -0.7615
 9401SOL     OW39835   1.730   4.269   0.495 -0.0200 -0.1102 -0.2140
 9401SOL    HW139836   1.684   4.336   0.444 -1.0995 -0.6479  0.0503
 9401SOL    HW239837   1.731   4.309   0.582 -0.0886 -0.1425 -0.1980
 9402SOL     OW39838   0.366   4.315   5.060 -0.4697  0.2074 -0.2657
 9402SOL    HW139839   0.398   4.232   5.025  0.8865 -0.2449  2.0289
 9402SOL    HW239840   0.446   4.367   5.070  0.6299 -1.7648  1.0161
 9403SOL     OW39841   1.341   1.397  10.904  0.6946  0.6055 -0.4152
 9403SOL    HW139842   1.358   1.480  10.949  1.3725 -0.2446  0.9104
 9403SOL    HW239843   1.425   1.357  10.880 -0.6322 -2.4125 -0.0574
 9404SOL     OW39844   4.146   0.747   4.848  0.4591 -0.1704 -0.0471
 9404SOL    HW139845   4.104   0.662   4.861 -1.7793  0.8386 -0.7041
 9404SOL    HW239846   4.197   0.746   4.929 -1.6159  2.1712  1.3000
 9405SOL     OW39847   2.204   0.861  17.548  0.3893  0.0566 -0.1122
 9405SOL    HW139848   2.237   0.803  17.479 -1.9374 -0.3226 -0.9070
 9405SOL    HW239849   2.137   0.807  17.589  1.5738 -2.4769 -1.4795
 9406SOL     OW39850   4.058   4.196   1.293 -0.2758  0.4038  0.0655
 9406SOL    HW139851   4.067   4.154   1.379  0.9916  1.9378  0.6830
 9406SOL    HW239852   4.140   4.246   1.284 -0.4588  0.2927 -2.3145
 9407SOL     OW39853   2.302   3.932  15.076 -0.1872 -0.8896 -0.4979
 9407SOL    HW139854   2.361   4.006  15.094  0.7798 -1.6277 -0.6344
 9407SOL    HW239855   2.224   3.987  15.073  0.4646  0.0806  0.0396
 9408SOL     OW39856   1.810   3.541   4.059 -0.5151  0.1086  0.4465
 9408SOL    HW139857   1.819   3.493   3.976  0.4932  0.1422  0.5300
 9408SOL    HW239858   1.729   3.590   4.046 -0.2922 -0.0034 -1.3959
 9409SOL     OW39859   1.224   4.581   0.130  0.5793 -0.0910  0.0024
 9409SOL    HW139860   1.214   4.646   0.060 -0.8445 -1.2155 -0.8603
 9409SOL    HW239861   1.263   4.510   0.079  0.4636  0.1567 -0.4360
 9410SOL     OW39862   4.147   0.957   0.356  0.4619 -0.2118  0.4043
 9410SOL    HW139863   4.170   1.022   0.290  0.3070 -0.1608  0.4004
 9410SOL    HW239864   4.231   0.963   0.401 -0.2466 -2.7639  2.0443
 9411SOL     OW39865   0.509   1.074   3.299  0.3330 -0.2170  0.6711
 9411SOL    HW139866   0.540   0.997   3.345  2.6961 -0.4936 -1.3985
 9411SOL    HW239867   0.570   1.138   3.336  0.4259 -0.1961  0.4826
 9412SOL     OW39868   1.053   2.059  11.543  0.2037 -0.4076 -0.3380
 9412SOL    HW139869   0.961   2.039  11.562  0.1798 -0.7246 -0.7866
 9412SOL    HW239870   1.075   2.119  11.614 -1.8577 -0.0423 -0.0013
 9413SOL     OW39871   1.573   1.157   7.322  0.0346 -0.3794 -0.3981
 9413SOL    HW139872   1.479   1.137   7.324 -0.4027  1.7506  0.1747
 9413SOL    HW239873   1.565   1.240   7.274 -3.4963 -0.6836 -0.3796
 9414SOL     OW39874   2.568   3.467   5.992  0.1528  0.1133 -0.1898
 9414SOL    HW139875   2.536   3.378   5.977 -1.4832  1.0369 -2.2674
 9414SOL    HW239876   2.488   3.516   5.972  0.4265 -1.2918 -4.7308
 9415SOL     OW39877   4.039   0.119   8.174 -0.1029  0.1672 -0.5482
 9415SOL    HW139878   3.989   0.047   8.213 -2.6622  1.6930 -1.0066
 9415SOL    HW239879   3.975   0.149   8.109 -1.2024  0.0244  0.4744
 9416SOL     OW39880   3.042   4.447  13.191 -0.0253 -0.3767  0.1416
 9416SOL    HW139881   3.023   4.353  13.185  0.4935 -0.4056 -1.2641
 9416SOL    HW239882   2.984   4.486  13.126  2.1169  0.6667 -1.1436
 9417SOL     OW39883   2.338   0.374  14.597  0.5508  0.0805  0.3083
 9417SOL    HW139884   2.331   0.422  14.514  1.1504  0.4026  0.4380
 9417SOL    HW239885   2.303   0.445  14.651  0.1603  0.7916 -0.8680
 9418SOL     OW39886   0.756   4.052  17.673  0.3569  0.2390  0.3954
 9418SOL    HW139887   0.795   3.997   0.002 -0.3984  0.3647  0.9301
 9418SOL    HW239888   0.794   4.136  17.698  0.6663  0.1652  0.1804
 9419SOL     OW39889   1.515   2.491   3.305  0.0483  0.5776  0.3646
 9419SOL    HW139890   1.478   2.547   3.373  1.2105 -0.0769  1.5157
 9419SOL    HW239891   1.568   2.425   3.348  1.3107  0.8714 -0.7371
 9420SOL     OW39892   0.723   1.473   6.139  0.3455  0.5575 -0.1664
 9420SOL    HW139893   0.759   1.557   6.110 -1.4471  2.0298  1.8155
 9420SOL    HW239894   0.806   1.426   6.133 -0.8707 -1.2586 -2.8544
 9421SOL     OW39895   4.122   2.840   5.596  0.1456 -0.1290 -0.2527
 9421SOL    HW139896   4.171   2.788   5.532 -0.0369 -1.5288  0.7475
 9421SOL    HW239897   4.107   2.774   5.664 -0.2894  2.0246  1.7373
 9422SOL     OW39898   2.192   4.103   8.718 -0.3289 -0.7114  0.2486
 9422SOL    HW139899   2.287   4.097   8.703 -0.2289  0.2592  0.4729
 9422SOL    HW239900   2.176   4.184   8.671  1.3774 -0.6423 -0.2120
 9423SOL     OW39901   2.229   3.339   8.195 -0.4760  0.0889 -0.7024
 9423SOL    HW139902   2.142   3.367   8.223 -0.9670 -0.7247 -1.4138
 9423SOL    HW239903   2.221   3.372   8.106  2.2236 -1.7806 -1.6469
 9424SOL     OW39904   2.462   4.288   1.016 -0.7074 -0.4139  0.1450
 9424SOL    HW139905   2.385   4.234   0.995 -0.7242  0.5267 -2.1163
 9424SOL    HW239906   2.439   4.376   0.988 -0.4328 -0.9083 -1.6296
 9425SOL     OW39907   4.331   4.079  11.255 -0.8356 -0.5716 -0.2362
 9425SOL    HW139908   4.314   4.159  11.204  0.5393  0.3231  0.6995
 9425SOL    HW239909   4.380   4.027  11.192 -0.7757 -1.1195  0.2626
 9426SOL     OW39910   4.027   2.171   9.805  0.8483 -0.5517 -0.0581
 9426SOL    HW139911   4.089   2.194   9.736  1.4075 -0.2307  0.5500
 9426SOL    HW239912   4.077   2.179   9.887 -1.4903 -0.1760  1.3305
 9427SOL     OW39913   3.950   0.760   4.221  0.0666 -0.3205  0.1017
 9427SOL    HW139914   3.916   0.678   4.258 -0.1352 -0.6219 -0.7553
 9427SOL    HW239915   3.868   0.794   4.184  0.1874 -0.4406 -0.2786
 9428SOL     OW39916   0.649   1.762   8.118  0.8433 -0.4170  0.0420
 9428SOL    HW139917   0.731   1.741   8.163  0.9198 -2.0477 -0.8598
 9428SOL    HW239918   0.599   1.689   8.156 -0.6494  0.0564 -0.9918
 9429SOL     OW39919   0.382   4.197   3.959 -0.1553  0.6853 -0.2472
 9429SOL    HW139920   0.451   4.257   3.929  1.2312 -0.5994  0.3674
 9429SOL    HW239921   0.344   4.165   3.877 -0.5123  2.2533 -0.6884
 9430SOL     OW39922   2.546   4.574   2.060 -0.6631  0.6891  0.4512
 9430SOL    HW139923   2.574   4.664   2.077  0.0875  0.4117  0.7001
 9430SOL    HW239924   2.471   4.601   2.007 -0.1578 -0.0574 -0.6592
 9431SOL     OW39925   1.578   3.263   5.826 -0.3051  0.6178  0.1648
 9431SOL    HW139926   1.501   3.207   5.814 -0.9310  1.3546  0.6702
 9431SOL    HW239927   1.618   3.240   5.910  2.4645  0.7644 -1.1256
 9432SOL     OW39928   4.054   2.975   3.962 -0.3139 -0.3887  0.2116
 9432SOL    HW139929   4.067   3.056   3.913  0.5987 -0.3019  0.5863
 9432SOL    HW239930   4.050   3.015   4.049  0.1155  1.6872 -0.7141
 9433SOL     OW39931   2.345   0.542  12.460  0.0514 -0.4342  0.1731
 9433SOL    HW139932   2.252   0.519  12.447  0.0342  0.5540 -1.4913
 9433SOL    HW239933   2.352   0.547  12.555 -2.6798  1.8915  0.2741
 9434SOL     OW39934   1.925   4.022   6.462  0.1979 -0.3392  0.1659
 9434SOL    HW139935   1.869   4.056   6.532 -0.0352 -1.7778  0.6702
 9434SOL    HW239936   1.881   4.045   6.380 -0.5162  0.4310  0.7591
 9435SOL     OW39937   3.876   1.412   5.386  0.1606  0.4174 -0.2878
 9435SOL    HW139938   3.858   1.369   5.470 -2.1369 -0.0227 -0.9938
 9435SOL    HW239939   3.966   1.442   5.399 -0.0715  1.2917 -0.7142
 9436SOL     OW39940   4.351   1.438   5.608 -0.0238 -0.3348  0.0869
 9436SOL    HW139941   4.407   1.515   5.611 -1.5889  0.7838  0.2682
 9436SOL    HW239942   4.422   1.376   5.591  0.4239 -0.2232  1.6197
 9437SOL     OW39943   2.180   4.441  15.904  0.4663  0.1887 -0.5090
 9437SOL    HW139944   2.238   4.434  15.828  0.1102 -0.4373 -0.7210
 9437SOL    HW239945   2.238   4.475  15.973  0.2423  0.4665 -0.4583
 9438SOL     OW39946   0.333   0.422  11.238 -0.5806 -0.1374  0.0870
 9438SOL    HW139947   0.411   0.379  11.202 -2.1789 -2.7010 -0.3025
 9438SOL    HW239948   0.276   0.372  11.180  0.4898  0.3327 -1.3690
 9439SOL     OW39949   3.026   0.816   5.489 -0.0680  0.2452 -0.5338
 9439SOL    HW139950   3.097   0.772   5.443 -0.2988  1.4929 -2.0620
 9439SOL    HW239951   3.052   0.908   5.501  1.0080  0.0758 -1.6161
 9440SOL     OW39952   3.579   4.194  17.539 -0.0352 -0.7778  0.3212
 9440SOL    HW139953   3.563   4.195  17.634 -0.8692  0.2944  0.1633
 9440SOL    HW239954   3.553   4.102  17.533 -0.5231 -0.5932 -0.3220
 9441SOL     OW39955   2.486   4.017   3.819  0.7228  0.2499  0.4155
 9441SOL    HW139956   2.404   4.027   3.771 -0.6181  1.8113  3.0250
 9441SOL    HW239957   2.501   3.924   3.804 -1.2780 -0.0119  0.0480
 9442SOL     OW39958   3.906   2.975   8.871 -0.2856 -0.1289 -0.2462
 9442SOL    HW139959   3.896   2.975   8.966 -1.6004  0.3212 -0.3891
 9442SOL    HW239960   3.843   2.906   8.847  0.6280 -0.9163 -0.3783
 9443SOL     OW39961   2.481   4.259   1.327  0.4016  0.5545 -0.2102
 9443SOL    HW139962   2.478   4.217   1.241  0.8065  1.6797 -0.7830
 9443SOL    HW239963   2.558   4.218   1.366 -0.9572 -0.7572  1.1173
 9444SOL     OW39964   1.978   3.272   7.479  0.1381  0.1588  0.1719
 9444SOL    HW139965   2.070   3.282   7.452  0.2853  0.3569  0.7652
 9444SOL    HW239966   1.928   3.282   7.398  0.1949  1.6915  0.3251
 9445SOL     OW39967   4.273   1.186   5.325 -0.6972 -0.3282 -0.5728
 9445SOL    HW139968   4.243   1.141   5.246  0.0231 -2.3528  0.3011
 9445SOL    HW239969   4.361   1.208   5.294  0.3978 -0.5964  2.3554
 9446SOL     OW39970   2.579   2.941   7.454 -0.3203 -0.1776 -0.5294
 9446SOL    HW139971   2.652   3.003   7.455  0.6010 -1.2462 -0.8013
 9446SOL    HW239972   2.637   2.865   7.451 -2.0687 -1.4795 -1.5634
 9447SOL     OW39973   2.135   2.630   7.509 -0.2753  0.1610  0.4233
 9447SOL    HW139974   2.116   2.635   7.603 -0.3476 -1.9137  0.5323
 9447SOL    HW239975   2.043   2.617   7.484 -0.6046 -0.9665  2.1666
 9448SOL     OW39976   1.157   1.938   7.524 -0.4250  0.2890  0.8691
 9448SOL    HW139977   1.218   1.888   7.579 -1.5358  1.0342  2.7897
 9448SOL    HW239978   1.206   1.980   7.453  1.1532 -0.1493  1.6931
 9449SOL     OW39979   2.698   3.404   2.126 -0.1290 -0.1024 -0.4397
 9449SOL    HW139980   2.645   3.441   2.197 -0.8038  0.4747 -1.2561
 9449SOL    HW239981   2.748   3.334   2.169 -0.4522 -0.6629 -0.9814
 9450SOL     OW39982   4.386   3.612   2.442  0.0314  0.2728  0.4185
 9450SOL    HW139983   4.332   3.611   2.363  2.0729  1.1366 -1.0141
 9450SOL    HW239984   4.432   3.695   2.428  0.3103 -0.2491 -1.8713
 9451SOL     OW39985   0.079   0.796  10.439 -0.1358  0.6920  0.6811
 9451SOL    HW139986   0.026   0.789  10.519 -1.0766 -0.1163 -0.0064
 9451SOL    HW239987   0.015   0.798  10.368 -0.5229  4.2172  1.1246
 9452SOL     OW39988   2.280   3.625   7.733 -0.1506 -0.4663  0.0628
 9452SOL    HW139989   2.204   3.574   7.706 -1.1911  0.5043  1.1118
 9452SOL    HW239990   2.308   3.665   7.651  3.1394 -1.0069  0.9389
 9453SOL     OW39991   1.825   1.545  10.703 -0.3847 -0.0761  0.3377
 9453SOL    HW139992   1.818   1.464  10.652 -0.1159  0.3233 -0.3442
 9453SOL    HW239993   1.868   1.513  10.782  2.7702  1.6019 -0.6826
 9454SOL     OW39994   4.633   4.497   7.751  0.0353 -0.5264  0.2993
 9454SOL    HW139995   4.655   4.540   7.834 -1.2259  0.1728  0.2729
 9454SOL    HW239996   4.709   4.440   7.740  0.0076 -0.1520 -1.7925
 9455SOL     OW39997   1.526   4.039   4.035  0.4124 -0.7223  0.3225
 9455SOL    HW139998   1.506   3.973   4.102 -0.7006 -1.7473 -1.0272
 9455SOL    HW239999   1.622   4.033   4.034  0.3698 -1.2404 -0.8020
 9456SOL     OW40000   3.783   3.907   9.289  0.0223 -0.4218  0.5034
 9456SOL    HW140001   3.803   3.993   9.325  0.3297 -0.1378 -0.3428
 9456SOL    HW240002   3.721   3.935   9.221  0.5108 -2.4652 -0.7889
 9457SOL     OW40003   3.636   4.424   1.636  0.2246  0.2894 -0.4024
 9457SOL    HW140004   3.638   4.504   1.585  1.8257  0.3557 -0.2380
 9457SOL    HW240005   3.726   4.397   1.617  0.7505  1.2633  0.6879
 9458SOL     OW40006   3.646   1.718   8.636 -0.3754 -0.2316 -0.3952
 9458SOL    HW140007   3.671   1.649   8.698 -0.6805  1.1210  1.2375
 9458SOL    HW240008   3.687   1.791   8.682  1.1628 -0.4855 -1.3424
 9459SOL     OW40009   3.944   2.005   1.231  0.5543 -0.6880 -0.1167
 9459SOL    HW140010   3.927   2.043   1.317 -1.0573  0.4103 -0.9091
 9459SOL    HW240011   3.984   1.922   1.256  0.4450 -0.3614  1.1185
 9460SOL     OW40012   2.248   3.228  12.472 -0.0769 -0.1093 -0.6268
 9460SOL    HW140013   2.334   3.190  12.489 -0.0632 -0.3166 -1.1659
 9460SOL    HW240014   2.196   3.167  12.523 -2.8872  2.0926 -0.8368
 9461SOL     OW40015   3.959   2.226   2.479  0.1252  0.1441 -0.1783
 9461SOL    HW140016   3.934   2.317   2.461  0.1269  0.1651 -0.0762
 9461SOL    HW240017   4.052   2.230   2.458 -0.0926  1.5597 -0.9095
 9462SOL     OW40018   0.521   3.141  12.043  0.5916  0.7883  0.1389
 9462SOL    HW140019   0.584   3.187  11.988  0.5510  1.1917  0.4281
 9462SOL    HW240020   0.482   3.222  12.077  1.0986  0.0480  2.5198
 9463SOL     OW40021   3.808   2.516  13.555  0.0117 -0.5438 -0.0909
 9463SOL    HW140022   3.777   2.507  13.465  0.2705 -1.1783 -0.1169
 9463SOL    HW240023   3.889   2.467  13.543  0.4978  0.0337  0.8796
 9464SOL     OW40024   2.463   3.143  11.372  0.1119  0.1588 -0.1287
 9464SOL    HW140025   2.556   3.157  11.353  0.1105 -0.9262 -0.8783
 9464SOL    HW240026   2.465   3.158  11.467  2.1799  0.5882 -0.2336
 9465SOL     OW40027   4.592   4.659  10.661  0.2139 -0.8420  0.2854
 9465SOL    HW140028   4.558   4.572  10.640 -2.6062 -0.0391  1.4808
 9465SOL    HW240029   4.645   4.667  10.582  0.4644  2.6364  0.7847
 9466SOL     OW40030   3.967   3.285   3.498  0.2071 -0.0452  0.3821
 9466SOL    HW140031   3.882   3.249   3.471  1.0304 -0.0065 -2.3166
 9466SOL    HW240032   4.023   3.266   3.422 -0.7921 -1.2873 -0.0557
 9467SOL     OW40033   2.890   2.934   4.972  0.0853  0.0986  0.1998
 9467SOL    HW140034   2.916   3.024   4.989  3.1637 -1.0614  1.5525
 9467SOL    HW240035   2.929   2.921   4.886  2.6625 -2.9471  1.8367
 9468SOL     OW40036   1.117   0.287   1.897 -0.5101  0.3456  0.2493
 9468SOL    HW140037   1.204   0.248   1.889  0.6998  2.3982  3.6603
 9468SOL    HW240038   1.092   0.230   1.970 -0.9147 -0.3488 -0.4319
 9469SOL     OW40039   1.995   4.395  16.231  0.5271 -0.2228 -0.0946
 9469SOL    HW140040   1.913   4.387  16.182 -0.5714  1.0923  1.4812
 9469SOL    HW240041   2.018   4.304  16.244  2.8066  0.4355  0.4399
 9470SOL     OW40042   0.945   4.324   3.241  0.5125 -0.0570  0.0039
 9470SOL    HW140043   0.892   4.403   3.237  0.1837 -0.0661  3.7828
 9470SOL    HW240044   1.038   4.347   3.240  0.7424 -0.9480  0.5617
 9471SOL     OW40045   3.166   3.331   1.880  0.6854 -0.2777 -0.2555
 9471SOL    HW140046   3.232   3.300   1.818  2.5232 -0.9876  2.0734
 9471SOL    HW240047   3.087   3.321   1.827 -0.2946 -1.4882  1.4660
 9472SOL     OW40048   0.128   4.015  12.309 -0.1664 -0.5985 -0.2557
 9472SOL    HW140049   0.072   3.956  12.361 -0.7276  0.2267  0.0784
 9472SOL    HW240050   0.187   3.948  12.274 -0.9824 -0.5868 -1.6634
 9473SOL     OW40051   3.016   0.134   8.571 -0.1671 -0.3042 -0.1468
 9473SOL    HW140052   3.101   0.123   8.615  0.2672 -0.0336 -0.9114
 9473SOL    HW240053   3.008   0.043   8.541  0.4475 -0.5473  0.4117
 9474SOL     OW40054   0.770   2.097  10.917 -0.3167 -0.1670 -0.0597
 9474SOL    HW140055   0.679   2.076  10.940  0.1908 -1.0968  1.0666
 9474SOL    HW240056   0.762   2.137  10.831 -0.1648 -1.0894 -0.5042
 9475SOL     OW40057   4.695   3.436  11.555 -0.0916 -0.0623  0.3995
 9475SOL    HW140058   0.025   3.373  11.525  1.3371  1.0525  1.1373
 9475SOL    HW240059   4.617   3.388  11.526  0.2871 -0.7266  0.4845
 9476SOL     OW40060   4.517   1.452  10.980  0.0865  0.4264  0.1785
 9476SOL    HW140061   4.577   1.488  11.045 -1.7484  0.1616  2.0232
 9476SOL    HW240062   4.491   1.528  10.929 -3.0812 -0.6216  0.2636
 9477SOL     OW40063   4.390   0.586  16.377 -0.1494 -0.3315 -0.1666
 9477SOL    HW140064   4.333   0.635  16.318 -1.5958 -3.0820 -1.0402
 9477SOL    HW240065   4.326   0.522  16.408  2.6352 -2.1424  1.8453
 9478SOL     OW40066   1.008   0.874   6.548 -0.1499  0.0346 -0.3372
 9478SOL    HW140067   1.070   0.909   6.484 -2.9047  2.3043 -1.7753
 9478SOL    HW240068   0.931   0.861   6.492 -0.6581  1.4744  0.0221
 9479SOL     OW40069   1.358   3.527  12.059 -0.2702 -0.0950  0.1451
 9479SOL    HW140070   1.315   3.489  11.983 -0.7825  1.0937 -0.1672
 9479SOL    HW240071   1.413   3.596  12.022 -1.4942  1.3035  0.9341
 9480SOL     OW40072   2.222   1.893   8.987  0.6821 -0.4613 -0.4834
 9480SOL    HW140073   2.311   1.866   9.010 -0.1812 -0.3892  2.9384
 9480SOL    HW240074   2.175   1.810   8.986  0.2327 -0.2065  1.4132
 9481SOL     OW40075   0.660   2.432   5.627 -0.1511 -0.0711 -0.7427
 9481SOL    HW140076   0.744   2.430   5.672 -0.7488  0.5178  0.3829
 9481SOL    HW240077   0.606   2.478   5.691 -0.7514 -1.0171 -0.5558
 9482SOL     OW40078   1.120   0.551  13.952  0.1850  0.4332  0.3973
 9482SOL    HW140079   1.074   0.626  13.990 -0.7055 -1.9948  4.0841
 9482SOL    HW240080   1.078   0.484  14.006 -1.4773 -0.3067 -1.7735
 9483SOL     OW40081   0.528   1.723  12.059 -0.0530 -0.1983  0.0943
 9483SOL    HW140082   0.557   1.661  12.125 -2.5988 -2.4393 -0.8804
 9483SOL    HW240083   0.496   1.663  11.992  0.8971  0.0429 -0.5755
 9484SOL     OW40084   2.745   3.287   0.972 -0.1764 -0.2152 -0.0003
 9484SOL    HW140085   2.669   3.230   0.985 -1.5141  1.4241 -0.5144
 9484SOL    HW240086   2.708   3.361   0.924 -0.2009 -0.0954  0.2019
 9485SOL     OW40087   3.064   1.140   2.637 -0.1262  0.7212  0.2543
 9485SOL    HW140088   2.995   1.204   2.620 -1.0039 -0.8942 -2.4800
 9485SOL    HW240089   3.019   1.055   2.642  0.5229  0.1494 -3.0537
 9486SOL     OW40090   4.717   4.233   5.516  0.5776  0.0417  0.1396
 9486SOL    HW140091   4.696   4.245   5.608  0.4285 -0.3015  0.1481
 9486SOL    HW240092   4.677   4.147   5.509 -1.3474  1.0595 -1.6956
 9487SOL     OW40093   2.661   1.592   4.358  0.1274  0.0339 -0.4309
 9487SOL    HW140094   2.722   1.590   4.284 -0.5828  2.1246 -1.0745
 9487SOL    HW240095   2.638   1.683   4.342  0.0303  0.2113  0.7334
 9488SOL     OW40096   2.631   2.308   5.809 -0.1588  0.2188 -0.0322
 9488SOL    HW140097   2.686   2.325   5.885 -0.3138  0.3645  0.0466
 9488SOL    HW240098   2.684   2.230   5.789 -0.9367 -0.3194  0.0191
 9489SOL     OW40099   2.351   3.549   0.857 -0.2136 -0.0247  0.2374
 9489SOL    HW140100   2.366   3.460   0.826  0.4388  0.1383  0.0693
 9489SOL    HW240101   2.438   3.554   0.898  0.0725 -2.5770 -0.0640
 9490SOL     OW40102   2.848   3.492   3.579 -0.2396  0.2781  0.2009
 9490SOL    HW140103   2.826   3.430   3.510 -0.4154 -0.0461  0.5471
 9490SOL    HW240104   2.834   3.577   3.536  1.1050  0.7510  0.6977
 9491SOL     OW40105   2.681   2.690   3.203  0.1468  0.4763  0.2413
 9491SOL    HW140106   2.709   2.606   3.240 -0.9215 -0.0014 -0.0092
 9491SOL    HW240107   2.693   2.756   3.271 -2.9603  0.8397  0.4653
 9492SOL     OW40108   3.319   2.560   2.973  0.1117  0.0391 -0.2729
 9492SOL    HW140109   3.387   2.621   3.002 -2.2864  2.1793  0.8278
 9492SOL    HW240110   3.370   2.482   2.952 -0.4847 -0.7246  1.0844
 9493SOL     OW40111   3.649   3.924   5.260 -0.0360 -0.4719 -0.3029
 9493SOL    HW140112   3.629   3.939   5.353 -1.1531 -1.7668 -0.3371
 9493SOL    HW240113   3.744   3.922   5.268  0.0630  0.6677 -1.2621
 9494SOL     OW40114   4.157   0.668   3.444 -0.1432  0.1683 -0.0957
 9494SOL    HW140115   4.115   0.723   3.510 -0.1265 -0.0278  0.0786
 9494SOL    HW240116   4.113   0.703   3.366  0.7053 -0.3165 -0.7954
 9495SOL     OW40117   4.684   4.174  12.111 -0.6590  0.5568  0.0528
 9495SOL    HW140118   0.009   4.128  12.170 -1.1869  1.1175  1.0276
 9495SOL    HW240119   0.013   4.226  12.062 -1.9849  3.2575  1.1902
 9496SOL     OW40120   0.669   3.114   4.000  0.0296  0.1597  0.3217
 9496SOL    HW140121   0.646   3.128   4.092 -2.4496 -3.0056  0.1700
 9496SOL    HW240122   0.604   3.170   3.958  1.4391  0.1953 -1.8256
 9497SOL     OW40123   1.166   2.932   2.011  0.2500  0.6887 -0.4814
 9497SOL    HW140124   1.163   2.843   1.976 -0.6692  1.1931 -1.6542
 9497SOL    HW240125   1.072   2.944   2.004  0.4170 -0.3053 -4.6026
 9498SOL     OW40126   2.780   4.238   1.984  0.0472 -0.0408 -0.6888
 9498SOL    HW140127   2.871   4.212   1.966 -0.3807 -1.7503 -0.4075
 9498SOL    HW240128   2.786   4.286   2.067 -0.1139  1.1173 -1.3478
 9499SOL     OW40129   2.222   4.708  13.986 -0.1320  0.0152 -0.0162
 9499SOL    HW140130   2.210   4.715  14.080  1.0786  0.7004  0.0964
 9499SOL    HW240131   2.150   4.653  13.956  0.2739 -0.7750  0.4852
 9500SOL     OW40132   3.121   3.081   4.507 -0.3332 -0.3661  0.7139
 9500SOL    HW140133   3.115   3.033   4.424 -0.1108  0.8856 -0.0224
 9500SOL    HW240134   3.216   3.078   4.514 -0.5946 -2.0530  3.4230
 9501SOL     OW40135   2.065   0.213   3.156  0.3265 -0.1718  0.1980
 9501SOL    HW140136   2.120   0.136   3.168  1.3658  0.6078  0.4274
 9501SOL    HW240137   2.098   0.262   3.080 -1.3662 -0.0978 -0.4793
 9502SOL     OW40138   4.547   0.682   8.447  0.0501  0.2286  0.4099
 9502SOL    HW140139   4.563   0.630   8.526  1.2018  0.4550  0.3188
 9502SOL    HW240140   4.491   0.616   8.405  2.0191 -0.9767 -0.3216
 9503SOL     OW40141   3.120   0.108   3.481 -0.3644 -0.5165 -0.0553
 9503SOL    HW140142   3.162   0.194   3.484 -0.0253 -0.7556  1.7575
 9503SOL    HW240143   3.164   0.041   3.533  0.5952 -0.0539 -0.2574
 9504SOL     OW40144   0.617   2.954   9.642 -0.1967 -0.3469  0.0406
 9504SOL    HW140145   0.677   2.881   9.653  2.3766  1.5123 -1.6504
 9504SOL    HW240146   0.534   2.910   9.621  0.1007  0.1476 -2.1727
 9505SOL     OW40147   0.728   4.006  15.094  0.1065  0.3359 -0.4602
 9505SOL    HW140148   0.647   3.977  15.136  0.0429 -0.1536 -0.9256
 9505SOL    HW240149   0.691   4.064  15.027  1.7604  1.2316 -0.6045
 9506SOL     OW40150   1.527   4.359   5.410  0.8625 -0.7196  0.2724
 9506SOL    HW140151   1.463   4.372   5.340  0.1200 -0.0477  1.0680
 9506SOL    HW240152   1.539   4.265   5.404 -1.7300 -0.9362 -1.3967
 9507SOL     OW40153   1.899   2.836   5.078 -0.1825 -0.0279  0.3795
 9507SOL    HW140154   1.852   2.815   4.997  0.6748  0.4126 -0.2373
 9507SOL    HW240155   1.914   2.930   5.066 -1.6255  0.0335 -0.8945
 9508SOL     OW40156   1.854   3.060   2.638 -0.7811 -0.9596  0.1821
 9508SOL    HW140157   1.905   3.138   2.615  0.8468 -1.5216  1.8122
 9508SOL    HW240158   1.773   3.080   2.593 -2.0303 -1.4564  2.1929
 9509SOL     OW40159   4.440   0.764   5.031  0.0693  0.5829  0.2404
 9509SOL    HW140160   4.472   0.719   5.109  0.6929 -1.9126 -1.4616
 9509SOL    HW240161   4.435   0.855   5.061  0.6922  0.0728  1.8874
 9510SOL     OW40162   1.608   4.696   4.254  0.2300  0.5478 -0.0940
 9510SOL    HW140163   1.688   4.670   4.209  0.9926  1.7538  0.5654
 9510SOL    HW240164   1.622   0.053   4.279 -0.2564  0.9846 -1.4269
 9511SOL     OW40165   1.020   1.543   2.811 -0.0730  0.0514  0.2136
 9511SOL    HW140166   0.984   1.466   2.855 -0.5129  0.7315  1.0426
 9511SOL    HW240167   0.953   1.543   2.744  0.2097  0.4324 -0.0673
 9512SOL     OW40168   4.020   2.728   7.383  0.3142  0.1018  0.2798
 9512SOL    HW140169   4.029   2.809   7.332  3.4550 -1.9292 -2.3887
 9512SOL    HW240170   4.087   2.675   7.340 -0.5007 -1.3327  0.7810
 9513SOL     OW40171   4.122   3.767  16.535 -0.2318  0.4342  0.4425
 9513SOL    HW140172   4.030   3.795  16.538 -0.2624  0.0056  3.9068
 9513SOL    HW240173   4.166   3.847  16.506  1.1004 -0.5566 -0.2347
 9514SOL     OW40174   1.362   2.326  16.604 -0.4616 -0.7435  0.1110
 9514SOL    HW140175   1.291   2.271  16.571 -1.7308  0.7736  0.3428
 9514SOL    HW240176   1.387   2.281  16.684 -0.5738  0.9148  1.0701
 9515SOL     OW40177   3.492   4.245  14.397  0.0382  0.1506  0.2371
 9515SOL    HW140178   3.426   4.306  14.431 -0.2896  0.2883 -0.6576
 9515SOL    HW240179   3.554   4.308  14.361  2.3163 -2.0057  0.3999
 9516SOL     OW40180   1.916   2.719   5.773  0.3906 -0.1321 -0.4995
 9516SOL    HW140181   1.850   2.777   5.809  1.9046  2.2121 -1.5113
 9516SOL    HW240182   1.936   2.765   5.692 -1.5092  0.5441 -0.5743
 9517SOL     OW40183   3.902   3.294   4.148 -0.4650 -0.3053  0.3586
 9517SOL    HW140184   3.895   3.203   4.176 -3.4983 -0.3542 -0.5358
 9517SOL    HW240185   3.993   3.320   4.135 -1.0906  0.9736 -1.4887
 9518SOL     OW40186   0.353   4.516  12.171 -0.8108  0.1177 -0.2883
 9518SOL    HW140187   0.376   4.438  12.119 -1.2509 -0.0866 -0.1797
 9518SOL    HW240188   0.351   4.483  12.261  1.6845  1.0103  0.0745
 9519SOL     OW40189   4.557   0.164  11.494 -0.3287 -0.4899 -0.3157
 9519SOL    HW140190   4.587   0.192  11.407 -2.5510  0.5611 -0.7720
 9519SOL    HW240191   4.479   0.111  11.479 -1.7939  1.2101  1.2182
 9520SOL     OW40192   0.674   4.186   5.019  0.5537 -0.1182 -0.3374
 9520SOL    HW140193   0.633   4.247   4.958 -0.0790 -0.0339  0.1581
 9520SOL    HW240194   0.737   4.149   4.958  1.1006  0.0491  0.1304
 9521SOL     OW40195   3.100   3.599   4.199  0.4748  0.5949 -0.2465
 9521SOL    HW140196   3.005   3.588   4.195  0.4984  1.2509 -2.3355
 9521SOL    HW240197   3.111   3.672   4.138  0.7889 -1.1860 -2.3019
 9522SOL     OW40198   3.193   0.907   1.811 -0.8587  0.6027 -0.4259
 9522SOL    HW140199   3.210   0.989   1.766 -0.5678  0.9319  0.2845
 9522SOL    HW240200   3.282   0.873   1.820 -0.7671  1.2027  1.0075
 9523SOL     OW40201   3.947   1.009   0.839 -0.2493  0.0068  0.3987
 9523SOL    HW140202   3.968   0.916   0.825 -0.9022  0.2861 -2.3406
 9523SOL    HW240203   3.888   1.005   0.914 -0.0825  1.4114  0.5961
 9524SOL     OW40204   1.662   3.946   8.994  0.1293  0.2522  0.2951
 9524SOL    HW140205   1.655   4.040   8.975  2.4720  0.4355  0.2557
 9524SOL    HW240206   1.748   3.922   8.958  0.6203 -2.0986  3.1364
 9525SOL     OW40207   1.990   4.672   8.479 -0.5083  0.8454 -0.1537
 9525SOL    HW140208   2.010   4.586   8.515  0.5991 -0.6938 -4.5228
 9525SOL    HW240209   2.012   4.661   8.387 -1.5910 -0.4054 -0.2558
 9526SOL     OW40210   1.861   0.167  12.226  0.5329  0.1873 -0.4072
 9526SOL    HW140211   1.834   0.086  12.183  0.0256  0.3560 -0.4085
 9526SOL    HW240212   1.863   0.144  12.319  2.2997 -0.1552 -0.5415
 9527SOL     OW40213   0.310   1.952  15.605 -0.2807 -0.1021 -0.0290
 9527SOL    HW140214   0.384   1.899  15.578 -1.2903 -1.1021 -0.8048
 9527SOL    HW240215   0.274   1.894  15.672  1.6138  0.0273  1.0950
 9528SOL     OW40216   1.057   2.776   9.592  0.2130 -0.6587  0.0216
 9528SOL    HW140217   1.124   2.765   9.659  0.8186  0.2794 -0.4203
 9528SOL    HW240218   0.987   2.823   9.638  0.5751  1.0138 -1.1155
 9529SOL     OW40219   3.732   1.493   8.758  0.1837 -0.9898 -0.0833
 9529SOL    HW140220   3.710   1.499   8.851 -2.1381  1.8383 -0.8305
 9529SOL    HW240221   3.667   1.430   8.728  0.0864 -0.2885 -1.3597
 9530SOL     OW40222   1.773   1.645   0.023  0.1356 -0.2004  0.3866
 9530SOL    HW140223   1.755   1.609   0.109 -2.6819  1.0444  0.3300
 9530SOL    HW240224   1.745   1.572  17.707 -4.2531  1.5614  0.3179
 9531SOL     OW40225   4.253   1.040   9.317 -0.2037 -0.2014 -0.8930
 9531SOL    HW140226   4.309   0.963   9.308  0.7862  0.3992  0.2545
 9531SOL    HW240227   4.313   1.111   9.294 -1.6047  1.6208  1.1136
 9532SOL     OW40228   2.221   3.427   6.576  0.3767 -0.0905 -0.4379
 9532SOL    HW140229   2.287   3.370   6.536 -1.2176 -2.7666  0.7115
 9532SOL    HW240230   2.143   3.406   6.525  0.7128 -0.6592 -0.7191
 9533SOL     OW40231   0.651   0.440   8.233 -0.2316  0.6957  0.0556
 9533SOL    HW140232   0.656   0.393   8.150 -2.8221  2.1177 -0.8966
 9533SOL    HW240233   0.720   0.506   8.226  0.1800  0.3415  0.7863
 9534SOL     OW40234   1.634   2.018   4.483  0.4721  0.1954 -0.3163
 9534SOL    HW140235   1.555   2.062   4.514 -0.0044 -2.0105  1.5657
 9534SOL    HW240236   1.622   1.928   4.512  0.6828  0.0370 -0.7269
 9535SOL     OW40237   3.387   2.833   8.780  0.3113 -0.3273  0.0563
 9535SOL    HW140238   3.360   2.922   8.756  0.8656 -0.2289 -0.1934
 9535SOL    HW240239   3.403   2.829   8.874 -1.0034 -0.6486  0.2756
 9536SOL     OW40240   0.276   2.597   3.182  0.1884  0.1018  0.4018
 9536SOL    HW140241   0.318   2.683   3.181  2.7790 -1.1769  0.4787
 9536SOL    HW240242   0.269   2.588   3.277 -3.1834 -1.4518  0.0089
 9537SOL     OW40243   2.045   0.294   1.802  0.0864  0.0654  0.2033
 9537SOL    HW140244   1.959   0.255   1.816 -0.0013  0.3251  0.3800
 9537SOL    HW240245   2.075   0.238   1.730  0.8188  0.9116 -0.1482
 9538SOL     OW40246   3.470   3.485   8.402  0.5153 -0.5034  0.2534
 9538SOL    HW140247   3.374   3.486   8.401  0.5479 -0.3682 -2.7603
 9538SOL    HW240248   3.488   3.453   8.314 -0.6712 -0.0921 -0.1302
 9539SOL     OW40249   2.358   2.323   5.952  0.3459 -0.1709 -0.5218
 9539SOL    HW140250   2.431   2.319   5.890 -0.0965  0.6684 -1.1086
 9539SOL    HW240251   2.328   2.411   5.930 -0.7944 -0.9154 -2.0185
 9540SOL     OW40252   1.227   2.813   2.827  0.4069 -0.2618 -0.4185
 9540SOL    HW140253   1.260   2.775   2.909 -2.4871  1.8329  1.7210
 9540SOL    HW240254   1.296   2.791   2.764  0.4622  0.6690 -0.6878
 9541SOL     OW40255   0.815   3.035   1.941  0.4060 -0.3393  0.1594
 9541SOL    HW140256   0.790   3.073   1.857  0.0576  3.3742  1.9534
 9541SOL    HW240257   0.729   3.030   1.981  0.2326  2.3567  0.1207
 9542SOL     OW40258   3.996   2.484  17.669  0.1897 -0.3027 -0.3206
 9542SOL    HW140259   4.053   2.534  17.727  1.6696 -1.1272 -1.0730
 9542SOL    HW240260   3.916   2.536  17.672  0.2321 -0.1685 -1.4687
 9543SOL     OW40261   0.552   0.658   7.308  0.3335  0.1070 -0.2543
 9543SOL    HW140262   0.604   0.584   7.339 -0.6767  0.2289  1.7030
 9543SOL    HW240263   0.460   0.633   7.302 -0.0977  1.4747  0.6459
 9544SOL     OW40264   0.698   0.938   7.716 -0.5539  0.0466 -0.2497
 9544SOL    HW140265   0.607   0.913   7.728 -0.1401 -1.5364 -0.3694
 9544SOL    HW240266   0.746   0.854   7.715 -0.1531  0.3274 -4.0984
 9545SOL     OW40267   2.854   3.566   6.914  0.6092  0.1017 -0.2895
 9545SOL    HW140268   2.878   3.474   6.909  0.4264 -0.0023  0.7706
 9545SOL    HW240269   2.923   3.599   6.972  0.4478  1.8301 -1.0592
 9546SOL     OW40270   2.097   1.408   7.539 -0.0092  0.3691 -0.4959
 9546SOL    HW140271   2.065   1.328   7.581  1.2821  0.0232 -0.1627
 9546SOL    HW240272   2.117   1.375   7.451  3.2657 -1.5924  0.9465
 9547SOL     OW40273   1.657   1.720   5.610  0.2048 -0.2308 -0.1306
 9547SOL    HW140274   1.570   1.750   5.581  1.6507  2.2449 -1.9023
 9547SOL    HW240275   1.699   1.798   5.574 -0.3723  0.2894  0.3154
 9548SOL     OW40276   2.463   4.432   3.249 -0.3390  0.6855 -0.0727
 9548SOL    HW140277   2.550   4.418   3.286 -0.7412  1.8418  1.3208
 9548SOL    HW240278   2.445   4.524   3.268 -1.8399  0.4899 -0.5364
 9549SOL     OW40279   3.235   1.455  12.261  0.7772 -0.2683 -0.2424
 9549SOL    HW140280   3.239   1.361  12.278 -0.5252  0.1804  2.5897
 9549SOL    HW240281   3.150   1.485  12.294  0.6193 -1.4734  0.4684
 9550SOL     OW40282   2.549   2.935   8.116 -0.0204  0.3181  0.6052
 9550SOL    HW140283   2.469   2.974   8.150 -0.6592  0.0786 -0.6409
 9550SOL    HW240284   2.582   2.882   8.188 -2.1136 -0.9833  0.6052
 9551SOL     OW40285   4.380   4.171   8.394 -0.4856  0.0216  0.0596
 9551SOL    HW140286   4.418   4.128   8.471  2.1825  1.1313 -0.6437
 9551SOL    HW240287   4.459   4.202   8.350 -0.1411  0.6371  1.1172
 9552SOL     OW40288   2.479   1.115   4.548  0.2224  0.4274  0.0642
 9552SOL    HW140289   2.489   1.086   4.457  2.2084  1.1232  0.0689
 9552SOL    HW240290   2.512   1.205   4.538  5.7162 -1.6174 -0.1550
 9553SOL     OW40291   1.340   3.102   7.177 -0.0093 -0.3090  0.7292
 9553SOL    HW140292   1.248   3.117   7.198 -0.5482  0.0007 -1.7483
 9553SOL    HW240293   1.400   3.161   7.221  0.5059 -0.8099  0.7016
 9554SOL     OW40294   2.130   2.826  10.160 -0.2987 -0.5736 -0.3883
 9554SOL    HW140295   2.078   2.808  10.238  0.3031 -1.6046 -0.2170
 9554SOL    HW240296   2.115   2.738  10.125 -1.6166 -0.0433 -1.1788
 9555SOL     OW40297   0.663   1.592   3.871 -0.1578  0.0062  0.8275
 9555SOL    HW140298   0.682   1.568   3.962  2.3116 -1.7460 -0.1710
 9555SOL    HW240299   0.650   1.687   3.871 -0.4615 -0.0348  0.2047
 9556SOL     OW40300   1.918   2.993   9.825 -0.5102 -0.3650 -0.0951
 9556SOL    HW140301   2.005   2.986   9.865  1.3150 -0.0918 -4.0794
 9556SOL    HW240302   1.881   3.064   9.877  1.0089 -0.7327  1.4994
 9557SOL     OW40303   3.677   1.561   9.022 -0.4478  0.1349  0.3634
 9557SOL    HW140304   3.603   1.616   9.045 -0.0873 -0.3318  2.6624
 9557SOL    HW240305   3.755   1.615   9.029  0.0647 -0.7214  1.3242
 9558SOL     OW40306   1.621   4.531   4.917 -0.1931 -0.2032 -0.0475
 9558SOL    HW140307   1.579   4.449   4.893  0.6580 -1.2100  1.9520
 9558SOL    HW240308   1.661   4.518   5.003  0.6995  0.7682 -0.3123
 9559SOL     OW40309   2.101   1.264   2.722  0.3114  0.5334  0.4634
 9559SOL    HW140310   2.079   1.185   2.673 -0.2887  0.6044  0.6156
 9559SOL    HW240311   2.130   1.230   2.807 -0.4945 -0.5724  0.3010
 9560SOL     OW40312   2.119   4.290   2.670 -0.5564 -0.3735  0.2369
 9560SOL    HW140313   2.044   4.231   2.681  0.3324 -1.5270  0.1260
 9560SOL    HW240314   2.083   4.346   2.602  1.4894 -1.2542 -1.5775
 9561SOL     OW40315   2.637   2.307  12.329 -0.2043  0.3856 -0.1478
 9561SOL    HW140316   2.659   2.278  12.418  0.5202 -2.6619 -1.3546
 9561SOL    HW240317   2.703   2.376  12.320  0.3155  0.0219  0.7729
 9562SOL     OW40318   0.045   4.171   1.988 -0.5194 -0.3735 -0.1131
 9562SOL    HW140319   0.043   4.258   2.027  1.7789  0.8031 -2.5518
 9562SOL    HW240320   4.688   4.146   1.980 -0.7843  1.2182 -2.0214
 9563SOL     OW40321   3.832   4.163   7.878 -0.2052 -0.4867 -0.2589
 9563SOL    HW140322   3.917   4.142   7.840 -0.0198 -1.2773  0.6158
 9563SOL    HW240323   3.812   4.076   7.913 -0.2435  0.3917  1.9074
 9564SOL     OW40324   4.208   0.227   3.316  0.1296 -0.2047 -0.3455
 9564SOL    HW140325   4.130   0.263   3.358  0.1467 -1.5710  0.8644
 9564SOL    HW240326   4.190   0.133   3.326  2.2995 -0.6457 -0.5369
 9565SOL     OW40327   1.888   1.567  14.462  0.4175  0.0827 -0.7696
 9565SOL    HW140328   1.878   1.575  14.368 -1.5178  0.8797 -0.5000
 9565SOL    HW240329   1.915   1.657  14.483  0.3199 -0.2669  0.8638
 9566SOL     OW40330   2.441   2.597   8.532 -0.0445 -0.2051 -0.5384
 9566SOL    HW140331   2.446   2.581   8.626  0.9490  1.0335 -0.3920
 9566SOL    HW240332   2.348   2.608   8.510 -0.0995 -1.5355 -0.9714
 9567SOL     OW40333   2.733   4.582  12.556 -0.1995  0.3021  0.0506
 9567SOL    HW140334   2.807   4.629  12.594 -0.2348 -0.2636  0.8232
 9567SOL    HW240335   2.756   4.603  12.466  0.1968  3.1472  0.8335
 9568SOL     OW40336   2.897   3.119   2.899 -0.4938  0.1696  0.3374
 9568SOL    HW140337   2.902   3.057   2.971  0.3317 -0.1235  0.0279
 9568SOL    HW240338   2.934   3.079   2.820  0.6549 -0.3699  1.1555
 9569SOL     OW40339   0.838   3.661   3.514  0.0938 -0.1465 -0.2949
 9569SOL    HW140340   0.890   3.671   3.594 -0.9323  1.2182  0.2010
 9569SOL    HW240341   0.815   3.753   3.502  1.9182  0.0503 -2.3435
 9570SOL     OW40342   2.413   2.732   2.572 -0.5543  0.1581  0.5495
 9570SOL    HW140343   2.413   2.737   2.477  0.4996  1.4045  0.6065
 9570SOL    HW240344   2.497   2.776   2.587  0.4985 -1.6872 -0.0607
 9571SOL     OW40345   2.812   2.097   4.625 -0.0849 -0.0060 -0.0901
 9571SOL    HW140346   2.862   2.126   4.701  0.0358  0.6590 -0.4263
 9571SOL    HW240347   2.802   2.002   4.633  0.8301 -0.1783 -0.9430
   4.73504   4.73504  17.73906
