Membrane in water
40347
    1TMC1    C1    1   1.757   1.941  11.399 -0.1227 -0.1837  0.0099
    1TMC1    C2    2   1.802   1.969  11.271  0.1222 -0.0975  0.3031
    1TMC1    C3    3   1.914   2.055  11.256  0.0208  0.5564  0.0822
    1TMC1    C4    4   1.811   2.002  11.509 -0.2568  1.2087  0.0601
    1TMC1    C5    5   1.917   2.085  11.487 -0.1505 -0.0779  0.4620
    1TMC1    C6    6   1.963   2.118  11.365  0.2557  0.4759 -0.3135
    1TMC1     C    7   1.650   1.832  11.418  0.0092  0.7072 -0.3020
    1TMC1     O    8   1.603   1.813  11.529 -0.2143 -0.4202  0.3735
    1TMC1     H    9   1.764   1.909  11.189  0.0176  2.8149 -1.7638
    1TMC1    H1   10   1.766   1.984  11.606  2.0539  0.3437  0.9571
    1TMC1    H2   11   2.055   2.175  11.366  0.6139 -0.1179  1.3065
    1TMC1    C7   12   1.996   2.122  11.606  0.3311 -0.3096  0.4304
    1TMC1    C8   13   1.974   2.063  11.122 -0.5882  1.0880 -0.4077
    1TMC1    O1   14   1.988   2.046  11.703 -0.5707 -0.0977  0.0401
    1TMC1    O2   15   2.026   1.966  11.070 -0.0130  0.0100 -0.0066
    1TMC1    O3   16   1.978   2.253  11.616 -0.1192 -0.9174 -0.6016
    1TMC1    H3   17   1.981   2.308  11.535 -0.6391 -1.0224 -0.6879
    1TMC1    O5   18   2.012   2.194  11.105 -0.1211 -0.2853  0.3734
    1TMC1    H5   19   1.948   2.257  11.144 -0.7570 -0.4119 -0.4447
    2MPD2     C   20   1.370   1.432  11.259 -0.0302 -0.0209  0.4530
    2MPD2    C1   21   1.387   1.483  11.388  0.4417 -0.5496 -0.6222
    2MPD2    C2   22   1.470   1.596  11.403  0.7368  0.2802  0.1259
    2MPD2    C3   23   1.541   1.645  11.296 -0.2585  0.8704 -0.4307
    2MPD2    C4   24   1.530   1.591  11.175  0.0647 -0.4697 -0.9244
    2MPD2    C5   25   1.433   1.498  11.153  0.2012 -0.6065  0.2457
    2MPD2     H   26   1.490   1.630  11.505  0.5838  3.4214 -0.8912
    2MPD2    H1   27   1.583   1.626  11.088  2.2542  2.1625  1.4347
    2MPD2    H2   28   1.327   1.337  11.232 -2.8087  0.5836  2.6877
    2MPD2    H3   29   1.424   1.467  11.050 -1.6328  0.4489  0.0972
    2MPD2     N   30   1.626   1.758  11.306  0.5269 -0.8252 -0.2850
    2MPD2    H5   31   1.684   1.795  11.231 -0.1929  0.3314 -0.2678
    2MPD2    N1   32   1.341   1.421  11.503 -1.2656 -0.5540  0.1445
    2MPD2    H7   33   1.354   1.478  11.585  0.5180  0.5387 -0.9155
    3TMC1    C1   34   1.029   2.565  10.686 -0.3362 -0.0532  0.4931
    3TMC1    C2   35   1.023   2.476  10.578 -0.0681  0.3034  0.2643
    3TMC1    C3   36   1.077   2.514  10.457  0.1782 -0.3899 -0.3212
    3TMC1    C4   37   1.095   2.686  10.666 -0.4313 -0.5078  0.1056
    3TMC1    C5   38   1.144   2.714  10.544 -0.0767 -0.5912 -0.3694
    3TMC1    C6   39   1.144   2.629  10.440  0.2443  1.1278 -0.0472
    3TMC1     C   40   0.933   2.544  10.792 -0.3724 -0.4068  0.2633
    3TMC1     O   41   0.892   2.433  10.814  0.1586  0.0689 -0.2128
    3TMC1     H   42   0.962   2.388  10.589  2.4844 -1.5413 -0.2688
    3TMC1    H1   43   1.124   2.744  10.753  3.7196 -0.9361 -0.9909
    3TMC1    H2   44   1.188   2.666  10.348  0.3477  2.1879  0.4252
    3TMC1    C7   45   1.209   2.842  10.520  0.6409  0.3432  1.3444
    3TMC1    C8   46   1.054   2.428  10.352  0.0615  0.0412 -0.3078
    3TMC1    O1   47   1.298   2.873  10.444  0.6985 -0.3118  0.5076
    3TMC1    O2   48   0.956   2.350  10.353  0.4052  0.4601  0.2054
    3TMC1    O3   49   1.121   2.925  10.576  0.2396  0.1343  0.0654
    3TMC1    H3   50   1.043   2.886  10.622  1.2114 -1.5406  0.2674
    3TMC1    O5   51   1.114   2.479  10.244  0.4698  0.2501 -0.0928
    3TMC1    H5   52   1.195   2.534  10.249  1.0872 -0.6584 -0.3178
    4MPD2     C   53   0.648   2.741  11.171  0.2834  0.0201  0.0854
    4MPD2    C1   54   0.700   2.841  11.091 -0.2376 -0.1398  0.4046
    4MPD2    C2   55   0.772   2.808  10.984  0.4366  0.1712 -0.0068
    4MPD2    C3   56   0.798   2.679  10.944  0.3460 -1.0405 -0.2521
    4MPD2    C4   57   0.741   2.581  11.025  0.0301  0.6513  0.6878
    4MPD2    C5   58   0.672   2.609  11.140 -0.3715 -0.2485  0.2158
    4MPD2     H   59   0.808   2.892  10.925  3.5147 -0.4291  1.0532
    4MPD2    H1   60   0.743   2.476  10.996  1.3382  0.7242  0.5161
    4MPD2    H2   61   0.588   2.765  11.258  0.6634  2.7854 -0.4410
    4MPD2    H3   62   0.632   2.529  11.202 -1.9079  1.0205  0.8552
    4MPD2     N   63   0.885   2.660  10.838  0.4380  0.3202  0.3905
    4MPD2    H5   64   0.919   2.746  10.795 -0.6479 -0.2501 -1.5697
    4MPD2    N1   65   0.682   2.981  11.112 -0.5518  0.8870 -0.0402
    4MPD2    H7   66   0.736   3.050  11.061  2.2336  0.7018  2.6975
    5TCq1    O1   67   1.269   0.135  12.242  0.0086  0.1330 -0.2246
    5TCq1    C1   68   1.247   0.148  12.110  0.4813  0.5626  0.2904
    5TCq1    O2   69   1.299   0.231  12.037 -0.1727  0.0473 -0.1508
    5TCq1    C2   70   1.181   0.029  12.050  0.1360  0.3234  0.3866
    5TCq1    C3   71   1.095   4.672  12.113  0.2642 -0.4271 -0.0666
    5TCq1    C4   72   1.043   4.571  12.028 -0.2763 -0.2960  0.0578
    5TCq1    C5   73   1.060   4.568  11.894  0.4830 -0.1691 -0.4941
    5TCq1    C6   74   1.154   4.651  11.843  0.3604  0.3876 -0.7802
    5TCq1    C7   75   1.217   0.004  11.921  0.3612 -0.1066  0.3090
    5TCq1    C8   76   1.224   4.593  11.736 -0.0635 -0.3948 -0.3751
    5TCq1    O4   77   1.163   4.527  11.657 -0.2942  0.1493  0.4651
    5TCq1    C9   78   0.956   4.471  12.088 -0.8261  0.6083 -0.5844
    5TCq1    O5   79   0.935   4.373  12.014  0.7370 -0.4483  0.0098
    5TCq1    O6   80   0.927   4.490  12.207 -0.2459  0.1674 -0.2020
    5TCq1    H1   81   1.237   0.057  12.293  1.7047  0.3309  1.1587
    5TCq1    H2   82   1.075   4.673  12.219  2.1293  1.8327  0.2449
    5TCq1    H3   83   1.017   4.491  11.831 -0.8285  0.3027 -0.1808
    5TCq1    H4   84   1.285   0.071  11.871  3.0970 -2.9355  0.2134
    6MPD2     C   85   1.585   4.594  11.695 -0.8594 -0.6124  0.2247
    6MPD2    C1   86   1.457   4.565  11.656 -0.4883 -0.0842 -0.0471
    6MPD2    C2   87   1.434   4.519  11.533  1.0464  0.2375  0.4156
    6MPD2    C3   88   1.539   4.474  11.450  0.5041 -0.3348  0.0170
    6MPD2    C4   89   1.670   4.488  11.494  0.1439  0.8254 -0.1434
    6MPD2    C5   90   1.690   4.550  11.619 -0.1198  0.6471  0.3685
    6MPD2     H   91   1.333   4.499  11.500  0.3890 -1.6267  3.4657
    6MPD2    H1   92   1.753   4.451  11.435  0.3502  0.8367  0.1370
    6MPD2    H2   93   1.606   4.644  11.789 -1.2230  1.8756 -1.0368
    6MPD2    H3   94   1.792   4.570  11.652 -0.3742  1.8618  0.3886
    6MPD2     N   95   1.503   4.426  11.323  0.1352 -0.5005 -0.0524
    6MPD2    H5   96   1.404   4.435  11.306  0.3868  1.6934 -0.3949
    6MPD2    N1   97   1.360   4.612  11.748  0.0995 -0.2681  0.2479
    6MPD2    H7   98   1.389   4.668  11.827 -0.3778 -1.0214  0.9642
    7TCq1    O1   99   3.418   4.107  12.538  0.4023  0.6896 -0.5523
    7TCq1    C1  100   3.464   3.979  12.568  1.0418  0.0027  1.1825
    7TCq1    O2  101   3.577   3.941  12.552  0.2769 -1.2132  0.1974
    7TCq1    C2  102   3.360   3.880  12.587 -0.9684  0.5330 -0.7784
    7TCq1    C3  103   3.237   3.890  12.534 -0.1667 -1.3036  1.1094
    7TCq1    C4  104   3.150   3.782  12.521 -0.8544  0.4950  0.3782
    7TCq1    C5  105   3.183   3.659  12.567 -0.0242  0.2721 -0.9341
    7TCq1    C6  106   3.299   3.651  12.632  1.4055 -0.4271 -0.0267
    7TCq1    C7  107   3.388   3.758  12.645 -0.4887  0.1247 -0.1520
    7TCq1    C8  108   3.306   3.550  12.742  0.9813 -0.2873  0.4444
    7TCq1    O4  109   3.224   3.455  12.738 -0.0319 -0.1564  0.4397
    7TCq1    C9  110   3.019   3.800  12.450 -0.0730 -0.0960  0.1303
    7TCq1    O5  111   2.953   3.703  12.415 -0.2097  0.2552  0.0702
    7TCq1    O6  112   2.970   3.916  12.437 -0.2222  0.1652  0.2374
    7TCq1    H1  113   3.328   4.112  12.577  0.2391  1.4310 -1.0321
    7TCq1    H2  114   3.217   3.970  12.465 -1.0152 -2.9767 -0.5822
    7TCq1    H3  115   3.117   3.573  12.558  1.0170 -0.4228 -1.9100
    7TCq1    H4  116   3.490   3.742  12.678 -1.2331 -1.4403  1.4374
    8MPD2     C  117   3.454   3.376  13.201  0.0369  0.3045 -0.3314
    8MPD2    C1  118   3.420   3.307  13.094  0.3367 -0.2081  0.4093
    8MPD2    C2  119   3.392   3.378  12.973 -0.1719 -0.7529  0.4830
    8MPD2    C3  120   3.416   3.510  12.963 -0.7290 -0.3493 -0.0496
    8MPD2    C4  121   3.460   3.580  13.074 -0.4083  0.4594 -0.9039
    8MPD2    C5  122   3.473   3.510  13.190 -0.3813 -0.0081 -0.0031
    8MPD2     H  123   3.365   3.317  12.888  0.4275  1.0530 -1.0114
    8MPD2    H1  124   3.475   3.687  13.079  0.5482  0.1056  3.2609
    8MPD2    H2  125   3.454   3.336  13.301  2.1954  1.4880  0.1407
    8MPD2    H3  126   3.496   3.569  13.278  1.2674 -0.4914 -0.0984
    8MPD2     N  127   3.382   3.590  12.845  0.0352  0.5997  0.1612
    8MPD2    H5  128   3.399   3.689  12.858  0.2378  1.0944 -3.8615
    8MPD2    N1  129   3.392   3.167  13.113  0.3197 -0.0041  0.2721
    8MPD2    H7  130   3.405   3.139  13.210  0.2517 -1.9313 -0.2811
    9TMC1    C1  131   1.301   1.901  11.214  0.3507  0.2454 -0.4030
    9TMC1    C2  132   1.213   1.833  11.291 -0.9866  0.3674 -0.5084
    9TMC1    C3  133   1.134   1.745  11.232  0.1942 -0.1827 -0.3456
    9TMC1    C4  134   1.302   1.885  11.076  0.0241 -0.0182  0.0057
    9TMC1    C5  135   1.223   1.785  11.024  0.1194  0.1882  0.5210
    9TMC1    C6  136   1.132   1.708  11.100  0.1652  0.0793  0.4589
    9TMC1     C  137   1.389   2.002  11.270 -0.4109  0.2572 -0.5997
    9TMC1     O  138   1.465   2.060  11.193 -0.9092  0.4311 -0.5736
    9TMC1     H  139   1.222   1.828  11.399 -0.8481  0.8868 -0.4968
    9TMC1    H1  140   1.361   1.949  11.011 -0.8112  2.9065  2.1104
    9TMC1    H2  141   1.063   1.630  11.069  0.4739  0.9571 -2.4167
    9TMC1    C7  142   1.281   1.733  10.897 -0.4970  0.2517  0.1840
    9TMC1    C8  143   1.055   1.670  11.327 -0.2949  0.1771  0.2820
    9TMC1    O1  144   1.395   1.763  10.853  0.8043  0.6009 -0.3201
    9TMC1    O2  145   1.044   1.705  11.443  0.1611 -0.1679 -0.6855
    9TMC1    O3  146   1.178   1.691  10.822 -0.5989  0.1312  0.0652
    9TMC1    H3  147   1.093   1.678  10.868 -0.9185 -0.6136 -0.7566
    9TMC1    O5  148   1.030   1.544  11.284 -0.2914 -0.2383  0.1200
    9TMC1    H5  149   1.085   1.523  11.204  1.3570 -3.2752  2.0416
   10MPD2     C  150   1.527   2.210  11.446  0.0303 -0.0018 -0.2868
   10MPD2    C1  151   1.413   2.138  11.483  0.9079 -0.0353  0.1809
   10MPD2    C2  152   1.367   2.154  11.611 -0.4355 -0.3143 -0.2340
   10MPD2    C3  153   1.426   2.244  11.701  0.1392  0.3713 -0.3028
   10MPD2    C4  154   1.541   2.312  11.665  0.6364 -0.4696  0.0297
   10MPD2    C5  155   1.593   2.291  11.543  0.3984  0.0026 -0.2447
   10MPD2     H  156   1.282   2.091  11.637 -0.3529 -0.6057 -0.6717
   10MPD2    H1  157   1.592   2.371  11.739 -2.8058  0.2607  1.8337
   10MPD2    H2  158   1.570   2.199  11.348  1.8012 -0.2506  0.5157
   10MPD2    H3  159   1.691   2.332  11.521  1.0267 -0.2949  1.9749
   10MPD2     N  160   1.377   2.262  11.834  0.1014 -0.4843  0.2296
   10MPD2    H5  161   1.442   2.308  11.897 -1.4847  1.5036  0.4217
   10MPD2    N1  162   1.350   2.038  11.403 -0.1068 -0.0792  0.0980
   10MPD2    H7  163   1.278   1.980  11.444 -0.0180 -0.3936 -0.1899
   11TCq1    O1  164   1.567   2.505  14.367  0.4221 -0.0768 -0.1594
   11TCq1    C1  165   1.502   2.509  14.486  0.0308 -0.0808  0.2100
   11TCq1    O2  166   1.560   2.528  14.591 -0.2760  0.3109 -0.1684
   11TCq1    C2  167   1.395   2.595  14.449 -0.2755  0.4112  0.8394
   11TCq1    C3  168   1.433   2.724  14.429 -0.3699 -0.7908 -0.4303
   11TCq1    C4  169   1.339   2.811  14.377  0.2562  0.5335 -0.2362
   11TCq1    C5  170   1.213   2.767  14.345  0.3084 -0.5088 -0.2231
   11TCq1    C6  171   1.179   2.640  14.367 -0.1652 -0.5683  0.4035
   11TCq1    C7  172   1.270   2.554  14.419 -0.4470  0.8093 -0.3195
   11TCq1    C8  173   1.053   2.597  14.313 -0.2873  0.2622 -0.6872
   11TCq1    O4  174   0.980   2.687  14.271 -0.1919  0.0688  0.6991
   11TCq1    C9  175   1.372   2.948  14.341 -0.6993 -0.4418 -0.0942
   11TCq1    O5  176   1.475   2.992  14.396 -0.2459  0.1871  0.5734
   11TCq1    O6  177   1.305   2.994  14.246  0.0300  0.9379 -0.7119
   11TCq1    H1  178   1.520   2.502  14.281  2.3477 -0.0633 -1.2172
   11TCq1    H2  179   1.534   2.758  14.449 -0.5257 -0.6419  0.0855
   11TCq1    H3  180   1.145   2.838  14.298  1.0605  1.2266  1.3304
   11TCq1    H4  181   1.255   2.448  14.433  2.9491  0.6175  1.8035
   12MPD2     C  182   0.788   2.447  14.297 -0.5393  0.0501 -0.5867
   12MPD2    C1  183   0.910   2.390  14.318 -0.2027 -0.3094  0.4484
   12MPD2    C2  184   0.918   2.257  14.329 -0.3921  0.1420 -0.9727
   12MPD2    C3  185   0.812   2.168  14.326 -0.4368 -0.7266  0.9899
   12MPD2    C4  186   0.691   2.226  14.293 -0.0125  0.5709 -0.2231
   12MPD2    C5  187   0.677   2.362  14.282 -0.2987 -0.2366  0.6771
   12MPD2     H  188   1.018   2.215  14.328 -0.6638 -0.6930  3.5530
   12MPD2    H1  189   0.601   2.168  14.279  1.4934 -1.3696 -1.7442
   12MPD2    H2  190   0.777   2.555  14.295 -0.0969  0.1057  0.2687
   12MPD2    H3  191   0.580   2.406  14.260 -0.8577 -1.3881  0.7972
   12MPD2     N  192   0.819   2.026  14.328  0.2512 -0.3611  0.2818
   12MPD2    H5  193   0.744   1.972  14.286  1.1130 -0.4333 -1.1640
   12MPD2    N1  194   1.033   2.461  14.338 -0.1215  1.0348 -0.5001
   12MPD2    H7  195   1.121   2.412  14.350 -1.2364 -0.9989 -0.6102
   13TCq1    O1  196   1.784   2.888  10.500  0.1890  0.1505 -0.4625
   13TCq1    C1  197   1.775   2.770  10.550 -0.0282  0.2089 -0.5574
   13TCq1    O2  198   1.861   2.711  10.614 -0.2046 -0.0284  0.2973
   13TCq1    C2  199   1.644   2.714  10.521 -1.2822  0.8066  0.2547
   13TCq1    C3  200   1.584   2.725  10.401  0.1189  0.7102  0.2316
   13TCq1    C4  201   1.505   2.618  10.349  0.4990 -0.4635 -0.0624
   13TCq1    C5  202   1.477   2.512  10.431 -0.6023 -0.1414 -0.0736
   13TCq1    C6  203   1.534   2.508  10.553  0.5514 -0.2372 -0.5322
   13TCq1    C7  204   1.609   2.610  10.599 -0.3118 -0.0375 -0.0690
   13TCq1    C8  205   1.462   2.433  10.656  0.2156  0.5049 -0.0704
   13TCq1    O4  206   1.466   2.471  10.773 -0.8320  0.0526 -1.2624
   13TCq1    C9  207   1.458   2.616  10.213 -0.4034  0.5497 -0.2220
   13TCq1    O5  208   1.337   2.578  10.197  0.6027  0.0839 -0.0936
   13TCq1    O6  209   1.523   2.680  10.126  0.4350 -0.0334  0.3573
   13TCq1    H1  210   1.701   2.918  10.459 -0.6845 -0.9067  0.5477
   13TCq1    H2  211   1.609   2.804  10.330  2.0123  1.2675  1.5356
   13TCq1    H3  212   1.408   2.450  10.376 -0.1368  0.0452 -0.8644
   13TCq1    H4  213   1.634   2.613  10.704 -2.2211  0.1915  0.3899
   14MPD2     C  214   1.255   2.128  10.620  0.0325  0.3595  0.0502
   14MPD2    C1  215   1.296   2.248  10.679 -0.1923  0.7676  0.2088
   14MPD2    C2  216   1.238   2.280  10.798 -0.7049 -0.5095  0.3866
   14MPD2    C3  217   1.148   2.202  10.868 -0.2322  0.0946  0.1509
   14MPD2    C4  218   1.139   2.071  10.821 -0.3691  0.2341 -0.0077
   14MPD2    C5  219   1.184   2.043  10.690  0.3145 -0.0652 -0.3366
   14MPD2     H  220   1.274   2.370  10.845 -0.0974 -0.1352 -0.7874
   14MPD2    H1  221   1.077   1.992  10.860  2.9168 -0.6276  3.4906
   14MPD2    H2  222   1.290   2.103  10.521  0.7716 -0.9432  0.6337
   14MPD2    H3  223   1.181   1.938  10.664  3.5673  0.2291 -1.8342
   14MPD2     N  224   1.087   2.248  10.980  0.2641  0.2991 -0.0433
   14MPD2    H5  225   1.108   2.347  10.988  1.3117  0.2830 -2.6420
   14MPD2    N1  226   1.391   2.327  10.609 -0.2318  0.6277  0.6873
   14MPD2    H7  227   1.407   2.294  10.515 -0.7578 -1.4508  1.3135
   15TCq1    O1  228   2.981   1.177   1.825 -0.2822  0.1532  0.0841
   15TCq1    C1  229   3.044   1.272   1.749 -0.1609  0.0240  0.1749
   15TCq1    O2  230   2.998   1.310   1.642 -0.9467  0.5337  0.0499
   15TCq1    C2  231   3.187   1.252   1.759 -0.3025 -0.1773  0.0520
   15TCq1    C3  232   3.247   1.250   1.881  0.4015 -0.9610 -0.6048
   15TCq1    C4  233   3.376   1.205   1.891 -0.4626  0.1342 -0.4391
   15TCq1    C5  234   3.447   1.166   1.786  0.4181  0.7616  0.0298
   15TCq1    C6  235   3.382   1.163   1.668 -0.0808  0.4536  0.5707
   15TCq1    C7  236   3.251   1.202   1.651  0.2730  0.3416  1.0603
   15TCq1    C8  237   3.457   1.100   1.562  0.4126  0.3383  0.1131
   15TCq1    O4  238   3.573   1.064   1.594  0.1518  0.6817  0.7344
   15TCq1    C9  239   3.443   1.229   2.011  0.2446  1.3095  0.5511
   15TCq1    O5  240   3.571   1.239   2.015  0.4054 -0.3848 -0.0235
   15TCq1    O6  241   3.375   1.260   2.110 -0.5262 -0.7059  0.5999
   15TCq1    H1  242   3.044   1.120   1.874 -1.2515  1.1669  2.4607
   15TCq1    H2  243   3.198   1.302   1.962  2.8049 -0.5403  0.5871
   15TCq1    H3  244   3.543   1.121   1.808  1.1076  0.5614 -3.3984
   15TCq1    H4  245   3.198   1.189   1.558  3.1523 -1.9737 -0.2602
   16MPD2     C  246   3.339   0.956   1.248 -0.0984  0.5934 -0.1049
   16MPD2    C1  247   3.439   1.001   1.340 -0.3062  0.6187  0.4116
   16MPD2    C2  248   3.574   0.970   1.318  0.8310  0.2196 -0.2043
   16MPD2    C3  249   3.613   0.880   1.220 -0.2017 -0.0693 -0.7817
   16MPD2    C4  250   3.522   0.842   1.129  0.8159 -0.4574  1.1056
   16MPD2    C5  251   3.389   0.877   1.147 -0.0778  0.1596  0.3301
   16MPD2     H  252   3.646   1.020   1.382  1.7831 -0.8967 -0.4004
   16MPD2    H1  253   3.546   0.777   1.046 -1.3519 -0.8743  0.7999
   16MPD2    H2  254   3.234   0.983   1.257 -0.3135  0.2598 -1.6215
   16MPD2    H3  255   3.313   0.837   1.080  1.8145 -0.4184 -1.4846
   16MPD2     N  256   3.749   0.842   1.204  0.0093  0.0148 -0.3182
   16MPD2    H5  257   3.804   0.864   1.286  1.2381  2.5239 -1.8194
   16MPD2    N1  258   3.384   1.067   1.453  0.0411  0.2258  0.3391
   16MPD2    H7  259   3.286   1.091   1.439 -0.1432 -0.3592  0.6301
   17TMC1    C1  260   0.519   1.323  10.258 -0.0636  0.4201  1.0069
   17TMC1    C2  261   0.390   1.298  10.297 -0.2315 -0.3825  0.2678
   17TMC1    C3  262   0.365   1.174  10.361  0.2358  0.0289 -0.1465
   17TMC1    C4  263   0.623   1.237  10.292 -0.0794 -0.6001 -0.0480
   17TMC1    C5  264   0.595   1.123  10.354  0.8538  0.1596 -0.5057
   17TMC1    C6  265   0.469   1.091  10.397 -0.3003 -0.1837 -0.6735
   17TMC1     C  266   0.554   1.452  10.201  0.2794  0.0622 -0.0626
   17TMC1     O  267   0.477   1.505  10.121 -0.5874 -0.0888  0.1614
   17TMC1     H  268   0.314   1.369  10.264 -0.2953 -0.4059  0.3637
   17TMC1    H1  269   0.726   1.254  10.261  0.1538 -0.4975  0.8047
   17TMC1    H2  270   0.443   0.992  10.434  1.2228 -0.6676 -0.9195
   17TMC1    C7  271   0.702   1.027  10.380 -0.1750 -0.3130  0.2896
   17TMC1    C8  272   0.233   1.128  10.378 -0.2967 -0.0544  0.7409
   17TMC1    O1  273   0.769   0.974  10.289 -0.4915 -0.3893  0.3657
   17TMC1    O2  274   0.218   1.011  10.419 -0.0817 -0.2000 -0.5400
   17TMC1    O3  275   0.678   0.978  10.502  0.0288  0.4546  0.4934
   17TMC1    H3  276   0.640   1.047  10.562 -2.0404 -0.5384  0.3223
   17TMC1    O5  277   0.137   1.223  10.361  0.5222  0.2975 -0.2606
   17TMC1    H5  278   0.163   1.283  10.288 -1.2840  2.8742  1.2235
   18MPD2     C  279   0.676   1.728  10.143 -0.0485  0.0519 -0.3094
   18MPD2    C1  280   0.740   1.621  10.205 -0.0627 -0.2404 -0.0735
   18MPD2    C2  281   0.873   1.636  10.238  0.5776  0.3595 -0.1412
   18MPD2    C3  282   0.946   1.757  10.224  0.0941  0.2257 -0.1674
   18MPD2    C4  283   0.879   1.868  10.182 -0.0882  0.0852  0.0990
   18MPD2    C5  284   0.747   1.848  10.130  0.2728  0.0447 -0.4823
   18MPD2     H  285   0.925   1.557  10.291  0.4721  0.4508  0.0990
   18MPD2    H1  286   0.925   1.967  10.177  1.3075 -0.5574  0.0767
   18MPD2    H2  287   0.577   1.723  10.098 -0.2900 -0.2439  0.2550
   18MPD2    H3  288   0.695   1.923  10.072 -1.6586 -1.7566 -1.0622
   18MPD2     N  289   1.079   1.771  10.270  0.2786 -0.3210  0.5789
   18MPD2    H5  290   1.117   1.863  10.290 -0.4581 -0.1233  1.0715
   18MPD2    N1  291   0.676   1.494  10.239  0.5014 -0.0084 -0.1656
   18MPD2    H7  292   0.735   1.433  10.294  0.2880  0.3718  0.4825
   19TMC2    C1  293   2.683   2.437  14.357 -0.5448 -0.3259  0.4166
   19TMC2    C2  294   2.645   2.514  14.470  0.0123  0.0760 -0.6470
   19TMC2    C3  295   2.517   2.507  14.511 -0.2342 -0.3003 -0.4596
   19TMC2    C4  296   2.598   2.346  14.303  0.3434 -0.3184  0.0592
   19TMC2    C5  297   2.475   2.336  14.360  0.0902  0.5487 -0.3233
   19TMC2    C6  298   2.421   2.415  14.458 -0.6705 -0.0268  0.0688
   19TMC2     C  299   2.823   2.437  14.323 -0.2152  0.2396 -0.5836
   19TMC2     O  300   2.876   2.547  14.320  0.0896  0.0806  0.4386
   19TMC2     H  301   2.712   2.591  14.507 -0.3494  0.6888 -1.2754
   19TMC2    H1  302   2.632   2.291  14.216  0.6507  1.4149 -0.9270
   19TMC2    H2  303   2.320   2.398  14.493 -0.2993  0.2337  1.2635
   19TMC2    C7  304   2.384   2.261  14.274 -0.2196  0.4350 -0.1576
   19TMC2    C8  305   2.484   2.584  14.629  0.7759 -0.2606  0.2298
   19TMC2    O1  306   2.435   2.187  14.189  0.1706 -0.2051 -0.0365
   19TMC2    O2  307   2.558   2.586  14.725  0.0115 -0.1684 -0.3191
   19TMC2    O5  308   2.347   2.570  14.641 -0.3353  0.1434 -0.3063
   19TMC2    H5  309   2.296   2.572  14.558 -2.0582  1.9992  0.7977
   20MPD2     C  310   3.106   2.381  14.281  0.0111 -0.4666 -0.5702
   20MPD2    C1  311   3.014   2.284  14.284  0.1887  0.3499  0.1532
   20MPD2    C2  312   3.055   2.153  14.296  0.4574 -0.9731  0.2955
   20MPD2    C3  313   3.192   2.118  14.298 -1.2769 -0.1950  0.1002
   20MPD2    C4  314   3.287   2.216  14.288  0.2120  0.0662  0.3476
   20MPD2    C5  315   3.243   2.341  14.272 -0.1002 -0.5314  0.0808
   20MPD2     H  316   2.983   2.072  14.301 -1.2510  0.5102 -0.4856
   20MPD2    H1  317   3.393   2.196  14.286  0.1495 -0.3901  1.3578
   20MPD2    H2  318   3.086   2.486  14.260  2.3584  0.5531  2.2833
   20MPD2    H3  319   3.314   2.422  14.257 -0.4499 -0.2555 -0.0927
   20MPD2     N  320   3.244   1.986  14.303 -1.3152  0.1272 -0.2182
   20MPD2    H5  321   3.346   1.988  14.302 -1.3296  1.4324  0.2818
   20MPD2    N1  322   2.876   2.311  14.301  0.3809 -0.0762 -0.1604
   20MPD2    H7  323   2.815   2.232  14.319  0.2473  0.1257  0.2778
   21TMC2    C1  324   0.136   1.958  14.401  0.2028 -0.8697 -0.4034
   21TMC2    C2  325   0.255   1.888  14.386 -0.1807 -0.1880  0.6170
   21TMC2    C3  326   0.340   1.869  14.486 -0.5577  0.3828  0.0590
   21TMC2    C4  327   0.096   1.994  14.526  0.3076  0.8560  0.0485
   21TMC2    C5  328   0.183   1.976  14.628  0.0807 -0.2807 -0.2363
   21TMC2    C6  329   0.301   1.909  14.614  0.1814  0.3916  0.7742
   21TMC2     C  330   0.061   2.009  14.287  0.3568  0.5323 -1.0741
   21TMC2     O  331   4.728   1.923  14.236 -0.2320  0.4876 -0.4503
   21TMC2     H  332   0.293   1.863  14.287 -2.1890 -0.1628 -0.1646
   21TMC2    H1  333   4.730   2.021  14.544  0.0757  0.1447 -0.1968
   21TMC2    H2  334   0.380   1.909  14.688 -0.3998 -1.6753  1.3997
   21TMC2    C7  335   0.177   2.074  14.735  0.1922  0.2910  0.8428
   21TMC2    C8  336   0.472   1.932  14.463  0.3190 -0.2817 -0.4230
   21TMC2    O1  337   0.245   2.059  14.838 -0.1591 -0.2704  0.7238
   21TMC2    O2  338   0.502   2.035  14.517 -0.0189 -0.3676 -0.4943
   21TMC2    O5  339   0.502   1.901  14.338 -0.1491 -0.1350 -0.5035
   21TMC2    H5  340   0.490   1.805  14.317 -1.1438  0.0924 -0.9550
   22MPD2     C  341   0.285   2.463  14.409  0.0451  0.5716 -0.3218
   22MPD2    C1  342   0.325   2.335  14.445 -0.0303 -0.2616  0.9828
   22MPD2    C2  343   0.258   2.231  14.394  0.4471  0.3164 -0.1571
   22MPD2    C3  344   0.151   2.249  14.304 -1.2330  0.0525 -0.3343
   22MPD2    C4  345   0.105   2.377  14.285  0.0918 -0.2828  0.6946
   22MPD2    C5  346   0.179   2.482  14.327 -0.1086  0.0929  0.3885
   22MPD2     H  347   0.292   2.131  14.419  0.7157  0.1773 -1.0848
   22MPD2    H1  348   0.009   2.404  14.241  1.0112  1.6704 -0.1221
   22MPD2    H2  349   0.339   2.551  14.444  0.9448 -0.7459  1.6257
   22MPD2    H3  350   0.160   2.588  14.317 -0.3492  0.1522  1.5193
   22MPD2     N  351   0.071   2.147  14.249 -0.2559  0.1495 -0.3399
   22MPD2    H5  352   0.009   2.185  14.178 -0.6007 -1.5822 -0.9652
   22MPD2    N1  353   0.433   2.302  14.530  0.4438  0.8725 -0.1861
   22MPD2    H7  354   0.464   2.208  14.553 -2.0419  0.5952  1.9949
   23TMC2    C1  355   1.624   3.516  14.939 -0.1846 -0.4297 -0.7678
   23TMC2    C2  356   1.596   3.640  14.885 -0.7284 -0.1096 -0.0968
   23TMC2    C3  357   1.502   3.647  14.782 -0.1403  0.4502 -0.2054
   23TMC2    C4  358   1.566   3.407  14.890 -0.5101  0.2848  0.4485
   23TMC2    C5  359   1.468   3.408  14.794  0.0764 -0.1902 -0.0380
   23TMC2    C6  360   1.440   3.532  14.737  0.2267 -0.4802  0.2690
   23TMC2     C  361   1.745   3.495  15.010  0.1911 -0.2457 -0.1276
   23TMC2     O  362   1.758   3.393  15.074 -0.4694  0.7129 -0.1021
   23TMC2     H  363   1.630   3.733  14.929  1.7380 -0.3230 -1.5528
   23TMC2    H1  364   1.592   3.306  14.920 -0.9210  0.1202  0.2551
   23TMC2    H2  365   1.379   3.529  14.647 -0.7451 -1.3358  0.9558
   23TMC2    C7  366   1.403   3.290  14.748 -0.1095 -0.0744  0.8674
   23TMC2    C8  367   1.446   3.777  14.741  0.0603 -0.6407 -0.0212
   23TMC2    O1  368   1.452   3.182  14.774 -0.2553  0.2881 -0.0179
   23TMC2    O2  369   1.330   3.771  14.692 -0.3115  0.4029 -0.0087
   23TMC2    O5  370   1.565   3.813  14.693  0.1921  0.1266  0.6064
   23TMC2    H5  371   1.641   3.763  14.729  0.7610 -0.0210 -0.7779
   24MPD2     C  372   2.222   3.666  15.143  1.0189  0.1404 -0.1514
   24MPD2    C1  373   2.144   3.561  15.194  0.1704  0.0038 -0.2605
   24MPD2    C2  374   2.023   3.529  15.143 -0.5761 -0.2354 -0.0597
   24MPD2    C3  375   1.970   3.604  15.039 -0.2266  0.3323  0.9907
   24MPD2    C4  376   2.051   3.700  14.985  0.0036  0.2219 -0.0277
   24MPD2    C5  377   2.173   3.731  15.039 -0.1663 -0.8778  0.0564
   24MPD2     H  378   1.961   3.457  15.195  0.7537 -0.9184  0.5839
   24MPD2    H1  379   2.025   3.753  14.894 -1.0814  1.8824  1.2457
   24MPD2    H2  380   2.323   3.689  15.175  0.9555 -0.8568  0.7747
   24MPD2    H3  381   2.222   3.819  14.999  0.5798 -1.8191 -1.0652
   24MPD2     N  382   1.842   3.594  14.983 -0.6727 -0.1690  0.3647
   24MPD2    H5  383   1.813   3.668  14.920 -1.1494  0.0627  0.8551
   24MPD2    N1  384   2.205   3.473  15.293 -0.1493  0.2879  0.3871
   24MPD2    H7  385   2.160   3.384  15.310 -1.7414  0.9249 -0.4630
   25TMC2    C1  386   1.039   0.725  11.248 -0.5933  0.2401  0.8106
   25TMC2    C2  387   1.123   0.806  11.184  0.5195  0.1733 -0.0820
   25TMC2    C3  388   1.134   0.930  11.239 -0.0939 -0.1098 -0.9315
   25TMC2    C4  389   0.972   0.761  11.361 -0.4876  0.2806  0.2799
   25TMC2    C5  390   0.982   0.891  11.406  0.6145 -0.0167  0.9269
   25TMC2    C6  391   1.067   0.977  11.349  0.1633  0.2639 -0.0434
   25TMC2     C  392   1.015   0.595  11.192  0.2055  0.0411 -0.1807
   25TMC2     O  393   1.097   0.542  11.117 -0.2938  0.5217 -0.9263
   25TMC2     H  394   1.175   0.793  11.090  1.0228  1.1280  0.0678
   25TMC2    H1  395   0.909   0.690  11.415 -1.4372 -0.4336 -1.7469
   25TMC2    H2  396   1.081   1.078  11.387  0.5890 -0.9012  2.9035
   25TMC2    C7  397   0.903   0.929  11.521  0.1771  0.1989  0.1755
   25TMC2    C8  398   1.232   1.026  11.178 -0.1346  0.1256  0.9219
   25TMC2    O1  399   0.869   0.841  11.597  0.1881  0.1392 -0.0598
   25TMC2    O2  400   1.201   1.134  11.126  0.4544 -0.1264 -0.8962
   25TMC2    O5  401   1.338   0.953  11.153  0.0882  0.2742 -0.3361
   25TMC2    H5  402   1.343   0.865  11.196 -1.3770 -0.0560 -0.8630
   26MPD2     C  403   0.636   0.344  10.949  0.5925  0.4212  0.7287
   26MPD2    C1  404   0.583   0.438  11.034  0.1781 -0.0033 -0.2599
   26MPD2    C2  405   0.671   0.505  11.111 -0.0843 -0.6112  0.0809
   26MPD2    C3  406   0.803   0.488  11.110 -0.6306 -0.1360 -0.2086
   26MPD2    C4  407   0.856   0.396  11.023 -0.0338 -0.5857  0.2276
   26MPD2    C5  408   0.774   0.320  10.945 -0.0056  0.1208  0.2195
   26MPD2     H  409   0.630   0.571  11.187 -0.6256  2.2708 -2.6978
   26MPD2    H1  410   0.964   0.383  11.023  0.1176  0.6666  0.0336
   26MPD2    H2  411   0.567   0.288  10.888 -1.7999  2.0838  1.9424
   26MPD2    H3  412   0.813   0.247  10.874  1.1311  2.0232 -1.1365
   26MPD2     N  413   0.878   0.571  11.200  0.4056 -0.2969  0.2959
   26MPD2    H5  414   0.833   0.647  11.251 -0.5416  0.9617 -2.3926
   26MPD2    N1  415   0.450   0.470  11.031 -0.0484  0.8735 -0.1058
   26MPD2    H7  416   0.398   0.419  10.960 -0.7617 -0.7335  1.5922
   27TMC2    C1  417   4.113   2.577  12.225 -0.3246  0.4770 -0.0746
   27TMC2    C2  418   4.230   2.551  12.154  0.2690  0.1779 -0.5439
   27TMC2    C3  419   4.345   2.563  12.233  0.0064  0.1592  0.4914
   27TMC2    C4  420   4.109   2.592  12.359  0.1597 -0.4380  0.0194
   27TMC2    C5  421   4.226   2.609  12.433  0.9844  0.5992  0.2328
   27TMC2    C6  422   4.344   2.599  12.366  0.5287  0.0883 -0.2230
   27TMC2     C  423   3.988   2.576  12.147 -0.9049 -0.3967  0.7884
   27TMC2     O  424   3.981   2.472  12.081 -0.3821 -0.5801  0.2202
   27TMC2     H  425   4.221   2.545  12.046 -0.4569  2.8226 -0.6269
   27TMC2    H1  426   4.009   2.590  12.402 -0.3335  2.9201 -0.9923
   27TMC2    H2  427   4.435   2.625  12.418 -1.1890  2.3652  1.6425
   27TMC2    C7  428   4.239   2.590  12.577  0.4894  0.1100 -0.1856
   27TMC2    C8  429   4.459   2.609  12.158  0.0974  0.5744 -0.1560
   27TMC2    O1  430   4.354   2.573  12.621 -0.0444  0.0872  0.3380
   27TMC2    O2  431   4.436   2.711  12.092 -0.2320 -0.2164 -0.5069
   27TMC2    O5  432   4.572   2.581  12.218 -0.5486 -0.5055 -0.2898
   27TMC2    H5  433   4.575   2.485  12.236 -1.9128 -0.8425 -1.8254
   28MPD2     C  434   3.490   2.633  12.158  0.4188  0.2284  0.1228
   28MPD2    C1  435   3.541   2.755  12.194 -0.5714 -0.6952 -0.7273
   28MPD2    C2  436   3.676   2.765  12.213  0.1254  0.2189 -0.1546
   28MPD2    C3  437   3.753   2.654  12.185  0.9840 -0.2839  0.0049
   28MPD2    C4  438   3.699   2.532  12.143  0.0308 -0.3968 -0.2428
   28MPD2    C5  439   3.564   2.523  12.139  0.2131 -0.2795 -0.3250
   28MPD2     H  440   3.723   2.855  12.249 -0.7644  0.1167  1.2558
   28MPD2    H1  441   3.752   2.443  12.112  1.8506  0.4774  0.3771
   28MPD2    H2  442   3.383   2.616  12.158  0.2155  1.4789 -0.3183
   28MPD2    H3  443   3.528   2.422  12.122 -1.2379  0.0105  1.0405
   28MPD2     N  444   3.895   2.661  12.199  0.3458 -0.0561 -0.5648
   28MPD2    H5  445   3.932   2.745  12.243 -2.5296  0.7452  0.3209
   28MPD2    N1  446   3.458   2.873  12.193  0.2572  0.1987  0.2223
   28MPD2    H7  447   3.368   2.862  12.146  1.1090 -0.2638 -1.2834
   29TMC2    C1  448   3.823   0.444  15.114  0.9481  0.1930 -0.2723
   29TMC2    C2  449   3.751   0.417  15.230  0.9771  0.2981  0.3466
   29TMC2    C3  450   3.727   0.526  15.307 -0.5266 -0.1416 -0.4253
   29TMC2    C4  451   3.881   0.566  15.085  0.3148 -0.4718 -0.0780
   29TMC2    C5  452   3.852   0.667  15.165 -0.0350 -1.0501  0.2373
   29TMC2    C6  453   3.783   0.648  15.285 -0.3391  0.1777 -0.0290
   29TMC2     C  454   3.785   0.361  15.001 -0.1836 -0.1465 -0.7973
   29TMC2     O  455   3.764   0.241  15.023 -0.3323  0.6373  0.2407
   29TMC2     H  456   3.690   0.328  15.240  2.3321 -0.6122  0.5358
   29TMC2    H1  457   3.921   0.584  14.986  0.1877  0.6594  0.0847
   29TMC2    H2  458   3.767   0.735  15.348 -1.6821  0.8281 -1.2500
   29TMC2    C7  459   3.849   0.804  15.121  0.2672  0.4560  0.0977
   29TMC2    C8  460   3.666   0.490  15.432 -0.1356 -0.3316 -0.3508
   29TMC2    O1  461   3.742   0.862  15.134 -0.5138  0.5956 -0.2540
   29TMC2    O2  462   3.704   0.388  15.494  0.1664 -0.1556  0.2847
   29TMC2    O5  463   3.620   0.609  15.488 -0.3837 -0.3701  0.8560
   29TMC2    H5  464   3.571   0.665  15.424  0.4878 -1.2504 -0.6038
   30MPD2     C  465   3.664   0.276  14.503 -0.4210 -0.5548 -0.4850
   30MPD2    C1  466   3.714   0.185  14.598 -0.1783  0.5689 -0.7265
   30MPD2    C2  467   3.749   0.228  14.724  0.5418  0.2197  0.0981
   30MPD2    C3  468   3.723   0.364  14.758 -0.5012  0.8560 -0.1075
   30MPD2    C4  469   3.669   0.449  14.664 -0.6413 -0.0115 -0.5598
   30MPD2    C5  470   3.644   0.407  14.534 -0.9392 -0.4161 -0.5729
   30MPD2     H  471   3.790   0.160  14.797  0.1700 -0.0991  0.0099
   30MPD2    H1  472   3.649   0.551  14.694 -0.1952  0.3091 -1.3482
   30MPD2    H2  473   3.642   0.247  14.400 -0.4486  2.1912 -1.2625
   30MPD2    H3  474   3.598   0.479  14.467  0.4639  1.4710  0.4934
   30MPD2     N  475   3.753   0.425  14.885 -0.3720  0.2398 -0.1269
   30MPD2    H5  476   3.737   0.525  14.890  4.2562  0.9988 -0.6671
   30MPD2    N1  477   3.739   0.050  14.565  0.4554 -0.0597 -0.2788
   30MPD2    H7  478   3.787   4.720  14.624 -0.3826  1.0140  1.6344
   31TMC2    C1  479   1.434   3.821  15.568  0.7747  0.5805  0.0942
   31TMC2    C2  480   1.323   3.899  15.595 -0.1006 -0.0529 -0.4965
   31TMC2    C3  481   1.308   3.962  15.717 -0.6994  0.0874  1.0256
   31TMC2    C4  482   1.525   3.793  15.664  0.1054  0.4204  0.4298
   31TMC2    C5  483   1.510   3.863  15.783 -0.4618  0.1048 -0.2469
   31TMC2    C6  484   1.407   3.940  15.812  0.1021  0.8177 -0.2915
   31TMC2     C  485   1.482   3.828  15.434  0.4877 -0.1505  0.4092
   31TMC2     O  486   1.416   3.896  15.361  0.3880 -0.2780  0.7291
   31TMC2     H  487   1.246   3.912  15.520 -2.4517  0.2712  1.9576
   31TMC2    H1  488   1.608   3.723  15.661 -0.1678 -0.0148  2.8665
   31TMC2    H2  489   1.396   3.987  15.909  2.6184 -0.3383  0.5475
   31TMC2    C7  490   1.583   3.822  15.901  0.4430  0.7296  0.3419
   31TMC2    C8  491   1.173   3.995  15.765 -0.3271  0.1714 -0.3276
   31TMC2    O1  492   1.624   3.708  15.912 -0.4997 -0.1925  0.2289
   31TMC2    O2  493   1.123   3.928  15.850  0.6115 -0.4276  0.2133
   31TMC2    O5  494   1.167   4.129  15.745 -0.0041  0.3584  0.4909
   31TMC2    H5  495   1.233   4.149  15.674 -0.5456  0.7698  0.1056
   32MPD2     C  496   1.929   3.911  15.188 -0.7112 -0.3932  0.4082
   32MPD2    C1  497   1.806   3.939  15.137  0.1023 -0.8708  0.7873
   32MPD2    C2  498   1.690   3.891  15.204  0.1227  0.4505 -0.7166
   32MPD2    C3  499   1.706   3.816  15.320 -0.3910 -0.2632  0.4017
   32MPD2    C4  500   1.831   3.772  15.352  0.3525 -0.3658 -0.2250
   32MPD2    C5  501   1.938   3.822  15.291  0.1924 -0.7868 -0.1143
   32MPD2     H  502   1.591   3.928  15.177  0.5751  1.6427 -0.7577
   32MPD2    H1  503   1.858   3.706  15.434 -0.9237  0.6681  1.0104
   32MPD2    H2  504   2.023   3.948  15.149 -0.0846 -3.5779 -1.1641
   32MPD2    H3  505   2.033   3.793  15.336  1.8766  0.3297 -2.9189
   32MPD2     N  506   1.609   3.780  15.418  0.0103  0.3203 -0.0376
   32MPD2    H5  507   1.651   3.741  15.502  0.8312 -0.5000 -0.8298
   32MPD2    N1  508   1.809   4.012  15.022  0.6271  0.3969  0.0844
   32MPD2    H7  509   1.901   4.032  14.985 -0.2373  1.3785 -1.5165
   33TMC2    C1  510   1.791   2.505  10.116 -0.5406 -0.1821 -1.0889
   33TMC2    C2  511   1.735   2.507   9.993  0.7748 -0.0124 -0.0257
   33TMC2    C3  512   1.746   2.616   9.916  0.2298 -0.5789  0.2964
   33TMC2    C4  513   1.874   2.609  10.155 -0.0298 -0.5529 -0.2227
   33TMC2    C5  514   1.878   2.714  10.074 -0.2995 -0.4266  0.3704
   33TMC2    C6  515   1.824   2.718   9.951 -0.1354  0.2842 -0.1988
   33TMC2     C  516   1.749   2.396  10.204 -0.2029 -0.3021 -1.0652
   33TMC2     O  517   1.639   2.346  10.176  0.4250 -0.2732  0.0389
   33TMC2     H  518   1.680   2.419   9.962  0.0447  0.4561 -0.0855
   33TMC2    H1  519   1.926   2.610  10.250 -1.6227  2.3433  0.5943
   33TMC2    H2  520   1.834   2.802   9.883 -0.7802  1.6237  1.3524
   33TMC2    C7  521   1.933   2.835  10.130  0.6406 -0.1233  0.2532
   33TMC2    C8  522   1.651   2.628   9.811 -0.4397  0.0072  0.2651
   33TMC2    O1  523   2.042   2.832  10.185  0.4404 -0.2276  0.0486
   33TMC2    O2  524   1.671   2.663   9.694 -0.0558  0.6724  0.5116
   33TMC2    O5  525   1.541   2.671   9.871  0.0929 -0.4189  0.1975
   33TMC2    H5  526   1.546   2.665   9.969  1.6398 -2.4471  0.0013
   34MPD2     C  527   1.770   2.143  10.644  0.0689  0.2223  0.5318
   34MPD2    C1  528   1.696   2.113  10.529  0.3318  0.2089  0.3880
   34MPD2    C2  529   1.709   2.196  10.418 -0.2806  0.0746 -0.5362
   34MPD2    C3  530   1.792   2.306  10.428  0.1612 -0.0973 -0.4448
   34MPD2    C4  531   1.870   2.329  10.539  0.5529  0.2730  0.1851
   34MPD2    C5  532   1.862   2.244  10.643 -0.1041  0.0198  0.1394
   34MPD2     H  533   1.661   2.168  10.325  0.2029 -3.7828  0.3793
   34MPD2    H1  534   1.937   2.414  10.545 -0.8471  1.4119 -0.3598
   34MPD2    H2  535   1.752   2.086  10.734 -2.6524  1.2629  0.6553
   34MPD2    H3  536   1.919   2.255  10.735  0.1693 -2.1161  0.2314
   34MPD2     N  537   1.817   2.397  10.326  0.4484 -0.5477 -0.1858
   34MPD2    H5  538   1.894   2.463  10.333  1.3611 -1.5364 -0.7540
   34MPD2    N1  539   1.610   1.997  10.531  0.5039 -0.5372  0.2553
   34MPD2    H7  540   1.597   1.947  10.618 -1.1479 -0.3866  0.0967
   35TMC2    C1  541   2.196   3.328  11.562 -0.4710  0.1157  0.5175
   35TMC2    C2  542   2.086   3.388  11.510 -0.1255 -0.0941 -0.2724
   35TMC2    C3  543   1.965   3.321  11.501 -0.0709 -0.4279  0.1109
   35TMC2    C4  544   2.188   3.195  11.605 -0.1594 -0.4804 -0.6285
   35TMC2    C5  545   2.072   3.132  11.583 -0.1327  0.1020 -0.8468
   35TMC2    C6  546   1.958   3.191  11.529 -0.2295 -1.1977 -0.0843
   35TMC2     C  547   2.312   3.408  11.594 -1.1410  0.2154  0.1660
   35TMC2     O  548   2.307   3.529  11.572 -0.0830 -0.6439  1.0479
   35TMC2     H  549   2.091   3.495  11.494  0.8604 -0.1314 -0.2422
   35TMC2    H1  550   2.277   3.139  11.632  0.4789  1.0317  0.3789
   35TMC2    H2  551   1.864   3.145  11.503 -0.3749 -1.0519  0.1858
   35TMC2    C7  552   2.065   2.996  11.634 -0.5244  0.0596  0.3917
   35TMC2    C8  553   1.845   3.374  11.439  0.7476 -0.1060  0.1066
   35TMC2    O1  554   2.151   2.961  11.713 -0.3683 -0.0158 -0.1659
   35TMC2    O2  555   1.847   3.450  11.340 -0.6332 -0.3965 -0.1689
   35TMC2    O5  556   1.765   3.385  11.544  0.3399 -0.6548  0.5019
   35TMC2    H5  557   1.801   3.321  11.610 -2.5937 -2.8468 -0.0727
   36MPD2     C  558   2.812   3.436  11.718  0.1672  0.1039  0.5813
   36MPD2    C1  559   2.778   3.308  11.711  0.1781  0.8052 -0.1116
   36MPD2    C2  560   2.654   3.268  11.676  0.2558  0.0768 -0.1467
   36MPD2    C3  561   2.554   3.363  11.653 -0.5946 -0.0245 -0.3289
   36MPD2    C4  562   2.583   3.495  11.670  0.4458 -0.9401  0.0652
   36MPD2    C5  563   2.712   3.531  11.703  0.0272 -0.0359 -0.4854
   36MPD2     H  564   2.638   3.162  11.662  0.0543  0.3720 -2.0965
   36MPD2    H1  565   2.507   3.570  11.687  1.9502  0.7314 -0.5400
   36MPD2    H2  566   2.910   3.468  11.750  0.2032 -1.1755  1.7637
   36MPD2    H3  567   2.737   3.635  11.721 -0.6209 -0.0483  0.4629
   36MPD2     N  568   2.424   3.321  11.613  0.3608  0.3161  0.5501
   36MPD2    H5  569   2.418   3.220  11.609 -0.2972  0.3913 -0.4846
   36MPD2    N1  570   2.877   3.211  11.730  0.1475 -0.0380  0.3513
   36MPD2    H7  571   2.971   3.249  11.740  1.1759 -2.8941  1.5007
   37TMC2    C1  572   0.138   3.237  11.581  0.0177 -0.4491 -0.6568
   37TMC2    C2  573   0.065   3.143  11.512 -0.2684 -0.3341 -0.0312
   37TMC2    C3  574   0.124   3.027  11.454 -0.5811 -0.1713 -0.4728
   37TMC2    C4  575   0.269   3.212  11.598  0.3770  0.5742  0.0376
   37TMC2    C5  576   0.328   3.105  11.534 -0.3566  0.4068  0.2628
   37TMC2    C6  577   0.261   3.003  11.472  0.5341 -0.2257  0.9026
   37TMC2     C  578   0.069   3.313  11.686 -0.0052 -0.3933  0.3899
   37TMC2     O  579   4.688   3.342  11.675 -0.9028  0.4494  0.0389
   37TMC2     H  580   4.696   3.157  11.525 -0.0423  1.2889  0.1290
   37TMC2    H1  581   0.338   3.284  11.641 -0.0193 -0.7695  2.9181
   37TMC2    H2  582   0.307   2.909  11.443  2.3615  0.8395  0.3435
   37TMC2    C7  583   0.470   3.095  11.546 -0.1744  0.2881 -0.1874
   37TMC2    C8  584   0.036   2.914  11.473 -0.9138 -0.2884 -0.1394
   37TMC2    O1  585   0.534   3.195  11.574  0.3720  0.3524  0.4390
   37TMC2    O2  586   0.004   2.878  11.586  0.0828  0.7373  0.6967
   37TMC2    O5  587   0.047   2.834  11.364  0.0613  0.2956 -0.4658
   37TMC2    H5  588   0.091   2.869  11.284 -1.2484 -0.6571 -1.6067
   38MPD2     C  589   0.082   3.487  12.169 -0.4397 -0.6898 -0.5436
   38MPD2    C1  590   0.181   3.402  12.156 -0.2237  0.1467 -0.0053
   38MPD2    C2  591   0.207   3.352  12.028  0.5153  0.1886  0.0804
   38MPD2    C3  592   0.118   3.375  11.921 -0.1267  0.4497 -0.5505
   38MPD2    C4  593   0.025   3.475  11.939  0.8240  0.4374  0.4836
   38MPD2    C5  594   0.005   3.528  12.067  0.0861  0.3187  0.0143
   38MPD2     H  595   0.287   3.283  12.004 -0.1576 -0.5385 -0.0815
   38MPD2    H1  596   4.701   3.496  11.852 -0.7235 -0.4707  1.3565
   38MPD2    H2  597   0.059   3.532  12.265  0.7959  0.6705 -0.8791
   38MPD2    H3  598   4.669   3.604  12.087 -0.5825 -1.1147  2.9993
   38MPD2     N  599   0.145   3.316  11.801  0.6877 -0.3053 -0.1883
   38MPD2    H5  600   0.234   3.267  11.802  0.1054 -1.3784 -1.1850
   38MPD2    N1  601   0.266   3.374  12.259  0.6377 -0.2484 -0.8669
   38MPD2    H7  602   0.342   3.310  12.236  1.3849  0.5550 -0.6346
   39TMC2    C1  603   4.294   0.821   1.789  0.1891  0.5800 -0.6916
   39TMC2    C2  604   4.230   0.934   1.830 -0.2643 -0.5006  0.2207
   39TMC2    C3  605   4.308   1.040   1.855 -0.4022  0.3644 -0.5551
   39TMC2    C4  606   4.430   0.821   1.763 -0.4474 -0.2906  0.0321
   39TMC2    C5  607   4.505   0.928   1.797 -0.2350  0.5384  0.0665
   39TMC2    C6  608   4.442   1.035   1.847 -0.1671  0.2321  0.2125
   39TMC2     C  609   4.211   0.736   1.711  0.1100 -0.3933  0.0368
   39TMC2     O  610   4.112   0.789   1.662  0.2414  0.0135 -0.3646
   39TMC2     H  611   4.122   0.927   1.842 -0.4525  1.1992 -0.4576
   39TMC2    H1  612   4.484   0.732   1.734  0.6790  0.3458  0.1645
   39TMC2    H2  613   4.497   1.129   1.852  2.4590 -1.1696 -1.9754
   39TMC2    C7  614   4.648   0.908   1.790  0.3251  0.3408  0.7696
   39TMC2    C8  615   4.250   1.166   1.895 -0.4620  0.1941 -0.4160
   39TMC2    O1  616   4.695   0.798   1.759  0.5221 -0.0866 -0.0482
   39TMC2    O2  617   4.316   1.256   1.943 -0.7667  0.0021 -0.1459
   39TMC2    O5  618   4.142   1.180   1.816 -0.0363  0.2015  0.3640
   39TMC2    H5  619   4.123   1.105   1.755 -1.0280  0.4181  0.4016
   40MPD2     C  620   4.292   0.396   1.584 -0.8709 -0.1700  0.7378
   40MPD2    C1  621   4.217   0.509   1.602 -0.3207 -0.3213  0.7703
   40MPD2    C2  622   4.089   0.508   1.548  0.1423  0.0592 -0.1778
   40MPD2    C3  623   4.043   0.402   1.475  0.4412  0.2137  0.4345
   40MPD2    C4  624   4.122   0.289   1.460  0.2992 -0.6646 -0.3696
   40MPD2    C5  625   4.248   0.288   1.506 -0.0032 -0.8460  0.1562
   40MPD2     H  626   4.027   0.596   1.558 -0.1215 -0.1668  0.1581
   40MPD2    H1  627   4.093   0.203   1.401  1.5887 -0.5607 -1.1486
   40MPD2    H2  628   4.392   0.392   1.627 -1.2190 -1.7338  1.3868
   40MPD2    H3  629   4.317   0.206   1.493  0.5565 -0.4776  0.7954
   40MPD2     N  630   3.916   0.400   1.422 -0.4320  0.9223  0.1806
   40MPD2    H5  631   3.885   0.311   1.384 -0.4392  1.9201 -2.1506
   40MPD2    N1  632   4.262   0.610   1.693  0.3521  0.0457 -0.1070
   40MPD2    H7  633   4.349   0.593   1.742  0.6381  0.5920 -0.4354
   41TMC2    C1  634   2.782   3.118  13.795 -0.5548 -0.3616 -0.5095
   41TMC2    C2  635   2.863   3.046  13.884 -0.0214 -0.1718 -0.0035
   41TMC2    C3  636   3.000   3.060  13.865  0.1089  0.0239 -0.7867
   41TMC2    C4  637   2.832   3.183  13.685 -0.3772  0.1388 -0.2449
   41TMC2    C5  638   2.972   3.200  13.681 -0.1243 -0.1819 -0.6668
   41TMC2    C6  639   3.058   3.142  13.772  0.4652 -0.3723 -0.2961
   41TMC2     C  640   2.641   3.112  13.806  0.0679  0.1869  0.3308
   41TMC2     O  641   2.577   3.145  13.708 -0.3177  0.3004 -0.0804
   41TMC2     H  642   2.814   2.979  13.953  0.0594  0.2789  0.4928
   41TMC2    H1  643   2.758   3.237  13.626 -0.5013 -0.4623 -0.6352
   41TMC2    H2  644   3.166   3.144  13.760  0.5376  0.3560  0.3866
   41TMC2    C7  645   3.035   3.271  13.566  0.2518 -0.3584  0.3196
   41TMC2    C8  646   3.091   2.998  13.961 -0.3635 -0.3364  0.1818
   41TMC2    O1  647   3.156   3.303  13.587 -0.1536  0.0332 -0.1765
   41TMC2    O2  648   3.185   2.926  13.927  0.3028  0.2932  0.0453
   41TMC2    O5  649   3.027   2.999  14.084  0.1243  0.4920 -0.0237
   41TMC2    H5  650   2.958   3.066  14.099  0.6341  1.4385 -1.8684
   42MPD2     C  651   2.363   3.084  13.906 -0.1510  1.3150 -0.0514
   42MPD2    C1  652   2.473   3.100  13.983  0.1368  0.2351 -0.3764
   42MPD2    C2  653   2.459   3.117  14.115 -0.6067 -0.0584  0.0052
   42MPD2    C3  654   2.343   3.103  14.176  0.2568  0.0487 -0.3396
   42MPD2    C4  655   2.232   3.068  14.102 -0.7855 -0.3279 -1.0449
   42MPD2    C5  656   2.247   3.065  13.967  0.1123 -0.7017 -0.4619
   42MPD2     H  657   2.549   3.131  14.174 -0.2844  2.9918 -1.2417
   42MPD2    H1  658   2.133   3.051  14.142 -0.7854  0.4449 -0.7114
   42MPD2    H2  659   2.369   3.079  13.798 -0.8303 -0.5020  0.0040
   42MPD2    H3  660   2.153   3.050  13.914  0.8398 -1.7283 -1.4471
   42MPD2     N  661   2.323   3.113  14.314  0.1342 -0.8890  0.2099
   42MPD2    H5  662   2.232   3.079  14.344  0.4847 -0.6208  1.5795
   42MPD2    N1  663   2.603   3.110  13.938  0.8964  0.2470  0.5376
   42MPD2    H7  664   2.676   3.111  14.009  2.0365 -1.2229 -0.6238
   43TMC2    C1  665   4.197   1.375   0.868 -0.3534  0.5676 -0.0153
   43TMC2    C2  666   4.134   1.495   0.889  0.1295 -0.6809 -0.5844
   43TMC2    C3  667   4.148   1.553   1.015 -0.2180 -0.9614  0.7373
   43TMC2    C4  668   4.280   1.329   0.963 -0.2525 -0.0211  0.0055
   43TMC2    C5  669   4.295   1.392   1.083 -0.7814 -0.0038 -0.0821
   43TMC2    C6  670   4.225   1.504   1.119 -0.3002 -0.4366  0.1951
   43TMC2     C  671   4.190   1.296   0.751  0.6718  0.0390  0.1849
   43TMC2     O  672   4.280   1.216   0.735  0.7551  0.2840 -0.0464
   43TMC2     H  673   4.089   1.549   0.806 -0.3614  0.8299  0.6637
   43TMC2    H1  674   4.328   1.233   0.950  0.1736  0.0245  1.2259
   43TMC2    H2  675   4.216   1.538   1.221  0.4937 -0.4813  0.2809
   43TMC2    C7  676   4.423   1.354   1.161 -0.0646 -0.4105  0.4749
   43TMC2    C8  677   4.109   1.692   1.017  0.1354  0.1853 -0.4347
   43TMC2    O1  678   4.498   1.278   1.103 -0.2396  0.3896 -0.6091
   43TMC2    O2  679   4.039   1.740   0.927  0.7312  0.2951  0.4624
   43TMC2    O5  680   4.174   1.763   1.117  0.1959 -0.3090  0.1826
   43TMC2    H5  681   4.142   1.854   1.134 -1.3626 -0.6126 -1.1309
   44MPD2     C  682   4.022   1.160   0.282 -0.2390 -0.3424 -0.4944
   44MPD2    C1  683   4.123   1.103   0.359  0.0967  0.2996  0.5388
   44MPD2    C2  684   4.144   1.153   0.495 -0.8875  0.6461 -0.0780
   44MPD2    C3  685   4.074   1.261   0.537  0.3476  0.1715  0.2435
   44MPD2    C4  686   3.972   1.312   0.457  1.2963  0.5909  0.2093
   44MPD2    C5  687   3.953   1.264   0.330  0.0464  0.6756  0.4575
   44MPD2     H  688   4.219   1.098   0.550 -0.1036  0.3661 -1.4208
   44MPD2    H1  689   3.915   1.401   0.482 -1.0569 -1.0249  0.5243
   44MPD2    H2  690   4.000   1.127   0.182  0.4369 -0.6147 -0.5487
   44MPD2    H3  691   3.874   1.315   0.275 -0.5609 -0.9629 -0.1911
   44MPD2     N  692   4.089   1.318   0.663  0.2036  0.5846  0.2845
   44MPD2    H5  693   4.026   1.395   0.682  0.0430  1.1994 -2.6232
   44MPD2    N1  694   4.204   0.993   0.325 -0.2458  0.5386  0.4849
   44MPD2    H7  695   4.285   0.985   0.385  1.5595  0.2939 -1.9828
   45TMC2    C1  696   0.013   3.923   9.329  0.2031 -0.0139  0.3517
   45TMC2    C2  697   0.082   3.829   9.397  0.1913  0.2310  0.6559
   45TMC2    C3  698   0.145   3.868   9.514  0.3024 -0.2863  0.1500
   45TMC2    C4  699   4.718   4.043   9.387 -1.2593  0.5085  0.9496
   45TMC2    C5  700   0.034   4.071   9.505  0.3435  0.8816 -0.7480
   45TMC2    C6  701   0.116   3.993   9.573 -0.0620 -0.3583  0.4068
   45TMC2     C  702   4.640   3.873   9.245  0.2617 -0.1888 -0.1615
   45TMC2     O  703   4.667   3.808   9.144  0.5708 -0.6313 -0.1062
   45TMC2     H  704   0.095   3.733   9.348 -0.3750 -0.2460  1.4516
   45TMC2    H1  705   4.657   4.114   9.333 -2.0394  0.2588  1.5065
   45TMC2    H2  706   0.154   4.019   9.671 -0.6047  0.0095  0.5181
   45TMC2    C7  707   0.033   4.213   9.555  0.4200 -0.2626 -0.6963
   45TMC2    C8  708   0.219   3.765   9.588  0.1985 -0.6773  0.2103
   45TMC2    O1  709   0.080   4.234   9.664  0.4587  0.3076 -0.0441
   45TMC2    O2  710   0.225   3.647   9.546 -0.1554  0.1424 -0.7152
   45TMC2    O5  711   0.314   3.826   9.664 -0.0357  0.3071  0.6411
   45TMC2    H5  712   0.318   3.924   9.667 -4.1541  0.4891 -0.6208
   46MPD2     C  713   4.383   3.885   9.104  0.1684 -0.7444 -0.1675
   46MPD2    C1  714   4.398   3.872   9.238 -0.3193  0.1627  0.0932
   46MPD2    C2  715   4.282   3.847   9.313  0.1851 -0.5743  0.0558
   46MPD2    C3  716   4.158   3.856   9.256 -0.4528 -0.7647 -0.0265
   46MPD2    C4  717   4.142   3.883   9.120  0.4522 -0.4206 -0.5116
   46MPD2    C5  718   4.258   3.907   9.046  0.4876  0.7248 -0.8602
   46MPD2     H  719   4.295   3.819   9.416  3.1800  0.0597 -0.1358
   46MPD2    H1  720   4.047   3.882   9.068  0.1184 -0.0416  0.0842
   46MPD2    H2  721   4.466   3.909   9.038  1.7111  1.3913  2.5710
   46MPD2    H3  722   4.248   3.923   8.940  2.2157 -1.8909 -1.4065
   46MPD2     N  723   4.046   3.847   9.340  0.4223 -0.7751  0.4375
   46MPD2    H5  724   4.065   3.823   9.436  0.8117  0.6117  0.7143
   46MPD2    N1  725   4.521   3.884   9.309 -0.1661 -0.3558  0.2688
   46MPD2    H7  726   4.528   3.889   9.411  0.1826  0.4957  0.2087
   47TMC2    C1  727   2.652   0.342   9.256  0.2252 -0.5263 -0.1456
   47TMC2    C2  728   2.582   0.230   9.211  0.5412  0.1135  0.1610
   47TMC2    C3  729   2.454   0.247   9.161  0.5247  0.0618  0.7363
   47TMC2    C4  730   2.598   0.464   9.239  0.0268 -0.3754 -0.2234
   47TMC2    C5  731   2.470   0.478   9.190 -0.1534 -0.3173 -0.6616
   47TMC2    C6  732   2.395   0.369   9.148 -0.0006  0.3604 -0.1972
   47TMC2     C  733   2.797   0.329   9.275 -0.3379 -0.2266 -0.2180
   47TMC2     O  734   2.869   0.429   9.266  0.1383 -0.0441  0.2980
   47TMC2     H  735   2.626   0.132   9.228 -1.3012 -0.8421 -0.5511
   47TMC2    H1  736   2.652   0.547   9.283 -1.3468 -0.0137  0.8125
   47TMC2    H2  737   2.297   0.392   9.108  0.6093  4.6094  0.7985
   47TMC2    C7  738   2.408   0.600   9.234 -0.6061 -1.1150 -0.0397
   47TMC2    C8  739   2.375   0.126   9.124 -0.6906 -0.2565  0.3666
   47TMC2    O1  740   2.477   0.699   9.261  0.3676  0.1362 -0.0655
   47TMC2    O2  741   2.253   0.137   9.114 -0.0026  0.1365  0.0476
   47TMC2    O5  742   2.452   0.071   9.030  1.1793  0.3861  0.5241
   47TMC2    H5  743   2.546   0.096   9.036  0.3753  4.0202 -1.9165
   48MPD2     C  744   3.077   0.238   9.331 -0.0970  0.0470  0.1056
   48MPD2    C1  745   2.966   0.171   9.379  0.5371 -0.9467 -0.4631
   48MPD2    C2  746   2.985   0.055   9.451 -0.1040 -0.0460  0.0217
   48MPD2    C3  747   3.108   0.011   9.489  0.2388  0.5149  0.3440
   48MPD2    C4  748   3.216   0.078   9.440  0.0173 -0.7460 -0.4283
   48MPD2    C5  749   3.200   0.192   9.364  0.6436  0.8822 -0.3611
   48MPD2     H  750   2.904   4.722   9.467  0.1725 -0.6994 -1.4079
   48MPD2    H1  751   3.318   0.045   9.450 -0.5417 -1.8815  1.6252
   48MPD2    H2  752   3.077   0.324   9.265 -0.3131  0.4262  0.6066
   48MPD2    H3  753   3.284   0.243   9.320  1.4480  0.7174  0.9780
   48MPD2     N  754   3.114   4.630   9.568 -0.4567 -0.6806 -0.3762
   48MPD2    H5  755   3.028   4.578   9.585 -0.9607  0.4051  0.4139
   48MPD2    N1  756   2.834   0.206   9.336 -0.0185  0.4311  0.3683
   48MPD2    H7  757   2.763   0.143   9.370 -2.0881  2.1667 -0.7246
   49TMC2    C1  758   0.212   1.764  10.025  0.5656  1.1066  0.0947
   49TMC2    C2  759   0.160   1.823   9.910 -0.4792  0.7958 -0.2958
   49TMC2    C3  760   0.089   1.738   9.833 -0.6640 -0.6240  0.2536
   49TMC2    C4  761   0.171   1.640  10.065  0.4189 -0.9887 -0.0414
   49TMC2    C5  762   0.091   1.562   9.990 -0.5244 -0.0440  0.5191
   49TMC2    C6  763   0.056   1.611   9.869 -0.0028  0.4698  0.4080
   49TMC2     C  764   0.314   1.838  10.098 -0.4119  0.4610  0.8316
   49TMC2     O  765   0.388   1.906  10.032 -0.0642  0.2286 -0.5882
   49TMC2     H  766   0.192   1.919   9.872  1.6028 -0.4127 -1.5747
   49TMC2    H1  767   0.219   1.591  10.148  0.6118 -0.5981  0.0777
   49TMC2    H2  768   4.734   1.547   9.805  0.7611 -0.8069  0.9754
   49TMC2    C7  769   0.061   1.427  10.039 -0.1090  0.4778  0.6638
   49TMC2    C8  770   0.046   1.788   9.709  0.2186  0.4852  0.3404
   49TMC2    O1  771   0.121   1.390  10.138  0.0602  0.0750  0.6471
   49TMC2    O2  772   0.086   1.895   9.664 -0.0563 -0.0715  0.1781
   49TMC2    O5  773   4.666   1.732   9.685  0.1675  0.0209 -0.1894
   49TMC2    H5  774   4.625   1.680   9.758 -3.1433  1.2989 -1.1131
   50MPD2     C  775   0.466   1.976  10.309  0.4005 -0.8788  0.9427
   50MPD2    C1  776   0.357   1.897  10.338 -1.5049  0.4245  0.2404
   50MPD2    C2  777   0.309   1.885  10.463  0.0524 -0.5063 -0.0934
   50MPD2    C3  778   0.343   1.974  10.562 -0.3624  0.1169 -0.0015
   50MPD2    C4  779   0.448   2.056  10.539 -0.0121 -0.0485  0.2520
   50MPD2    C5  780   0.511   2.055  10.416 -0.5544 -0.3469  0.3070
   50MPD2     H  781   0.226   1.815  10.468 -0.0421 -0.3437  0.6382
   50MPD2    H1  782   0.467   2.130  10.616 -3.7371  2.1323 -0.8974
   50MPD2    H2  783   0.516   1.996  10.214 -1.1754  0.1872  0.3403
   50MPD2    H3  784   0.594   2.124  10.412 -1.2367  0.4630  0.0707
   50MPD2     N  785   0.278   1.973  10.684  0.5185  0.5005 -0.6556
   50MPD2    H5  786   0.306   2.047  10.747 -0.0114 -1.7891  2.2670
   50MPD2    N1  787   0.292   1.823  10.236  0.4371  0.6538  0.1013
   50MPD2    H7  788   0.221   1.757  10.267 -0.1508  2.0693  1.8002
   51TMC2    C1  789   0.541   0.051   1.284  0.3903  0.0027 -0.2432
   51TMC2    C2  790   0.436   0.142   1.272  0.5651  0.4920 -0.0658
   51TMC2    C3  791   0.460   0.271   1.311 -0.4506 -1.0452 -0.9122
   51TMC2    C4  792   0.668   0.082   1.335 -0.1668  0.5961 -0.3540
   51TMC2    C5  793   0.681   0.209   1.382  0.1326 -0.1854  0.7808
   51TMC2    C6  794   0.572   0.302   1.377  0.1949 -0.5306 -0.2307
   51TMC2     C  795   0.528   4.660   1.218  0.0276 -0.3360 -0.1243
   51TMC2     O  796   0.632   4.594   1.199 -0.3657  0.0123 -0.2016
   51TMC2     H  797   0.346   0.133   1.212  0.2167 -0.1285  0.5656
   51TMC2    H1  798   0.749   0.011   1.334  0.9659  1.8822 -0.4864
   51TMC2    H2  799   0.584   0.398   1.426  0.8257 -0.1517 -1.1442
   51TMC2    C7  800   0.812   0.243   1.438 -0.3347 -0.3810  0.2398
   51TMC2    C8  801   0.358   0.371   1.288  0.0583 -0.1222 -0.6612
   51TMC2    O1  802   0.886   0.147   1.469  0.0994 -0.0982  0.0403
   51TMC2    O2  803   0.350   0.467   1.364  0.1745 -0.1983  0.0782
   51TMC2    O5  804   0.306   0.354   1.166 -0.1357 -0.1727 -0.3924
   51TMC2    H5  805   0.347   0.278   1.121 -1.6976 -1.3618  0.2073
   52MPD2     C  806   0.267   4.251   1.052 -0.2041 -0.2106 -0.5584
   52MPD2    C1  807   0.393   4.296   1.030  0.1673 -0.0176 -0.6612
   52MPD2    C2  808   0.431   4.418   1.079 -0.2193  0.1540 -0.1491
   52MPD2    C3  809   0.353   4.494   1.162 -0.1510  0.1873  0.4238
   52MPD2    C4  810   0.226   4.448   1.184 -0.0641 -0.2101 -0.8250
   52MPD2    C5  811   0.192   4.321   1.140 -0.4665 -0.1670  0.0179
   52MPD2     H  812   0.530   4.457   1.058 -1.2405  1.8722 -1.7743
   52MPD2    H1  813   0.164   4.501   1.256  0.7051 -1.0382  0.4480
   52MPD2    H2  814   0.237   4.150   1.027  2.4471 -1.0336 -0.5004
   52MPD2    H3  815   0.096   4.284   1.174  1.4425 -2.2957  3.1363
   52MPD2     N  816   0.403   4.613   1.212 -0.6161  0.1609 -0.5329
   52MPD2    H5  817   0.339   4.664   1.272  0.6096 -0.0477  0.9733
   52MPD2    N1  818   0.479   4.237   0.939 -0.7981  0.2663 -0.2377
   52MPD2    H7  819   0.564   4.287   0.914 -1.3503  2.2405  1.8396
   53TMC2    C1  820   1.154   3.085  11.872  0.3620  0.5167  0.5929
   53TMC2    C2  821   1.279   3.121  11.833 -0.4689 -0.3901 -0.5252
   53TMC2    C3  822   1.334   3.217  11.907  0.7692  0.0297  0.3593
   53TMC2    C4  823   1.088   3.135  11.983 -0.8321  0.4069  0.5022
   53TMC2    C5  824   1.150   3.222  12.060  0.3985  0.5050  0.6218
   53TMC2    C6  825   1.279   3.256  12.025  0.6310 -0.6619 -0.3130
   53TMC2     C  826   1.084   2.992  11.785  0.0693 -0.3736 -0.1855
   53TMC2     O  827   1.143   2.898  11.735  0.5283 -0.4683 -0.1663
   53TMC2     H  828   1.327   3.088  11.741  0.8336 -2.4770  0.9235
   53TMC2    H1  829   0.982   3.122  12.002 -1.1166  3.6641  1.1144
   53TMC2    H2  830   1.351   3.311  12.084 -0.6581  1.4308 -0.6543
   53TMC2    C7  831   1.076   3.283  12.171 -0.5220  0.0674 -0.5977
   53TMC2    C8  832   1.461   3.272  11.868  0.1741  0.1497  0.3686
   53TMC2    O1  833   0.956   3.301  12.162  0.0488  0.2804  0.6230
   53TMC2    O2  834   1.533   3.315  11.959  0.0410  0.1722 -0.3315
   53TMC2    O5  835   1.503   3.244  11.742  0.2317  0.2043 -0.0220
   53TMC2    H5  836   1.436   3.220  11.675  0.4494 -0.4600 -0.0021
   54MPD2     C  837   0.859   2.799  11.713 -1.1986  0.3011 -0.7281
   54MPD2    C1  838   0.845   2.939  11.714 -0.0524 -0.0144  0.8528
   54MPD2    C2  839   0.738   2.995  11.660  0.1864  0.0376  0.3574
   54MPD2    C3  840   0.640   2.921  11.602  0.2336  0.6404  0.6169
   54MPD2    C4  841   0.659   2.782  11.599  0.0914  0.3019 -0.3932
   54MPD2    C5  842   0.770   2.720  11.648 -0.4948  0.1749 -0.1971
   54MPD2     H  843   0.727   3.103  11.667 -1.1178  0.0927 -2.4619
   54MPD2    H1  844   0.587   2.710  11.562  0.6253 -0.6057  0.3292
   54MPD2    H2  845   0.951   2.756  11.750 -2.8997 -1.3902  1.5951
   54MPD2    H3  846   0.781   2.614  11.631  0.1280  0.0173  1.1854
   54MPD2     N  847   0.514   2.969  11.551 -0.1304 -0.9432 -0.3955
   54MPD2    H5  848   0.448   2.902  11.512  1.7826 -3.5406  0.8038
   54MPD2    N1  849   0.946   3.020  11.780 -0.8083  0.2502 -0.9358
   54MPD2    H7  850   0.921   3.114  11.809 -1.2106 -0.2085  0.2228
   55TMC2    C1  851   2.602   0.611  17.729 -0.8465 -0.0656 -0.1994
   55TMC2    C2  852   2.637   0.578  17.600  0.2257  0.3926  0.3599
   55TMC2    C3  853   2.693   0.455  17.580  0.1664  0.8026 -0.0230
   55TMC2    C4  854   2.624   0.521   0.091 -0.9152  0.0832 -0.3615
   55TMC2    C5  855   2.660   0.399   0.059  0.1527 -0.4227  0.4285
   55TMC2    C6  856   2.715   0.369  17.682 -1.2341  0.1510 -0.9779
   55TMC2     C  857   2.528   0.736   0.004 -0.3479 -0.4145 -0.4343
   55TMC2     O  858   2.483   0.738   0.118 -0.2075 -0.0814  0.1648
   55TMC2     H  859   2.614   0.638  17.513 -1.0199 -1.8342 -0.8621
   55TMC2    H1  860   2.596   0.543   0.194 -0.3581 -2.0882  0.2492
   55TMC2    H2  861   2.768   0.277  17.661 -0.7869 -0.8414  4.4642
   55TMC2    C7  862   2.651   0.291   0.149 -0.0954  0.1458 -0.6935
   55TMC2    C8  863   2.670   0.399  17.443 -0.6562 -0.6568  0.5760
   55TMC2    O1  864   2.711   0.191   0.118  0.0613  0.2780  0.1028
   55TMC2    O2  865   2.580   0.440  17.369 -0.6285 -0.0062 -0.1007
   55TMC2    O5  866   2.761   0.304  17.421 -0.5223 -0.2252  0.3420
   55TMC2    H5  867   2.833   0.303  17.488  0.2515 -0.3558 -0.4996
   56MPD2     C  868   2.475   1.038  17.547 -0.1951 -0.2482 -0.4088
   56MPD2    C1  869   2.473   0.958  17.652 -0.0166 -0.2997 -0.1005
   56MPD2    C2  870   2.394   1.001   0.013  0.4268  0.1489  0.7749
   56MPD2    C3  871   2.322   1.127   0.011  0.0257 -1.0167 -0.3659
   56MPD2    C4  872   2.338   1.208  17.647  0.1185 -0.2040  0.5355
   56MPD2    C5  873   2.413   1.161  17.535  0.4308  0.1733  0.0994
   56MPD2     H  874   2.388   0.945   0.106  0.7559 -0.0931  0.6516
   56MPD2    H1  875   2.289   1.305  17.647  0.4119 -0.0532  0.3385
   56MPD2    H2  876   2.548   1.019  17.469  1.0854 -1.2900  1.0422
   56MPD2    H3  877   2.437   1.216  17.445  0.8431  0.6758  0.5185
   56MPD2     N  878   2.238   1.160   0.116 -0.4436  1.0353  0.1096
   56MPD2    H5  879   2.255   1.106   0.200  1.3968 -0.0626 -0.9444
   56MPD2    N1  880   2.537   0.836  17.650  0.2210  0.1816  0.4999
   56MPD2    H7  881   2.593   0.816  17.568 -1.3358 -0.9901 -0.2884
   57TMC2    C1  882   1.304   2.000  14.070  0.2954  0.1546 -0.1642
   57TMC2    C2  883   1.341   2.049  14.193 -0.3544 -0.5119 -0.2559
   57TMC2    C3  884   1.475   2.039  14.214 -0.4482  0.3007  0.0388
   57TMC2    C4  885   1.385   1.954  13.972 -0.1299  0.0725  0.1923
   57TMC2    C5  886   1.516   1.938  14.008  0.0439  0.1107 -0.5808
   57TMC2    C6  887   1.566   1.985  14.127  0.0862  0.2340 -0.1111
   57TMC2     C  888   1.162   2.019  14.036 -0.8521  0.3428 -0.0762
   57TMC2     O  889   1.116   2.109  14.105  0.4696 -0.1345  0.2984
   57TMC2     H  890   1.276   2.083  14.272  0.1774  0.7229 -0.3558
   57TMC2    H1  891   1.352   1.934  13.871  0.4807 -1.1257  0.2265
   57TMC2    H2  892   1.671   1.982  14.150  0.5954  0.2245 -2.4597
   57TMC2    C7  893   1.611   1.887  13.913 -0.7072  0.0222 -0.4948
   57TMC2    C8  894   1.522   2.096  14.337 -0.0399  0.1879  0.9063
   57TMC2    O1  895   1.728   1.925  13.931  0.3093 -0.3068  0.3472
   57TMC2    O2  896   1.640   2.075  14.369  0.2373 -0.4415  0.2701
   57TMC2    O5  897   1.465   2.220  14.350  0.3148  0.3017  0.2193
   57TMC2    H5  898   1.383   2.239  14.300 -0.3874  0.6649  1.5090
   58MPD2     C  899   0.695   1.837  13.912  0.6809 -0.4676 -0.3977
   58MPD2    C1  900   0.727   1.950  13.984  0.6604 -0.0275  0.6732
   58MPD2    C2  901   0.862   1.980  14.005 -0.5411  0.0932 -0.1797
   58MPD2    C3  902   0.964   1.897  13.953 -0.1220  0.3216  0.3143
   58MPD2    C4  903   0.922   1.783  13.885 -0.7519  0.0477  0.1316
   58MPD2    C5  904   0.791   1.756  13.864  0.2825 -0.5636  0.3675
   58MPD2     H  905   0.899   2.075  14.043  0.6884 -0.6254  0.4200
   58MPD2    H1  906   1.002   1.729  13.836 -0.8836  0.4432 -0.5231
   58MPD2    H2  907   0.596   1.804  13.882 -0.1361  1.4306  0.2130
   58MPD2    H3  908   0.764   1.672  13.801 -0.7089  0.2056 -0.2447
   58MPD2     N  909   1.105   1.918  13.961 -0.1503 -0.5233 -0.1232
   58MPD2    H5  910   1.169   1.854  13.916 -0.4195 -1.6170  1.0648
   58MPD2    N1  911   0.626   2.038  14.035 -0.3386  0.3952  1.0422
   58MPD2    H7  912   0.660   2.127  14.068  1.1187  0.1985  0.0557
   59TMC2    C1  913   3.496   2.556  12.787  0.4469 -0.6111 -0.0951
   59TMC2    C2  914   3.487   2.432  12.847 -0.4222  0.5940 -0.0037
   59TMC2    C3  915   3.408   2.349  12.780  0.3432 -0.0955  0.1353
   59TMC2    C4  916   3.432   2.596  12.670 -0.6144 -0.1116 -0.2698
   59TMC2    C5  917   3.344   2.507  12.617 -0.5572 -0.2457 -0.6977
   59TMC2    C6  918   3.337   2.381  12.669 -0.2832 -0.2695 -0.2173
   59TMC2     C  919   3.560   2.664  12.870 -0.0162  0.1587 -0.4798
   59TMC2     O  920   3.590   2.766  12.808 -0.0467  0.0078 -0.3433
   59TMC2     H  921   3.563   2.384  12.908 -0.7198  1.3536  0.9559
   59TMC2    H1  922   3.429   2.699  12.637  0.7440  0.4505  1.3395
   59TMC2    H2  923   3.288   2.310  12.604  2.2455 -1.4277 -0.8635
   59TMC2    C7  924   3.250   2.559  12.512 -0.1547 -0.2156 -0.1512
   59TMC2    C8  925   3.427   2.205  12.798  0.5680  0.5028 -0.1603
   59TMC2    O1  926   3.248   2.680  12.487  0.2675  0.1180 -0.1384
   59TMC2    O2  927   3.408   2.128  12.706 -0.2407 -1.0055  0.2006
   59TMC2    O5  928   3.389   2.185  12.927 -0.4630 -0.1347  0.1449
   59TMC2    H5  929   3.405   2.263  12.983  0.6606  0.0244 -0.3877
   60MPD2     C  930   3.726   2.810  13.078  0.0643  0.2698  0.1932
   60MPD2    C1  931   3.664   2.686  13.094  0.6834 -0.6281  0.0132
   60MPD2    C2  932   3.685   2.614  13.208 -0.6542 -0.3081 -0.2668
   60MPD2    C3  933   3.768   2.662  13.306  0.5234 -0.7490 -0.4696
   60MPD2    C4  934   3.823   2.791  13.294 -0.4954  0.5617  0.7510
   60MPD2    C5  935   3.809   2.859  13.181  1.0277 -0.0114 -0.0126
   60MPD2     H  936   3.633   2.519  13.217  1.9433 -1.7857 -0.8739
   60MPD2    H1  937   3.885   2.829  13.375 -2.5162 -0.3731  2.7420
   60MPD2    H2  938   3.700   2.871  12.992 -1.2974 -0.5324  0.0360
   60MPD2    H3  939   3.848   2.961  13.183 -0.9912  0.7007  2.4982
   60MPD2     N  940   3.807   2.590  13.423  0.2475 -0.3141  0.6180
   60MPD2    H5  941   3.850   2.644  13.497  1.8735 -3.3629  1.8942
   60MPD2    N1  942   3.589   2.619  12.992 -0.1905 -0.0232  0.1088
   60MPD2    H7  943   3.558   2.527  13.020  1.6236 -1.1242 -1.4423
   61TMC2    C1  944   3.348   3.507  16.020  0.7869 -0.6621 -0.0939
   61TMC2    C2  945   3.369   3.464  16.146  0.0041 -0.5544  0.2637
   61TMC2    C3  946   3.311   3.538  16.244  0.0574 -0.4353 -0.1536
   61TMC2    C4  947   3.275   3.613  15.986 -0.7657  0.2266 -0.0111
   61TMC2    C5  948   3.230   3.691  16.089 -0.1869 -0.5442 -0.0698
   61TMC2    C6  949   3.244   3.656  16.219  0.5518  0.3019  0.5659
   61TMC2     C  950   3.379   3.411  15.921  0.5493  0.2747 -0.8401
   61TMC2     O  951   3.385   3.293  15.957  0.5767 -0.3292  0.1153
   61TMC2     H  952   3.443   3.386  16.162 -3.5530 -3.9627 -0.0840
   61TMC2    H1  953   3.254   3.632  15.881  3.4701 -2.5905 -1.3423
   61TMC2    H2  954   3.207   3.730  16.289 -1.7687  1.5744 -2.0360
   61TMC2    C7  955   3.128   3.796  16.047 -0.1109  0.3123  0.4544
   61TMC2    C8  956   3.355   3.521  16.378 -0.0731 -0.2792 -0.2628
   61TMC2    O1  957   3.145   3.846  15.935 -0.6253 -0.4685 -0.2304
   61TMC2    O2  958   3.364   3.616  16.455 -0.0520  0.2277  0.4299
   61TMC2    O5  959   3.336   3.392  16.412 -0.2926 -0.1026 -0.1406
   61TMC2    H5  960   3.280   3.343  16.348 -0.0097  0.3904 -0.7669
   62MPD2     C  961   3.431   3.256  15.670  0.2855 -0.0799 -0.4732
   62MPD2    C1  962   3.399   3.391  15.674  0.4965  1.1067  0.5251
   62MPD2    C2  963   3.380   3.464  15.558 -0.3868  0.0273  0.4002
   62MPD2    C3  964   3.377   3.408  15.435  0.1854  0.0032 -0.5546
   62MPD2    C4  965   3.390   3.269  15.439 -0.4754  0.1756  0.3813
   62MPD2    C5  966   3.407   3.187  15.553  0.2953 -0.2849 -0.2588
   62MPD2     H  967   3.364   3.571  15.562 -1.7679 -0.1069 -1.2545
   62MPD2    H1  968   3.386   3.216  15.344  0.1038 -2.5250  1.8702
   62MPD2    H2  969   3.467   3.204  15.758 -1.2272  0.4697  0.4681
   62MPD2    H3  970   3.414   3.080  15.537  3.1937  0.1190 -1.7685
   62MPD2     N  971   3.352   3.473  15.311  0.1001  0.0978 -0.0328
   62MPD2    H5  972   3.319   3.421  15.231  1.1669  1.0335 -1.0779
   62MPD2    N1  973   3.393   3.463  15.796 -0.1574 -0.4977 -0.1042
   62MPD2    H7  974   3.390   3.564  15.794  1.1891 -0.4312  0.6261
   63TMC2    C1  975   2.949   4.210  10.759 -0.1490 -0.3709  0.6825
   63TMC2    C2  976   3.065   4.145  10.736 -0.4629  0.6174 -0.3313
   63TMC2    C3  977   3.143   4.191  10.641 -0.2308 -0.6330 -0.2034
   63TMC2    C4  978   2.909   4.311  10.681  0.9083  0.3344  0.3311
   63TMC2    C5  979   2.985   4.340  10.576  0.1687 -0.8314  0.2103
   63TMC2    C6  980   3.106   4.288  10.549 -0.0492 -0.6151 -0.4371
   63TMC2     C  981   2.842   4.118  10.805  0.3114  0.0266  0.9775
   63TMC2     O  982   2.865   4.027  10.882 -0.0998 -0.1416 -0.6255
   63TMC2     H  983   3.111   4.067  10.796 -1.3029 -0.6273 -1.2872
   63TMC2    H1  984   2.818   4.368  10.694  0.0186 -0.5404 -1.8357
   63TMC2    H2  985   3.159   4.324  10.462  2.2682 -0.4614  1.0648
   63TMC2    C7  986   2.890   4.349  10.476 -0.5792 -0.5545 -0.7777
   63TMC2    C8  987   3.279   4.151  10.646 -0.1323 -0.0879  0.1804
   63TMC2    O1  988   2.790   4.280  10.494  0.5309  0.3557 -0.0001
   63TMC2    O2  989   3.348   4.149  10.542  0.6188  0.1346 -0.0184
   63TMC2    O5  990   3.326   4.186  10.768 -0.1119 -0.7153 -0.0463
   63TMC2    H5  991   3.267   4.253  10.809 -1.4223 -0.5094 -2.2595
   64MPD2     C  992   2.373   3.930  10.719  0.6152  0.0712 -0.4554
   64MPD2    C1  993   2.478   3.873  10.787 -0.9185 -0.0891  0.4555
   64MPD2    C2  994   2.594   3.950  10.809 -0.0930 -1.5481 -0.0621
   64MPD2    C3  995   2.605   4.069  10.738 -0.4498  0.2260 -0.2026
   64MPD2    C4  996   2.494   4.126  10.678 -0.1327  0.0455 -0.5707
   64MPD2    C5  997   2.380   4.053  10.663 -0.0063 -0.6891  0.2360
   64MPD2     H  998   2.675   3.893  10.852 -1.2127 -1.3116  2.3714
   64MPD2    H1  999   2.493   4.225  10.635 -1.5121 -0.5221 -1.8303
   64MPD2    H2 1000   2.274   3.886  10.713  0.5014  0.1879  0.5383
   64MPD2    H3 1001   2.295   4.087  10.605 -0.0750 -0.6810  0.3431
   64MPD2     N 1002   2.725   4.141  10.740 -0.2001  0.3251 -0.4368
   64MPD2    H5 1003   2.731   4.213  10.668 -2.9350  2.1290  1.1289
   64MPD2    N1 1004   2.477   3.741  10.829  0.1971  0.2985 -0.9430
   64MPD2    H7 1005   2.557   3.693  10.870  0.0447  0.3898 -0.5373
   65TMC2    C1 1006   3.780   3.454  15.766  0.0261  0.5402 -0.1327
   65TMC2    C2 1007   3.797   3.402  15.640 -1.2174 -0.8280 -0.6358
   65TMC2    C3 1008   3.777   3.501  15.545 -0.1021  0.4509  0.0170
   65TMC2    C4 1009   3.749   3.581  15.801 -0.4019 -0.6555 -0.3864
   65TMC2    C5 1010   3.724   3.667  15.691 -0.3894 -0.8508 -0.8091
   65TMC2    C6 1011   3.736   3.627  15.560 -0.1993  1.1259  0.5671
   65TMC2     C 1012   3.763   3.355  15.874 -0.2723 -0.4346 -0.3921
   65TMC2     O 1013   3.766   3.390  15.991 -0.5599 -0.1595 -0.6619
   65TMC2     H 1014   3.831   3.305  15.606 -0.5664 -0.4866 -0.9562
   65TMC2    H1 1015   3.747   3.602  15.907  2.2378 -1.3055 -0.1925
   65TMC2    H2 1016   3.713   3.683  15.470  1.0454  0.4465 -0.1576
   65TMC2    C7 1017   3.682   3.807  15.712  0.3170  0.3118 -0.1641
   65TMC2    C8 1018   3.756   3.444  15.416  1.1235  0.5439  0.3152
   65TMC2    O1 1019   3.671   3.873  15.607  0.2999  0.0734  0.1553
   65TMC2    O2 1020   3.739   3.327  15.384  0.1945 -0.1183  0.3219
   65TMC2    O5 1021   3.827   3.530  15.337 -0.0986  0.2184  0.1962
   65TMC2    H5 1022   3.864   3.607  15.385 -0.8841  1.6069 -1.4012
   66MPD2     C 1023   3.741   3.094  16.018  0.2088  0.0513  0.2855
   66MPD2    C1 1024   3.712   3.112  15.888 -0.4160 -0.6283  0.2795
   66MPD2    C2 1025   3.675   3.003  15.806  0.2965  0.6701 -0.0641
   66MPD2    C3 1026   3.671   2.878  15.868 -0.6600  0.0594 -0.5356
   66MPD2    C4 1027   3.715   2.856  15.997 -0.1416 -0.2336  0.1217
   66MPD2    C5 1028   3.737   2.969  16.074 -0.0638 -0.3487  0.3583
   66MPD2     H 1029   3.639   3.019  15.706  1.5417  1.2031 -0.4332
   66MPD2    H1 1030   3.707   2.756  16.039 -1.3482 -0.5027 -0.7601
   66MPD2    H2 1031   3.765   3.178  16.082  0.0813  0.5551 -0.3329
   66MPD2    H3 1032   3.750   2.967  16.181  1.5990 -1.7004  0.1318
   66MPD2     N 1033   3.628   2.764  15.810 -0.0572  0.0508  0.0482
   66MPD2    H5 1034   3.636   2.680  15.866  1.0062  0.4435  0.4777
   66MPD2    N1 1035   3.717   3.236  15.825 -0.2844  0.4263  0.2390
   66MPD2    H7 1036   3.692   3.227  15.727  1.2210  0.5089 -0.1430
   67TMC2    C1 1037   3.814   2.508  14.261  0.8035 -0.2887  0.3098
   67TMC2    C2 1038   3.764   2.633  14.279  0.5231 -0.5311  0.1196
   67TMC2    C3 1039   3.785   2.681  14.405 -0.2233  0.3089  0.3338
   67TMC2    C4 1040   3.887   2.437  14.344  0.1653 -0.0505  0.0506
   67TMC2    C5 1041   3.908   2.490  14.471  0.3056  0.7552  0.0573
   67TMC2    C6 1042   3.852   2.610  14.505 -0.2715  0.4747 -0.7406
   67TMC2     C 1043   3.762   2.438  14.141  0.3001  0.1412  0.3589
   67TMC2     O 1044   3.828   2.342  14.106 -0.3708 -0.1992  0.1530
   67TMC2     H 1045   3.710   2.689  14.204 -0.5938 -0.3922  1.0305
   67TMC2    H1 1046   3.922   2.336  14.324  1.7639  0.5911 -0.4176
   67TMC2    H2 1047   3.863   2.651  14.605 -1.3557 -4.7796  1.5042
   67TMC2    C7 1048   3.984   2.410  14.567 -0.0290 -0.2202  0.5361
   67TMC2    C8 1049   3.743   2.815  14.429 -0.4535 -0.3209  0.6997
   67TMC2    O1 1050   4.000   2.289  14.553 -0.0436  0.6114 -0.0199
   67TMC2    O2 1051   3.805   2.884  14.508  0.4646  0.1375 -0.0329
   67TMC2    O5 1052   3.612   2.810  14.428 -0.7285 -0.5935  0.1063
   67TMC2    H5 1053   3.578   2.728  14.386  2.7181 -3.0739  2.1126
   68MPD2     C 1054   3.627   2.376  13.893 -0.1988 -0.1795  0.3258
   68MPD2    C1 1055   3.559   2.429  13.995  0.9524 -0.2783  0.6821
   68MPD2    C2 1056   3.429   2.472  13.986 -0.2871  0.6208 -0.1735
   68MPD2    C3 1057   3.354   2.440  13.873  0.4047  0.7322  0.2794
   68MPD2    C4 1058   3.416   2.367  13.779 -0.2921 -0.2404  0.5605
   68MPD2    C5 1059   3.556   2.347  13.778  1.0279  0.1828  0.4182
   68MPD2     H 1060   3.395   2.539  14.064  0.7433  1.9867 -0.9044
   68MPD2    H1 1061   3.350   2.339  13.697 -2.3308  0.1843  2.0525
   68MPD2    H2 1062   3.734   2.357  13.892 -0.3239 -0.9465  1.2601
   68MPD2    H3 1063   3.604   2.296  13.695  0.6622 -2.4622  1.8326
   68MPD2     N 1064   3.223   2.480  13.851 -0.5732 -0.1796 -0.2998
   68MPD2    H5 1065   3.172   2.436  13.774 -1.8066 -0.3651  0.6347
   68MPD2    N1 1066   3.634   2.469  14.110 -0.9493 -0.7891 -0.3261
   68MPD2    H7 1067   3.589   2.528  14.179  2.1721  0.9435  0.1920
   69TMC2    C1 1068   1.211   3.813  12.609 -0.4388  0.4204  0.7459
   69TMC2    C2 1069   1.074   3.804  12.570 -0.2752  0.1054 -0.0900
   69TMC2    C3 1070   1.037   3.858  12.447  0.3929  0.3722  0.0332
   69TMC2    C4 1071   1.302   3.857  12.523 -1.0881  0.0448 -0.1573
   69TMC2    C5 1072   1.260   3.909  12.406 -0.4102 -0.5886  0.0578
   69TMC2    C6 1073   1.130   3.913  12.359  0.1120  0.4409  0.4073
   69TMC2     C 1074   1.238   3.757  12.740 -0.4759  0.3691  0.2343
   69TMC2     O 1075   1.145   3.756  12.818  0.5391  0.5909  0.1879
   69TMC2     H 1076   1.000   3.760  12.636  0.2872  0.3324  0.6973
   69TMC2    H1 1077   1.406   3.872  12.552 -1.0714 -1.8296  0.7792
   69TMC2    H2 1078   1.099   3.947  12.260 -2.2790 -1.2375  0.5881
   69TMC2    C7 1079   1.361   3.969  12.323 -0.0213  0.4489 -0.0349
   69TMC2    C8 1080   0.896   3.837  12.412 -0.2958  0.3009  0.3578
   69TMC2    O1 1081   1.479   3.947  12.350  0.6567 -0.7904  0.1320
   69TMC2    O2 1082   0.799   3.860  12.489  0.4898  0.5941 -0.4824
   69TMC2    O5 1083   0.897   3.735  12.327 -0.8502 -0.2862 -0.0717
   69TMC2    H5 1084   0.985   3.719  12.287 -0.4776  0.1113  0.5960
   70MPD2     C 1085   1.552   3.641  12.863  0.9522  0.5447 -0.0301
   70MPD2    C1 1086   1.416   3.656  12.859 -0.2196 -0.6094 -0.5330
   70MPD2    C2 1087   1.327   3.583  12.944  0.2513  0.1570  1.2251
   70MPD2    C3 1088   1.377   3.498  13.034 -0.3677  0.3226 -1.1257
   70MPD2    C4 1089   1.510   3.478  13.029  0.1093  0.0410 -0.6034
   70MPD2    C5 1090   1.594   3.544  12.946  0.7081 -0.6415  0.5997
   70MPD2     H 1091   1.219   3.579  12.934  0.1890  0.7775  1.7088
   70MPD2    H1 1092   1.550   3.402  13.096  0.6071  0.1580 -0.7643
   70MPD2    H2 1093   1.616   3.695  12.795 -0.9686  2.3018 -0.4673
   70MPD2    H3 1094   1.700   3.532  12.962  1.0745  0.5680 -0.8951
   70MPD2     N 1095   1.300   3.402  13.112 -0.5095  0.0202  0.1809
   70MPD2    H5 1096   1.358   3.333  13.158 -1.6337 -0.3193  1.0698
   70MPD2    N1 1097   1.373   3.735  12.755  0.5885  0.0922  0.6855
   70MPD2    H7 1098   1.439   3.787  12.698 -2.2405  2.5858 -0.2954
   71TMC2    C1 1099   3.267   0.280   1.557  0.4729  0.1472 -0.1516
   71TMC2    C2 1100   3.371   0.323   1.639  0.3103  0.0509  0.3535
   71TMC2    C3 1101   3.350   0.421   1.737 -0.2220  0.7280  0.0251
   71TMC2    C4 1102   3.143   0.330   1.572 -0.7225 -0.0148  0.4489
   71TMC2    C5 1103   3.128   0.430   1.659 -0.7432  0.9428 -0.6513
   71TMC2    C6 1104   3.225   0.474   1.744 -0.7810 -0.5521 -0.0292
   71TMC2     C 1105   3.298   0.187   1.453 -0.1984 -0.5197 -0.0237
   71TMC2     O 1106   3.417   0.162   1.434  0.1515 -0.4808 -0.8863
   71TMC2     H 1107   3.464   0.271   1.620  0.7325  0.9897 -0.1727
   71TMC2    H1 1108   3.058   0.286   1.521 -0.2112  0.0138 -0.4308
   71TMC2    H2 1109   3.193   0.551   1.813  0.8619 -0.1753  0.3201
   71TMC2    C7 1110   2.996   0.466   1.702  0.2844 -0.0809 -0.5008
   71TMC2    C8 1111   3.461   0.505   1.763 -0.6501 -0.1182  0.0844
   71TMC2    O1 1112   2.987   0.488   1.826 -0.2421 -0.1394  0.0641
   71TMC2    O2 1113   3.556   0.519   1.683 -0.0401 -0.0774  0.3141
   71TMC2    O5 1114   3.473   0.515   1.896  0.4287 -0.5159 -0.0781
   71TMC2    H5 1115   3.399   0.466   1.938  0.0582 -1.4259 -1.7881
   72MPD2     C 1116   3.212   4.535   1.124  0.0644  0.4290  0.1599
   72MPD2    C1 1117   3.324   4.609   1.145  0.5048  0.0878 -0.8466
   72MPD2    C2 1118   3.323   4.713   1.240 -0.1396  0.4485  0.3493
   72MPD2    C3 1119   3.201   0.013   1.303  1.3855 -0.6297  0.0778
   72MPD2    C4 1120   3.085   4.676   1.286 -0.0365  1.0413 -0.1642
   72MPD2    C5 1121   3.096   4.575   1.189 -0.8904 -0.4932  0.2942
   72MPD2     H 1122   3.414   0.035   1.243  0.9020 -1.0549 -1.1342
   72MPD2    H1 1123   2.996   4.693   1.344  0.5964  0.1084  1.0757
   72MPD2    H2 1124   3.213   4.448   1.059 -0.4355 -0.4229  1.2802
   72MPD2    H3 1125   3.017   4.501   1.190  0.4596 -1.9541 -2.1113
   72MPD2     N 1126   3.192   0.117   1.395 -0.1036  0.1105 -0.1898
   72MPD2    H5 1127   3.101   0.135   1.437 -0.9791 -3.2708 -0.6357
   72MPD2    N1 1128   3.447   4.582   1.086  0.2473 -1.1320 -0.7363
   72MPD2    H7 1129   3.527   4.643   1.096 -1.1942  0.9938 -2.1193
   73TMC2    C1 1130   2.570   0.753  13.829  1.1097  0.3070  0.1561
   73TMC2    C2 1131   2.610   0.744  13.958  1.1957  0.3664  0.5726
   73TMC2    C3 1132   2.653   0.629  14.013  0.1578  0.1621 -0.2113
   73TMC2    C4 1133   2.600   0.644  13.747 -0.3129  0.8846 -0.3214
   73TMC2    C5 1134   2.672   0.545  13.794  0.2178  0.3118  0.2077
   73TMC2    C6 1135   2.687   0.526  13.930 -0.2643  0.8386 -0.0278
   73TMC2     C 1136   2.603   0.879  13.764 -0.4674  0.2002 -0.2722
   73TMC2     O 1137   2.647   0.867  13.647  0.1700  0.5341  1.1608
   73TMC2     H 1138   2.591   0.827  14.026  1.3342  0.5363  0.4034
   73TMC2    H1 1139   2.574   0.653  13.642 -1.1627  1.2353 -0.0824
   73TMC2    H2 1140   2.746   0.444  13.969 -0.6592  0.2094 -0.7631
   73TMC2    C7 1141   2.801   0.535  13.721  0.5231  0.2809 -0.3395
   73TMC2    C8 1142   2.738   0.627  14.135  0.2168  0.1446  0.6447
   73TMC2    O1 1143   2.880   0.451  13.760 -0.0002 -0.5168  0.0253
   73TMC2    O2 1144   2.778   0.735  14.180  0.2586  0.0684 -0.4884
   73TMC2    O5 1145   2.691   0.521  14.205  0.0018 -0.0126 -0.7021
   73TMC2    H5 1146   2.620   0.479  14.153 -0.7787  1.1199 -0.5449
   74MPD2     C 1147   2.654   1.398  13.731 -0.2588 -0.7704 -0.0670
   74MPD2    C1 1148   2.697   1.293  13.655  0.1003  0.0640  0.0073
   74MPD2    C2 1149   2.675   1.161  13.689  0.1059  0.2867 -0.4610
   74MPD2    C3 1150   2.579   1.123  13.787 -0.0722 -0.1600  0.3906
   74MPD2    C4 1151   2.521   1.230  13.856  0.0742  0.3087 -0.6221
   74MPD2    C5 1152   2.572   1.359  13.837  0.1479  0.3427 -0.4334
   74MPD2     H 1153   2.734   1.089  13.634  1.1357  0.0123  1.0167
   74MPD2    H1 1154   2.453   1.216  13.939 -1.0371 -1.5916 -1.8616
   74MPD2    H2 1155   2.682   1.501  13.710 -1.5846 -0.6773 -1.3826
   74MPD2    H3 1156   2.542   1.432  13.912 -1.9281 -0.3322 -0.6287
   74MPD2     N 1157   2.563   0.989  13.832  0.0600 -0.3506  0.3351
   74MPD2    H5 1158   2.502   0.972  13.911  0.7165  2.4667  1.4426
   74MPD2    N1 1159   2.779   1.321  13.541 -0.0137 -0.2544  0.0175
   74MPD2    H7 1160   2.805   1.414  13.511  0.1467 -0.5119 -0.6281
   75TMC2    C1 1161   3.016   2.578  13.888 -0.3920  0.6816 -0.1835
   75TMC2    C2 1162   2.936   2.616  13.996  0.6231 -0.4526 -0.2409
   75TMC2    C3 1163   2.816   2.673  13.959 -0.6299 -0.3442 -0.3513
   75TMC2    C4 1164   2.998   2.599  13.759 -0.8318  0.1640  0.1829
   75TMC2    C5 1165   2.877   2.650  13.729 -0.2728 -0.4466  1.1094
   75TMC2    C6 1166   2.782   2.687  13.827 -0.6512 -0.5515 -0.2992
   75TMC2     C 1167   3.150   2.559  13.933  0.9819 -0.0056  0.1810
   75TMC2     O 1168   3.184   2.611  14.036  0.2808  0.1841 -0.6974
   75TMC2     H 1169   2.960   2.599  14.100  1.3616  0.2233 -0.2987
   75TMC2    H1 1170   3.078   2.588  13.687  2.6395  0.3545  3.9876
   75TMC2    H2 1171   2.686   2.732  13.806  0.1314  0.9544 -0.6733
   75TMC2    C7 1172   2.855   2.697  13.594  0.8586 -0.5154 -0.6889
   75TMC2    C8 1173   2.710   2.686  14.057 -1.0001  0.4635 -0.3347
   75TMC2    O1 1174   2.736   2.711  13.564  0.0208  0.0325 -0.0913
   75TMC2    O2 1175   2.638   2.783  14.051  0.1089 -0.6045 -0.7061
   75TMC2    O5 1176   2.668   2.558  14.077  0.4448  0.1330 -0.2160
   75TMC2    H5 1177   2.731   2.488  14.051  1.1524 -0.9004  4.1700
   76TMC2    C1 1178   1.910   3.114  11.932  0.2624 -0.0717  0.2329
   76TMC2    C2 1179   1.795   3.075  11.866  0.9739 -0.6639 -0.3063
   76TMC2    C3 1180   1.738   2.952  11.894 -1.1373 -0.0830  0.1130
   76TMC2    C4 1181   1.966   3.043  12.040  0.1581 -0.0316 -1.0045
   76TMC2    C5 1182   1.903   2.920  12.067 -0.8515  1.2849  0.0496
   76TMC2    C6 1183   1.795   2.876  11.996 -0.4989  0.2448  0.4641
   76TMC2     C 1184   1.965   3.246  11.896 -0.9329 -1.0163 -0.1939
   76TMC2     O 1185   1.902   3.311  11.814  0.2951  0.4159  0.0198
   76TMC2     H 1186   1.739   3.135  11.794 -0.1531 -1.6970 -0.2850
   76TMC2    H1 1187   2.056   3.078  12.089 -0.6535  1.3700 -0.4780
   76TMC2    H2 1188   1.748   2.782  12.023  0.4565 -0.9855 -2.2294
   76TMC2    C7 1189   1.957   2.837  12.180  0.0446  0.4213 -0.5478
   76TMC2    C8 1190   1.600   2.934  11.855  0.2319 -0.1365 -0.1656
   76TMC2    O1 1191   1.891   2.735  12.205  0.0738  0.1233  0.1342
   76TMC2    O2 1192   1.558   2.940  11.739  0.2989 -0.2801  0.6778
   76TMC2    O5 1193   1.535   2.973  11.967  0.0278 -0.3898 -0.6665
   76TMC2    H5 1194   1.590   2.993  12.046 -2.3221  0.1511  0.8553
   77MPD2     C 1195   2.325   3.606  11.899  0.0547  0.2114 -0.4085
   77MPD2    C1 1196   2.187   3.622  11.885 -0.2249  0.1804 -0.2683
   77MPD2    C2 1197   2.110   3.504  11.894  0.0157  0.6692 -0.0144
   77MPD2    C3 1198   2.169   3.379  11.921 -0.0134  1.1591 -0.0839
   77MPD2    C4 1199   2.303   3.375  11.956  0.1069  0.0276 -0.6536
   77MPD2    C5 1200   2.382   3.486  11.933 -0.3895  0.8259  0.1206
   77MPD2     H 1201   2.009   3.518  11.855  0.2679  1.9728 -0.1934
   77MPD2    H1 1202   2.352   3.280  11.972 -0.5358 -0.5768 -2.2347
   77MPD2    H2 1203   2.392   3.692  11.899 -2.0247  1.8493  0.3834
   77MPD2    H3 1204   2.487   3.480  11.958 -0.1755 -0.9128 -1.2309
   77MPD2     N 1205   2.097   3.260  11.932 -0.1749  0.1603  0.7297
   77MPD2    H5 1206   2.148   3.182  11.970 -1.9390 -0.9272  0.8452
   77MPD2    N1 1207   2.132   3.749  11.862  0.1625 -0.4332 -0.2461
   77MPD2    H7 1208   2.032   3.757  11.851  0.0244 -0.2462  1.2525
   78TMC2    C1 1209   3.536   2.792   0.319 -0.5013 -0.1041 -0.6446
   78TMC2    C2 1210   3.584   2.698   0.401  0.1753  1.1372 -0.0048
   78TMC2    C3 1211   3.672   2.735   0.499  0.4274 -0.3352  0.0772
   78TMC2    C4 1212   3.579   2.925   0.336  0.3850 -0.2262  0.7302
   78TMC2    C5 1213   3.683   2.951   0.430 -0.1535  0.1042 -0.5054
   78TMC2    C6 1214   3.725   2.853   0.512 -0.1665  0.0636 -0.1035
   78TMC2     C 1215   3.447   2.759   0.212 -0.0090 -0.7552  0.4787
   78TMC2     O 1216   3.396   2.647   0.210 -0.4912  0.2265  0.3568
   78TMC2     H 1217   3.542   2.599   0.387  3.4570 -0.1314 -0.9404
   78TMC2    H1 1218   3.526   3.008   0.290  0.5997  0.1933  1.2383
   78TMC2    H2 1219   3.793   2.874   0.594 -0.2304  1.5382 -0.4233
   78TMC2    C7 1220   3.703   3.093   0.460  0.1208 -0.2504  0.1460
   78TMC2    C8 1221   3.710   2.637   0.596  0.3494  1.4160 -0.2271
   78TMC2    O1 1222   3.758   3.108   0.567  0.3757 -0.3049 -0.0984
   78TMC2    O2 1223   3.724   2.673   0.714  0.2235 -0.0451  0.3487
   78TMC2    O5 1224   3.712   2.517   0.540  0.3926  0.0133  0.5634
   78TMC2    H5 1225   3.721   2.520   0.443  0.2818  3.5403  0.6699
   79MPD1     C 1226   3.235   2.822  17.504 -0.0136 -0.5191 -0.5187
   79MPD1    C1 1227   3.242   2.717  17.574  0.3402  0.3754  0.2579
   79MPD1    C2 1228   3.294   2.731  17.703  0.2453 -0.3500  0.3402
   79MPD1    C3 1229   3.349   2.848   0.000  0.1587 -0.4812  0.3704
   79MPD1    C4 1230   3.346   2.962  17.669 -0.4023 -0.8084 -0.1988
   79MPD1    C5 1231   3.290   2.947  17.542  0.6772  0.3707  0.1092
   79MPD1     H 1232   3.297   2.643   0.017  0.8074  1.3156  2.6759
   79MPD1    H1 1233   3.405   3.050  17.695 -0.8155 -0.6603  0.2508
   79MPD1    H2 1234   3.180   2.824  17.410 -0.2250 -0.7538 -0.4003
   79MPD1    H3 1235   3.282   3.034  17.477  1.2805  0.7019  0.4797
   79MPD1     N 1236   3.415   2.863   0.129 -0.1086  0.3138  0.8253
   79MPD1    H5 1237   3.448   2.958   0.143  1.2605 -0.0127 -0.2098
   79MPD1    N1 1238   3.179   2.604  17.532 -0.3776  0.7661 -0.6271
   79MPD1    H6 1239   3.209   2.573  17.440 -4.5008 -0.2291 -1.6683
   79MPD1    H7 1240   3.192   2.529  17.599  0.1403  0.0634 -1.5082
   80TMC2    C1 1241   1.178   2.769  12.121  0.7882 -0.6893  0.1787
   80TMC2    C2 1242   1.291   2.755  12.043 -0.0872 -0.2399 -0.4261
   80TMC2    C3 1243   1.284   2.664  11.940  0.2868 -0.3601 -0.2924
   80TMC2    C4 1244   1.081   2.675  12.118 -0.1348 -0.3089  1.1928
   80TMC2    C5 1245   1.079   2.591  12.013 -0.3951  0.0529  0.4147
   80TMC2    C6 1246   1.171   2.587  11.915  0.0692  0.3094  0.2723
   80TMC2     C 1247   1.187   2.866  12.230 -1.2775  0.1608  0.3435
   80TMC2     O 1248   1.303   2.888  12.269  0.3295  0.0100  0.1257
   80TMC2     H 1249   1.378   2.818  12.052 -1.3414  1.6191 -1.3440
   80TMC2    H1 1250   0.992   2.686  12.179 -0.1532  0.4943  1.0294
   80TMC2    H2 1251   1.164   2.509  11.841  0.0728  0.8929 -0.3381
   80TMC2    C7 1252   0.959   2.510  11.998  0.2970 -0.3861  0.3828
   80TMC2    C8 1253   1.402   2.645  11.862 -0.0358  0.6325  0.6359
   80TMC2    O1 1254   0.906   2.482  11.890 -0.0627 -0.0657 -0.0699
   80TMC2    O2 1255   1.513   2.651  11.917  0.3983 -0.1912  0.0245
   80TMC2    O5 1256   1.372   2.571  11.761 -0.4304 -1.0722  0.0828
   80TMC2    H5 1257   1.288   2.599  11.719  1.1704  1.4651 -1.4847
   81MPD2     C 1258   1.123   2.967  12.493  0.0894 -0.5070 -1.6665
   81MPD2    C1 1259   1.044   2.983  12.386  0.1890 -0.6191  0.3998
   81MPD2    C2 1260   0.926   3.051  12.413  0.2137 -0.4201 -0.1350
   81MPD2    C3 1261   0.890   3.107  12.531  0.0516  0.5791  0.5538
   81MPD2    C4 1262   0.964   3.078  12.638 -0.5048 -0.5178 -0.2680
   81MPD2    C5 1263   1.082   3.009  12.616 -0.2964 -0.1224 -0.3947
   81MPD2     H 1264   0.870   3.054  12.320  0.8541  2.6067 -0.4055
   81MPD2    H1 1265   0.928   3.108  12.736  1.9853 -0.5150  0.6331
   81MPD2    H2 1266   1.213   2.909  12.482 -1.0945 -2.3904 -1.4293
   81MPD2    H3 1267   1.143   2.992  12.705  0.4240 -2.0304 -1.2454
   81MPD2     N 1268   0.760   3.157  12.557  0.0974 -0.0986 -0.4879
   81MPD2    H5 1269   0.742   3.164  12.656 -0.6264  2.5190 -0.7940
   81MPD2    N1 1270   1.066   2.921  12.261 -0.0060 -0.6214  0.6617
   81MPD2    H7 1271   0.994   2.920  12.189  0.4476  0.0252  0.1951
   82TMC2    C1 1272   4.434   2.395  11.168 -0.0501 -0.9553  0.0954
   82TMC2    C2 1273   4.543   2.355  11.243 -0.5288 -0.0875  0.1390
   82TMC2    C3 1274   4.520   2.266  11.351 -0.2168  0.8243 -0.1667
   82TMC2    C4 1275   4.308   2.352  11.205 -0.2271 -0.3338  0.7292
   82TMC2    C5 1276   4.292   2.274  11.318 -0.2479  0.2250 -0.4447
   82TMC2    C6 1277   4.401   2.229  11.392  0.7273  1.0230  0.4572
   82TMC2     C 1278   4.428   2.528  11.116  0.0882  0.1884 -0.0443
   82TMC2     O 1279   4.327   2.590  11.148 -0.8354  0.3143  0.1191
   82TMC2     H 1280   4.644   2.377  11.212  0.4454 -1.3668  2.3950
   82TMC2    H1 1281   4.226   2.365  11.134 -0.7486 -3.4872  0.7423
   82TMC2    H2 1282   4.379   2.161  11.473 -1.6016 -0.8051 -1.7027
   82TMC2    C7 1283   4.163   2.230  11.360 -0.6925 -0.0160 -0.0072
   82TMC2    C8 1284   4.621   2.235  11.443 -0.1395  0.4197  0.3501
   82TMC2    O1 1285   4.144   2.217  11.482 -0.1564  0.2823 -0.0986
   82TMC2    O2 1286   4.621   2.135  11.516  0.2590 -0.9964 -0.1573
   82TMC2    O5 1287   4.688   2.350  11.468 -0.1812 -0.1903  0.0673
   82TMC2    H5 1288   4.659   2.420  11.406 -0.5548 -1.0009 -0.6728
   83MPD2     C 1289   4.502   2.901  10.775  0.0557  0.1502 -0.3085
   83MPD2    C1 1290   4.392   2.863  10.850 -0.6458  0.0412 -0.1012
   83MPD2    C2 1291   4.399   2.748  10.927  0.0461  0.1250 -0.4501
   83MPD2    C3 1292   4.518   2.683  10.947  0.0204  0.0762  0.0612
   83MPD2    C4 1293   4.626   2.729  10.877  0.0062 -0.4657  0.3586
   83MPD2    C5 1294   4.621   2.843  10.799  0.6733  0.0098 -0.0128
   83MPD2     H 1295   4.308   2.696  10.952 -1.1307  1.1942 -2.5125
   83MPD2    H1 1296   4.724   2.683  10.866 -0.7178 -2.2769  1.5341
   83MPD2    H2 1297   4.501   2.985  10.706  2.1983  0.7149  0.3676
   83MPD2    H3 1298   4.710   2.869  10.743  0.3820 -1.3775 -1.1367
   83MPD2     N 1299   4.528   2.569  11.030 -0.2222  0.1364 -0.6347
   83MPD2    H5 1300   4.606   2.505  11.018 -0.8590 -1.2782  2.5513
   83MPD2    N1 1301   4.269   2.934  10.832 -0.0639  0.0728 -0.0468
   83MPD2    H7 1302   4.268   3.001  10.755  1.4835 -1.6477 -1.5833
   84TMC2    C1 1303   0.186   1.957  11.093 -0.3532  0.8362  0.2357
   84TMC2    C2 1304   0.197   1.832  11.145 -0.0777  1.0104  0.6328
   84TMC2    C3 1305   0.210   1.730  11.060  0.0250 -0.2149  0.6843
   84TMC2    C4 1306   0.187   1.975  10.955  0.0964  0.8736  0.4951
   84TMC2    C5 1307   0.185   1.870  10.877  0.0723 -0.2523  0.1967
   84TMC2    C6 1308   0.200   1.744  10.929  0.7933 -0.6635 -0.5169
   84TMC2     C 1309   0.207   2.065  11.181 -0.5991 -0.0376 -0.5464
   84TMC2     O 1310   0.157   2.059  11.292  0.2316 -0.3215  0.6813
   84TMC2     H 1311   0.207   1.820  11.252  0.8727  2.3375  0.6964
   84TMC2    H1 1312   0.172   2.071  10.905 -1.0175  0.8160  0.7250
   84TMC2    H2 1313   0.171   1.659  10.868  1.1349  0.0692 -1.7254
   84TMC2    C7 1314   0.200   1.873  10.732 -0.2376  0.6842 -0.0251
   84TMC2    C8 1315   0.265   1.611  11.121  0.2591  1.0056  0.4327
   84TMC2    O1 1316   0.157   1.778  10.673 -0.4083 -0.3441  0.3114
   84TMC2    O2 1317   0.259   1.504  11.057  0.5176  0.2902 -0.3450
   84TMC2    O5 1318   0.379   1.654  11.184 -0.1120  0.1040  0.3952
   84TMC2    H5 1319   0.382   1.745  11.221  0.0043  0.2461  0.0377
   85TMC2    C1 1320   1.447   4.478  15.907 -0.0005  0.1306  0.1825
   85TMC2    C2 1321   1.340   4.567  15.917 -0.1310 -0.7197  0.1104
   85TMC2    C3 1322   1.342   4.672  15.828 -0.4348 -0.4557 -0.6453
   85TMC2    C4 1323   1.558   4.503  15.826  0.0364 -0.6325 -0.3336
   85TMC2    C5 1324   1.562   4.616  15.752 -0.6071  0.5700 -0.5430
   85TMC2    C6 1325   1.455   4.701  15.753  0.0241  1.1428  0.9223
   85TMC2     C 1326   1.460   4.362  15.994 -1.0518 -0.0825  0.1514
   85TMC2     O 1327   1.578   4.332  16.013  0.3986  0.1854  0.1089
   85TMC2     H 1328   1.260   4.553  15.989 -1.5745 -1.3878 -1.6333
   85TMC2    H1 1329   1.632   4.426  15.804  0.4570 -0.0593 -0.8954
   85TMC2    H2 1330   1.460   0.055  15.696  0.1707  0.4665 -0.1454
   85TMC2    C7 1331   1.644   4.614  15.628 -0.5264 -0.7530  0.4089
   85TMC2    C8 1332   1.245   0.046  15.825  0.4414  0.4357  0.8509
   85TMC2    O1 1333   1.682   4.503  15.599  0.1252  0.2297  0.2489
   85TMC2    O2 1334   1.275   0.155  15.787  0.4238  0.4073  0.1580
   85TMC2    O5 1335   1.147   0.018  15.914  0.5200  0.6461  0.4104
   85TMC2    H5 1336   1.148   4.660  15.934  1.0291  1.1913  3.0291
   86MPD2     C 1337   1.312   3.985  16.298  0.0682  0.1562 -0.4151
   86MPD2    C1 1338   1.201   4.018  16.222 -0.3082  0.6095  0.4753
   86MPD2    C2 1339   1.216   4.122  16.128 -0.5451  0.1078  0.1055
   86MPD2    C3 1340   1.340   4.185  16.123  0.1590 -0.7024 -0.1960
   86MPD2    C4 1341   1.450   4.131  16.188 -0.2626 -0.7216 -0.4122
   86MPD2    C5 1342   1.438   4.030  16.278 -0.3829  0.0364  0.1604
   86MPD2     H 1343   1.138   4.143  16.055 -0.3756  0.9421  0.1611
   86MPD2    H1 1344   1.551   4.168  16.173  0.0292 -2.7177 -3.3865
   86MPD2    H2 1345   1.307   3.904  16.370 -2.1478  0.9969  0.3714
   86MPD2    H3 1346   1.516   3.987  16.339  0.6648  0.3835 -0.9358
   86MPD2     N 1347   1.348   4.297  16.048  0.2329 -0.4053 -0.2852
   86MPD2    H5 1348   1.256   4.324  16.014  0.8045  3.6833  1.3995
   86MPD2    N1 1349   1.073   3.968  16.237  0.3439  0.9359 -0.6072
   86MPD2    H7 1350   1.000   3.997  16.172  1.6453 -0.6599 -2.7570
   87TMC2    C1 1351   3.893   2.208   0.802 -0.1445 -0.0712 -0.0879
   87TMC2    C2 1352   3.946   2.138   0.911  0.4247 -0.6397 -0.2032
   87TMC2    C3 1353   4.014   2.207   1.002 -0.2859 -0.7001 -0.3147
   87TMC2    C4 1354   3.915   2.343   0.794 -0.5517 -0.3602  0.0527
   87TMC2    C5 1355   3.987   2.407   0.888  0.3644 -0.0021 -0.1994
   87TMC2    C6 1356   4.043   2.337   0.990 -0.4849 -0.6725 -0.3913
   87TMC2     C 1357   3.914   2.155   0.671  0.1480  0.0808 -0.0024
   87TMC2     O 1358   3.919   2.244   0.586  0.0329  0.3623  0.0377
   87TMC2     H 1359   3.927   2.034   0.935  2.4018 -1.3097 -1.5186
   87TMC2    H1 1360   3.870   2.410   0.721  0.1102  0.1698  0.1387
   87TMC2    H2 1361   4.113   2.382   1.059  1.7621 -4.5924 -0.1558
   87TMC2    C7 1362   4.029   2.541   0.850  0.0512 -0.1716  0.5620
   87TMC2    C8 1363   4.064   2.140   1.116  0.5702 -0.1532  0.3374
   87TMC2    O1 1364   4.040   2.551   0.730  0.3444 -0.7733 -0.3942
   87TMC2    O2 1365   4.101   2.025   1.121 -0.5383  0.2572  0.1826
   87TMC2    O5 1366   4.019   2.210   1.223  0.2890 -0.4269 -0.1587
   87TMC2    H5 1367   3.988   2.303   1.212  2.1702 -0.2784 -4.2319
   88MPD2     C 1368   3.972   2.853   1.029  0.2134  0.5175  0.4443
   88MPD2    C1 1369   3.996   2.769   0.927  0.9259 -0.1487 -0.2522
   88MPD2    C2 1370   4.009   2.821   0.802  0.1049 -0.1420 -0.0868
   88MPD2    C3 1371   4.030   2.954   0.784  0.1917  0.0459  0.1459
   88MPD2    C4 1372   4.023   3.040   0.889 -0.3503 -0.7578 -0.6151
   88MPD2    C5 1373   3.988   2.991   1.015  0.3487  0.6578 -0.3124
   88MPD2     H 1374   4.029   2.754   0.719  1.7308  0.9879 -0.6101
   88MPD2    H1 1375   4.038   3.146   0.870  0.6411 -0.8557 -0.3847
   88MPD2    H2 1376   3.941   2.813   1.125  0.4963 -3.2382 -1.0280
   88MPD2    H3 1377   3.967   3.055   1.099 -0.1449 -0.2301  0.2354
   88MPD2     N 1378   4.042   3.011   0.660  0.3378 -0.1083  0.0455
   88MPD2    H5 1379   4.022   3.111   0.659 -3.3994 -0.8263  0.3172
   88MPD2    N1 1380   3.989   2.629   0.949 -0.0258 -0.2960  0.1943
   88MPD2    H7 1381   3.980   2.594   1.044  1.1356  0.6199  0.6433
   89TMC2    C1 1382   0.378   1.576   1.686 -0.5764 -0.7987 -0.1412
   89TMC2    C2 1383   0.424   1.661   1.784  0.2965  0.7360  0.0098
   89TMC2    C3 1384   0.353   1.772   1.814 -0.4660 -0.4671  0.4750
   89TMC2    C4 1385   0.266   1.597   1.621 -0.2071  0.0721  0.2889
   89TMC2    C5 1386   0.215   1.723   1.629 -0.5203 -0.9706  0.5310
   89TMC2    C6 1387   0.245   1.802   1.734 -0.2426  0.5321 -0.0915
   89TMC2     C 1388   0.412   1.438   1.708 -0.1087  0.0524 -0.3261
   89TMC2     O 1389   0.528   1.393   1.683  0.1050 -0.2592  0.0661
   89TMC2     H 1390   0.515   1.646   1.841  0.3202  1.6100  0.1951
   89TMC2    H1 1391   0.244   1.534   1.536 -0.6945 -0.3932  0.7589
   89TMC2    H2 1392   0.187   1.892   1.752 -0.6731 -0.2292  2.3135
   89TMC2    C7 1393   0.094   1.742   1.559 -0.1624  0.3858  0.1951
   89TMC2    C8 1394   0.379   1.852   1.934  0.1016 -0.4708  0.2360
   89TMC2    O1 1395   0.008   1.816   1.611  0.2310 -0.5010  0.3715
   89TMC2    O2 1396   0.336   1.966   1.945  0.1763  0.2621  0.2262
   89TMC2    O5 1397   0.447   1.781   2.021 -0.2249  0.1326  0.1936
   89TMC2    H5 1398   0.444   1.684   2.010 -0.2694  0.2105 -0.4576
   90MPD2     C 1399   0.180   0.983   1.678 -1.0561 -0.3182 -0.3802
   90MPD2    C1 1400   0.105   1.067   1.754 -0.2038 -0.3492 -0.2029
   90MPD2    C2 1401   0.157   1.193   1.783 -0.4363  0.1685 -0.2365
   90MPD2    C3 1402   0.276   1.236   1.733 -0.5469 -0.2277 -0.1499
   90MPD2    C4 1403   0.351   1.151   1.659  0.6242 -0.2208 -0.2066
   90MPD2    C5 1404   0.300   1.024   1.633 -0.1272 -0.2808 -0.7809
   90MPD2     H 1405   0.096   1.256   1.846 -0.2892  1.6532 -1.5685
   90MPD2    H1 1406   0.437   1.188   1.605  1.1255 -0.3627  0.4995
   90MPD2    H2 1407   0.157   0.880   1.652  0.0910 -0.2535 -1.6343
   90MPD2    H3 1408   0.348   0.960   1.560 -0.3113 -0.5470 -0.6659
   90MPD2     N 1409   0.297   1.375   1.734 -0.3747 -0.2037 -0.0275
   90MPD2    H5 1410   0.220   1.438   1.753  1.3133  1.6498  0.6073
   90MPD2    N1 1411   4.714   1.029   1.798  0.2651  0.3964 -0.5064
   90MPD2    H7 1412   4.667   1.106   1.844 -0.2399 -0.3498  0.2388
   91TMC2    C1 1413   0.935   0.985  16.191  0.3742 -0.1213  0.1854
   91TMC2    C2 1414   0.887   1.098  16.255  0.6618 -0.5076 -0.0078
   91TMC2    C3 1415   0.817   1.089  16.372  0.3694  0.2989  0.3285
   91TMC2    C4 1416   0.909   0.864  16.236  0.5641 -0.2434 -0.6304
   91TMC2    C5 1417   0.824   0.864  16.346 -0.7620  0.6016  0.5865
   91TMC2    C6 1418   0.782   0.966  16.426 -0.2020 -0.3480 -0.2783
   91TMC2     C 1419   1.040   1.005  16.098  0.2333  0.1783 -0.3298
   91TMC2     O 1420   1.035   1.117  16.033 -0.9281 -0.0070 -0.6297
   91TMC2     H 1421   0.912   1.197  16.217  0.2893 -0.1366  0.6971
   91TMC2    H1 1422   0.945   0.777  16.183  3.8556  0.7542 -0.0075
   91TMC2    H2 1423   0.697   0.953  16.492 -0.7875 -1.5193 -1.2873
   91TMC2    C7 1424   0.750   0.744  16.380  0.2499  0.2685 -0.3860
   91TMC2    C8 1425   0.738   1.203  16.411 -0.0409  0.0941  0.0561
   91TMC2    O1 1426   0.753   0.713  16.499 -0.4069 -0.1228 -0.5161
   91TMC2    O2 1427   0.695   1.276  16.326  0.7896 -0.6833  0.2300
   91TMC2    O5 1428   0.683   1.177  16.532  0.2272  0.3708 -0.5219
   91TMC2    H5 1429   0.741   1.119  16.586 -1.6780 -0.1194  0.9983
   92MPD2     C 1430   1.262   0.969  15.898 -0.1107 -0.4035  0.1485
   92MPD2    C1 1431   1.268   0.919  16.023  0.3467 -0.1586 -0.3399
   92MPD2    C2 1432   1.383   0.849  16.059 -1.2594  0.0255  0.5821
   92MPD2    C3 1433   1.495   0.839  15.976 -0.8431  0.0022  0.2075
   92MPD2    C4 1434   1.490   0.891  15.846 -0.0587  0.4201 -0.6650
   92MPD2    C5 1435   1.378   0.963  15.810 -0.0067 -0.3866 -0.2052
   92MPD2     H 1436   1.393   0.818  16.162  5.7562  0.6505  0.0924
   92MPD2    H1 1437   1.570   0.875  15.774  0.9628 -1.9083  0.9925
   92MPD2    H2 1438   1.179   1.027  15.858  0.8592  1.3421  0.6647
   92MPD2    H3 1439   1.365   1.000  15.709 -2.7583  3.1889  1.5088
   92MPD2     N 1440   1.612   0.793  16.032 -0.2268 -0.2631  0.1565
   92MPD2    H5 1441   1.605   0.760  16.127 -0.4781  2.2049  1.0009
   92MPD2    N1 1442   1.157   0.928  16.114 -0.3469  0.0808  0.4333
   92MPD2    H7 1443   1.169   0.877  16.201 -0.3294 -1.4468 -0.4627
   93TMC2    C1 1444   3.263   0.115  13.746 -0.2814  0.8489  0.4488
   93TMC2    C2 1445   3.163   0.045  13.801 -0.1115  0.0539 -0.0126
   93TMC2    C3 1446   3.156   0.046  13.942  1.0588 -0.2307  1.0180
   93TMC2    C4 1447   3.361   0.176  13.824  0.1676  0.4873 -0.9578
   93TMC2    C5 1448   3.354   0.175  13.967  0.0769  0.2799 -0.5438
   93TMC2    C6 1449   3.248   0.110  14.025  0.3943 -0.5790 -0.5136
   93TMC2     C 1450   3.247   0.160  13.611  0.8146  0.9727 -0.1268
   93TMC2     O 1451   3.343   0.183  13.538 -0.4720  0.1075 -0.3575
   93TMC2     H 1452   3.084   0.000  13.741  0.4023 -0.6669 -0.1578
   93TMC2    H1 1453   3.445   0.223  13.773  0.3991  0.5944 -0.4769
   93TMC2    H2 1454   3.246   0.112  14.134  2.1429 -1.3051 -0.4815
   93TMC2    C7 1455   3.460   0.241  14.051 -0.2629 -0.0721  0.4211
   93TMC2    C8 1456   3.043   4.720  14.010 -0.3212 -0.6521 -0.2592
   93TMC2    O1 1457   3.420   0.300  14.152  0.0653 -0.3842 -0.1384
   93TMC2    O2 1458   2.966   0.035  14.085 -0.0819  0.5786  0.0698
   93TMC2    O5 1459   3.026   4.594  13.957 -0.4394  0.2273 -0.2826
   93TMC2    H5 1460   3.103   4.553  13.913 -0.4551  1.6370 -1.6213
   94MPD2     C 1461   3.115   0.287  13.360 -0.0357 -0.3520  0.0228
   94MPD2    C1 1462   3.046   0.235  13.468  0.2934  0.3224 -0.1453
   94MPD2    C2 1463   2.912   0.257  13.468  0.1725  0.5500 -0.2971
   94MPD2    C3 1464   2.845   0.340  13.376 -0.2221 -0.0781  0.0743
   94MPD2    C4 1465   2.918   0.405  13.273  0.1278  0.5028  0.0384
   94MPD2    C5 1466   3.049   0.365  13.263  0.5579 -0.3000  0.8966
   94MPD2     H 1467   2.854   0.220  13.553  1.4293 -1.1877 -0.2139
   94MPD2    H1 1468   2.876   0.482  13.210  0.5225 -0.3943 -1.3006
   94MPD2    H2 1469   3.222   0.272  13.347 -0.0907 -0.1045 -0.7318
   94MPD2    H3 1470   3.119   0.410  13.193  1.7021 -0.1544  2.1502
   94MPD2     N 1471   2.699   0.360  13.392 -0.0871  1.1171  0.0469
   94MPD2    H5 1472   2.648   0.408  13.318  0.6340 -1.0088 -1.8206
   94MPD2    N1 1473   3.107   0.171  13.578  0.0863 -0.0395  0.1942
   94MPD2    H7 1474   3.041   0.143  13.650  0.4679  1.5781  1.1626
   95TMC2    C1 1475   3.158   2.366  16.558 -0.8871  0.3059  0.4273
   95TMC2    C2 1476   3.211   2.477  16.627  0.4114  0.3390  0.6855
   95TMC2    C3 1477   3.257   2.447  16.756 -0.5190 -0.0846  0.5637
   95TMC2    C4 1478   3.138   2.242  16.617 -0.4298 -0.3261  0.3041
   95TMC2    C5 1479   3.169   2.228  16.746  0.6636 -0.5827 -0.3267
   95TMC2    C6 1480   3.232   2.327  16.816  0.5505 -0.3542 -0.3464
   95TMC2     C 1481   3.145   2.376  16.412  0.0855 -0.0934  0.1698
   95TMC2     O 1482   3.209   2.463  16.355  0.2372 -0.1859 -0.3061
   95TMC2     H 1483   3.219   2.575  16.583 -0.2485  0.6750  1.3272
   95TMC2    H1 1484   3.116   2.158  16.552 -0.0710  0.0660 -0.3281
   95TMC2    H2 1485   3.257   2.317  16.921  2.5969  0.1966 -0.7932
   95TMC2    C7 1486   3.109   2.126  16.836  0.1282  0.3517  0.0194
   95TMC2    C8 1487   3.298   2.551  16.842 -0.3904 -0.2372 -0.1878
   95TMC2    O1 1488   3.151   2.121  16.949 -0.2135  0.0548 -0.1873
   95TMC2    O2 1489   3.235   2.574  16.943  0.6472 -0.5021  0.4312
   95TMC2    O5 1490   3.346   2.643  16.755 -0.5210 -0.2090 -0.0498
   95TMC2    H5 1491   3.413   2.605  16.695 -0.3769  1.6690 -1.0975
   96MPD2     C 1492   2.951   2.257  15.960  0.4504  0.6352 -0.1006
   96MPD2    C1 1493   3.064   2.327  15.991 -0.0925 -0.0801  0.0187
   96MPD2    C2 1494   3.100   2.333  16.126  0.5870 -0.7775  0.5929
   96MPD2    C3 1495   3.029   2.274  16.226  0.9196 -0.1210  0.0622
   96MPD2    C4 1496   2.914   2.206  16.195 -0.1840 -1.0533 -0.1470
   96MPD2    C5 1497   2.876   2.204  16.064  0.2057 -0.3390  0.2354
   96MPD2     H 1498   3.201   2.363  16.150  0.8087 -0.0628 -1.2312
   96MPD2    H1 1499   2.847   2.169  16.272 -0.2298  1.1832  0.8691
   96MPD2    H2 1500   2.926   2.248  15.855  0.4221 -1.3079  0.0829
   96MPD2    H3 1501   2.778   2.169  16.035 -0.0922 -1.8893  3.1699
   96MPD2     N 1502   3.061   2.282  16.364 -0.3688  0.1439 -0.1717
   96MPD2    H5 1503   2.992   2.239  16.424 -0.1581 -1.1183 -0.8458
   96MPD2    N1 1504   3.152   2.375  15.887  0.1461 -0.4298 -0.3045
   96MPD2    H7 1505   3.124   2.364  15.790  0.1527  1.1681 -0.4854
   97TMC2    C1 1506   0.621   4.430  17.726  0.2690 -0.9306  0.0760
   97TMC2    C2 1507   0.554   4.396  17.604 -0.4404  0.6366 -0.3979
   97TMC2    C3 1508   0.571   4.480  17.491 -0.4613  0.6239 -0.5268
   97TMC2    C4 1509   0.687   4.550  17.730  0.4051  0.0398 -0.1725
   97TMC2    C5 1510   0.695   4.634  17.620 -0.9721 -0.2771 -0.0231
   97TMC2    C6 1511   0.630   4.603  17.501  0.3138  0.4599 -0.3721
   97TMC2     C 1512   0.569   4.378   0.105 -0.7894  0.3594 -0.1407
   97TMC2     O 1513   0.608   4.444   0.204 -0.0951  0.3728 -0.5344
   97TMC2     H 1514   0.492   4.308  17.595  0.2225  0.2537 -1.2371
   97TMC2    H1 1515   0.740   4.580   0.070  0.6686  1.9281 -0.9685
   97TMC2    H2 1516   0.647   4.669  17.417 -3.2419  0.3216 -1.2167
   97TMC2    C7 1517   0.763   0.028  17.641 -0.4132 -0.4181  0.5942
   97TMC2    C8 1518   0.477   4.462  17.377  0.8823  0.1543  0.0558
   97TMC2    O1 1519   0.868   0.028  17.702 -0.3645  0.6528  0.1711
   97TMC2    O2 1520   0.435   4.349  17.356 -0.2705 -0.2050 -0.1633
   97TMC2    O5 1521   0.391   4.565  17.397  0.0239 -0.2871  0.1005
   97TMC2    H5 1522   0.422   4.640  17.452 -1.0968 -0.4393  0.9520
   98MPD2     C 1523   0.288   4.112   0.429  0.1976  0.9374  0.1685
   98MPD2    C1 1524   0.335   4.241   0.437  0.7522 -0.4189  0.5038
   98MPD2    C2 1525   0.409   4.288   0.331  0.0149 -0.2250 -0.3449
   98MPD2    C3 1526   0.434   4.214   0.211  0.8177 -0.1087 -0.7141
   98MPD2    C4 1527   0.369   4.095   0.205  0.3782  0.0281  0.0296
   98MPD2    C5 1528   0.289   4.049   0.308 -0.2776 -0.1320 -0.5022
   98MPD2     H 1529   0.447   4.388   0.350 -3.4583  0.8737  0.9137
   98MPD2    H1 1530   0.359   4.045   0.110  2.0188 -0.9634  0.3879
   98MPD2    H2 1531   0.240   4.063   0.514  2.2612 -1.4363 -0.0510
   98MPD2    H3 1532   0.241   3.953   0.297 -0.6638 -0.1133  1.0895
   98MPD2     N 1533   0.502   4.262   0.103  0.6314 -0.2715  0.2137
   98MPD2    H5 1534   0.491   4.207   0.019 -0.2553 -1.0597  0.8477
   98MPD2    N1 1535   0.308   4.307   0.560 -0.2150  0.0220 -0.2124
   98MPD2    H7 1536   0.226   4.279   0.613  1.8500 -0.8705  2.5028
   99TMC2    C1 1537   4.645   1.646   1.919 -0.2154  0.7589  0.0898
   99TMC2    C2 1538   0.020   1.669   2.001 -0.4784  0.5413  0.0498
   99TMC2    C3 1539   4.726   1.753   2.104  1.0327 -0.2024 -1.4468
   99TMC2    C4 1540   4.516   1.689   1.935 -0.1349 -0.4325  0.7844
   99TMC2    C5 1541   4.498   1.773   2.042  0.5610 -0.2697  0.0913
   99TMC2    C6 1542   4.600   1.809   2.125  0.2483 -0.5916 -0.2081
   99TMC2     C 1543   4.686   1.551   1.809 -0.4676  1.0562  0.3817
   99TMC2     O 1544   0.060   1.505   1.814  0.0532 -0.2539  0.0946
   99TMC2     H 1545   0.118   1.626   1.986 -2.2044 -3.4825  0.1138
   99TMC2    H1 1546   4.442   1.644   1.871  1.7316  1.0365 -2.4023
   99TMC2    H2 1547   4.585   1.863   2.218  2.5165  1.1404 -0.8335
   99TMC2    C7 1548   4.365   1.830   2.059 -0.3898  0.0186 -0.0053
   99TMC2    C8 1549   0.084   1.764   2.211  0.5274 -0.0417  0.5803
   99TMC2    O1 1550   4.348   1.915   2.149 -0.1582  0.4974 -0.4741
   99TMC2    O2 1551   0.138   1.870   2.241 -0.3903  0.1158  0.0188
   99TMC2    O5 1552   0.143   1.639   2.215  0.6235  0.3943 -0.1430
   99TMC2    H5 1553   0.073   1.576   2.187  1.8616 -1.4630  1.0221
  100MPD2     C 1554   4.704   1.367   1.579 -1.0345 -0.1651  0.1961
  100MPD2    C1 1555   4.593   1.448   1.600 -0.1057 -0.3918 -0.1330
  100MPD2    C2 1556   4.491   1.452   1.507  0.0160  0.5013 -0.3566
  100MPD2    C3 1557   4.514   1.384   1.386 -0.7498 -0.9919 -0.8600
  100MPD2    C4 1558   4.625   1.311   1.368 -0.1438  0.5890  0.6414
  100MPD2    C5 1559   4.722   1.306   1.462  1.2504 -0.6907  0.4315
  100MPD2     H 1560   4.410   1.525   1.512 -0.0726  0.3919 -0.2080
  100MPD2    H1 1561   4.654   1.266   1.274  0.5300  2.2636  0.0484
  100MPD2    H2 1562   0.061   1.364   1.632 -0.9547 -2.2840 -0.0400
  100MPD2    H3 1563   0.081   1.258   1.450  2.8319  2.5557  0.0243
  100MPD2     N 1564   4.423   1.416   1.287 -0.0032  0.5439 -0.3666
  100MPD2    H5 1565   4.346   1.477   1.313 -0.3737  0.8016 -2.0800
  100MPD2    N1 1566   4.590   1.535   1.712  0.2976 -0.4836 -0.2624
  100MPD2    H7 1567   4.511   1.597   1.723  0.0692 -1.3268  2.8597
  101TMC2    C1 1568   4.687   2.854  13.305  0.8935 -0.3827 -0.1745
  101TMC2    C2 1569   0.024   2.862  13.423  1.0327 -0.2925 -0.1577
  101TMC2    C3 1570   0.106   2.968  13.437  0.3423  0.4347 -0.6236
  101TMC2    C4 1571   4.687   2.950  13.202 -0.3825 -1.2355 -0.6652
  101TMC2    C5 1572   0.030   3.058  13.230  0.0302  0.0963  0.0826
  101TMC2    C6 1573   0.118   3.062  13.338 -0.3923  0.2172 -0.6464
  101TMC2     C 1574   4.597   2.737  13.307  0.4673  0.0951  0.1111
  101TMC2     O 1575   4.484   2.749  13.260 -0.2682  0.4208 -0.0260
  101TMC2     H 1576   0.026   2.781  13.495  2.2834 -0.4686 -0.3931
  101TMC2    H1 1577   4.639   2.933  13.106 -0.6364 -0.3055 -0.7004
  101TMC2    H2 1578   0.195   3.138  13.333  1.5975 -1.7533  0.2122
  101TMC2    C7 1579   0.050   3.157  13.128  0.1949  0.3715 -1.0315
  101TMC2    C8 1580   0.173   2.970  13.561  0.4301  0.5333 -0.5618
  101TMC2    O1 1581   0.144   3.233  13.147 -0.3957  0.3839 -0.2123
  101TMC2    O2 1582   0.120   2.928  13.660  0.1356  0.5553  0.0437
  101TMC2    O5 1583   0.278   3.055  13.567  0.7835 -0.7054  0.3337
  101TMC2    H5 1584   0.335   3.063  13.489 -0.4519 -1.2536 -0.6325
  102MPD2     C 1585   4.685   2.393  13.367 -0.2366 -0.0535 -0.0433
  102MPD2    C1 1586   4.597   2.500  13.359  0.0857 -0.2638  0.6048
  102MPD2    C2 1587   4.461   2.480  13.374 -0.2502 -0.1436  0.2421
  102MPD2    C3 1588   4.405   2.361  13.408 -0.1859 -0.2442 -0.6374
  102MPD2    C4 1589   4.489   2.257  13.413  0.1704  0.0423  0.4381
  102MPD2    C5 1590   4.627   2.270  13.392  0.4387  0.1657 -0.1482
  102MPD2     H 1591   4.389   2.561  13.365 -1.8045 -1.4361  0.9883
  102MPD2    H1 1592   4.458   2.155  13.435  2.0461 -1.0350 -1.8491
  102MPD2    H2 1593   0.055   2.403  13.368 -0.0917 -1.1481 -2.7646
  102MPD2    H3 1594   4.689   2.181  13.400 -0.9332 -0.6731  1.2216
  102MPD2     N 1595   4.274   2.359  13.455 -0.2515  0.4798  0.3549
  102MPD2    H5 1596   4.213   2.440  13.456  1.9142  2.0737  0.3440
  102MPD2    N1 1597   4.662   2.623  13.333  0.3510 -0.6173  0.4868
  102MPD2    H7 1598   0.023   2.637  13.353  0.7925 -1.5934 -0.9776
  103TMC2    C1 1599   2.566   3.068  12.710 -0.0707 -0.0956 -0.4260
  103TMC2    C2 1600   2.611   3.129  12.592 -0.3947 -0.4573  0.5652
  103TMC2    C3 1601   2.696   3.228  12.609  0.1637 -0.3632  0.3177
  103TMC2    C4 1602   2.613   3.098  12.838 -0.3971  0.0727  0.3726
  103TMC2    C5 1603   2.707   3.198  12.838  0.3002  0.4474 -0.8239
  103TMC2    C6 1604   2.747   3.271  12.724 -0.4452  0.5782  0.5492
  103TMC2     C 1605   2.462   2.966  12.698  0.2956  0.7094  0.7804
  103TMC2     O 1606   2.420   2.917  12.804  0.3675 -0.6195  0.4223
  103TMC2     H 1607   2.595   3.091  12.492  2.0477  1.0403 -0.3870
  103TMC2    H1 1608   2.560   3.057  12.923 -0.3123 -0.6572  0.0756
  103TMC2    H2 1609   2.782   3.373  12.717  2.1530 -0.3729 -0.0369
  103TMC2    C7 1610   2.762   3.217  12.969 -0.5541  0.7279 -0.1734
  103TMC2    C8 1611   2.715   3.314  12.496  0.5209 -0.3839  0.3903
  103TMC2    O1 1612   2.689   3.180  13.060  0.8200  0.1968  0.0748
  103TMC2    O2 1613   2.641   3.334  12.402 -0.5567 -0.3544 -0.8279
  103TMC2    O5 1614   2.848   3.345  12.499 -0.1672  0.6068  0.0662
  103TMC2    H5 1615   2.888   3.305  12.580  0.0858 -1.2159 -0.9718
  104MPD2     C 1616   2.246   2.789  12.605  0.6375 -0.1599 -0.6095
  104MPD2    C1 1617   2.299   2.884  12.522  0.1227  0.2785 -1.0226
  104MPD2    C2 1618   2.249   2.901  12.395 -0.1920 -0.3135 -0.3216
  104MPD2    C3 1619   2.130   2.840  12.354  0.2777 -0.1361 -0.2016
  104MPD2    C4 1620   2.073   2.752  12.443  0.4301  0.2861  0.2594
  104MPD2    C5 1621   2.131   2.724  12.569  1.3959 -0.5398  0.6699
  104MPD2     H 1622   2.301   2.968  12.327 -0.8801  0.5048 -0.0445
  104MPD2    H1 1623   1.976   2.710  12.420  0.0139  0.9251  0.8687
  104MPD2    H2 1624   2.264   2.787  12.712  1.9187  1.1608 -0.7905
  104MPD2    H3 1625   2.083   2.644  12.624 -1.4305  1.8982  1.7696
  104MPD2     N 1626   2.069   2.882  12.237 -0.8139 -0.1553 -0.2239
  104MPD2    H5 1627   2.116   2.958  12.188  1.1491 -1.3847 -0.2229
  104MPD2    N1 1628   2.405   2.965  12.570 -0.4311  0.3950  0.0641
  104MPD2    H7 1629   2.442   3.036  12.508 -0.5430 -0.2081 -0.6975
  105TMC2    C1 1630   4.456   2.123  17.631  0.3989  0.0701 -0.1059
  105TMC2    C2 1631   4.440   2.260  17.658 -0.3964 -0.5650 -0.4449
  105TMC2    C3 1632   4.339   2.295  17.747 -0.7450  0.1624  0.5776
  105TMC2    C4 1633   4.374   2.037  17.694 -0.3137 -0.7365  0.2170
  105TMC2    C5 1634   4.288   2.080   0.040  0.2455  0.0883 -0.2163
  105TMC2    C6 1635   4.257   2.205   0.063 -0.1249  0.0336  0.7868
  105TMC2     C 1636   4.513   2.073  17.511  0.4052  0.1732  0.1862
  105TMC2     O 1637   4.510   1.957  17.499 -0.1330 -0.0807 -0.0457
  105TMC2     H 1638   4.496   2.344  17.620 -0.7869  0.4890  1.2805
  105TMC2    H1 1639   4.399   1.932  17.690 -2.2763 -1.2423  1.6451
  105TMC2    H2 1640   4.189   2.238   0.141 -1.0244  1.2349 -0.4968
  105TMC2    C7 1641   4.235   1.979   0.124 -0.3051 -0.1522 -0.0044
  105TMC2    C8 1642   4.323   2.442   0.012  0.2002 -0.1306  0.1586
  105TMC2    O1 1643   4.260   1.863   0.089 -0.5227  0.0977  0.5617
  105TMC2    O2 1644   4.395   2.521  17.716  0.5191 -0.4540 -0.2047
  105TMC2    O5 1645   4.213   2.471   0.091 -0.3104  0.3616 -0.0358
  105TMC2    H5 1646   4.143   2.406   0.111  0.6269  0.4463  3.5229
  106MPD2     C 1647   0.042   2.118  17.076 -0.0596 -0.3375 -0.2735
  106MPD2    C1 1648   0.034   2.239  17.135  0.2103  0.2879 -0.1660
  106MPD2    C2 1649   4.710   2.257  17.261 -0.4479  0.3863  0.8110
  106MPD2    C3 1650   4.646   2.148  17.317 -0.2941  0.4201 -0.0071
  106MPD2    C4 1651   4.647   2.027  17.255 -0.0896 -0.2245 -0.4742
  106MPD2    C5 1652   4.719   2.014  17.137 -0.3721 -0.8354  0.4577
  106MPD2     H 1653   4.697   2.358  17.296 -1.7749  0.5883 -0.2678
  106MPD2    H1 1654   4.587   1.944  17.289 -1.0923 -0.0203 -1.7429
  106MPD2    H2 1655   0.077   2.109  16.974  0.7134 -1.4615  0.0932
  106MPD2    H3 1656   4.715   1.930  17.069  0.9190  1.6290 -2.6605
  106MPD2     N 1657   4.585   2.172  17.439 -0.0744 -0.4311  0.0039
  106MPD2    H5 1658   4.609   2.263  17.478 -0.1050  0.7874 -2.8064
  106MPD2    N1 1659   0.078   2.350  17.062  0.2194 -0.6152 -0.1154
  106MPD2    H7 1660   0.091   2.325  16.965  1.5797 -1.7869  0.3632
  107TMC2    C1 1661   0.022   2.631  11.774  0.1180 -0.1532  0.3029
  107TMC2    C2 1662   0.072   2.741  11.843 -0.6364 -0.1946  0.5041
  107TMC2    C3 1663   0.199   2.788  11.829 -0.1120 -0.1845  0.4168
  107TMC2    C4 1664   0.105   2.569  11.680  0.2314 -0.3180  0.4441
  107TMC2    C5 1665   0.232   2.620  11.664 -0.2117  0.0154 -0.1427
  107TMC2    C6 1666   0.280   2.734  11.732 -0.1229 -0.5867 -0.2830
  107TMC2     C 1667   4.685   2.547  11.862  0.2064 -0.5286  0.8507
  107TMC2     O 1668   4.690   2.574  11.982 -0.2135  0.0945  0.7524
  107TMC2     H 1669   0.016   2.796  11.919 -0.2379  1.6551 -0.5351
  107TMC2    H1 1670   0.080   2.472  11.639  1.4534 -0.2074 -0.5524
  107TMC2    H2 1671   0.374   2.785  11.714 -0.5603  0.6747  0.9647
  107TMC2    C7 1672   0.290   2.605  11.531  0.1081 -0.1772  0.4500
  107TMC2    C8 1673   0.224   2.930  11.860 -1.2208  0.4375  0.4679
  107TMC2    O1 1674   0.366   2.693  11.496  0.1883  0.8709 -0.3705
  107TMC2    O2 1675   0.315   2.958  11.935  0.1440 -0.0846  0.0551
  107TMC2    O5 1676   0.131   3.011  11.801  0.1695  0.1189 -0.5567
  107TMC2    H5 1677   0.066   2.957  11.751 -0.1206 -1.1624  1.1797
  108MPD2     C 1678   4.437   2.289  11.766  0.1342 -0.0112 -0.2407
  108MPD2    C1 1679   4.515   2.361  11.853  0.0816  0.2313  0.1782
  108MPD2    C2 1680   4.509   2.333  11.989  0.1789 -0.0139 -0.1247
  108MPD2    C3 1681   4.399   2.264  12.038 -0.3477 -0.0764  0.0447
  108MPD2    C4 1682   4.303   2.218  11.953  0.0754  0.2824  0.7329
  108MPD2    C5 1683   4.328   2.219  11.819  0.6580  0.1362 -0.7624
  108MPD2     H 1684   4.585   2.376  12.053  0.9152 -0.3414 -0.7765
  108MPD2    H1 1685   4.222   2.161  11.998 -1.5982  2.4959  0.5146
  108MPD2    H2 1686   4.462   2.308  11.662 -0.0644  0.7789 -0.1462
  108MPD2    H3 1687   4.262   2.166  11.751 -1.6787 -0.7197  2.1639
  108MPD2     N 1688   4.392   2.219  12.171 -0.0621  0.6038 -0.3370
  108MPD2    H5 1689   4.313   2.168  12.208  1.0634 -0.4589  0.5970
  108MPD2    N1 1690   4.610   2.451  11.792 -0.6973  0.0119 -0.0514
  108MPD2    H7 1691   4.612   2.471  11.693  0.7665  1.4174  0.2570
  109TMC2    C1 1692   3.981   4.394   1.395  0.0465  0.8705 -0.3384
  109TMC2    C2 1693   3.969   4.496   1.486 -0.3198 -0.3620  0.0670
  109TMC2    C3 1694   4.080   4.578   1.508  0.0510 -0.4287 -0.1568
  109TMC2    C4 1695   4.108   4.376   1.329  0.1716 -0.9621  0.3494
  109TMC2    C5 1696   4.213   4.461   1.360 -0.6250  0.4073  0.2926
  109TMC2    C6 1697   4.205   4.571   1.445 -0.2443 -0.3714  0.5112
  109TMC2     C 1698   3.862   4.319   1.351 -0.1901  0.4111 -1.0032
  109TMC2     O 1699   3.754   4.358   1.375  0.2842  0.3581  0.2384
  109TMC2     H 1700   3.883   4.515   1.549  2.1048 -0.6106  3.4442
  109TMC2    H1 1701   4.116   4.296   1.256  1.1138  0.2322 -0.8607
  109TMC2    H2 1702   4.281   4.647   1.453 -2.5453  1.8482  1.5298
  109TMC2    C7 1703   4.340   4.443   1.290 -0.9398 -0.2502  0.0283
  109TMC2    C8 1704   4.057   4.685   1.596  0.1282  0.3368 -0.7396
  109TMC2    O1 1705   4.415   4.537   1.312 -0.6555  0.2110 -0.2883
  109TMC2    O2 1706   3.942   4.724   1.611  0.7131 -0.0850 -0.0280
  109TMC2    O5 1707   4.161   4.719   1.668 -0.4491 -0.1488  0.3749
  109TMC2    H5 1708   4.241   4.670   1.638 -1.5352 -0.7745 -1.5224
  110MPD2     C 1709   3.675   4.055   0.960  0.5181  0.9978  0.4347
  110MPD2    C1 1710   3.817   4.042   0.969 -0.5202  0.0881 -0.2617
  110MPD2    C2 1711   3.879   4.084   1.079  0.4739 -0.0539 -0.3617
  110MPD2    C3 1712   3.815   4.164   1.167 -0.2147  0.1290 -0.3169
  110MPD2    C4 1713   3.679   4.194   1.151 -0.0044 -0.2055 -0.4567
  110MPD2    C5 1714   3.610   4.125   1.055 -0.4705  0.0192  1.3025
  110MPD2     H 1715   3.987   4.080   1.089  0.4726  0.2198 -0.2532
  110MPD2    H1 1716   3.620   4.251   1.222  1.8181  2.1475 -0.8165
  110MPD2    H2 1717   3.622   4.000   0.883  2.3187  0.1978 -0.2356
  110MPD2    H3 1718   3.503   4.143   1.052 -0.3371  0.6736  0.2530
  110MPD2     N 1719   3.898   4.228   1.259  0.3054 -0.4240  0.2485
  110MPD2    H5 1720   3.997   4.206   1.250  0.6818  1.6679 -0.8075
  110MPD2    N1 1721   3.887   3.965   0.873 -0.3785 -0.0680 -0.2272
  110MPD2    H7 1722   3.830   3.927   0.798 -0.3110  3.8450 -2.2550
  111TMC2    C1 1723   4.656   4.063  11.693  0.1023 -0.2536  0.2574
  111TMC2    C2 1724   4.541   4.106  11.753 -0.9776 -0.6138 -0.1052
  111TMC2    C3 1725   4.524   4.068  11.884  0.1911  0.1228 -0.3055
  111TMC2    C4 1726   0.005   3.978  11.759 -0.3594  0.3801 -0.5189
  111TMC2    C5 1727   4.728   3.955  11.893 -0.5265 -0.6848 -0.1379
  111TMC2    C6 1728   4.610   3.990  11.955 -0.3972  0.3919  0.7457
  111TMC2     C 1729   4.678   4.085  11.553  0.5561  0.2705 -0.0089
  111TMC2     O 1730   0.053   4.104  11.509 -0.1647  0.2897 -0.4750
  111TMC2     H 1731   4.474   4.184  11.717  0.4803  0.3357 -0.7920
  111TMC2    H1 1732   0.089   3.935  11.706 -0.5833 -1.2886  0.4882
  111TMC2    H2 1733   4.593   3.972  12.061  1.5001 -0.1277  0.9702
  111TMC2    C7 1734   0.095   3.912  11.982 -0.2396 -0.3295 -0.0120
  111TMC2    C8 1735   4.416   4.131  11.960  0.3355 -0.2751 -0.2959
  111TMC2    O1 1736   0.062   3.877  12.095  0.7887 -0.2091  0.1716
  111TMC2    O2 1737   4.380   4.244  11.936  0.2028  0.0923 -0.7135
  111TMC2    O5 1738   4.368   4.050  12.051 -0.0931 -0.4365 -0.0394
  111TMC2    H5 1739   4.393   3.956  12.036 -1.8164 -0.7437 -1.0041
  112MPD2     C 1740   4.465   4.227  11.119  0.0859  0.3245 -0.2401
  112MPD2    C1 1741   4.591   4.209  11.146 -0.0439  0.0680 -0.1267
  112MPD2    C2 1742   4.624   4.156  11.274  0.3578 -0.3749 -0.0596
  112MPD2    C3 1743   4.527   4.125  11.364 -0.3842  0.2276  0.4189
  112MPD2    C4 1744   4.396   4.135  11.330 -0.5349 -0.9341  0.0193
  112MPD2    C5 1745   4.367   4.184  11.203 -0.4833  0.4977  0.9277
  112MPD2     H 1746   4.730   4.158  11.294  0.6028  0.1132 -1.4298
  112MPD2    H1 1747   4.318   4.113  11.402  0.9691 -2.1531  1.2829
  112MPD2    H2 1748   4.443   4.267  11.021  3.0414 -0.4599 -1.2271
  112MPD2    H3 1749   4.266   4.198  11.169  0.1389  1.1558 -0.6506
  112MPD2     N 1750   4.554   4.090  11.499 -0.1004  0.4795 -0.3128
  112MPD2    H5 1751   4.476   4.078  11.563  0.4788  2.7544  0.8316
  112MPD2    N1 1752   4.683   4.285  11.072 -0.2019 -0.5368 -0.1384
  112MPD2    H7 1753   4.647   4.360  11.015 -0.2463 -1.9551 -1.9957
  113TMC2    C1 1754   2.954   1.352   0.646  0.2880 -0.0897  0.3360
  113TMC2    C2 1755   2.944   1.394   0.515 -0.1541 -1.0893  0.2123
  113TMC2    C3 1756   2.839   1.465   0.479 -0.0072 -0.8756  0.6826
  113TMC2    C4 1757   2.840   1.351   0.724  0.1574 -0.4950 -0.0554
  113TMC2    C5 1758   2.725   1.399   0.675  0.2158 -0.7393  0.4709
  113TMC2    C6 1759   2.724   1.466   0.555 -0.3862 -0.0458  0.0313
  113TMC2     C 1760   3.083   1.356   0.713  0.5633 -0.2245  0.0683
  113TMC2     O 1761   3.077   1.385   0.830  0.4320  0.1024 -0.1445
  113TMC2     H 1762   3.027   1.390   0.445  1.2817  1.9490  1.7817
  113TMC2    H1 1763   2.845   1.318   0.828 -0.2434 -3.2456 -0.9045
  113TMC2    H2 1764   2.631   1.485   0.504  1.0886  2.0411 -1.8709
  113TMC2    C7 1765   2.599   1.404   0.749 -0.1351 -0.3315  0.5028
  113TMC2    C8 1766   2.837   1.480   0.340  0.1578  0.0624 -0.5678
  113TMC2    O1 1767   2.500   1.464   0.708 -0.3926  0.6120 -0.2109
  113TMC2    O2 1768   2.867   1.402   0.253 -0.7024 -0.1973 -0.2585
  113TMC2    O5 1769   2.788   1.606   0.324 -0.1207  0.0414  0.6295
  113TMC2    H5 1770   2.776   1.657   0.407  1.5674  0.6017  0.5335
  114MPD2     C 1771   3.601   1.389   0.743  0.7732 -0.6246 -0.0179
  114MPD2    C1 1772   3.496   1.440   0.824  0.0850  0.0047 -0.0173
  114MPD2    C2 1773   3.365   1.404   0.793 -0.2106  0.9438  0.3437
  114MPD2    C3 1774   3.329   1.349   0.671  0.8770  0.0800  0.1051
  114MPD2    C4 1775   3.436   1.315   0.588 -0.8577 -0.0758  0.0532
  114MPD2    C5 1776   3.566   1.342   0.614 -0.2599 -0.5180  0.2987
  114MPD2     H 1777   3.296   1.428   0.873  1.3265 -0.0405  1.9707
  114MPD2    H1 1778   3.416   1.281   0.487  0.6037  1.6282 -0.8044
  114MPD2    H2 1779   3.700   1.380   0.785  1.4613  0.4595 -1.4100
  114MPD2    H3 1780   3.649   1.318   0.549  1.5100  1.5938  1.7251
  114MPD2     N 1781   3.193   1.335   0.633 -0.2154  0.3998  0.1029
  114MPD2    H5 1782   3.181   1.289   0.544 -0.7574  1.3883 -0.3324
  114MPD2    N1 1783   3.528   1.501   0.946 -0.2413 -0.5360  0.2526
  114MPD2    H7 1784   3.452   1.520   1.010  0.0566 -1.1866  0.7989
  115TMC2    C1 1785   4.194   4.555   0.027 -0.3768 -0.0839  0.4998
  115TMC2    C2 1786   4.263   4.515   0.132 -0.0531  0.4741  0.7100
  115TMC2    C3 1787   4.299   4.599   0.227 -0.6303  0.6317 -0.4248
  115TMC2    C4 1788   4.166   4.688   0.014 -0.5210 -0.2143 -0.2226
  115TMC2    C5 1789   4.202   0.035   0.113  0.0101  0.0175 -1.1682
  115TMC2    C6 1790   4.271   4.736   0.227  0.1898 -0.9679 -0.3381
  115TMC2     C 1791   4.120   4.449  17.706  0.2730 -0.4565 -0.1177
  115TMC2     O 1792   4.177   4.343  17.701  0.6058 -0.7858 -0.4591
  115TMC2     H 1793   4.282   4.408   0.136  0.2473  0.5942  2.4558
  115TMC2    H1 1794   4.111   4.731  17.680  1.8926  1.3091 -1.0201
  115TMC2    H2 1795   4.275   0.057   0.319  0.7368  1.0790 -1.6601
  115TMC2    C7 1796   4.156   0.170   0.111  0.0190 -0.4393 -0.4097
  115TMC2    C8 1797   4.396   4.551   0.315  0.2871  0.2492  0.8296
  115TMC2    O1 1798   4.186   0.220   0.214  0.1059 -0.4124 -0.2332
  115TMC2    O2 1799   4.411   4.429   0.328 -0.8917  0.0158 -0.3198
  115TMC2    O5 1800   4.483   4.644   0.348 -0.2636  0.0905 -0.1115
  115TMC2    H5 1801   4.456   4.735   0.324 -1.4965 -0.0258  0.8262
  116MPD2     C 1802   3.713   4.286  17.440 -0.1861  0.4904 -0.3908
  116MPD2    C1 1803   3.844   4.252  17.427  0.4735 -0.2088 -0.2875
  116MPD2    C2 1804   3.938   4.317  17.506  0.0706  0.7315  0.7592
  116MPD2    C3 1805   3.896   4.412  17.604 -1.2549 -0.4152  0.1218
  116MPD2    C4 1806   3.763   4.440  17.621 -0.2407 -0.5427  0.1285
  116MPD2    C5 1807   3.677   4.375  17.538  0.7236  0.3934  0.4965
  116MPD2     H 1808   4.045   4.299  17.500 -0.0220  0.2993  0.4265
  116MPD2    H1 1809   3.727   4.515  17.691 -0.0722 -0.6144  0.2902
  116MPD2    H2 1810   3.632   4.244  17.381 -0.9087 -0.1485  1.0641
  116MPD2    H3 1811   3.572   4.403  17.542  0.3647 -0.8727 -0.3458
  116MPD2     N 1812   3.990   4.491  17.673  0.4718  0.0271  0.3903
  116MPD2    H5 1813   3.961   4.585  17.699 -0.4628 -0.6792  1.8936
  116MPD2    N1 1814   3.874   4.144  17.344  0.1472  0.3420 -0.5799
  116MPD2    H7 1815   3.797   4.111  17.287 -1.0648  0.9852  0.6931
  117TMC2    C1 1816   1.854   1.544  14.030 -0.8263 -0.1805  0.6835
  117TMC2    C2 1817   1.936   1.437  14.037  0.1454 -0.7540  0.4598
  117TMC2    C3 1818   2.071   1.470  14.046  0.0650 -0.1033  0.5284
  117TMC2    C4 1819   1.895   1.676  14.051  0.9318 -0.8131 -0.2860
  117TMC2    C5 1820   2.033   1.699  14.064 -0.7032  0.2148 -0.0575
  117TMC2    C6 1821   2.120   1.597  14.051  0.0371 -0.3214  0.2459
  117TMC2     C 1822   1.705   1.527  14.047 -0.2536 -1.1559  0.6122
  117TMC2     O 1823   1.645   1.630  14.067  0.2889  0.4128  0.5480
  117TMC2     H 1824   1.902   1.343  13.995 -0.0355 -0.2869 -0.4408
  117TMC2    H1 1825   1.823   1.757  14.058 -0.7224 -2.3276 -0.0770
  117TMC2    H2 1826   2.227   1.613  14.041 -0.1043  0.5158  0.0770
  117TMC2    C7 1827   2.084   1.832  14.104 -0.3888 -0.6067  0.4710
  117TMC2    C8 1828   2.166   1.362  14.053  0.2544  0.1595 -0.1627
  117TMC2    O1 1829   2.203   1.823  14.126  0.0819  0.0560  0.1238
  117TMC2    O2 1830   2.290   1.385  14.043 -0.1042  0.0135  0.5759
  117TMC2    O5 1831   2.109   1.266  14.123 -0.7372  0.0286 -0.4149
  117TMC2    H5 1832   2.012   1.280  14.129 -0.6733  0.4172 -0.3427
  118MPD2     C 1833   1.904   2.146  14.156 -0.0205  0.2411 -0.2457
  118MPD2    C1 1834   2.018   2.071  14.140  0.4890  0.2089  0.5337
  118MPD2    C2 1835   2.136   2.129  14.167  0.3254 -0.1113 -0.0557
  118MPD2    C3 1836   2.139   2.249  14.232  0.0806  0.8843 -0.1911
  118MPD2    C4 1837   2.025   2.324  14.248 -0.0592  0.6158 -0.4125
  118MPD2    C5 1838   1.905   2.274  14.205  0.0646  0.2591  0.2039
  118MPD2     H 1839   2.227   2.072  14.152  0.3578 -0.4359  1.3693
  118MPD2    H1 1840   2.027   2.420  14.297  1.5921  0.1059  0.5376
  118MPD2    H2 1841   1.811   2.113  14.111 -0.4729  2.6637 -1.0944
  118MPD2    H3 1842   1.812   2.330  14.198  0.0775 -0.0005 -2.0813
  118MPD2     N 1843   2.257   2.308  14.282 -0.2678 -0.9322  0.2693
  118MPD2    H5 1844   2.234   2.394  14.331 -1.4458 -1.1782  0.1570
  118MPD2    N1 1845   1.992   1.937  14.097 -0.1446 -0.5597  0.7466
  118MPD2    H7 1846   1.897   1.923  14.066 -0.3613  0.2478  1.0346
  119TMC2    C1 1847   0.219   2.107  13.557 -0.4066 -0.1745 -0.1247
  119TMC2    C2 1848   0.265   2.045  13.449 -1.1573  0.4322 -0.2340
  119TMC2    C3 1849   0.185   1.936  13.401 -0.4631  0.1764 -0.5935
  119TMC2    C4 1850   0.098   2.074  13.622 -0.0978  0.0933  0.0039
  119TMC2    C5 1851   0.025   1.974  13.567 -0.3061  0.4774  0.7426
  119TMC2    C6 1852   0.074   1.892  13.467  1.0631 -0.4845 -0.1800
  119TMC2     C 1853   0.318   2.198  13.622  0.0130  0.7116 -0.0200
  119TMC2     O 1854   0.264   2.294  13.676  0.1132 -0.3067  0.0899
  119TMC2     H 1855   0.357   2.068  13.397 -1.8922 -0.2088 -1.7831
  119TMC2    H1 1856   0.055   2.140  13.697  1.0828  1.5638 -0.6027
  119TMC2    H2 1857   0.012   1.819  13.417 -1.5925  1.3212  0.5059
  119TMC2    C7 1858   4.640   1.925  13.629  0.7592  0.0253 -1.1536
  119TMC2    C8 1859   0.261   1.867  13.295 -0.8995  0.0961 -0.4402
  119TMC2    O1 1860   4.570   1.849  13.561 -0.2381  0.7865 -0.2830
  119TMC2    O2 1861   0.381   1.838  13.308 -0.2596  0.2018  0.3557
  119TMC2    O5 1862   0.166   1.808  13.225  0.5993 -0.3619 -0.4524
  119TMC2    H5 1863   0.092   1.870  13.211  1.0408 -0.0301 -1.3343
  120MPD2     C 1864   0.777   2.336  13.800  0.2388  0.1478  0.0183
  120MPD2    C1 1865   0.653   2.394  13.813  0.4324  0.2253  0.2792
  120MPD2    C2 1866   0.550   2.344  13.741 -0.1210 -0.3251 -0.0749
  120MPD2    C3 1867   0.563   2.226  13.674  0.1717 -0.2886  0.2875
  120MPD2    C4 1868   0.681   2.159  13.662 -0.1357 -0.1662 -0.1203
  120MPD2    C5 1869   0.784   2.218  13.730 -0.4171 -0.1580  0.1101
  120MPD2     H 1870   0.457   2.398  13.751  1.9590  2.9437  1.7776
  120MPD2    H1 1871   0.700   2.065  13.611 -0.7908 -1.5268  2.1378
  120MPD2    H2 1872   0.862   2.377  13.855  0.4136 -0.6918  0.3713
  120MPD2    H3 1873   0.875   2.158  13.726 -1.1541 -1.4391  2.5717
  120MPD2     N 1874   0.451   2.160  13.624 -0.6540 -0.1133 -0.0455
  120MPD2    H5 1875   0.462   2.068  13.582 -1.8475  0.4455 -1.5711
  120MPD2    N1 1876   0.629   2.502  13.903 -0.1330  0.1220 -0.0876
  120MPD2    H7 1877   0.715   2.549  13.927  0.0924  0.2148 -1.0873
  121TMC2    C1 1878   2.035   3.962  14.401 -0.2902  0.3167 -0.4625
  121TMC2    C2 1879   2.009   3.885  14.509 -0.5624 -1.0260  0.6108
  121TMC2    C3 1880   1.881   3.845  14.530  1.0112 -0.5329 -0.1632
  121TMC2    C4 1881   1.941   4.002  14.311  0.1375 -0.1522 -0.0680
  121TMC2    C5 1882   1.816   3.964  14.337  0.2117  0.5434 -0.2174
  121TMC2    C6 1883   1.785   3.886  14.444 -0.1584  0.8957  0.4560
  121TMC2     C 1884   2.175   4.009  14.387  0.1535 -0.8549 -0.4535
  121TMC2     O 1885   2.250   3.995  14.483 -0.1509 -0.2403  0.1739
  121TMC2     H 1886   2.093   3.870  14.576 -2.3372 -0.4713  2.9413
  121TMC2    H1 1887   1.971   4.051  14.220 -0.0829 -3.1320 -1.7588
  121TMC2    H2 1888   1.693   3.829  14.447  0.8819 -0.8316 -1.1368
  121TMC2    C7 1889   1.733   3.972  14.220  0.2950  0.2194  0.1721
  121TMC2    C8 1890   1.855   3.758  14.644 -0.3975 -0.1348  0.0663
  121TMC2    O1 1891   1.796   3.970  14.116  0.1296 -0.5822 -0.5606
  121TMC2    O2 1892   1.824   3.796  14.755 -0.1783  0.4352  0.1969
  121TMC2    O5 1893   1.805   3.644  14.593  0.7613 -0.4551  0.2338
  121TMC2    H5 1894   1.830   3.624  14.500  1.2255  0.1444  0.2327
  122MPD2     C 1895   2.439   4.081  14.254 -0.0456  0.0959  0.1530
  122MPD2    C1 1896   2.318   4.101  14.201  0.1934  0.2419 -0.4227
  122MPD2    C2 1897   2.307   4.154  14.074 -0.0643 -0.5425 -1.3838
  122MPD2    C3 1898   2.422   4.185  14.002  0.4286 -0.0755  0.2789
  122MPD2    C4 1899   2.541   4.159  14.057 -0.3373  0.2995  0.2994
  122MPD2    C5 1900   2.550   4.114  14.185 -0.0438 -1.2693 -0.1423
  122MPD2     H 1901   2.206   4.175  14.039 -0.9230 -0.0558  1.3223
  122MPD2    H1 1902   2.634   4.192  14.010 -0.3366  0.7771  0.6295
  122MPD2    H2 1903   2.466   4.036  14.349  0.6866  0.4093  0.0881
  122MPD2    H3 1904   2.648   4.098  14.228 -0.4636 -0.5991  1.0768
  122MPD2     N 1905   2.416   4.243  13.871  0.4889  0.2834 -0.0467
  122MPD2    H5 1906   2.498   4.249  13.812  0.8516  2.4896  0.6849
  122MPD2    N1 1907   2.197   4.067  14.262 -0.2424 -0.1597 -0.3335
  122MPD2    H7 1908   2.121   4.069  14.194 -0.9876  2.4527  0.5584
  123TMC2    C1 1909   0.806   3.085  10.526  0.0427 -0.4743 -0.6890
  123TMC2    C2 1910   0.773   3.169  10.627  0.5495  1.5474  0.9759
  123TMC2    C3 1911   0.727   3.297  10.592 -0.6619 -0.8521  0.0282
  123TMC2    C4 1912   0.810   3.129  10.401 -0.3490  0.1576 -0.0166
  123TMC2    C5 1913   0.763   3.254  10.369 -0.8058  0.4654  0.3418
  123TMC2    C6 1914   0.727   3.342  10.466  0.0037 -0.0692  0.2232
  123TMC2     C 1915   0.792   2.939  10.543  0.4719  0.0283  0.3289
  123TMC2     O 1916   0.867   2.884  10.628  0.0122 -0.3411 -0.1526
  123TMC2     H 1917   0.752   3.132  10.726  0.6497 -1.3190 -0.0671
  123TMC2    H1 1918   0.849   3.060  10.328  0.4638 -1.1711  1.6780
  123TMC2    H2 1919   0.668   3.429  10.440 -1.4475 -1.1395 -0.0663
  123TMC2    C7 1920   0.707   3.261  10.230  0.0236 -0.3466  0.0920
  123TMC2    C8 1921   0.750   3.388  10.698 -0.0263  0.2590 -0.4620
  123TMC2    O1 1922   0.701   3.156  10.171  0.4531  0.3212 -0.4609
  123TMC2    O2 1923   0.847   3.404  10.770 -0.0791  0.2515  0.0035
  123TMC2    O5 1924   0.646   3.482  10.688 -0.8158  0.2128  0.1423
  123TMC2    H5 1925   0.568   3.450  10.638  0.0270 -0.0781 -0.9871
  124MPD2     C 1926   0.558   2.496  10.433 -0.0864 -0.1080 -0.9023
  124MPD2    C1 1927   0.489   2.600  10.376  0.6822  0.3015 -0.0002
  124MPD2    C2 1928   0.541   2.730  10.381 -0.0972  0.3028  0.1152
  124MPD2    C3 1929   0.651   2.759  10.454 -0.1146 -0.5727 -0.3002
  124MPD2    C4 1930   0.712   2.654  10.519  0.2724 -0.4255 -0.3410
  124MPD2    C5 1931   0.674   2.523  10.502  0.0522 -0.2952 -0.0404
  124MPD2     H 1932   0.491   2.809  10.325 -1.5512  0.9006  2.2168
  124MPD2    H1 1933   0.798   2.670  10.583 -1.5728 -0.5109  2.1780
  124MPD2    H2 1934   0.516   2.396  10.435  2.3318 -1.1634 -3.8384
  124MPD2    H3 1935   0.741   2.451  10.548 -0.5811  0.3961  1.9802
  124MPD2     N 1936   0.698   2.889  10.451 -0.9971 -0.6720 -0.1327
  124MPD2    H5 1937   0.635   2.950  10.399 -0.8221  0.0586  0.5103
  124MPD2    N1 1938   0.364   2.562  10.315 -0.2147 -0.1894  0.3123
  124MPD2    H7 1939   0.338   2.466  10.336  0.8656 -0.6599 -0.4896
  125TMC2    C1 1940   2.354   1.342   9.610 -0.5634 -0.7994 -0.3452
  125TMC2    C2 1941   2.283   1.457   9.636 -0.2168 -0.5643  0.4316
  125TMC2    C3 1942   2.148   1.450   9.599 -0.1942  0.0418 -0.1620
  125TMC2    C4 1943   2.303   1.231   9.546 -0.4133 -0.3742 -0.1331
  125TMC2    C5 1944   2.168   1.239   9.507 -0.2492  0.2207  0.1478
  125TMC2    C6 1945   2.088   1.348   9.538 -0.3660  0.3341  0.3822
  125TMC2     C 1946   2.490   1.329   9.650 -0.0215  0.0185  0.2030
  125TMC2     O 1947   2.542   1.218   9.635 -0.3672  0.3791 -0.6072
  125TMC2     H 1948   2.319   1.545   9.690  0.1557  0.5049 -1.5814
  125TMC2    H1 1949   2.367   1.148   9.517  0.5334  0.2959  0.0400
  125TMC2    H2 1950   1.980   1.337   9.536 -0.3294 -0.5293  2.2199
  125TMC2    C7 1951   2.094   1.128   9.464  0.0970 -0.0059 -0.1392
  125TMC2    C8 1952   2.067   1.552   9.669 -0.3281 -0.6072 -0.8699
  125TMC2    O1 1953   1.977   1.147   9.436  0.2659  0.3751 -0.8998
  125TMC2    O2 1954   2.078   1.594   9.782  0.2316 -0.0552  0.1545
  125TMC2    O5 1955   1.961   1.578   9.591  0.6725  0.1028  0.4202
  125TMC2    H5 1956   1.968   1.550   9.498 -0.5684 -2.3322  1.0426
  126MPD1     C 1957   2.904   1.530   9.887  0.3066  0.1837  0.1483
  126MPD1    C1 1958   2.798   1.618   9.910 -0.4919 -0.3165 -0.3246
  126MPD1    C2 1959   2.680   1.588   9.840 -0.4727  0.2741  0.5275
  126MPD1    C3 1960   2.655   1.469   9.776  0.0998  0.4201 -0.2098
  126MPD1    C4 1961   2.761   1.382   9.766 -0.8296  0.1760  0.0334
  126MPD1    C5 1962   2.885   1.416   9.824  0.1620 -0.0123 -0.2999
  126MPD1     H 1963   2.599   1.660   9.843 -1.7216 -1.1914  1.7181
  126MPD1    H1 1964   2.758   1.287   9.714  0.6054  1.3986 -2.2767
  126MPD1    H2 1965   2.998   1.550   9.938 -0.7025  0.0469  2.0622
  126MPD1    H3 1966   2.968   1.347   9.812  0.7355  0.4445  0.9731
  126MPD1     N 1967   2.536   1.447   9.709  0.3293  0.0024  0.2054
  126MPD1    H5 1968   2.468   1.523   9.707  0.8023  0.5384  3.9504
  126MPD1    N1 1969   2.813   1.736   9.992 -0.1945  0.7135 -0.0786
  126MPD1    H6 1970   2.887   1.719  10.060  1.7745 -1.2732 -2.7314
  126MPD1    H7 1971   2.729   1.764  10.043 -0.2032  0.3022  0.1388
  127TMC2    C1 1972   2.548   3.628  10.098  1.1726 -0.7190 -0.4481
  127TMC2    C2 1973   2.558   3.610  10.234  0.1035 -0.4518  0.1379
  127TMC2    C3 1974   2.502   3.496  10.289 -0.0282 -0.2173 -1.0891
  127TMC2    C4 1975   2.458   3.560  10.030  0.0227 -0.4312  0.1790
  127TMC2    C5 1976   2.400   3.443  10.085 -0.7053  0.6796 -0.3099
  127TMC2    C6 1977   2.429   3.402  10.219  0.5043  0.1593  0.4506
  127TMC2     C 1978   2.605   3.746  10.042  0.7093 -0.2206  0.5835
  127TMC2     O 1979   2.686   3.815  10.105  0.2239  0.4155 -0.3320
  127TMC2     H 1980   2.603   3.693  10.288 -0.8695 -0.1292  0.4496
  127TMC2    H1 1981   2.436   3.577   9.925 -1.0488  3.6094  1.0587
  127TMC2    H2 1982   2.394   3.312  10.268  0.2524  0.1329  0.2209
  127TMC2    C7 1983   2.268   3.417  10.027 -0.0280  0.3973  0.5549
  127TMC2    C8 1984   2.546   3.451  10.420  0.2256  0.4067 -1.2000
  127TMC2    O1 1985   2.219   3.496   9.951 -0.4106 -0.1706  0.6584
  127TMC2    O2 1986   2.536   3.334  10.451  0.2324 -0.0234  0.1438
  127TMC2    O5 1987   2.639   3.533  10.458  0.3887 -0.3970  0.1400
  127TMC2    H5 1988   2.615   3.628  10.450  1.0360 -0.2060  0.4242
  128MPD2     C 1989   2.499   3.937   9.758  0.2844  0.1233 -0.7681
  128MPD2    C1 1990   2.593   3.893   9.844  0.2387  0.3669 -0.8362
  128MPD2    C2 1991   2.716   3.959   9.857  0.3033  0.2010 -0.5272
  128MPD2    C3 1992   2.742   4.071   9.785  0.8024 -0.3096  0.3487
  128MPD2    C4 1993   2.648   4.112   9.688 -0.2200 -0.5874 -0.5741
  128MPD2    C5 1994   2.529   4.043   9.679  0.5465  0.0278  0.0200
  128MPD2     H 1995   2.793   3.925   9.925  1.2358  0.5816 -1.3920
  128MPD2    H1 1996   2.661   4.190   9.614 -1.1312 -0.7813 -0.9420
  128MPD2    H2 1997   2.409   3.877   9.748  1.2291 -1.7227  2.1176
  128MPD2    H3 1998   2.460   4.073   9.601  1.9532 -0.0002 -1.2395
  128MPD2     N 1999   2.871   4.126   9.791  0.1118  0.7967  0.3763
  128MPD2    H5 2000   2.931   4.093   9.866  0.4580  1.5453  0.4306
  128MPD2    N1 2001   2.549   3.781   9.922 -0.3008  0.3887 -0.2198
  128MPD2    H7 2002   2.455   3.745   9.907 -1.0486  1.6669  1.3423
  129TMC2    C1 2003   1.089   3.263   0.840  0.4753 -0.1891  0.5338
  129TMC2    C2 2004   1.202   3.191   0.819  0.1199  0.2603 -0.0400
  129TMC2    C3 2005   1.272   3.162   0.931  0.1888 -0.3616 -0.0157
  129TMC2    C4 2006   1.048   3.303   0.963  0.1822 -0.3855 -0.4215
  129TMC2    C5 2007   1.113   3.256   1.074  0.1447  0.4527 -0.5598
  129TMC2    C6 2008   1.228   3.191   1.058 -0.0018  0.7853  0.6085
  129TMC2     C 2009   1.009   3.296   0.728 -0.2567 -0.8204  0.3764
  129TMC2     O 2010   1.005   3.206   0.642 -0.2300  0.0442  0.6053
  129TMC2     H 2011   1.232   3.156   0.721  0.4352  0.0694  0.1227
  129TMC2    H1 2012   0.947   3.343   0.972 -0.0170 -1.6713  3.0404
  129TMC2    H2 2013   1.287   3.148   1.138  1.1842  1.0998 -0.0943
  129TMC2    C7 2014   1.045   3.278   1.204  0.4355  0.5257 -0.0057
  129TMC2    C8 2015   1.381   3.054   0.917 -0.1465 -0.3907 -0.5001
  129TMC2    O1 2016   0.922   3.282   1.202 -0.0602 -0.4374 -0.2445
  129TMC2    O2 2017   1.383   2.950   0.978  0.3468 -0.1730 -0.3416
  129TMC2    O5 2018   1.467   3.104   0.821 -0.5440 -0.0896 -0.3581
  129TMC2    H5 2019   1.439   3.186   0.776 -0.0755 -0.2140 -0.8846
  130MPD2     C 2020   0.843   3.416   0.509 -0.4653 -0.2588  0.3475
  130MPD2    C1 2021   0.886   3.488   0.620 -0.0305  0.6878 -0.3692
  130MPD2    C2 2022   0.830   3.607   0.637 -0.1009 -0.0436 -0.8478
  130MPD2    C3 2023   0.731   3.662   0.560  0.4714 -0.0550  0.7798
  130MPD2    C4 2024   0.692   3.593   0.452  0.2198  0.2398  0.0395
  130MPD2    C5 2025   0.737   3.459   0.433 -0.5844  0.2710  0.0788
  130MPD2     H 2026   0.862   3.666   0.722  2.2111 -1.0317 -1.0384
  130MPD2    H1 2027   0.608   3.635   0.396  0.4581  1.2350  0.4311
  130MPD2    H2 2028   0.879   3.318   0.480 -0.1011 -0.0344  0.0413
  130MPD2    H3 2029   0.703   3.408   0.343  0.8333 -2.1319  0.9136
  130MPD2     N 2030   0.691   3.794   0.586  0.6459  0.0822 -0.0303
  130MPD2    H5 2031   0.724   3.841   0.669 -1.1019  0.3514  0.5176
  130MPD2    N1 2032   0.958   3.425   0.722  0.1501  0.7572  0.1499
  130MPD2    H7 2033   0.978   3.475   0.808  0.4568  1.0233 -0.0810
  131TMC2    C1 2034   0.155   3.493   9.981  0.0444  0.9029  0.1335
  131TMC2    C2 2035   0.086   3.596   9.939 -0.5221 -0.1351 -0.2149
  131TMC2    C3 2036   0.120   3.723   9.980 -0.5575 -0.2410 -0.0815
  131TMC2    C4 2037   0.244   3.522  10.084 -0.4399 -0.5130 -0.0418
  131TMC2    C5 2038   0.285   3.646  10.122 -0.5165 -0.2463 -0.1245
  131TMC2    C6 2039   0.215   3.755  10.073 -0.2765  0.1237 -0.3026
  131TMC2     C 2040   0.112   3.355   9.975  0.4373  0.6019  0.1555
  131TMC2     O 2041   0.153   3.284  10.067 -0.1889 -0.2148 -0.2676
  131TMC2     H 2042   4.737   3.579   9.877 -0.1182 -1.2433 -0.4748
  131TMC2    H1 2043   0.308   3.438  10.106  0.2802 -0.1224 -0.6117
  131TMC2    H2 2044   0.218   3.852  10.121 -0.2064  0.4703 -0.9994
  131TMC2    C7 2045   0.368   3.658  10.246 -0.2504  0.7283 -0.3034
  131TMC2    C8 2046   0.055   3.831   9.920 -0.5949  0.1164  0.8173
  131TMC2    O1 2047   0.398   3.554  10.305  0.1612  0.3219 -0.0927
  131TMC2    O2 2048   4.688   3.832   9.859  0.1136  0.7412 -0.0273
  131TMC2    O5 2049   0.139   3.935   9.912  0.1977 -0.2294 -0.1784
  131TMC2    H5 2050   0.235   3.923   9.927  0.5503  0.3668 -1.9148
  132MPD2     C 2051   4.626   3.197   9.728 -0.5410 -0.5206 -0.1915
  132MPD2    C1 2052   4.702   3.201   9.842  0.4466  1.1109  0.6624
  132MPD2    C2 2053   4.713   3.091   9.925 -0.3112 -0.0173 -0.6756
  132MPD2    C3 2054   4.654   2.972   9.889  0.2892  0.3388  0.7163
  132MPD2    C4 2055   4.576   2.969   9.779  0.3900  0.4114  0.6009
  132MPD2    C5 2056   4.567   3.078   9.698  0.2022 -0.3638  0.3347
  132MPD2     H 2057   0.034   3.095  10.017  0.7150 -0.4221 -1.3101
  132MPD2    H1 2058   4.522   2.881   9.745  0.5305 -0.2814  2.1521
  132MPD2    H2 2059   4.614   3.288   9.670 -0.5209 -0.4737 -0.1232
  132MPD2    H3 2060   4.507   3.070   9.608  0.7654  2.6095 -0.3152
  132MPD2     N 2061   4.695   2.857   9.958 -0.2946 -0.2839  0.2050
  132MPD2    H5 2062   0.029   2.872  10.027 -2.1540  2.2022  1.5724
  132MPD2    N1 2063   0.031   3.328   9.874 -0.3027  0.5617 -0.1042
  132MPD2    H7 2064   0.024   3.404   9.807  3.1549  0.6234 -0.3599
  133TMC2    C1 2065   3.010   4.414   9.311 -0.0050  0.2032  0.3317
  133TMC2    C2 2066   3.068   4.511   9.237 -0.1479 -0.0418  0.7753
  133TMC2    C3 2067   2.983   4.591   9.176 -0.6317 -0.0785 -0.2742
  133TMC2    C4 2068   2.875   4.390   9.320 -0.0647  0.1280  0.5277
  133TMC2    C5 2069   2.796   4.480   9.253 -0.1567  0.4654  0.1485
  133TMC2    C6 2070   2.847   4.580   9.178  0.1104  0.1687  0.5922
  133TMC2     C 2071   3.104   4.316   9.355  0.3168  0.1204  0.5283
  133TMC2     O 2072   3.225   4.343   9.364 -0.0539 -1.1072  0.4473
  133TMC2     H 2073   3.175   4.509   9.220 -0.2992 -0.3047 -0.1718
  133TMC2    H1 2074   2.825   4.315   9.380  0.3392 -0.7374 -0.2163
  133TMC2    H2 2075   2.789   4.648   9.117  0.3325 -0.1357  0.0427
  133TMC2    C7 2076   2.654   4.499   9.277 -0.2678 -0.8453  0.7282
  133TMC2    C8 2077   3.033   4.703   9.097  0.1239 -0.4284 -1.1736
  133TMC2    O1 2078   2.612   4.616   9.278  0.6181 -0.0487  0.6857
  133TMC2    O2 2079   2.960   0.049   9.045  0.2717 -0.0007 -0.8527
  133TMC2    O5 2080   3.166   4.725   9.112 -0.3594 -0.1429  0.2055
  133TMC2    H5 2081   3.220   4.663   9.166 -0.0392  0.8378  1.0226
  134MPD2     C 2082   2.990   4.009   9.513 -0.0299  0.6624 -0.4228
  134MPD2    C1 2083   3.088   4.090   9.463 -0.1836 -0.4137 -0.2827
  134MPD2    C2 2084   3.218   4.066   9.479  0.6398  0.3856 -0.3783
  134MPD2    C3 2085   3.256   3.956   9.548 -0.1340 -0.6409  0.3179
  134MPD2    C4 2086   3.161   3.877   9.610 -0.0182  0.3048  0.0129
  134MPD2    C5 2087   3.030   3.902   9.593  0.5487 -0.1604 -0.3333
  134MPD2     H 2088   3.294   4.126   9.430  1.5367 -0.8636 -0.4906
  134MPD2    H1 2089   3.188   3.793   9.673  0.2452  1.1959  1.0728
  134MPD2    H2 2090   2.884   4.026   9.494 -0.7745 -1.9216  1.4123
  134MPD2    H3 2091   2.965   3.831   9.643 -0.1747 -0.5734 -1.8490
  134MPD2     N 2092   3.393   3.922   9.565 -0.0604 -0.7342 -0.1756
  134MPD2    H5 2093   3.407   3.838   9.621 -0.7595 -1.2014 -0.7008
  134MPD2    N1 2094   3.033   4.205   9.402 -0.1535 -0.3326  0.2844
  134MPD2    H7 2095   2.932   4.207   9.393 -0.2331 -1.6830  0.8796
  135TMC2    C1 2096   1.733   0.222   9.832 -0.0171 -0.1160 -0.3973
  135TMC2    C2 2097   1.626   0.249   9.913  0.0206  0.0191  0.0585
  135TMC2    C3 2098   1.611   0.173  10.028  0.0698  0.6516 -0.3400
  135TMC2    C4 2099   1.816   0.114   9.852  0.0205 -0.0546 -0.1177
  135TMC2    C5 2100   1.793   0.045   9.967 -0.8845  0.3043 -0.3719
  135TMC2    C6 2101   1.688   0.069  10.052  0.2712  0.5601 -0.3207
  135TMC2     C 2102   1.776   0.327   9.743 -0.0333 -0.1601  0.0305
  135TMC2     O 2103   1.689   0.400   9.705  0.5018 -0.1964 -0.4409
  135TMC2     H 2104   1.577   0.341   9.884  0.8579  0.3246 -0.3735
  135TMC2    H1 2105   1.901   0.094   9.788  0.1641  1.3844 -0.3576
  135TMC2    H2 2106   1.692   0.037  10.156 -1.4077  0.5756 -0.2540
  135TMC2    C7 2107   1.866   4.662   9.992  0.1666  0.3781  0.2177
  135TMC2    C8 2108   1.513   0.204  10.130 -0.0516  0.3855 -0.1014
  135TMC2    O1 2109   1.982   4.660   9.945 -0.1563 -0.4145  0.1926
  135TMC2    O2 2110   1.482   0.142  10.234  0.3590 -0.5027  0.0653
  135TMC2    O5 2111   1.475   0.328  10.119 -0.4612 -0.1591  0.3437
  135TMC2    H5 2112   1.516   0.379  10.046 -1.6405 -0.6552 -0.6562
  136MPD2     C 2113   1.917   0.593   9.695 -1.4262 -0.2046 -0.3761
  136MPD2    C1 2114   1.976   0.467   9.709 -0.2038  0.9122  0.8775
  136MPD2    C2 2115   2.112   0.469   9.704  0.0732  0.2776 -0.1149
  136MPD2    C3 2116   2.186   0.577   9.670  0.4940  0.2823 -0.3732
  136MPD2    C4 2117   2.123   0.697   9.651 -0.0547  0.1651 -0.3004
  136MPD2    C5 2118   1.988   0.709   9.678  0.3402  0.1253 -0.2025
  136MPD2     H 2119   2.160   0.376   9.734 -1.5469  0.1099  1.9872
  136MPD2    H1 2120   2.176   0.790   9.633 -0.8430  0.4271 -1.2389
  136MPD2    H2 2121   1.811   0.600   9.719 -1.2588  1.6320 -0.2114
  136MPD2    H3 2122   1.946   0.809   9.669 -0.7877 -0.3435 -0.0732
  136MPD2     N 2123   2.326   0.579   9.656  0.2095  0.2973 -0.1674
  136MPD2    H5 2124   2.363   0.672   9.641  0.6835 -0.2214 -2.2073
  136MPD2    N1 2125   1.912   0.346   9.742  1.3219 -0.0921 -0.4068
  136MPD2    H7 2126   1.964   0.261   9.762 -0.0732 -1.3954 -2.3280
  137TMC2    C1 2127   1.525   4.300   9.862 -0.6349 -0.4449 -0.1911
  137TMC2    C2 2128   1.624   4.330   9.771  0.4854  0.8015 -0.0781
  137TMC2    C3 2129   1.610   4.455   9.713  0.3433  0.8408  0.0276
  137TMC2    C4 2130   1.421   4.383   9.892  0.0934  0.3247  0.5483
  137TMC2    C5 2131   1.420   4.507   9.832 -0.0932  0.3464 -0.4948
  137TMC2    C6 2132   1.519   4.544   9.751 -0.4605  0.1124  0.5897
  137TMC2     C 2133   1.526   4.165   9.910 -0.5038 -0.7843  0.0267
  137TMC2     O 2134   1.599   4.086   9.859  0.0966  0.0191  0.1248
  137TMC2     H 2135   1.712   4.269   9.750 -1.3751 -0.6059 -3.6867
  137TMC2    H1 2136   1.334   4.351   9.947  0.8300 -1.3036  0.7572
  137TMC2    H2 2137   1.517   4.629   9.683 -0.9841 -0.7024 -0.4181
  137TMC2    C7 2138   1.308   4.603   9.841 -0.2055  0.3657 -0.5318
  137TMC2    C8 2139   1.701   4.494   9.613 -0.0604 -1.0590  0.0518
  137TMC2    O1 2140   1.313   4.707   9.774 -0.2074  0.5185  0.2175
  137TMC2    O2 2141   1.696   4.607   9.569 -0.7310  0.4024  0.3830
  137TMC2    O5 2142   1.820   4.430   9.620 -0.1125  0.3537 -0.2102
  137TMC2    H5 2143   1.813   4.341   9.659  0.1539  0.4387  0.0333
  138MPD2     C 2144   1.264   4.015  10.141 -0.1754 -0.3269  0.2586
  138MPD2    C1 2145   1.382   4.017  10.064 -0.4539  0.2956 -0.3003
  138MPD2    C2 2146   1.449   3.902  10.058  0.1205  0.0792 -0.4071
  138MPD2    C3 2147   1.408   3.787  10.125 -0.1210  0.4444  0.0256
  138MPD2    C4 2148   1.302   3.791  10.211  0.7536  0.2829  0.8345
  138MPD2    C5 2149   1.230   3.905  10.212 -0.7950  0.0847 -0.1779
  138MPD2     H 2150   1.532   3.893   9.989 -1.8186 -0.8543 -2.6100
  138MPD2    H1 2151   1.274   3.712  10.279 -0.1311  0.5634  0.8044
  138MPD2    H2 2152   1.204   4.104  10.156 -2.0820 -1.3526 -1.2489
  138MPD2    H3 2153   1.139   3.915  10.270 -0.7391 -0.9186  0.0846
  138MPD2     N 2154   1.497   3.677  10.127  0.2020 -0.1357  0.1471
  138MPD2    H5 2155   1.590   3.685  10.088 -0.2145  1.4678 -0.4969
  138MPD2    N1 2156   1.424   4.146  10.003 -0.1262  0.7248  0.1511
  138MPD2    H7 2157   1.371   4.228  10.029  1.3187  1.5222  0.5750
  139TMC2    C1 2158   2.420   2.460  13.825  0.3204  0.2171 -1.1907
  139TMC2    C2 2159   2.379   2.487  13.948  0.1795  0.0496  0.0981
  139TMC2    C3 2160   2.378   2.618  13.977  0.2786  0.7192  0.2251
  139TMC2    C4 2161   2.437   2.548  13.721 -0.5995  0.1126 -0.1297
  139TMC2    C5 2162   2.414   2.678  13.757  0.0012  0.3248  0.3153
  139TMC2    C6 2163   2.380   2.715  13.883  0.4422 -0.1627  0.0452
  139TMC2     C 2164   2.400   2.324  13.772 -0.2224 -0.3293  0.2631
  139TMC2     O 2165   2.500   2.260  13.745  0.4032 -0.0388 -0.1234
  139TMC2     H 2166   2.369   2.417  14.030  2.0318  0.1627  0.4263
  139TMC2    H1 2167   2.459   2.511  13.621 -1.2329  0.3022 -0.3417
  139TMC2    H2 2168   2.379   2.818  13.915  0.6709 -0.0262 -0.3930
  139TMC2    C7 2169   2.361   2.772  13.655  0.3352 -0.3653 -0.5898
  139TMC2    C8 2170   2.323   2.655  14.111  0.1902  0.1119 -1.0072
  139TMC2    O1 2171   2.243   2.800  13.660  0.5126  0.2308  0.5677
  139TMC2    O2 2172   2.220   2.614  14.164 -0.4635 -0.3638  0.6953
  139TMC2    O5 2173   2.420   2.730  14.173 -0.3337  0.1787 -0.8161
  139TMC2    H5 2174   2.492   2.753  14.111 -0.7529  2.9939 -0.2497
  140MPD2     C 2175   2.069   2.179  13.793  0.2970  0.4800  0.2769
  140MPD2    C1 2176   2.206   2.172  13.777 -0.0394  0.2503  0.0711
  140MPD2    C2 2177   2.279   2.068  13.722  0.9099  0.4491 -0.0331
  140MPD2    C3 2178   2.217   1.946  13.710  0.6290 -0.6062 -0.5573
  140MPD2    C4 2179   2.080   1.940  13.735  0.7165 -0.6076  0.0167
  140MPD2    C5 2180   2.008   2.053  13.775  0.2455 -0.4768  0.3665
  140MPD2     H 2181   2.387   2.067  13.710  1.0005 -0.6465  0.8740
  140MPD2    H1 2182   2.020   1.851  13.715 -0.1006  0.3334 -1.6698
  140MPD2    H2 2183   2.025   2.274  13.823  0.5823  0.4418  0.8075
  140MPD2    H3 2184   1.901   2.055  13.787  0.1951  0.1987 -0.2192
  140MPD2     N 2185   2.273   1.829  13.660 -0.2104  0.6673 -0.1856
  140MPD2    H5 2186   2.357   1.838  13.603 -1.6600  2.1160 -2.0828
  140MPD2    N1 2187   2.267   2.298  13.796  0.4811 -0.3192 -0.0096
  140MPD2    H7 2188   2.216   2.376  13.836 -2.4469 -1.7346 -1.0042
  141TMC2    C1 2189   2.375   3.136  14.547 -0.3562  0.7297  0.6030
  141TMC2    C2 2190   2.274   3.043  14.571 -0.3007  0.4637  0.1523
  141TMC2    C3 2191   2.247   3.016  14.701 -0.9139 -0.5300 -0.0085
  141TMC2    C4 2192   2.427   3.220  14.643  0.2464  0.6796 -0.6203
  141TMC2    C5 2193   2.388   3.191  14.775 -0.1836 -0.6944  0.2884
  141TMC2    C6 2194   2.288   3.099  14.798 -0.7622 -0.1812  0.6477
  141TMC2     C 2195   2.414   3.161  14.405 -0.3070 -0.3782  0.2340
  141TMC2     O 2196   2.518   3.221  14.383 -0.0111  0.0775  0.2455
  141TMC2     H 2197   2.249   2.972  14.493 -1.1694  2.5475 -1.4682
  141TMC2    H1 2198   2.507   3.289  14.618  0.2209  1.3332  1.1333
  141TMC2    H2 2199   2.257   3.074  14.899  2.9516 -2.7841  1.1328
  141TMC2    C7 2200   2.419   3.277  14.884 -0.2856  0.2151  0.5318
  141TMC2    C8 2201   2.139   2.925  14.740  0.3191  0.5768  0.1365
  141TMC2    O1 2202   2.347   3.285  14.985 -0.7045  0.4198  0.0063
  141TMC2    O2 2203   2.126   2.884  14.855 -0.3145 -0.0557 -0.5708
  141TMC2    O5 2204   2.053   2.920  14.635 -0.2640 -0.2315  0.3286
  141TMC2    H5 2205   2.070   2.989  14.567 -0.3928  0.0005  0.5325
  142TMC2    C1 2206   0.204   2.828   9.699  0.1979  0.0301  0.1761
  142TMC2    C2 2207   0.145   2.882   9.590  0.2753  0.1393 -0.1439
  142TMC2    C3 2208   0.164   3.016   9.566  0.3703  0.3917  0.7012
  142TMC2    C4 2209   0.289   2.911   9.774 -0.3538  0.4593  0.1917
  142TMC2    C5 2210   0.306   3.045   9.746 -0.4269 -0.4536  0.3610
  142TMC2    C6 2211   0.241   3.099   9.637 -0.2770 -0.1655  0.0121
  142TMC2     C 2212   0.190   2.688   9.737  0.6620  0.6948 -0.4825
  142TMC2     O 2213   0.084   2.639   9.704 -0.3575 -0.0913  0.2595
  142TMC2     H 2214   0.069   2.818   9.545 -0.3750 -0.1256  1.3318
  142TMC2    H1 2215   0.323   2.869   9.869  1.8929  0.6065 -0.5500
  142TMC2    H2 2216   0.236   3.207   9.628  1.2196  0.1608  2.8674
  142TMC2    C7 2217   0.381   3.125   9.842 -0.3022 -0.4229 -0.1376
  142TMC2    C8 2218   0.102   3.069   9.446 -0.0572 -0.8245 -0.2767
  142TMC2    O1 2219   0.420   3.066   9.940  0.4290  0.2716 -0.6793
  142TMC2    O2 2220   0.050   3.178   9.440  0.0718  0.4233 -0.3347
  142TMC2    O5 2221   0.121   2.977   9.349 -0.9693  0.0702  0.6487
  142TMC2    H5 2222   0.166   2.894   9.374  0.7974  1.0333  0.6692
  143MPD2     C 2223   0.321   2.270   9.987  0.0700 -0.4436  0.6567
  143MPD2    C1 2224   0.198   2.298   9.930  0.1007 -0.3194  0.3879
  143MPD2    C2 2225   0.192   2.421   9.860 -0.3938  0.2005  0.3391
  143MPD2    C3 2226   0.301   2.510   9.864 -0.1171 -0.1269  0.0530
  143MPD2    C4 2227   0.416   2.484   9.928 -0.2511  0.0559 -0.4814
  143MPD2    C5 2228   0.427   2.357   9.981 -0.4541 -0.4279 -0.5434
  143MPD2     H 2229   0.099   2.445   9.810 -0.2759 -0.7202 -0.3466
  143MPD2    H1 2230   0.504   2.547   9.932  0.5545 -1.1867  1.3685
  143MPD2    H2 2231   0.333   2.182  10.048 -1.7603  1.5404  3.8626
  143MPD2    H3 2232   0.519   2.327  10.030 -0.4563  2.6726  1.3905
  143MPD2     N 2233   0.291   2.640   9.812 -0.2449  1.1721  0.5980
  143MPD2    H5 2234   0.370   2.704   9.824  0.2337  0.9714 -1.4209
  143MPD2    N1 2235   0.084   2.212   9.942 -0.0275  0.4107  0.4866
  143MPD2    H7 2236   0.099   2.123   9.989 -2.4607 -1.0134 -1.4178
  144TMC2    C1 2237   3.609   0.962   0.618  0.4150  0.6914  0.3522
  144TMC2    C2 2238   3.653   0.922   0.493  0.0087  0.3071 -0.1992
  144TMC2    C3 2239   3.785   0.893   0.483  0.6560 -0.1150 -0.1734
  144TMC2    C4 2240   3.692   0.959   0.730  0.1531  0.8767 -0.6376
  144TMC2    C5 2241   3.821   0.925   0.715  0.4140  0.3192 -0.1497
  144TMC2    C6 2242   3.871   0.907   0.591 -0.4108  0.0073  0.6577
  144TMC2     C 2243   3.462   0.965   0.626 -0.4756 -0.1181 -0.5619
  144TMC2     O 2244   3.404   0.915   0.531  0.8336  0.0375  0.3879
  144TMC2     H 2245   3.583   0.916   0.411 -1.5862 -0.1883  1.1975
  144TMC2    H1 2246   3.661   0.969   0.833 -0.3833 -1.2026 -0.6017
  144TMC2    H2 2247   3.975   0.898   0.563 -1.0121 -1.9767 -0.9378
  144TMC2    C7 2248   3.923   0.942   0.821 -0.2334 -0.1868  0.2448
  144TMC2    C8 2249   3.830   0.823   0.366 -0.4113  0.0543  0.2156
  144TMC2    O1 2250   4.027   0.878   0.805  0.3705  0.1181 -0.2158
  144TMC2    O2 2251   3.908   0.733   0.379  0.0192 -0.2327  0.4512
  144TMC2    O5 2252   3.785   0.883   0.260 -0.2406 -0.2414 -0.0093
  144TMC2    H5 2253   3.728   0.959   0.282 -0.2302 -0.2326 -0.0128
  145MPD2     C 2254   3.014   1.059   0.872  0.0851  0.4624 -0.2625
  145MPD2    C1 2255   3.034   1.004   0.745 -0.2722 -0.1384  0.6541
  145MPD2    C2 2256   3.162   0.984   0.701  0.1751  0.2549 -0.1315
  145MPD2    C3 2257   3.276   1.016   0.777  0.5434  0.4339  0.7450
  145MPD2    C4 2258   3.253   1.065   0.902 -0.3874 -0.3091 -0.1890
  145MPD2    C5 2259   3.125   1.089   0.949  0.3831 -0.6158  0.5420
  145MPD2     H 2260   3.178   0.961   0.596  1.0302 -0.8758  0.2384
  145MPD2    H1 2261   3.334   1.086   0.971 -0.4891 -0.0643 -0.1426
  145MPD2    H2 2262   2.920   1.073   0.924 -0.3484  2.8496 -1.6835
  145MPD2    H3 2263   3.107   1.131   1.047 -0.3758  1.7461 -0.5874
  145MPD2     N 2264   3.411   0.998   0.748  0.1948  0.1276  0.3528
  145MPD2    H5 2265   3.464   1.058   0.810 -1.1740  2.1476 -0.4494
  145MPD2    N1 2266   2.921   0.974   0.663 -1.1344  0.4053 -0.4120
  145MPD2    H7 2267   2.936   0.932   0.572  0.5697  0.0897  0.0181
  146TMC2    C1 2268   4.470   4.688  12.014 -0.1676 -0.2881 -0.5481
  146TMC2    C2 2269   4.374   4.734  11.925 -0.0652  0.6415 -0.0542
  146TMC2    C3 2270   4.368   4.661  11.805 -0.2012 -0.7323 -0.1041
  146TMC2    C4 2271   4.564   4.592  11.980  0.4210 -0.5602 -0.0253
  146TMC2    C5 2272   4.561   4.540  11.855 -0.0240 -0.1370  0.1259
  146TMC2    C6 2273   4.462   4.570  11.765  0.5541  0.7913 -0.0035
  146TMC2     C 2274   4.488   0.022  12.132  0.5651 -0.0208  0.0558
  146TMC2     O 2275   4.443   0.137  12.149 -0.2326 -0.8391  0.9254
  146TMC2     H 2276   4.291   0.063  11.950 -0.8183 -0.4905  0.4490
  146TMC2    H1 2277   4.650   4.564  12.038  0.7134 -0.6526 -0.5042
  146TMC2    H2 2278   4.467   4.530  11.665 -1.7689  0.9253 -0.1677
  146TMC2    C7 2279   4.662   4.442  11.808  0.0923  0.0349 -0.4902
  146TMC2    C8 2280   4.289   4.721  11.711  0.0242 -0.0280  0.2006
  146TMC2    O1 2281   4.649   4.398  11.695  0.1762 -0.2880  0.0147
  146TMC2    O2 2282   4.175   0.025  11.729  0.2464 -0.4174  0.5352
  146TMC2    O5 2283   4.367   0.034  11.613 -0.1697  0.1245 -0.5293
  146TMC2    H5 2284   4.452   4.723  11.607 -0.1595 -0.1303  1.6493
  147MPD2     C 2285   0.367   4.217  11.872  0.1807  0.8580 -0.6716
  147MPD2    C1 2286   0.303   4.214  11.992 -0.0991  0.0852 -0.3787
  147MPD2    C2 2287   0.179   4.265  12.005 -0.4129 -0.3328 -0.1480
  147MPD2    C3 2288   0.115   4.316  11.895  0.2572  0.7197 -0.2161
  147MPD2    C4 2289   0.179   4.313  11.770  0.2622 -0.2533  0.4739
  147MPD2    C5 2290   0.312   4.275  11.758 -0.3668 -0.1987 -0.5942
  147MPD2     H 2291   0.131   4.265  12.102 -1.5614  1.3381 -0.7047
  147MPD2    H1 2292   0.138   4.353  11.678  0.0429 -0.0107  0.6765
  147MPD2    H2 2293   0.467   4.178  11.860  1.2396  3.7215 -1.2414
  147MPD2    H3 2294   0.358   4.283  11.660  1.0205  0.1341  0.0855
  147MPD2     N 2295   4.730   4.383  11.913  1.1931  0.2746 -0.2402
  147MPD2    H5 2296   4.698   4.415  12.003 -1.3300 -1.6449 -0.4797
  147MPD2    N1 2297   0.376   4.146  12.093 -0.0198 -0.1757  0.3523
  147MPD2    H7 2298   0.469   4.109  12.077 -0.1621  0.3575 -1.7802
  148TMC2    C1 2299   0.029   3.602  10.942 -0.0353 -1.0028  0.3613
  148TMC2    C2 2300   0.033   3.468  10.967  0.2916 -0.4332  0.6009
  148TMC2    C3 2301   0.157   3.420  10.987  0.2803  0.6560  0.0907
  148TMC2    C4 2302   0.137   3.683  10.928  0.9635  0.5034  0.3995
  148TMC2    C5 2303   0.254   3.620  10.935  0.0927  0.1785  0.1296
  148TMC2    C6 2304   0.270   3.491  10.968  0.1163 -0.4587  0.4051
  148TMC2     C 2305   4.669   3.644  10.849 -0.2241  0.7100  0.1595
  148TMC2     O 2306   4.644   3.762  10.849 -0.0081  0.2043  0.0782
  148TMC2     H 2307   4.679   3.418  10.999  1.1339 -1.7675  0.9204
  148TMC2    H1 2308   0.132   3.785  10.890 -1.0348  0.4655  0.5921
  148TMC2    H2 2309   0.368   3.447  10.982  0.6458  1.0237  1.4086
  148TMC2    C7 2310   0.380   3.693  10.923 -0.1198  0.1154 -0.0806
  148TMC2    C8 2311   0.177   3.278  11.004 -0.3547  0.2373 -0.0258
  148TMC2    O1 2312   0.475   3.654  10.992  0.1506 -0.5205 -0.0642
  148TMC2    O2 2313   0.275   3.230  10.949 -0.3989  0.1820 -0.5053
  148TMC2    O5 2314   0.072   3.205  11.054 -0.1493  0.1993 -0.1314
  148TMC2    H5 2315   0.013   3.257  11.113 -1.1008 -0.1620 -0.7625
  149MPD2     C 2316   4.489   3.680  10.610  0.1903 -0.6303 -0.2590
  149MPD2    C1 2317   4.521   3.556  10.672  0.1239  0.0720 -0.8424
  149MPD2    C2 2318   4.475   3.438  10.619  0.1422 -0.3530  0.0085
  149MPD2    C3 2319   4.392   3.447  10.508 -0.0874  0.4391  0.7294
  149MPD2    C4 2320   4.370   3.566  10.442 -0.0010 -0.2347  0.2602
  149MPD2    C5 2321   4.422   3.673  10.494  0.0573 -0.1094 -0.4715
  149MPD2     H 2322   4.502   3.343  10.663 -3.0814 -0.3832  1.9352
  149MPD2    H1 2323   4.322   3.577  10.346  0.7089  3.6507  0.3370
  149MPD2    H2 2324   4.533   3.772  10.648 -1.4462  0.4913 -1.0707
  149MPD2    H3 2325   4.402   3.763  10.437  1.3194 -1.6535 -3.3585
  149MPD2     N 2326   4.326   3.341  10.448 -0.3212 -0.0745 -0.4775
  149MPD2    H5 2327   4.270   3.358  10.366 -0.0726  1.7300 -0.2737
  149MPD2    N1 2328   4.618   3.544  10.775 -0.0263  0.1832  0.0081
  149MPD2    H7 2329   4.647   3.450  10.801  3.1426  0.8508 -1.1021
  150TMC2    C1 2330   2.069   2.295  12.565  0.0550 -0.4899 -0.0691
  150TMC2    C2 2331   2.083   2.383  12.457 -0.5623  0.3737  0.7540
  150TMC2    C3 2332   2.213   2.411  12.419 -0.0925  0.2644  0.3459
  150TMC2    C4 2333   2.182   2.232  12.613 -0.1803  0.2283 -0.0730
  150TMC2    C5 2334   2.301   2.250  12.552  0.0031  0.2611 -0.4609
  150TMC2    C6 2335   2.322   2.344  12.454  0.4003 -0.0666  0.4914
  150TMC2     C 2336   1.955   2.307  12.639 -0.4974  0.4655  0.1505
  150TMC2     O 2337   1.957   2.304  12.763 -0.1807  0.1291  0.1944
  150TMC2     H 2338   2.000   2.442  12.423 -0.1794  0.4375 -0.0650
  150TMC2    H1 2339   2.163   2.170  12.701  1.0485 -1.8601 -1.2819
  150TMC2    H2 2340   2.423   2.358  12.417  0.7296 -1.8028  0.7545
  150TMC2    C7 2341   2.419   2.208  12.623 -0.4453  0.8806  0.1682
  150TMC2    C8 2342   2.223   2.483  12.294 -0.4129  0.4020  0.3820
  150TMC2    O1 2343   2.529   2.253  12.592 -0.4916 -0.1386  0.0040
  150TMC2    O2 2344   2.145   2.476  12.204  0.6309 -0.2644 -0.1273
  150TMC2    O5 2345   2.344   2.541  12.284  0.5436  0.2474  0.8589
  150TMC2    H5 2346   2.395   2.530  12.368  2.0689  1.5532  0.0955
  151MPD2     C 2347   1.447   2.359  12.674  0.0800 -0.7227  0.3873
  151MPD2    C1 2348   1.473   2.322  12.545 -0.4756  0.0612 -0.1718
  151MPD2    C2 2349   1.605   2.290  12.509  0.2068 -0.1218  0.2511
  151MPD2    C3 2350   1.712   2.324  12.595  0.5402 -0.3769  0.7952
  151MPD2    C4 2351   1.688   2.378  12.721 -0.5169  0.0067 -0.2022
  151MPD2    C5 2352   1.553   2.388  12.755 -0.4523  0.8135  0.0266
  151MPD2     H 2353   1.634   2.247  12.414  0.3198  0.4074  0.0487
  151MPD2    H1 2354   1.765   2.409  12.790 -1.6105  1.2319  0.4614
  151MPD2    H2 2355   1.351   2.386  12.716 -0.4171 -0.0433 -1.2027
  151MPD2    H3 2356   1.535   2.440  12.849  1.2684  1.1015  0.1965
  151MPD2     N 2357   1.848   2.304  12.553 -0.7876 -0.4919 -0.5847
  151MPD2    H5 2358   1.865   2.271  12.459 -0.5210  2.0159 -1.4256
  151MPD2    N1 2359   1.371   2.312  12.451 -0.2445 -0.4344 -0.1060
  151MPD2    H7 2360   1.278   2.304  12.489  0.1129 -1.0660  0.6296
  152TMC2    C1 2361   1.541   2.070  13.037 -0.0292  0.6438  0.7260
  152TMC2    C2 2362   1.605   2.000  12.938  0.1564  0.5178  0.2774
  152TMC2    C3 2363   1.730   2.044  12.907  0.3588  0.0465  0.3303
  152TMC2    C4 2364   1.601   2.181  13.097 -0.1365 -0.2655 -0.1446
  152TMC2    C5 2365   1.727   2.223  13.067  0.3906  0.0794  0.4099
  152TMC2    C6 2366   1.792   2.149  12.968 -1.0205  0.4470 -0.1472
  152TMC2     C 2367   1.394   2.065  13.040 -0.6584 -0.8552  0.2203
  152TMC2     O 2368   1.343   2.021  12.936 -0.6476 -0.5700  0.0213
  152TMC2     H 2369   1.553   1.924  12.880 -0.0747  2.3055 -1.8836
  152TMC2    H1 2370   1.541   2.250  13.156  1.8512  1.2527  0.1074
  152TMC2    H2 2371   1.889   2.177  12.929 -1.6846  1.5856 -0.9735
  152TMC2    C7 2372   1.769   2.352  13.109  0.3213 -0.5660 -0.1214
  152TMC2    C8 2373   1.780   2.002  12.772 -0.1734  0.4072 -0.0319
  152TMC2    O1 2374   1.703   2.410  13.196 -0.1453  0.3259  0.0711
  152TMC2    O2 2375   1.704   1.942  12.703 -0.0740  0.3526  0.6503
  152TMC2    O5 2376   1.910   1.993  12.782 -0.0277  0.0229 -0.5491
  152TMC2    H5 2377   1.950   2.028  12.865 -1.5670 -2.3828  1.2044
  153MPD2     C 2378   1.159   2.136  13.321  0.3866  0.2452  0.5783
  153MPD2    C1 2379   1.202   2.114  13.186 -0.1892  0.4033 -0.8160
  153MPD2    C2 2380   1.104   2.108  13.085  0.0183 -0.4015 -0.8458
  153MPD2    C3 2381   0.972   2.140  13.119  0.7311 -0.8389 -0.5082
  153MPD2    C4 2382   0.935   2.159  13.249 -0.3937 -0.3636  0.3497
  153MPD2    C5 2383   1.028   2.156  13.348  0.8276  0.4729  0.0816
  153MPD2     H 2384   1.139   2.085  12.985 -0.5150 -1.3611 -0.8156
  153MPD2    H1 2385   0.834   2.159  13.287 -0.0151  2.2502  1.3489
  153MPD2    H2 2386   1.228   2.140  13.405 -1.2258 -0.1010  1.9107
  153MPD2    H3 2387   0.999   2.152  13.453 -1.4471  0.4669 -0.5467
  153MPD2     N 2388   0.874   2.151  13.014  0.4293  0.7722 -0.7665
  153MPD2    H5 2389   0.912   2.129  12.923  0.1212 -2.5639 -0.0936
  153MPD2    N1 2390   1.341   2.088  13.160 -0.2690  0.3069 -0.0722
  153MPD2    H7 2391   1.402   2.084  13.242  0.7581 -0.5312 -0.8841
  154TMC2    C1 2392   4.314   2.310  17.298  0.9772 -0.3232 -0.1359
  154TMC2    C2 2393   4.339   2.253  17.169  0.9617 -0.3390 -1.2097
  154TMC2    C3 2394   4.406   2.332  17.081  0.1086  0.5414  0.0134
  154TMC2    C4 2395   4.347   2.438  17.329  0.3961 -0.6857  0.1156
  154TMC2    C5 2396   4.413   2.514  17.236  0.4335  0.0909  0.2606
  154TMC2    C6 2397   4.450   2.462  17.112  0.1771 -0.2441  0.3527
  154TMC2     C 2398   4.217   2.250  17.386 -0.2316 -0.3141  0.1057
  154TMC2     O 2399   4.188   2.317  17.479 -0.7639 -0.6086  0.7713
  154TMC2     H 2400   4.301   2.158  17.132 -1.8870  0.2443  0.2957
  154TMC2    H1 2401   4.329   2.478  17.428 -0.8085 -0.7569 -0.0772
  154TMC2    H2 2402   4.497   2.527  17.039  0.8131 -0.7379  0.3353
  154TMC2    C7 2403   4.453   2.648  17.268  0.0950  0.2581 -0.7210
  154TMC2    C8 2404   4.459   2.269  16.961  0.3381 -0.2673  0.6934
  154TMC2    O1 2405   4.486   2.713  17.175 -0.1431  0.0881 -0.1107
  154TMC2    O2 2406   4.508   2.337  16.869 -0.3838  0.2881 -0.0606
  154TMC2    O5 2407   4.458   2.135  16.957  0.4847  0.6235  0.1216
  154TMC2    H5 2408   4.438   2.096  17.045  1.1994  1.6498  0.7315
  155MPD2     C 2409   4.078   1.892  17.403  0.9413 -0.0767 -0.1933
  155MPD2    C1 2410   4.099   2.025  17.436  0.8311  0.2119 -0.5527
  155MPD2    C2 2411   4.039   2.073  17.553 -0.7203  0.0863  0.1922
  155MPD2    C3 2412   3.963   1.987  17.634 -0.1074  0.7389  0.0223
  155MPD2    C4 2413   3.956   1.855  17.605  0.0483 -1.0406 -0.3882
  155MPD2    C5 2414   4.015   1.811  17.488 -0.6300  0.4993  0.5296
  155MPD2     H 2415   4.037   2.178  17.578  0.7505  0.0485  0.4686
  155MPD2    H1 2416   3.893   1.791  17.665 -0.3037 -0.7229 -0.4169
  155MPD2    H2 2417   4.120   1.840  17.318 -0.9508 -1.6627 -0.1454
  155MPD2    H3 2418   4.019   1.707  17.457  1.0750  0.5005  0.7574
  155MPD2     N 2419   3.897   2.046  17.740  0.3475  0.2572  0.1065
  155MPD2    H5 2420   3.912   2.144   0.011 -0.5457  0.5039 -0.4604
  155MPD2    N1 2421   4.189   2.113  17.358 -0.2303 -0.0655 -0.7099
  155MPD2    H7 2422   4.244   2.073  17.283  0.6130  1.1434 -0.7492
  156TMC2    C1 2423   2.548   4.716  12.272 -0.3239  0.3057 -0.0646
  156TMC2    C2 2424   2.636   4.617  12.260 -0.1619 -0.4680 -0.3692
  156TMC2    C3 2425   2.744   4.643  12.184 -0.7603  0.6685 -0.1667
  156TMC2    C4 2426   2.559   0.090  12.194 -0.0930 -0.1798  0.2830
  156TMC2    C5 2427   2.664   0.114  12.115 -0.2763 -0.2901 -0.2845
  156TMC2    C6 2428   2.770   0.026  12.112  0.2824  0.0752  0.2871
  156TMC2     C 2429   2.416   4.689  12.321  0.3653 -0.6626 -0.5247
  156TMC2     O 2430   2.322   0.007  12.266 -0.0597 -0.2989  0.0676
  156TMC2     H 2431   2.607   4.520  12.298  0.4022  0.5822  2.7031
  156TMC2    H1 2432   2.486   0.171  12.191  0.3186  0.1783  0.0521
  156TMC2    H2 2433   2.858   0.034  12.049  1.5756 -0.8858  1.9741
  156TMC2    C7 2434   2.632   0.188  11.994  0.2503  0.2513  0.1562
  156TMC2    C8 2435   2.856   4.559  12.208  0.2757 -0.0620  0.4868
  156TMC2    O1 2436   2.542   0.269  12.007  0.6002  0.3878 -0.7249
  156TMC2    O2 2437   2.972   4.599  12.224 -0.4276 -0.1749  0.3746
  156TMC2    O5 2438   2.831   4.466  12.111 -0.0459  0.2514  0.6688
  156TMC2    H5 2439   2.740   4.429  12.114 -0.1117  0.2813 -0.8420
  157MPD2     C 2440   2.344   4.439  12.581 -0.6364 -0.6238  0.2884
  157MPD2    C1 2441   2.315   4.522  12.477 -0.0727 -0.0127  0.1756
  157MPD2    C2 2442   2.187   4.534  12.435  0.2967  0.0844  0.3856
  157MPD2    C3 2443   2.075   4.478  12.496  0.2928 -0.0267 -0.0058
  157MPD2    C4 2444   2.100   4.393  12.599  0.5503  0.4529  0.4890
  157MPD2    C5 2445   2.236   4.368  12.631  0.2230  0.1228  0.1920
  157MPD2     H 2446   2.170   4.604  12.355 -0.2816 -1.1640 -0.5868
  157MPD2    H1 2447   2.025   4.338  12.655 -1.1506  1.1363 -1.1522
  157MPD2    H2 2448   2.441   4.428  12.629 -0.7403  2.4031  1.1583
  157MPD2    H3 2449   2.263   4.289  12.700 -0.9399 -1.6962 -1.4403
  157MPD2     N 2450   1.941   4.507  12.453 -0.1465  0.2985 -0.2955
  157MPD2    H5 2451   1.939   4.568  12.372  0.6825  1.6423  0.6907
  157MPD2    N1 2452   2.424   4.598  12.424 -0.0037  0.0797 -0.0344
  157MPD2    H7 2453   2.513   4.583  12.471  0.9639  0.2714 -1.8136
  158TMC2    C1 2454   2.946   3.729  13.356 -0.0410  0.3536  0.1597
  158TMC2    C2 2455   3.047   3.802  13.299  0.4897 -0.2514 -1.1425
  158TMC2    C3 2456   3.028   3.866  13.180  0.2310  0.1648 -0.4062
  158TMC2    C4 2457   2.824   3.721  13.290  0.1246  0.4087 -0.6853
  158TMC2    C5 2458   2.812   3.774  13.161 -0.4488 -0.1055 -0.2352
  158TMC2    C6 2459   2.915   3.849  13.105  0.9017  0.3302  0.0860
  158TMC2     C 2460   2.967   3.680  13.490  0.2808 -0.2158  0.3665
  158TMC2     O 2461   3.080   3.646  13.518  0.2014 -0.1075 -0.4491
  158TMC2     H 2462   3.141   3.811  13.353  0.1151 -0.7538 -0.4114
  158TMC2    H1 2463   2.744   3.660  13.331  0.1654  0.0233 -1.1842
  158TMC2    H2 2464   2.906   3.886  13.004 -1.9497  0.3546  0.3255
  158TMC2    C7 2465   2.688   3.803  13.095 -0.0512 -0.5674  0.6277
  158TMC2    C8 2466   3.139   3.921  13.108 -0.5896  0.8212 -0.1446
  158TMC2    O1 2467   2.695   3.855  12.987  0.0897  0.2726 -0.0504
  158TMC2    O2 2468   3.221   3.989  13.160 -0.0771 -0.1006 -0.3859
  158TMC2    O5 2469   3.152   3.868  12.985 -0.4916  0.2231 -0.3996
  158TMC2    H5 2470   3.078   3.809  12.959 -0.9721 -0.6310  2.8285
  159MPD2     C 2471   2.805   3.455  13.923 -0.2737 -0.0238 -0.7916
  159MPD2    C1 2472   2.691   3.493  13.855  1.4803  0.1289  0.2919
  159MPD2    C2 2473   2.709   3.562  13.734 -0.0511  0.0408 -0.4163
  159MPD2    C3 2474   2.835   3.590  13.688  0.3396  0.0532 -0.2393
  159MPD2    C4 2475   2.944   3.563  13.758  0.0592  0.4784 -0.0296
  159MPD2    C5 2476   2.929   3.497  13.878 -0.5942 -0.3406  0.0523
  159MPD2     H 2477   2.626   3.601  13.675 -1.4313  1.3901  2.4563
  159MPD2    H1 2478   3.047   3.583  13.730  0.6304  0.8004  2.2909
  159MPD2    H2 2479   2.795   3.394  14.011 -2.5352  0.2862 -0.8278
  159MPD2    H3 2480   3.023   3.480  13.929  0.7317 -0.3762 -2.3666
  159MPD2     N 2481   2.853   3.652  13.557  0.0637  0.3402  0.1887
  159MPD2    H5 2482   2.770   3.686  13.510 -0.8350 -0.4159  1.2310
  159MPD2    N1 2483   2.569   3.453  13.907 -0.6572  0.0302  0.0241
  159MPD2    H7 2484   2.564   3.413  14.001 -1.9088 -1.0751 -0.5215
  160TMC2    C1 2485   1.767   1.162   1.399 -0.7776  0.0417  0.2108
  160TMC2    C2 2486   1.872   1.088   1.443  0.6009  0.4527 -0.6066
  160TMC2    C3 2487   1.981   1.158   1.488  0.8090  0.1467 -0.1209
  160TMC2    C4 2488   1.766   1.297   1.416  0.6737  0.2992  0.7747
  160TMC2    C5 2489   1.881   1.364   1.446 -1.0394 -0.4102  0.2754
  160TMC2    C6 2490   1.987   1.296   1.495  0.3771 -0.8717  1.3936
  160TMC2     C 2491   1.682   1.094   1.305 -0.2968  0.7680  0.4021
  160TMC2     O 2492   1.712   0.990   1.249  0.2338 -0.0955  0.2953
  160TMC2     H 2493   1.871   0.981   1.429  0.8954  0.2218  1.0939
  160TMC2    H1 2494   1.686   1.351   1.365 -0.0048  1.8013  3.3906
  160TMC2    H2 2495   2.073   1.350   1.535 -0.4710  1.2913  0.2687
  160TMC2    C7 2496   1.912   1.477   1.359 -0.2934  0.2221 -0.5434
  160TMC2    C8 2497   2.099   1.084   1.501  0.2750 -0.3452 -0.6678
  160TMC2    O1 2498   1.828   1.501   1.271  0.7142  0.5844  0.5690
  160TMC2    O2 2499   2.185   1.103   1.583 -0.3947 -0.2855 -0.4383
  160TMC2    O5 2500   2.113   1.024   1.383 -1.0509 -0.1581  0.1714
  160TMC2    H5 2501   2.053   1.044   1.308  0.0836 -1.2378 -1.0207
  161MPD2     C 2502   1.443   0.991   1.159 -0.1537  0.4330  0.4352
  161MPD2    C1 2503   1.445   1.102   1.245 -0.1745 -0.3157  0.3118
  161MPD2    C2 2504   1.335   1.178   1.256  0.5176 -0.4554 -0.4323
  161MPD2    C3 2505   1.231   1.168   1.162  0.3289 -0.2801 -0.3736
  161MPD2    C4 2506   1.240   1.068   1.069  0.0167 -0.2997 -0.0136
  161MPD2    C5 2507   1.342   0.983   1.068 -0.7256 -0.7089  0.1356
  161MPD2     H 2508   1.318   1.247   1.337  0.4281 -0.9327 -0.0420
  161MPD2    H1 2509   1.156   1.046   1.004 -2.6863 -2.1529  4.0709
  161MPD2    H2 2510   1.528   0.923   1.156 -2.3049 -2.2111  0.1333
  161MPD2    H3 2511   1.362   0.901   1.001  0.3743  1.1523 -1.8095
  161MPD2     N 2512   1.115   1.250   1.159  0.2107  0.1796 -0.6271
  161MPD2    H5 2513   1.038   1.236   1.093 -0.9715  0.8947  0.5950
  161MPD2    N1 2514   1.555   1.147   1.317 -0.3339  0.0354  0.1304
  161MPD2    H7 2515   1.538   1.226   1.378 -2.1552 -0.0900 -0.2129
  162TMC2    C1 2516   4.351   3.445   1.461 -0.0371  0.4772  0.3668
  162TMC2    C2 2517   4.237   3.520   1.437 -0.8770  0.4984  0.1433
  162TMC2    C3 2518   4.228   3.643   1.500 -0.1545  0.1550  0.4990
  162TMC2    C4 2519   4.461   3.484   1.534  0.1819 -0.2719  0.0233
  162TMC2    C5 2520   4.450   3.611   1.585  0.0106 -0.5452  0.5351
  162TMC2    C6 2521   4.336   3.686   1.580  0.2730 -0.4379 -0.2532
  162TMC2     C 2522   4.386   3.351   1.358  0.0072 -0.1858  0.9056
  162TMC2     O 2523   4.329   3.360   1.247  0.6601 -0.0713 -0.0023
  162TMC2     H 2524   4.165   3.487   1.363 -0.3378  1.5755 -0.8651
  162TMC2    H1 2525   4.553   3.429   1.522  0.3586 -0.1087  0.5984
  162TMC2    H2 2526   4.334   3.790   1.609 -0.0134 -0.8537  1.2318
  162TMC2    C7 2527   4.561   3.672   1.649  0.0254 -0.1991 -0.5600
  162TMC2    C8 2528   4.123   3.737   1.453  1.0152  0.0656 -0.3211
  162TMC2    O1 2529   4.565   3.792   1.668 -0.3317  0.1608 -0.3816
  162TMC2    O2 2530   4.084   3.745   1.340  0.1452  0.2966  0.2621
  162TMC2    O5 2531   4.082   3.815   1.553 -1.1442 -0.3333  0.1944
  162TMC2    H5 2532   4.105   3.772   1.638 -0.2934  0.2897  0.2792
  163MPD2     C 2533   4.680   2.962   1.215  0.2859  0.0836  0.8428
  163MPD2    C1 2534   4.637   3.062   1.136 -0.4510  0.5785 -0.6693
  163MPD2    C2 2535   4.559   3.159   1.199 -0.1462  0.2268  0.2273
  163MPD2    C3 2536   4.531   3.153   1.338 -0.3816  0.0232 -0.5783
  163MPD2    C4 2537   4.567   3.045   1.410  0.0807 -0.5310 -0.1618
  163MPD2    C5 2538   4.644   2.951   1.346 -0.4107  0.1204  0.6111
  163MPD2     H 2539   4.515   3.244   1.148 -0.4895 -0.6634 -0.9728
  163MPD2    H1 2540   4.550   3.023   1.515  1.2077  1.7382  0.4858
  163MPD2    H2 2541   4.736   2.880   1.170 -1.1802 -0.7212  0.4945
  163MPD2    H3 2542   4.666   2.864   1.407  0.3771  0.2374  0.4924
  163MPD2     N 2543   4.469   3.255   1.408 -0.3023  0.3062  0.7717
  163MPD2    H5 2544   4.479   3.254   1.509 -0.0833 -0.1131  0.7467
  163MPD2    N1 2545   4.669   3.056   0.997 -0.1919 -0.3291  0.9598
  163MPD2    H7 2546   4.718   2.975   0.963  1.1108  1.1113 -0.5975
  164TMC2    C1 2547   0.601   3.162  11.226  0.2116 -0.0767  0.0924
  164TMC2    C2 2548   0.722   3.192  11.284 -0.3686 -0.0507 -0.3589
  164TMC2    C3 2549   0.721   3.303  11.361  0.2823 -0.8012 -0.4111
  164TMC2    C4 2550   0.488   3.238  11.239  0.5990 -0.9264  0.1198
  164TMC2    C5 2551   0.491   3.357  11.309  0.2566 -0.2483 -0.5174
  164TMC2    C6 2552   0.612   3.391  11.374 -0.2181  0.1574  1.1983
  164TMC2     C 2553   0.584   3.026  11.200 -0.6391  0.0184  0.7826
  164TMC2     O 2554   0.485   2.967  11.239 -0.3237  0.1434  0.5142
  164TMC2     H 2555   0.814   3.134  11.287 -0.4537 -0.2373 -1.4622
  164TMC2    H1 2556   0.387   3.206  11.214  0.0069  1.1788 -0.1652
  164TMC2    H2 2557   0.626   3.486  11.425 -0.4465  0.2579  1.0719
  164TMC2    C7 2558   0.365   3.429  11.327  0.3048 -0.4256  0.3476
  164TMC2    C8 2559   0.824   3.336  11.448  0.2225  0.7867 -0.2167
  164TMC2    O1 2560   0.264   3.376  11.279 -0.0764  0.4290 -0.3158
  164TMC2    O2 2561   0.939   3.300  11.434  0.3832  0.2095  0.1690
  164TMC2    O5 2562   0.763   3.317  11.573 -0.7700 -0.0047  0.0799
  164TMC2    H5 2563   0.668   3.297  11.555 -0.0661 -2.0204 -1.5142
  165TMC2    C1 2564   1.496   0.201   1.357  0.6378  0.0781  0.3919
  165TMC2    C2 2565   1.531   0.075   1.337  0.2835  0.0509  1.0248
  165TMC2    C3 2566   1.662   0.044   1.313  0.1705  0.8967 -0.1348
  165TMC2    C4 2567   1.592   0.298   1.363 -0.4463  0.2548  0.1043
  165TMC2    C5 2568   1.723   0.266   1.349 -0.2778  0.1984 -0.9200
  165TMC2    C6 2569   1.764   0.134   1.331  0.5099 -0.0624 -0.2499
  165TMC2     C 2570   1.359   0.239   1.375  0.3750  0.3575  0.4224
  165TMC2     O 2571   1.287   0.141   1.367  0.8578 -0.0771 -0.2809
  165TMC2     H 2572   1.460   4.730   1.335  0.9455 -0.4655 -1.3774
  165TMC2    H1 2573   1.569   0.404   1.360 -1.2848  0.1236  2.1273
  165TMC2    H2 2574   1.870   0.114   1.323  0.9139  1.5770  0.9625
  165TMC2    C7 2575   1.829   0.357   1.381 -0.2429 -0.1532  0.2601
  165TMC2    C8 2576   1.695   4.642   1.331  0.7109  0.0299  0.0807
  165TMC2    O1 2577   1.946   0.331   1.350  0.0854  0.4637 -0.5184
  165TMC2    O2 2578   1.637   4.556   1.401  0.2854 -0.0401 -0.2161
  165TMC2    O5 2579   1.803   4.631   1.250  0.2956  0.3123  0.5456
  165TMC2    H5 2580   1.826   4.711   1.197  1.2717 -0.0689  0.3944
  166MPD2     C 2581   0.971   0.565   1.483  0.5007  0.2545  0.0751
  166MPD2    C1 2582   0.971   0.428   1.453  0.5584 -0.5066  0.5053
  166MPD2    C2 2583   1.090   0.354   1.441 -0.2426 -0.3791 -0.3151
  166MPD2    C3 2584   1.213   0.419   1.457  0.5837  0.1364 -0.1836
  166MPD2    C4 2585   1.213   0.552   1.491 -0.3588  1.1211  0.2168
  166MPD2    C5 2586   1.092   0.627   1.501  0.4374 -0.1726 -0.3989
  166MPD2     H 2587   1.082   0.250   1.414  0.1958 -0.4188 -0.3007
  166MPD2    H1 2588   1.305   0.601   1.519  1.0585 -1.4200  0.0276
  166MPD2    H2 2589   0.879   0.615   1.512  1.2454  1.2337  0.7392
  166MPD2    H3 2590   1.088   0.728   1.540  0.7672 -0.2483 -0.1678
  166MPD2     N 2591   1.337   0.360   1.440  0.0896 -0.0658  0.3474
  166MPD2    H5 2592   1.421   0.410   1.467 -1.9030  2.3509  2.1368
  166MPD2    N1 2593   0.846   0.376   1.421  0.1529 -0.0874  0.4042
  166MPD2    H7 2594   0.774   0.446   1.403 -0.6469 -0.7278  1.1458
  167TMC2    C1 2595   4.295   2.121  13.141  0.1201 -0.1775 -0.1447
  167TMC2    C2 2596   4.269   2.021  13.236 -0.4063  0.5777 -0.0329
  167TMC2    C3 2597   4.374   1.937  13.279  0.0167  0.5095 -0.0830
  167TMC2    C4 2598   4.430   2.143  13.101 -0.3586  0.1745  0.2799
  167TMC2    C5 2599   4.524   2.056  13.145  0.2541  0.5550 -0.1238
  167TMC2    C6 2600   4.500   1.952  13.232 -0.1822  0.4187 -0.4200
  167TMC2     C 2601   4.185   2.212  13.106 -0.7153 -0.6744 -0.2718
  167TMC2     O 2602   4.077   2.192  13.165 -0.4968 -0.1109  0.2921
  167TMC2     H 2603   4.165   2.001  13.262 -0.6076 -1.8336 -2.6598
  167TMC2    H1 2604   4.452   2.222  13.030 -1.0645 -0.7681 -0.9868
  167TMC2    H2 2605   4.576   1.889  13.278  0.2589  1.2706  0.0159
  167TMC2    C7 2606   4.663   2.070  13.106 -0.2761  0.3709  0.7866
  167TMC2    C8 2607   4.346   1.830  13.369  0.3534  0.2269 -0.4222
  167TMC2    O1 2608   0.015   2.020  13.181  0.4064 -0.5810 -0.3953
  167TMC2    O2 2609   4.403   1.723  13.363 -0.2684  0.0780 -0.3766
  167TMC2    O5 2610   4.273   1.876  13.475 -0.1485 -0.3872  0.1804
  167TMC2    H5 2611   4.251   1.970  13.457 -0.8469 -0.5873  0.0064
  168MPD2     C 2612   4.001   2.411  12.996  0.5889 -0.6962 -0.0701
  168MPD2    C1 2613   4.126   2.385  12.944 -0.2404  0.0836  0.1799
  168MPD2    C2 2614   4.162   2.455  12.825 -0.1169 -0.4337 -0.4435
  168MPD2    C3 2615   4.081   2.543  12.759  0.1216 -0.4532 -0.4209
  168MPD2    C4 2616   3.960   2.568  12.814  0.1371  0.2973  0.3576
  168MPD2    C5 2617   3.925   2.503  12.931  0.0636 -0.2697  0.8434
  168MPD2     H 2618   4.258   2.434  12.779  0.4825  0.1175  0.5535
  168MPD2    H1 2619   3.896   2.647  12.777  1.2019  1.4546  0.9882
  168MPD2    H2 2620   3.966   2.365  13.088  0.5799 -1.4076 -0.4360
  168MPD2    H3 2621   3.830   2.518  12.981 -0.6428  0.7274 -0.8353
  168MPD2     N 2622   4.114   2.595  12.632  0.2860  0.1875  0.4892
  168MPD2    H5 2623   4.042   2.631  12.571 -0.8434 -1.0702  1.0606
  168MPD2    N1 2624   4.220   2.296  13.002 -0.0468  0.0726 -0.6223
  168MPD2    H7 2625   4.309   2.286  12.955  0.2818 -1.6093  0.3579
  169MPD1     C 2626   1.578   3.404   9.629 -0.7578 -0.1328  0.1549
  169MPD1    C1 2627   1.686   3.462   9.563  0.2065  0.2942 -0.4301
  169MPD1    C2 2628   1.803   3.392   9.558  0.2685  0.0863 -0.5348
  169MPD1    C3 2629   1.824   3.277   9.639 -0.0679 -0.6727  0.1776
  169MPD1    C4 2630   1.713   3.228   9.707  0.7985 -0.5370  0.5834
  169MPD1    C5 2631   1.594   3.296   9.701  0.1218  0.4234  0.6943
  169MPD1     H 2632   1.880   3.423   9.489 -0.7046  1.6718 -0.9249
  169MPD1    H1 2633   1.717   3.137   9.765  2.9235 -0.8805 -0.1089
  169MPD1    H2 2634   1.482   3.454   9.615 -0.4545  0.3504 -0.2112
  169MPD1    H3 2635   1.508   3.260   9.756 -0.4822 -1.3803 -1.4184
  169MPD1     N 2636   1.947   3.210   9.642  0.0818  0.1628 -0.1844
  169MPD1    H5 2637   2.027   3.267   9.616 -0.4017  1.0007  0.1727
  169MPD1    N1 2638   1.662   3.573   9.476  0.2348 -0.2335  0.0747
  169MPD1    H6 2639   1.581   3.627   9.508 -0.3350 -1.2587  0.3521
  169MPD1    H7 2640   1.744   3.633   9.482  0.9019 -1.1647  0.0879
  170MPD1     C 2641   0.451   0.217  12.652 -0.2728 -0.3604 -0.2390
  170MPD1    C1 2642   0.481   0.346  12.704  0.2934 -1.0049 -1.1508
  170MPD1    C2 2643   0.518   0.365  12.833 -1.0893  0.8078  0.7870
  170MPD1    C3 2644   0.519   0.251  12.909 -0.7486  0.4052  0.2186
  170MPD1    C4 2645   0.478   0.127  12.869  0.1979  0.0546 -0.3402
  170MPD1    C5 2646   0.444   0.112  12.736 -0.3136  0.1658  0.3474
  170MPD1     H 2647   0.561   0.457  12.870  0.6374  0.0332  0.7251
  170MPD1    H1 2648   0.477   0.035  12.927 -0.7773  0.5303  0.3919
  170MPD1    H2 2649   0.413   0.209  12.551 -1.8077 -1.0671  0.3922
  170MPD1    H3 2650   0.399   0.017  12.709  0.3871 -0.0651  0.0038
  170MPD1     N 2651   0.568   0.281  13.037 -0.0248 -0.7073 -0.0589
  170MPD1    H5 2652   0.598   0.374  13.062  0.2571 -1.4603  2.4099
  170MPD1    N1 2653   0.458   0.458  12.619 -0.4270  0.3190  0.9926
  170MPD1    H6 2654   0.447   0.447  12.519 -0.7346  0.4796  1.0093
  170MPD1    H7 2655   0.522   0.530  12.651 -0.7817  1.6156 -1.2482
  171MPD1     C 2656   3.810   1.796  15.482 -0.4090  0.2178 -0.3767
  171MPD1    C1 2657   3.712   1.708  15.516 -0.3899  0.1075  0.4868
  171MPD1    C2 2658   3.749   1.594  15.583 -0.3114 -0.3124 -0.3551
  171MPD1    C3 2659   3.885   1.568  15.606 -0.5277 -0.8433  0.3000
  171MPD1    C4 2660   3.981   1.658  15.569  0.0199 -0.0799 -0.1365
  171MPD1    C5 2661   3.942   1.768  15.507  0.5631 -0.1124  0.6116
  171MPD1     H 2662   3.668   1.531  15.619 -0.4670 -0.2990 -0.6735
  171MPD1    H1 2663   4.087   1.663  15.591 -0.4735 -0.1599  2.2752
  171MPD1    H2 2664   3.788   1.894  15.443 -0.7060  1.0552  1.8809
  171MPD1    H3 2665   4.029   1.831  15.496  0.9270 -0.5169  1.1942
  171MPD1     N 2666   3.936   1.450  15.665  0.2833  0.1358 -0.6798
  171MPD1    H5 2667   4.037   1.436  15.663 -0.3138 -4.0190 -1.7572
  171MPD1    N1 2668   3.584   1.738  15.494  0.0624 -0.2266  0.0867
  171MPD1    H6 2669   3.522   1.692  15.561 -3.3106  2.1534 -1.3843
  171MPD1    H7 2670   3.560   1.835  15.480 -0.8598 -0.0409  2.9245
  172MPD1     C 2671   2.855   0.316   0.441 -0.2803  0.0749 -0.4514
  172MPD1    C1 2672   2.884   0.417   0.535  0.5975 -0.3053  0.1425
  172MPD1    C2 2673   2.968   0.516   0.489 -0.3855  0.0727  0.5118
  172MPD1    C3 2674   3.029   0.515   0.367  0.0249  0.1271  0.0004
  172MPD1    C4 2675   3.019   0.400   0.288  0.6711  0.6930 -0.2489
  172MPD1    C5 2676   2.929   0.301   0.327  0.0145  0.2234  0.2774
  172MPD1     H 2677   2.999   0.592   0.560  4.0044 -1.3115  0.0753
  172MPD1    H1 2678   3.062   0.391   0.189 -1.5900 -1.8376 -0.9965
  172MPD1    H2 2679   2.771   0.251   0.462  0.5793 -0.1555  2.1905
  172MPD1    H3 2680   2.903   0.221   0.259  0.3621  0.2156  0.1563
  172MPD1     N 2681   3.113   0.625   0.324  0.1380  0.2372 -0.4010
  172MPD1    H5 2682   3.163   0.615   0.237  0.0811 -1.5027 -0.2346
  172MPD1    N1 2683   2.802   0.420   0.649 -0.1801 -0.1742 -0.0002
  172MPD1    H6 2684   2.847   0.461   0.730 -0.9729  0.1678  0.2669
  172MPD1    H7 2685   2.757   0.331   0.672 -1.1997 -0.2388 -2.1956
  173MPD1     C 2686   4.438   0.937  13.827  0.7211 -0.1934 -0.2643
  173MPD1    C1 2687   4.337   0.894  13.911  0.4822  0.0697  0.2965
  173MPD1    C2 2688   4.361   0.814  14.023 -0.0248  0.2766 -0.2976
  173MPD1    C3 2689   4.487   0.769  14.051  0.4407  0.4047  0.0885
  173MPD1    C4 2690   4.586   0.796  13.957  0.1242  0.5178  0.0384
  173MPD1    C5 2691   4.562   0.882  13.847  0.5813 -0.3295 -0.2751
  173MPD1     H 2692   4.281   0.796  14.094 -2.6616  0.0027 -3.3493
  173MPD1    H1 2693   4.683   0.747  13.960  1.1344  2.5395  0.3093
  173MPD1    H2 2694   4.422   1.002  13.742  0.9824 -2.2606 -1.9103
  173MPD1    H3 2695   4.643   0.897  13.776 -0.9537 -1.4794 -2.2805
  173MPD1     N 2696   4.518   0.696  14.167  0.6362 -1.1674  0.1410
  173MPD1    H5 2697   4.430   0.673  14.212  0.4651  0.2605  0.5514
  173MPD1    N1 2698   4.213   0.958  13.897 -0.1686 -0.2465  0.4465
  173MPD1    H6 2699   4.192   0.977  13.799  0.7589  1.1500  0.5130
  173MPD1    H7 2700   4.141   0.897  13.933 -0.6754 -0.5092 -1.0196
  174MPD1     C 2701   0.592   0.172  14.472 -0.2624  0.5188 -0.0742
  174MPD1    C1 2702   0.489   0.111  14.540 -0.0640  0.0734  0.7498
  174MPD1    C2 2703   0.358   0.159  14.521  0.6074 -0.2398 -0.4010
  174MPD1    C3 2704   0.339   0.264  14.429  0.8251 -0.8425 -0.1005
  174MPD1    C4 2705   0.438   0.325  14.362 -0.5126 -0.1155 -0.6235
  174MPD1    C5 2706   0.569   0.275  14.383 -0.0797  0.0912 -0.5910
  174MPD1     H 2707   0.275   0.114  14.572 -0.3909  0.5993 -1.2847
  174MPD1    H1 2708   0.420   0.409  14.296  1.0340  1.3917  0.8775
  174MPD1    H2 2709   0.695   0.151  14.500 -0.2911  1.3750  0.6685
  174MPD1    H3 2710   0.653   0.320  14.331 -0.5011 -0.4979 -1.8043
  174MPD1     N 2711   0.216   0.330  14.404 -0.0914 -0.6058  0.4670
  174MPD1    H5 2712   0.215   0.402  14.333  0.5906 -0.8931  0.1675
  174MPD1    N1 2713   0.506   0.031  14.654  0.6117 -0.4961 -0.9228
  174MPD1    H6 2714   0.434   4.701  14.677  1.2039 -0.7865  0.0720
  174MPD1    H7 2715   0.601   4.733  14.667  1.6689  3.6470  2.7575
  175MPD1     C 2716   2.897   1.471  15.409 -0.2106  0.2524  0.7229
  175MPD1    C1 2717   2.780   1.472  15.472  0.5308 -0.7280 -0.1604
  175MPD1    C2 2718   2.741   1.583  15.544  0.6827 -0.7034  0.4626
  175MPD1    C3 2719   2.834   1.682  15.563  0.1111 -0.1933 -0.2334
  175MPD1    C4 2720   2.959   1.688  15.491 -0.3728  0.2067  0.2436
  175MPD1    C5 2721   2.981   1.580  15.409 -0.3438  0.2494 -0.1000
  175MPD1     H 2722   2.645   1.579  15.594 -0.9069 -1.1503 -2.6058
  175MPD1    H1 2723   3.029   1.768  15.511 -0.7363  0.7155 -0.5075
  175MPD1    H2 2724   2.931   1.382  15.357  1.0122  0.0827  1.8261
  175MPD1    H3 2725   3.067   1.576  15.344 -0.6857  0.3752 -0.5542
  175MPD1     N 2726   2.805   1.800  15.646  0.2392  0.7999  0.0504
  175MPD1    H5 2727   2.877   1.871  15.648  0.1993  0.7755  2.7377
  175MPD1    N1 2728   2.696   1.358  15.468  0.6119 -0.4857 -0.1715
  175MPD1    H6 2729   2.606   1.360  15.515  1.4181  1.4091  1.2772
  175MPD1    H7 2730   2.678   1.317  15.377  1.0363 -1.3810  0.1459
  176MPD1     C 2731   4.529   3.591  17.692  0.2928  0.0986  0.2590
  176MPD1    C1 2732   4.576   3.625  17.566  0.6033 -0.5615 -0.1882
  176MPD1    C2 2733   4.618   3.750  17.548 -0.5390 -0.0650 -0.3340
  176MPD1    C3 2734   4.615   3.851  17.649  0.2098 -0.5069 -0.3242
  176MPD1    C4 2735   4.542   3.817   0.013  0.0061 -0.2156 -0.0199
  176MPD1    C5 2736   4.497   3.690   0.030 -0.6331  0.0891 -0.0555
  176MPD1     H 2737   4.651   3.785  17.451  0.1768  1.7552  0.5722
  176MPD1    H1 2738   4.538   3.882   0.101  1.3655  0.4816 -0.4680
  176MPD1    H2 2739   4.527   3.494  17.740 -1.0142 -1.3959 -2.7978
  176MPD1    H3 2740   4.452   3.661   0.125 -2.1395  1.5647 -0.3091
  176MPD1     N 2741   4.676   3.975  17.627  0.9053 -0.2197 -0.2060
  176MPD1    H5 2742   4.728   3.986  17.541  1.3760 -2.0753 -0.1589
  176MPD1    N1 2743   4.605   3.526  17.474 -0.1786  0.6748 -0.2223
  176MPD1    H6 2744   4.596   3.559  17.379  2.8599 -0.4276 -0.9141
  176MPD1    H7 2745   4.546   3.445  17.489 -0.1505  0.4116 -1.5407
  177MPD1     C 2746   3.587   3.839  10.163  0.8117  0.0255  0.5037
  177MPD1    C1 2747   3.456   3.801  10.147  0.5022 -0.0462 -0.5570
  177MPD1    C2 2748   3.375   3.880  10.057 -0.1692  0.5288  0.3423
  177MPD1    C3 2749   3.430   3.986   9.990 -1.0177 -0.0411  0.5036
  177MPD1    C4 2750   3.560   4.022  10.011 -0.0898  0.6154  0.1182
  177MPD1    C5 2751   3.639   3.945  10.094 -0.0173  0.0535 -0.1762
  177MPD1     H 2752   3.271   3.855  10.042 -0.1991  1.4508 -1.0007
  177MPD1    H1 2753   3.610   4.106   9.965 -0.2204  1.1845  1.0298
  177MPD1    H2 2754   3.654   3.778  10.221 -3.6190 -1.5259  4.0040
  177MPD1    H3 2755   3.746   3.960  10.096 -0.4575  3.0354  1.3903
  177MPD1     N 2756   3.341   4.062   9.909 -0.6906  0.1192 -0.6948
  177MPD1    H5 2757   3.242   4.046   9.925 -0.2823 -1.7136 -0.0258
  177MPD1    N1 2758   3.415   3.676  10.190 -0.1942  0.3375 -0.4768
  177MPD1    H6 2759   3.462   3.650  10.276  0.2258 -1.0478 -1.1118
  177MPD1    H7 2760   3.315   3.678  10.211  0.6201 -0.3922  3.3941
  178MPD1     C 2761   0.826   3.964   0.162 -0.3237  0.2341 -0.3483
  178MPD1    C1 2762   0.730   3.911   0.077  0.1660  0.9002  0.3229
  178MPD1    C2 2763   0.718   3.967  17.697  0.3072 -0.0997  0.2308
  178MPD1    C3 2764   0.800   4.073  17.657 -0.4289  0.4713 -0.8363
  178MPD1    C4 2765   0.894   4.108  17.740 -1.1699  0.3456 -0.4045
  178MPD1    C5 2766   0.915   4.054   0.113  0.2981 -0.3719 -0.3679
  178MPD1     H 2767   0.643   3.932  17.627 -1.9260  1.6549  1.7816
  178MPD1    H1 2768   0.969   4.181  17.710 -1.3138  1.3742  1.7452
  178MPD1    H2 2769   0.852   3.913   0.254 -1.1272 -0.3871 -0.4632
  178MPD1    H3 2770   1.007   4.076   0.167 -0.1458  1.3655 -0.2938
  178MPD1     N 2771   0.794   4.138  17.536 -0.4880 -0.2059 -0.0524
  178MPD1    H5 2772   0.866   4.205  17.513 -0.6846  0.0990  0.2100
  178MPD1    N1 2773   0.664   3.794   0.110  0.1134  0.0486 -0.0298
  178MPD1    H6 2774   0.568   3.794   0.077  0.9955 -0.1074 -2.6726
  178MPD1    H7 2775   0.657   3.797   0.211 -1.0906 -0.6993 -0.0918
  179MPD1     C 2776   0.970   1.869  15.275 -0.2914 -0.5207  0.5458
  179MPD1    C1 2777   0.852   1.901  15.210  0.2740 -0.2321  0.2244
  179MPD1    C2 2778   0.748   1.941  15.291 -0.0498  0.8684 -0.4198
  179MPD1    C3 2779   0.765   1.959  15.428  0.2043 -0.5445 -0.1094
  179MPD1    C4 2780   0.889   1.931  15.485 -0.3907  0.1835 -0.2561
  179MPD1    C5 2781   0.987   1.877  15.408  0.2703  1.1074  0.2383
  179MPD1     H 2782   0.648   1.945  15.250  0.2598 -0.4213 -1.3171
  179MPD1    H1 2783   0.911   1.953  15.589  1.2467 -1.1609 -0.3249
  179MPD1    H2 2784   1.054   1.832  15.217 -0.6257 -0.8064  0.2389
  179MPD1    H3 2785   1.083   1.846  15.449  0.6715 -1.6737 -2.7797
  179MPD1     N 2786   0.660   1.996  15.513 -0.2319 -0.1346  0.2255
  179MPD1    H5 2787   0.673   2.000  15.614 -1.5960  0.9794  0.3555
  179MPD1    N1 2788   0.827   1.860  15.075 -0.1519 -0.3021  0.0273
  179MPD1    H6 2789   0.910   1.882  15.021 -0.5936  1.5517  0.0996
  179MPD1    H7 2790   0.737   1.893  15.042 -0.7128 -1.7565  0.1118
  180MPD1     C 2791   3.888   4.068  14.496 -0.3697  0.4005  0.2480
  180MPD1    C1 2792   4.013   4.090  14.442 -0.1475 -0.6341 -0.9221
  180MPD1    C2 2793   4.060   3.994  14.352 -0.4499  0.7870 -0.8653
  180MPD1    C3 2794   3.994   3.878  14.323  0.0874 -0.2969 -0.1851
  180MPD1    C4 2795   3.873   3.858  14.383 -0.0995 -0.4148 -0.0106
  180MPD1    C5 2796   3.818   3.951  14.476  0.5030  0.2852 -0.0502
  180MPD1     H 2797   4.151   4.015  14.297  0.6216 -0.2996  0.4622
  180MPD1    H1 2798   3.815   3.767  14.370 -2.0866  0.7006  0.9645
  180MPD1    H2 2799   3.858   4.138  14.572  1.1245  1.6621 -0.3363
  180MPD1    H3 2800   3.726   3.929  14.528  0.5855 -0.4862 -0.2347
  180MPD1     N 2801   4.059   3.792  14.231 -0.3751  0.3595 -0.7183
  180MPD1    H5 2802   4.144   3.830  14.190  0.7567  0.0873  1.3943
  180MPD1    N1 2803   4.092   4.187  14.498  0.1031 -0.4212  0.5902
  180MPD1    H6 2804   4.137   4.139  14.576 -0.1401  1.8199  2.0948
  180MPD1    H7 2805   4.181   4.189  14.449 -0.9391  2.9718 -1.1552
  181MPD1     C 2806   1.040   1.270   9.623 -0.6696 -0.2184  0.2538
  181MPD1    C1 2807   1.111   1.383   9.645  0.0582  0.6863 -0.1096
  181MPD1    C2 2808   1.208   1.371   9.744 -0.5347 -0.1219  0.3990
  181MPD1    C3 2809   1.231   1.253   9.814  0.8724 -0.4549  0.0402
  181MPD1    C4 2810   1.150   1.143   9.793  0.4723 -0.6598 -0.2025
  181MPD1    C5 2811   1.059   1.151   9.692  0.6577 -0.6529  0.1263
  181MPD1     H 2812   1.273   1.455   9.763 -0.8248  0.3911 -0.8735
  181MPD1    H1 2813   1.163   1.049   9.845 -1.7487  0.2399  1.9921
  181MPD1    H2 2814   0.972   1.278   9.539 -0.4912  0.2489  0.1552
  181MPD1    H3 2815   0.999   1.064   9.667 -0.1253  1.1289 -4.1492
  181MPD1     N 2816   1.340   1.243   9.901  0.2375  0.2059 -0.3366
  181MPD1    H5 2817   1.376   1.150   9.921 -1.6345 -0.7071 -1.2052
  181MPD1    N1 2818   1.107   1.488   9.555  0.4448 -0.2808  0.3100
  181MPD1    H6 2819   1.088   1.467   9.458 -0.4786 -0.2641  0.4830
  181MPD1    H7 2820   1.193   1.542   9.554  0.9804 -1.1860 -1.7091
  182MPD1     C 2821   2.147   1.091   0.955  0.0385 -0.2779  0.0878
  182MPD1    C1 2822   2.061   1.036   1.048 -0.4534 -0.2113 -0.4264
  182MPD1    C2 2823   2.074   0.898   1.075 -0.0876  0.5552 -0.0616
  182MPD1    C3 2824   2.170   0.819   1.006  0.0360 -0.3038  0.5994
  182MPD1    C4 2825   2.262   0.880   0.924 -0.2298  0.4151 -0.0265
  182MPD1    C5 2826   2.242   1.016   0.894  0.0218 -0.1036  0.1406
  182MPD1     H 2827   2.016   0.861   1.159  0.0368 -1.3507 -0.8086
  182MPD1    H1 2828   2.336   0.828   0.864  1.1239  2.3791 -0.0668
  182MPD1    H2 2829   2.141   1.195   0.922  0.4908 -0.1945  0.2690
  182MPD1    H3 2830   2.307   1.061   0.819 -1.4001  1.9594  0.1355
  182MPD1     N 2831   2.180   0.676   1.008  0.0666 -0.5846  0.3923
  182MPD1    H5 2832   2.225   0.638   0.926 -0.6255 -1.0905  0.2457
  182MPD1    N1 2833   1.971   1.113   1.123  0.0698  0.4191  0.2287
  182MPD1    H6 2834   1.883   1.061   1.130  0.0682 -0.1514 -4.2401
  182MPD1    H7 2835   1.948   1.191   1.063  0.3161 -1.4845 -2.3284
  183MPD1     C 2836   3.179   1.589  10.361  0.3715  1.3296  0.5106
  183MPD1    C1 2837   3.191   1.466  10.301 -0.0675  0.4183  0.2961
  183MPD1    C2 2838   3.081   1.420  10.238  0.8408  0.1504 -0.7664
  183MPD1    C3 2839   2.955   1.460  10.258 -0.1796 -0.0428  0.1038
  183MPD1    C4 2840   2.935   1.579  10.327  0.0505  0.1065  0.0911
  183MPD1    C5 2841   3.051   1.631  10.377 -0.2666 -0.3359 -0.4373
  183MPD1     H 2842   3.086   1.330  10.178 -1.8169 -0.8932  0.6121
  183MPD1    H1 2843   2.841   1.624  10.356 -0.0473 -0.8049  1.1521
  183MPD1    H2 2844   3.264   1.644  10.397  1.6303 -0.0028 -0.4174
  183MPD1    H3 2845   3.056   1.728  10.425  0.0294 -0.5427 -0.0456
  183MPD1     N 2846   2.848   1.382  10.202 -0.2934  0.2627 -0.1610
  183MPD1    H5 2847   2.876   1.303  10.146  0.7395  0.9221 -0.5760
  183MPD1    N1 2848   3.318   1.414  10.279  0.0109  0.2967 -0.4896
  183MPD1    H6 2849   3.306   1.316  10.254 -1.1143  0.8186 -2.0303
  183MPD1    H7 2850   3.372   1.416  10.365 -0.0917 -0.2829 -0.4120
  184MPD1     C 2851   2.241   3.677  10.311  0.0059 -0.3955 -0.0360
  184MPD1    C1 2852   2.318   3.754  10.394 -0.0382 -0.4256  0.2702
  184MPD1    C2 2853   2.376   3.867  10.341  0.4077 -0.4087 -0.7759
  184MPD1    C3 2854   2.339   3.913  10.219 -0.3722 -0.0021 -0.7346
  184MPD1    C4 2855   2.253   3.836  10.140 -0.1338  0.3619 -0.0807
  184MPD1    C5 2856   2.208   3.723  10.190 -0.1739 -0.2874  0.0047
  184MPD1     H 2857   2.452   3.919  10.399 -2.2478  0.2669  2.0623
  184MPD1    H1 2858   2.226   3.864  10.039 -2.2974 -0.9449  0.1268
  184MPD1    H2 2859   2.203   3.581  10.343  2.0601 -0.8751  0.9772
  184MPD1    H3 2860   2.137   3.664  10.133 -0.6805 -0.6626  1.0032
  184MPD1     N 2861   2.405   4.026  10.167  0.1864  0.3680  0.6180
  184MPD1    H5 2862   2.485   4.064  10.216  0.8080 -1.2735  0.8449
  184MPD1    N1 2863   2.359   3.695  10.510  0.5298  0.4866 -0.1006
  184MPD1    H6 2864   2.292   3.628  10.547  2.0639 -0.1501  1.5404
  184MPD1    H7 2865   2.368   3.761  10.586  1.2874  0.1804  0.0758
  185MPD1     C 2866   2.127   0.018   9.494  0.0900  0.0706  0.5371
  185MPD1    C1 2867   2.261   0.041   9.522  0.1331  0.2375 -0.1247
  185MPD1    C2 2868   2.328   4.698   9.599  0.2710 -0.0120  0.4312
  185MPD1    C3 2869   2.269   4.596   9.668  0.3610 -0.1622  0.1750
  185MPD1    C4 2870   2.132   4.576   9.643  0.4459 -0.2174 -0.6635
  185MPD1    C5 2871   2.060   4.658   9.558  0.5622  0.3593  0.1657
  185MPD1     H 2872   2.434   4.713   9.613  0.5909 -0.5463 -1.4183
  185MPD1    H1 2873   2.077   4.503   9.701 -0.6932  0.3265 -1.0501
  185MPD1    H2 2874   2.082   0.091   9.428  0.2948 -1.0018 -0.7928
  185MPD1    H3 2875   1.956   4.634   9.537  0.6915  0.5285 -0.6680
  185MPD1     N 2876   2.328   4.507   9.765 -0.6474  0.6108 -0.2801
  185MPD1    H5 2877   2.266   4.439   9.808 -1.9807  1.1238 -1.3716
  185MPD1    N1 2878   2.326   0.144   9.453 -0.4179  0.1058  0.1707
  185MPD1    H6 2879   2.255   0.209   9.422  0.2160  2.2346  3.2216
  185MPD1    H7 2880   2.393   0.186   9.517  0.3032  2.7102 -2.3117
  186MPD1     C 2881   0.253   3.535  16.155 -0.3950  0.0638 -0.8309
  186MPD1    C1 2882   0.237   3.514  16.291  0.0492  0.1953  0.2761
  186MPD1    C2 2883   0.303   3.406  16.349  0.2287 -0.7561 -0.2123
  186MPD1    C3 2884   0.393   3.326  16.271  0.1787  0.1683  0.3747
  186MPD1    C4 2885   0.387   3.336  16.137  0.2120 -0.0733 -0.0607
  186MPD1    C5 2886   0.321   3.441  16.081 -0.1478 -1.3915 -0.6313
  186MPD1     H 2887   0.295   3.401  16.457 -0.9362 -2.2094 -0.3599
  186MPD1    H1 2888   0.457   3.282  16.074  0.2128 -1.3752  1.0550
  186MPD1    H2 2889   0.199   3.617  16.111  0.5316  0.8202 -0.5425
  186MPD1    H3 2890   0.339   3.454  15.975  1.5520  2.2979  0.1131
  186MPD1     N 2891   0.482   3.227  16.324 -0.3108 -0.2892 -0.4108
  186MPD1    H5 2892   0.541   3.175  16.259  1.4776  0.0926  0.9300
  186MPD1    N1 2893   0.149   3.606  16.358 -0.3703  0.1159  0.0743
  186MPD1    H6 2894   0.152   3.700  16.319 -2.0338 -0.8715 -2.4752
  186MPD1    H7 2895   0.161   3.616  16.458 -1.4995  0.7061  0.1532
  187MPD1     C 2896   0.183   0.177   0.141  0.5163 -0.1979 -0.1019
  187MPD1    C1 2897   0.262   0.244   0.050 -0.7970 -0.6181  0.1706
  187MPD1    C2 2898   0.224   0.250  17.669 -0.2538 -1.2197  0.2368
  187MPD1    C3 2899   0.118   0.176  17.619 -0.0383  0.1148 -0.1574
  187MPD1    C4 2900   0.038   0.111  17.710  0.0420  0.2413  0.1614
  187MPD1    C5 2901   0.071   0.108   0.099 -0.1656 -0.9542 -0.8272
  187MPD1     H 2902   0.286   0.310  17.603 -4.0793  0.8162 -1.4956
  187MPD1    H1 2903   4.695   0.050  17.674  1.1522 -2.8003  2.8474
  187MPD1    H2 2904   0.204   0.160   0.246  1.6290  2.1757  0.0471
  187MPD1    H3 2905   0.023   0.042   0.169  0.5342 -1.8785 -1.2213
  187MPD1     N 2906   0.082   0.173  17.483 -0.2962  0.3077  0.6749
  187MPD1    H5 2907   0.001   0.115  17.466 -0.7927  0.6628  1.8660
  187MPD1    N1 2908   0.366   0.321   0.095  0.3560 -0.1025  0.1195
  187MPD1    H6 2909   0.443   0.336   0.030  0.1983 -0.5772 -0.1773
  187MPD1    H7 2910   0.396   0.297   0.189 -0.8234 -2.1953 -0.0274
  188MPD1     C 2911   3.783   0.937  10.403 -0.8957  0.5888 -0.2411
  188MPD1    C1 2912   3.914   0.907  10.440 -0.3903 -0.0583  0.1811
  188MPD1    C2 2913   3.971   0.795  10.383 -0.3242 -0.2370  0.0346
  188MPD1    C3 2914   3.911   0.736  10.280  0.6743  0.4559 -0.0039
  188MPD1    C4 2915   3.792   0.774  10.236  0.2569 -0.1400 -0.3423
  188MPD1    C5 2916   3.723   0.873  10.293 -0.3129 -0.5221  0.6227
  188MPD1     H 2917   4.061   0.750  10.423 -0.0115  0.6514  0.3170
  188MPD1    H1 2918   3.751   0.711  10.159  0.8492 -0.1707 -0.6364
  188MPD1    H2 2919   3.731   1.016  10.456 -1.5692  1.0997 -1.6881
  188MPD1    H3 2920   3.629   0.906  10.251  1.4534  0.0095 -2.9871
  188MPD1     N 2921   3.980   0.624  10.221 -0.4093 -0.3201  0.5223
  188MPD1    H5 2922   3.942   0.597  10.131  2.3084 -2.8888  0.1190
  188MPD1    N1 2923   3.968   0.967  10.550  0.0922  0.0064  0.2444
  188MPD1    H6 2924   3.937   1.063  10.557  0.7529  0.2527 -0.1903
  188MPD1    H7 2925   4.068   0.949  10.562  0.1721 -0.9338 -1.7814
  189MPD1     C 2926   1.988   0.517   0.335 -0.6900  0.1920  0.2273
  189MPD1    C1 2927   1.931   0.635   0.374 -0.6875  0.2286  0.1034
  189MPD1    C2 2928   1.792   0.647   0.360  0.4159 -0.6733  0.0266
  189MPD1    C3 2929   1.720   0.538   0.314  0.5886 -0.0785 -0.9141
  189MPD1    C4 2930   1.778   0.410   0.292  0.3246 -0.5605  0.3482
  189MPD1    C5 2931   1.914   0.407   0.298 -0.0896 -0.4812  0.0107
  189MPD1     H 2932   1.740   0.740   0.376  0.7732 -0.4771  0.0417
  189MPD1    H1 2933   1.713   0.324   0.280  2.7882 -2.1152 -1.8340
  189MPD1    H2 2934   2.096   0.505   0.337 -0.9758 -2.1461  1.5498
  189MPD1    H3 2935   1.977   0.321   0.280  0.6139  0.0411  0.0016
  189MPD1     N 2936   1.585   0.567   0.293 -0.0658  0.3099 -0.2930
  189MPD1    H5 2937   1.548   0.661   0.305 -1.4933 -0.5571  2.1485
  189MPD1    N1 2938   2.015   0.739   0.403  0.4623 -0.1296 -0.4359
  189MPD1    H6 2939   2.100   0.700   0.444 -0.1069 -0.4304  0.4557
  189MPD1    H7 2940   1.970   0.809   0.461 -0.2102 -0.4379 -0.5811
  190MPD1     C 2941   4.625   4.027  15.675  0.4185 -0.0977 -0.5373
  190MPD1    C1 2942   4.693   3.977  15.564  0.4914 -0.1177 -0.3085
  190MPD1    C2 2943   0.089   3.950  15.592  0.8913 -0.6611  0.7574
  190MPD1    C3 2944   0.137   3.946  15.719  0.2395 -1.0887 -0.5077
  190MPD1    C4 2945   0.056   3.970  15.828  0.5840 -0.2487  0.6867
  190MPD1    C5 2946   4.675   4.022  15.803  0.9914 -1.3149  0.2428
  190MPD1     H 2947   0.157   3.920  15.513  0.2075 -2.9345  1.0465
  190MPD1    H1 2948   0.087   3.946  15.929 -0.9303 -0.4157  1.1036
  190MPD1    H2 2949   4.521   4.057  15.670  0.7333  1.0852 -0.1310
  190MPD1    H3 2950   4.613   4.056  15.886  0.1917 -0.0172 -0.8872
  190MPD1     N 2951   0.267   3.901  15.726  0.5601  0.6592 -0.0163
  190MPD1    H5 2952   0.316   3.881  15.640  1.3861 -0.8070  0.7984
  190MPD1    N1 2953   4.643   3.997  15.433  0.2532 -0.6046  0.3548
  190MPD1    H6 2954   4.545   3.971  15.435 -0.6274  2.6066 -0.9286
  190MPD1    H7 2955   4.678   3.929  15.366  0.3439 -1.1768  0.9815
  191MPD1     C 2956   4.435   0.388  13.166 -0.0739  0.1941  0.1090
  191MPD1    C1 2957   4.482   0.514  13.207  0.1979  0.1877  0.5379
  191MPD1    C2 2958   4.390   0.618  13.214 -0.1094 -0.4660 -0.8095
  191MPD1    C3 2959   4.256   0.600  13.174 -0.0340 -0.5285  0.1181
  191MPD1    C4 2960   4.216   0.478  13.129 -0.5321 -0.1702 -0.2517
  191MPD1    C5 2961   4.303   0.374  13.135  0.6837 -0.2617  1.0179
  191MPD1     H 2962   4.434   0.716  13.229  0.7693 -0.7764 -1.3240
  191MPD1    H1 2963   4.119   0.455  13.086  0.1031 -2.2480 -0.5266
  191MPD1    H2 2964   4.493   0.300  13.142 -0.6019  0.1042 -0.8414
  191MPD1    H3 2965   4.279   0.275  13.100 -3.2270  0.6229  1.2739
  191MPD1     N 2966   4.176   0.715  13.160  0.0322 -0.3902  0.9704
  191MPD1    H5 2967   4.212   0.807  13.181  2.5270 -2.0271  3.8622
  191MPD1    N1 2968   4.617   0.540  13.226  0.2943 -0.0921  0.4118
  191MPD1    H6 2969   4.669   0.461  13.264  0.5416 -0.6907 -1.1765
  191MPD1    H7 2970   4.637   0.630  13.270  1.4514 -0.7945  1.2994
  192MPD1     C 2971   3.271   1.331  12.998  0.1085  1.1850  0.0096
  192MPD1    C1 2972   3.276   1.193  12.997  0.3653  0.3129  0.2123
  192MPD1    C2 2973   3.396   1.132  13.030 -0.2883  0.0814 -0.2196
  192MPD1    C3 2974   3.501   1.207  13.069 -0.9001  0.2927 -0.4798
  192MPD1    C4 2975   3.484   1.344  13.076  0.3655 -0.3224  0.6616
  192MPD1    C5 2976   3.372   1.401  13.042 -0.4465 -0.2913 -0.3570
  192MPD1     H 2977   3.400   1.027  13.001 -0.9002  0.2335 -0.8470
  192MPD1    H1 2978   3.565   1.410  13.104  1.2002 -1.2131  0.3357
  192MPD1    H2 2979   3.184   1.381  12.958 -0.6986 -2.2454 -2.5306
  192MPD1    H3 2980   3.359   1.509  13.040 -1.0015 -0.4028 -2.4891
  192MPD1     N 2981   3.624   1.152  13.104 -0.2849  0.3018 -0.1017
  192MPD1    H5 2982   3.697   1.218  13.127 -1.8202  1.9638 -0.0421
  192MPD1    N1 2983   3.180   1.124  12.924  0.4028 -0.6002  0.5152
  192MPD1    H6 2984   3.173   1.025  12.948 -0.4183 -0.5498  0.4871
  192MPD1    H7 2985   3.088   1.165  12.938 -0.7642 -2.2851 -2.3240
  193MPD1     C 2986   3.939   1.052  16.116 -0.3315  0.4309 -0.1009
  193MPD1    C1 2987   3.892   1.180  16.144  0.0354 -0.4285  0.0373
  193MPD1    C2 2988   3.971   1.264  16.228 -0.5411 -0.6461 -0.3453
  193MPD1    C3 2989   4.089   1.218  16.290  0.3686  0.0711 -1.3856
  193MPD1    C4 2990   4.119   1.085  16.275  0.6879 -0.1915  0.4479
  193MPD1    C5 2991   4.047   1.003  16.188 -0.1800 -0.1080  1.4025
  193MPD1     H 2992   3.936   1.367  16.232 -0.4039 -0.6539  0.8886
  193MPD1    H1 2993   4.207   1.048  16.325  1.8523  0.8327 -0.8504
  193MPD1    H2 2994   3.889   0.988  16.045  2.1918 -1.5536 -0.0552
  193MPD1    H3 2995   4.084   0.903  16.167  2.9526  1.5204 -0.6836
  193MPD1     N 2996   4.188   1.299  16.348  0.2946  0.1028 -0.2287
  193MPD1    H5 2997   4.266   1.257  16.397  1.2237  1.5956 -0.4389
  193MPD1    N1 2998   3.793   1.239  16.061 -0.1853 -0.1270 -0.6855
  193MPD1    H6 2999   3.724   1.170  16.032 -0.7568 -1.0439  2.8736
  193MPD1    H7 3000   3.751   1.323  16.100  0.1801 -0.1924 -0.1624
  194MPD1     C 3001   2.715   3.509  16.994 -0.1243 -0.0520  0.3578
  194MPD1    C1 3002   2.584   3.477  16.971  0.2370 -0.7302  0.0665
  194MPD1    C2 3003   2.542   3.344  16.993 -0.0598 -0.2108 -0.0380
  194MPD1    C3 3004   2.636   3.250  17.042  0.0940 -0.0964 -0.5556
  194MPD1    C4 3005   2.767   3.283  17.063  0.2038  0.0181  0.0132
  194MPD1    C5 3006   2.800   3.417  17.042 -0.2941 -0.3088 -0.4247
  194MPD1     H 3007   2.439   3.313  16.977 -0.1944  0.0284  0.3581
  194MPD1    H1 3008   2.833   3.219  17.120  1.4948 -0.0244 -1.5454
  194MPD1    H2 3009   2.749   3.611  16.978 -1.5960  0.3128 -0.4149
  194MPD1    H3 3010   2.896   3.460  17.068 -0.2133 -1.2464  0.8275
  194MPD1     N 3011   2.596   3.119  17.075  0.2524 -0.8497  0.0868
  194MPD1    H5 3012   2.672   3.066  17.116  1.1187  1.0392  0.9215
  194MPD1    N1 3013   2.495   3.572  16.925  0.2244 -0.5990  0.4601
  194MPD1    H6 3014   2.461   3.534  16.837 -1.5725  0.7743  0.5384
  194MPD1    H7 3015   2.524   3.668  16.905  1.1224 -1.1973 -1.0222
  195MPD1     C 3016   4.467   0.910   0.909  0.8465 -0.0578  0.1901
  195MPD1    C1 3017   4.393   0.860   0.809 -0.0578 -0.2003  0.4199
  195MPD1    C2 3018   4.396   0.726   0.784  0.1308 -0.7605  0.4239
  195MPD1    C3 3019   4.489   0.638   0.845  0.2408  0.4010 -0.6881
  195MPD1    C4 3020   4.578   0.693   0.929 -0.6522 -0.1029 -0.3319
  195MPD1    C5 3021   4.566   0.826   0.963  0.7058 -0.2687 -0.4392
  195MPD1     H 3022   4.338   0.686   0.702  0.9491 -2.2507  0.5723
  195MPD1    H1 3023   4.651   0.633   0.982  1.1941  1.9281 -0.5582
  195MPD1    H2 3024   4.467   1.014   0.942 -1.3823 -0.2786  0.8718
  195MPD1    H3 3025   4.627   0.855   1.048 -1.4899  2.7263  0.1267
  195MPD1     N 3026   4.495   0.497   0.823 -0.3355 -0.2089 -1.2320
  195MPD1    H5 3027   4.572   0.449   0.868 -1.3163 -0.7994 -0.1873
  195MPD1    N1 3028   4.296   0.932   0.742 -0.3887 -0.1129  0.5623
  195MPD1    H6 3029   4.283   1.032   0.760 -0.5868  0.1015 -0.7764
  195MPD1    H7 3030   4.202   0.895   0.756 -0.3117 -0.2084  0.8244
  196MPD1     C 3031   3.718   3.977   0.353 -0.1896 -0.8226 -0.0148
  196MPD1    C1 3032   3.840   4.012   0.406  0.0464 -0.3759  0.0519
  196MPD1    C2 3033   3.835   4.107   0.502 -0.2541  0.1379 -0.8027
  196MPD1    C3 3034   3.720   4.187   0.523  0.2843  0.3710 -0.0470
  196MPD1    C4 3035   3.599   4.151   0.467 -1.3368 -0.0928 -0.1675
  196MPD1    C5 3036   3.604   4.050   0.375 -0.5211 -0.0016  0.7328
  196MPD1     H 3037   3.924   4.120   0.564 -2.7417  3.3537  2.1070
  196MPD1    H1 3038   3.503   4.200   0.478 -1.5366 -0.8832  1.6242
  196MPD1    H2 3039   3.713   3.897   0.280 -3.5164 -2.0287  1.5655
  196MPD1    H3 3040   3.509   4.020   0.333 -0.9215 -1.4747  2.7100
  196MPD1     N 3041   3.704   4.287   0.623  0.2018  0.0343  0.1518
  196MPD1    H5 3042   3.611   4.326   0.637 -0.8261 -1.9351 -1.1281
  196MPD1    N1 3043   3.949   3.916   0.404 -0.0219 -0.6023  0.1701
  196MPD1    H6 3044   4.042   3.950   0.429 -0.5465  1.8519 -1.1325
  196MPD1    H7 3045   3.944   3.869   0.314 -0.1157  0.7136 -0.5258
  197MPD1     C 3046   2.773   1.208  17.276 -0.6468  0.1070  0.5173
  197MPD1    C1 3047   2.865   1.227  17.379  0.0120  0.2156 -0.1559
  197MPD1    C2 3048   2.961   1.331  17.365  0.3174  0.4512 -0.4436
  197MPD1    C3 3049   2.968   1.403  17.248  0.0501  0.1462 -0.1787
  197MPD1    C4 3050   2.878   1.380  17.146  0.3902  0.1221  0.5045
  197MPD1    C5 3051   2.776   1.290  17.167 -0.4041 -0.0387  0.8682
  197MPD1     H 3052   3.046   1.345  17.431 -0.7802  1.0590  0.8482
  197MPD1    H1 3053   2.881   1.421  17.045 -0.2928 -1.1254 -0.0164
  197MPD1    H2 3054   2.695   1.133  17.285  0.2306 -0.6433  1.7586
  197MPD1    H3 3055   2.713   1.265  17.082  0.2144  2.3958 -0.3158
  197MPD1     N 3056   3.069   1.494  17.216  0.7808  0.6370 -0.7520
  197MPD1    H5 3057   3.074   1.531  17.121  3.6442  0.8680 -0.5176
  197MPD1    N1 3058   2.845   1.164  17.504  0.0998 -0.4906  0.0369
  197MPD1    H6 3059   2.811   1.069  17.490  1.0811 -1.2623  3.0698
  197MPD1    H7 3060   2.924   1.158  17.567  0.0384  0.4252  0.1933
  198MPD1     C 3061   0.412   4.506  15.330 -0.0682 -0.2310 -0.0823
  198MPD1    C1 3062   0.411   4.630  15.275 -0.9472  0.1424 -0.3991
  198MPD1    C2 3063   0.343   4.727  15.353  0.0416  0.2002 -0.5058
  198MPD1    C3 3064   0.269   4.706  15.469 -0.3263 -0.5150  0.3527
  198MPD1    C4 3065   0.262   4.577  15.512 -0.1087 -0.0117  0.2845
  198MPD1    C5 3066   0.343   4.485  15.446 -0.0874  0.2323  0.7951
  198MPD1     H 3067   0.338   0.087  15.304  1.5443 -0.6295 -2.3109
  198MPD1    H1 3068   0.217   4.547  15.606 -0.4295 -2.1253 -0.5539
  198MPD1    H2 3069   0.468   4.428  15.279 -3.6608 -4.1071  1.9566
  198MPD1    H3 3070   0.352   4.384  15.484 -3.7069 -0.6396 -0.7172
  198MPD1     N 3071   0.204   0.079  15.525  0.0531  0.2689  0.6282
  198MPD1    H5 3072   0.223   0.166  15.477  0.8791 -0.9868 -1.3005
  198MPD1    N1 3073   0.482   4.664  15.158 -0.1140 -0.1059 -0.9993
  198MPD1    H6 3074   0.499   4.577  15.107 -0.9317 -0.7818 -0.1155
  198MPD1    H7 3075   0.425   4.725  15.099 -0.0755  0.3921 -0.5159
  199MPD1     C 3076   2.239   1.318  10.382  0.0261 -0.6966  0.2020
  199MPD1    C1 3077   2.155   1.305  10.273  0.5787  0.1825  0.1023
  199MPD1    C2 3078   2.088   1.419  10.226  0.1062  0.2342 -0.5327
  199MPD1    C3 3079   2.114   1.544  10.286 -0.3258  0.8569  1.1607
  199MPD1    C4 3080   2.201   1.551  10.384 -0.3018 -0.1208  0.0692
  199MPD1    C5 3081   2.259   1.440  10.437  0.4802  0.0376 -0.4989
  199MPD1     H 3082   2.012   1.406  10.149 -1.5900  0.3981  1.1167
  199MPD1    H1 3083   2.227   1.646  10.429  0.5500  0.4232 -1.5725
  199MPD1    H2 3084   2.277   1.230  10.432 -1.4652 -0.5880  1.5262
  199MPD1    H3 3085   2.318   1.443  10.528  0.5264 -1.7049 -0.4867
  199MPD1     N 3086   2.067   1.666  10.236 -0.0553 -0.6819 -0.1749
  199MPD1    H5 3087   2.105   1.749  10.281  0.7327 -1.7578  1.1521
  199MPD1    N1 3088   2.105   1.180  10.244 -0.3312  0.2262  0.0502
  199MPD1    H6 3089   2.174   1.107  10.258 -0.6678  0.0086  0.5733
  199MPD1    H7 3090   2.067   1.165  10.151  0.5811 -1.3763 -0.0563
  200MPD1     C 3091   1.138   1.553  15.306  0.5014 -0.5636  0.4934
  200MPD1    C1 3092   1.056   1.534  15.196  0.6739 -0.4366 -0.0933
  200MPD1    C2 3093   1.119   1.544  15.069  0.0344  0.1658 -0.5442
  200MPD1    C3 3094   1.250   1.580  15.054  0.0578 -0.6681 -0.1066
  200MPD1    C4 3095   1.320   1.623  15.164 -0.2386 -0.4513 -0.3924
  200MPD1    C5 3096   1.262   1.609  15.290 -0.3423 -0.3361  0.9997
  200MPD1     H 3097   1.078   1.491  14.983  1.7776  1.4426 -2.1453
  200MPD1    H1 3098   1.425   1.649  15.156 -0.4720  0.3131 -0.9520
  200MPD1    H2 3099   1.086   1.543  15.400 -0.8807 -0.1394 -0.2248
  200MPD1    H3 3100   1.324   1.630  15.376  0.9069  0.7051 -0.1684
  200MPD1     N 3101   1.304   1.545  14.928 -0.2254  0.2866 -0.2320
  200MPD1    H5 3102   1.243   1.522  14.850  0.3627  0.7441 -0.8264
  200MPD1    N1 3103   0.925   1.486  15.213 -0.4658  0.5039 -0.4708
  200MPD1    H6 3104   0.871   1.544  15.277 -0.2885  2.4435 -2.0478
  200MPD1    H7 3105   0.882   1.504  15.122 -1.5484  1.2383  0.1971
  201MPD1     C 3106   3.369   0.922  12.610  0.4096  0.7127  0.5529
  201MPD1    C1 3107   3.398   0.840  12.497  0.1196  0.0836  0.1270
  201MPD1    C2 3108   3.459   0.715  12.524 -0.1278  0.3048  0.6258
  201MPD1    C3 3109   3.472   0.673  12.660 -0.0106 -0.0126 -0.3047
  201MPD1    C4 3110   3.438   0.750  12.768 -0.1106 -0.1866 -0.3523
  201MPD1    C5 3111   3.378   0.866  12.738 -0.2536 -0.4655  0.3012
  201MPD1     H 3112   3.498   0.663  12.437 -0.9090 -0.5840  0.8147
  201MPD1    H1 3113   3.453   0.722  12.872 -0.2342 -0.0751 -0.3043
  201MPD1    H2 3114   3.313   1.015  12.608  2.5059  1.9760  0.3072
  201MPD1    H3 3115   3.336   0.918  12.824  1.2381  0.5729  0.3972
  201MPD1     N 3116   3.540   0.549  12.679 -0.5203 -0.2232 -0.3132
  201MPD1    H5 3117   3.561   0.496  12.595 -0.2135  0.1537 -0.4766
  201MPD1    N1 3118   3.399   0.895  12.370  0.0573 -0.0826 -0.5997
  201MPD1    H6 3119   3.385   0.825  12.298 -1.7315  0.4463 -0.7837
  201MPD1    H7 3120   3.315   0.952  12.359  0.9461  1.1248 -1.0714
  202MPD1     C 3121   3.727   0.667   9.397  0.2612  0.0092  0.4215
  202MPD1    C1 3122   3.663   0.762   9.465  0.5987  0.1658  0.4903
  202MPD1    C2 3123   3.619   0.722   9.590 -0.3288 -0.4250  0.2953
  202MPD1    C3 3124   3.661   0.611   9.657  0.2127  0.3238  0.6142
  202MPD1    C4 3125   3.744   0.528   9.585 -0.0611 -0.4344 -0.7227
  202MPD1    C5 3126   3.773   0.552   9.452 -0.1098 -0.1594  0.7466
  202MPD1     H 3127   3.554   0.791   9.643  0.5848  1.2807 -0.8153
  202MPD1    H1 3128   3.763   0.428   9.622  0.7157  0.2700  0.7727
  202MPD1    H2 3129   3.749   0.691   9.294 -1.4265  0.1937  0.1044
  202MPD1    H3 3130   3.836   0.488   9.392 -0.7488  1.1952 -1.3502
  202MPD1     N 3131   3.606   0.567   9.780  0.0780  0.1810 -0.5135
  202MPD1    H5 3132   3.636   0.476   9.816 -0.7155 -0.2030 -0.8076
  202MPD1    N1 3133   3.580   0.851   9.390  0.3274 -0.2105  0.3708
  202MPD1    H6 3134   3.550   0.935   9.439  0.7018  0.2390 -0.1705
  202MPD1    H7 3135   3.631   0.891   9.311  1.5560 -0.2331  1.1525
  203MPD1     C 3136   1.548   0.226  12.487  0.6216 -0.2945 -0.6958
  203MPD1    C1 3137   1.589   0.223  12.615 -0.7460 -0.0546  0.3982
  203MPD1    C2 3138   1.727   0.206  12.643  0.0982 -0.2271  0.0028
  203MPD1    C3 3139   1.812   0.173  12.539 -0.3791 -0.3947 -0.0253
  203MPD1    C4 3140   1.766   0.153  12.413  0.9539  0.1837 -0.3833
  203MPD1    C5 3141   1.633   0.194  12.387 -0.2343 -0.3944 -0.7767
  203MPD1     H 3142   1.766   0.220  12.743  0.7795  1.1793 -0.4684
  203MPD1    H1 3143   1.819   0.125  12.323 -2.5937 -2.4798 -1.6470
  203MPD1    H2 3144   1.452   0.265  12.454  0.4312 -0.5274 -0.4112
  203MPD1    H3 3145   1.595   0.202  12.285 -0.4796 -0.9995 -0.7323
  203MPD1     N 3146   1.950   0.164  12.571 -0.3413  0.7129  0.3705
  203MPD1    H5 3147   1.970   0.191  12.666  2.5481 -0.8659  0.2103
  203MPD1    N1 3148   1.506   0.262  12.719  0.4518  0.0360  0.0883
  203MPD1    H6 3149   1.408   0.243  12.702  0.2617  0.5110  0.6466
  203MPD1    H7 3150   1.545   0.245  12.812  2.5239  1.0106 -0.5880
  204MPD1     C 3151   1.392   1.329  17.684  0.7148 -0.2076  0.9951
  204MPD1    C1 3152   1.497   1.412  17.666  0.4328 -0.1549 -0.4668
  204MPD1    C2 3153   1.620   1.367  17.630  0.2237 -0.7141  0.0154
  204MPD1    C3 3154   1.652   1.233  17.641 -0.5325  0.0895  0.1489
  204MPD1    C4 3155   1.548   1.154  17.684  0.5998 -0.5046  0.8918
  204MPD1    C5 3156   1.423   1.202  17.697  0.2059  0.1062 -0.1264
  204MPD1     H 3157   1.697   1.436  17.596  2.3714 -3.0248  0.2168
  204MPD1    H1 3158   1.547   1.046  17.687 -0.6557 -0.5367 -1.0460
  204MPD1    H2 3159   1.293   1.371  17.697  0.9515  1.1037 -1.4535
  204MPD1    H3 3160   1.340   1.137  17.723  0.1502  0.0988 -0.3266
  204MPD1     N 3161   1.786   1.195  17.620 -0.5775  0.1366 -0.0178
  204MPD1    H5 3162   1.846   1.267  17.581  1.1236 -0.6820  1.0602
  204MPD1    N1 3163   1.470   1.552  17.642  0.6890 -0.7105 -0.1249
  204MPD1    H6 3164   1.555   1.606  17.657  0.4718 -0.4453  0.1440
  204MPD1    H7 3165   1.398   1.596  17.699  0.5670  1.1571 -1.7183
  205MPD1     C 3166   2.073   4.369  16.678  0.3230  0.2859 -0.2490
  205MPD1    C1 3167   2.059   4.500  16.711  0.0090 -0.0074  0.1546
  205MPD1    C2 3168   2.139   4.562  16.809 -0.0494 -0.2942 -0.0409
  205MPD1    C3 3169   2.228   4.493  16.881 -0.2796 -0.4325 -0.2851
  205MPD1    C4 3170   2.235   4.358  16.855 -0.1508  0.5261 -0.0970
  205MPD1    C5 3171   2.153   4.297  16.762 -0.2190  0.1265  0.8828
  205MPD1     H 3172   2.122   4.668  16.822 -0.9441 -0.3595 -0.6399
  205MPD1    H1 3173   2.316   4.306  16.903  0.2216  0.3552 -0.9120
  205MPD1    H2 3174   2.016   4.322  16.599 -1.3009  1.6768  0.0763
  205MPD1    H3 3175   2.163   4.192  16.738  1.2800  0.7133 -1.0746
  205MPD1     N 3176   2.311   4.548  16.977 -0.1308  0.1644 -0.2760
  205MPD1    H5 3177   2.364   4.483  17.034  1.9047 -0.2241 -2.6171
  205MPD1    N1 3178   1.957   4.577  16.651  0.0611  0.2527  0.2560
  205MPD1    H6 3179   1.914   4.643  16.715  1.8768  1.9185 -0.2322
  205MPD1    H7 3180   1.884   4.515  16.616 -0.7745  1.5359 -0.2724
  206MPD1     C 3181   1.771   3.053  17.276  0.1474  0.2640  0.4071
  206MPD1    C1 3182   1.692   3.167  17.258 -0.3917 -0.8748 -0.1953
  206MPD1    C2 3183   1.679   3.209  17.126  0.9953  0.0286  0.3366
  206MPD1    C3 3184   1.753   3.143  17.023  0.0581  0.0105  0.3965
  206MPD1    C4 3185   1.830   3.040  17.043  0.1781  0.6707 -0.2464
  206MPD1    C5 3186   1.831   2.983  17.173  0.3920 -0.7822 -0.2691
  206MPD1     H 3187   1.626   3.302  17.107  0.5198 -0.1820  0.6140
  206MPD1    H1 3188   1.880   2.992  16.959  1.1040 -0.5869  1.0433
  206MPD1    H2 3189   1.794   3.013  17.374  0.6952 -0.1656  0.1011
  206MPD1    H3 3190   1.902   2.903  17.186 -0.4404 -1.3935  0.5103
  206MPD1     N 3191   1.753   3.190  16.892 -0.0721  0.2428 -0.4485
  206MPD1    H5 3192   1.810   3.138  16.826 -3.6934 -2.4338 -1.4837
  206MPD1    N1 3193   1.656   3.248  17.368  0.6306  0.4375 -0.2793
  206MPD1    H6 3194   1.645   3.199  17.457  1.6487  2.3995  0.9370
  206MPD1    H7 3195   1.560   3.274  17.346  0.8145  0.7067 -0.7526
  207MPD1     C 3196   3.907   1.655   9.666 -0.2692  0.1014 -0.4470
  207MPD1    C1 3197   3.963   1.771   9.608 -0.5969  0.9923  0.0968
  207MPD1    C2 3198   4.079   1.826   9.661  0.0672  0.4749 -0.4476
  207MPD1    C3 3199   4.135   1.783   9.779  0.1580  0.3156 -0.5783
  207MPD1    C4 3200   4.069   1.675   9.842  0.2777 -0.0576  0.3317
  207MPD1    C5 3201   3.959   1.616   9.788  0.4364 -0.0254 -0.0999
  207MPD1     H 3202   4.124   1.909   9.608  2.4440 -1.5471 -1.5425
  207MPD1    H1 3203   4.112   1.643   9.936 -0.9544 -1.6799  0.3419
  207MPD1    H2 3204   3.816   1.605   9.633 -1.0018  1.7117 -0.8643
  207MPD1    H3 3205   3.917   1.527   9.833 -1.9890 -0.1790 -2.6910
  207MPD1     N 3206   4.258   1.827   9.833  0.0401  0.2004 -0.4042
  207MPD1    H5 3207   4.290   1.780   9.918 -1.1823  1.5857  0.8272
  207MPD1    N1 3208   3.917   1.805   9.481 -0.9332  0.2205 -0.0887
  207MPD1    H6 3209   3.939   1.904   9.467  0.9861  0.3055  3.5366
  207MPD1    H7 3210   3.816   1.802   9.481 -0.9227  0.1700 -2.2848
  208MPD1     C 3211   3.448   0.566   0.790 -0.4333  0.3766 -0.3498
  208MPD1    C1 3212   3.319   0.587   0.789  0.4734  0.7899 -0.2259
  208MPD1    C2 3213   3.228   0.490   0.751 -1.2757  0.3080  0.2959
  208MPD1    C3 3214   3.272   0.371   0.691 -0.2436  0.1403  0.2127
  208MPD1    C4 3215   3.407   0.352   0.676  0.0505 -0.9613  0.3581
  208MPD1    C5 3216   3.485   0.444   0.742  0.9071 -0.5960 -1.1540
  208MPD1     H 3217   3.122   0.511   0.748 -1.4062 -0.3162  0.4826
  208MPD1    H1 3218   3.458   0.269   0.630  1.4870 -0.3315  0.8259
  208MPD1    H2 3219   3.516   0.644   0.823  0.0722 -0.8324  1.4691
  208MPD1    H3 3220   3.591   0.428   0.731  0.9615  0.2203 -1.7892
  208MPD1     N 3221   3.177   0.279   0.640  0.5495  0.4749 -0.7256
  208MPD1    H5 3222   3.081   0.301   0.664  0.4791  0.4347 -0.9671
  208MPD1    N1 3223   3.263   0.710   0.823  0.0126  0.0540  0.2399
  208MPD1    H6 3224   3.320   0.793   0.833 -1.4744  1.1138 -0.0527
  208MPD1    H7 3225   3.193   0.736   0.753 -1.1119 -1.1645  0.9103
  209MPD1     C 3226   0.396   1.015  11.277 -0.1798  0.2906 -0.3319
  209MPD1    C1 3227   0.422   1.148  11.285 -0.4442  0.2946  0.0631
  209MPD1    C2 3228   0.391   1.221  11.174  0.3297  0.1987 -0.3128
  209MPD1    C3 3229   0.319   1.171  11.068 -0.3818  0.2859  1.0353
  209MPD1    C4 3230   0.280   1.032  11.071 -0.7117 -0.6238  0.5423
  209MPD1    C5 3231   0.316   0.964  11.178 -0.0669 -0.1725 -0.5665
  209MPD1     H 3232   0.436   1.319  11.166  1.2399 -0.1357  0.8309
  209MPD1    H1 3233   0.215   0.988  10.996  0.5201  0.3492 -1.0840
  209MPD1    H2 3234   0.436   0.945  11.349  1.0558  0.7373 -0.5878
  209MPD1    H3 3235   0.308   0.856  11.172 -1.5553 -0.1151  0.5202
  209MPD1     N 3236   0.295   1.252  10.965  0.1357  0.7020 -0.1065
  209MPD1    H5 3237   0.317   1.350  10.979  1.6529  0.1520  1.2846
  209MPD1    N1 3238   0.515   1.197  11.379 -0.2252  0.3165  0.0091
  209MPD1    H6 3239   0.527   1.137  11.461  2.4785  0.5574 -0.2026
  209MPD1    H7 3240   0.482   1.286  11.415  0.2242  0.5171 -0.0757
  210MPD1     C 3241   0.809   2.017  10.674  0.1535 -0.5789  0.0973
  210MPD1    C1 3242   0.739   1.967  10.783 -1.3004 -0.5482  0.2933
  210MPD1    C2 3243   0.665   1.852  10.766  0.7903 -0.3192  0.3890
  210MPD1    C3 3244   0.658   1.791  10.641  0.3521 -0.1168  0.1239
  210MPD1    C4 3245   0.718   1.850  10.534  0.9857 -0.2920 -0.5758
  210MPD1    C5 3246   0.787   1.970  10.549  0.4460 -0.3063 -0.2592
  210MPD1     H 3247   0.607   1.811  10.849 -0.0154 -1.6003 -0.8075
  210MPD1    H1 3248   0.701   1.813  10.433  0.3244  1.4881 -1.1197
  210MPD1    H2 3249   0.868   2.108  10.685 -0.4394 -0.2745  0.7463
  210MPD1    H3 3250   0.828   2.015  10.459  0.7157 -0.1367 -0.0513
  210MPD1     N 3251   0.586   1.669  10.617 -0.1674 -0.4466 -0.2336
  210MPD1    H5 3252   0.566   1.649  10.520  0.2027  1.4574 -0.6962
  210MPD1    N1 3253   0.734   2.046  10.900  0.4061  0.4411  0.2570
  210MPD1    H6 3254   0.689   1.996  10.977  2.1270  0.1543  1.0797
  210MPD1    H7 3255   0.821   2.079  10.942  0.7482 -1.3981  1.0044
  211MPD1     C 3256   2.027   0.172  16.690 -0.3380  0.3331  0.2293
  211MPD1    C1 3257   2.083   0.300  16.717  0.0375 -0.0344 -0.0909
  211MPD1    C2 3258   2.070   0.403  16.624  0.0479  0.3325  0.1767
  211MPD1    C3 3259   2.013   0.369  16.498  0.2397 -0.6122  0.4843
  211MPD1    C4 3260   1.937   0.250  16.479  0.7363  0.1465  0.4098
  211MPD1    C5 3261   1.954   0.154  16.574  1.0052  0.7132 -0.0292
  211MPD1     H 3262   2.125   0.496  16.634  0.7246  0.0926 -1.3050
  211MPD1    H1 3263   1.892   0.212  16.388 -0.5493  1.6549  0.4148
  211MPD1    H2 3264   2.029   0.094  16.766 -1.9228  1.0508  1.0103
  211MPD1    H3 3265   1.914   0.055  16.557  0.5180  1.2712 -2.0783
  211MPD1     N 3266   2.005   0.485  16.414 -0.3178  0.6578  0.6775
  211MPD1    H5 3267   2.044   0.570  16.454  0.2739 -0.2084  1.9293
  211MPD1    N1 3268   2.130   0.334  16.847  0.2074  0.0329 -0.4035
  211MPD1    H6 3269   2.181   0.421  16.854  2.0560 -0.9891 -1.2668
  211MPD1    H7 3270   2.173   0.256  16.896 -0.8637  0.2806  0.9322
  212MPD1     C 3271   1.466   3.938  16.609 -0.5956 -0.4020 -0.4235
  212MPD1    C1 3272   1.396   3.980  16.721 -0.0453 -0.6988  0.0513
  212MPD1    C2 3273   1.355   3.882  16.811  0.4543  0.7449  0.9696
  212MPD1    C3 3274   1.373   3.750  16.781  0.2684  0.0485  0.4660
  212MPD1    C4 3275   1.410   3.713  16.659 -0.4214  0.7568  1.1743
  212MPD1    C5 3276   1.466   3.806  16.582 -0.4926 -0.9317 -0.3173
  212MPD1     H 3277   1.315   3.904  16.909  1.2895  2.3194  0.9539
  212MPD1    H1 3278   1.421   3.611  16.624 -3.2422  0.7570  0.2890
  212MPD1    H2 3279   1.517   4.001  16.537  1.0007  0.3315  1.3513
  212MPD1    H3 3280   1.521   3.765  16.497  2.0504  2.6954 -0.4162
  212MPD1     N 3281   1.325   3.643  16.859  0.5561  0.0846  0.0095
  212MPD1    H5 3282   1.337   3.552  16.816  0.7295  0.1669 -0.1155
  212MPD1    N1 3283   1.410   4.116  16.765 -0.3640  0.1719  0.4171
  212MPD1    H6 3284   1.405   4.182  16.688 -1.1041  1.9691  1.9933
  212MPD1    H7 3285   1.333   4.145  16.825 -1.6145  0.9916 -1.6052
  213MPD1     C 3286   4.474   4.417  16.081  0.3230  0.5096 -0.1910
  213MPD1    C1 3287   4.456   4.286  16.035  0.2393  0.2882  0.3736
  213MPD1    C2 3288   4.392   4.270  15.909  0.3833 -0.0582 -0.0308
  213MPD1    C3 3289   4.331   4.377  15.844 -0.7561  0.6891  0.6431
  213MPD1    C4 3290   4.351   4.504  15.900  0.0925  1.0631 -0.7498
  213MPD1    C5 3291   4.419   4.520  16.017  0.4035 -0.1046 -0.0832
  213MPD1     H 3292   4.379   4.169  15.872 -0.1530 -0.0944  0.2591
  213MPD1    H1 3293   4.306   4.589  15.850 -1.5515  0.3610 -0.4794
  213MPD1    H2 3294   4.513   4.442  16.179  1.3139  1.5597 -0.8656
  213MPD1    H3 3295   4.429   4.618  16.063  1.6916  0.6716 -2.0192
  213MPD1     N 3296   4.251   4.362  15.729  0.2964  0.4355 -0.0904
  213MPD1    H5 3297   4.194   4.441  15.702 -2.1206 -1.5416 -0.7952
  213MPD1    N1 3298   4.529   4.175  16.093  0.0570 -0.1247 -0.4986
  213MPD1    H6 3299   4.535   4.186  16.194 -0.2349 -0.8904 -0.4046
  213MPD1    H7 3300   4.490   4.085  16.068  1.1346 -0.8287  0.3451
  214MPD1     C 3301   3.729   3.834  14.917 -0.4594  0.1147 -0.6251
  214MPD1    C1 3302   3.748   3.798  15.047  1.0897 -0.1043 -0.8064
  214MPD1    C2 3303   3.823   3.883  15.125 -0.2847 -0.1748  0.7122
  214MPD1    C3 3304   3.875   4.004  15.078 -0.8304  0.3905  0.6875
  214MPD1    C4 3305   3.840   4.040  14.953 -0.5938 -0.1412 -0.1707
  214MPD1    C5 3306   3.769   3.953  14.873 -0.7078  0.9368 -0.0850
  214MPD1     H 3307   3.837   3.840  15.224  1.0182  0.2170  0.6937
  214MPD1    H1 3308   3.845   4.138  14.906 -1.7747  0.3135  0.6324
  214MPD1    H2 3309   3.674   3.771  14.848  1.8680 -2.0646 -0.4780
  214MPD1    H3 3310   3.748   3.983  14.771 -0.2801 -0.2119 -0.5199
  214MPD1     N 3311   3.959   4.088  15.155 -0.2178  0.7055  0.3697
  214MPD1    H5 3312   3.990   4.175  15.111 -1.2276  0.6708 -0.4175
  214MPD1    N1 3313   3.706   3.667  15.082  0.6807 -0.4300 -0.5901
  214MPD1    H6 3314   3.688   3.668  15.182  0.8653  1.0007 -0.5723
  214MPD1    H7 3315   3.634   3.620  15.027 -1.2965  1.7732  0.1321
  215MPD1     C 3316   4.276   0.781  10.649 -0.7973  0.1798  0.8010
  215MPD1    C1 3317   4.305   0.907  10.608 -1.0383 -0.1826  0.2140
  215MPD1    C2 3318   4.369   0.983  10.701  0.2877  0.5033  0.5171
  215MPD1    C3 3319   4.427   0.937  10.818  0.5261 -0.4437 -0.4419
  215MPD1    C4 3320   4.403   0.808  10.848 -1.0368 -0.0726  0.1347
  215MPD1    C5 3321   4.315   0.733  10.773 -0.0694  0.5140  0.2148
  215MPD1     H 3322   4.378   1.088  10.674 -1.0857 -0.0398 -2.0341
  215MPD1    H1 3323   4.446   0.765  10.938  0.8626  0.8480 -0.3375
  215MPD1    H2 3324   4.204   0.727  10.589  0.1821  0.7290 -0.8715
  215MPD1    H3 3325   4.280   0.638  10.811 -2.3516  1.4027  0.3547
  215MPD1     N 3326   4.514   1.028  10.882 -0.6339  0.1158  0.3295
  215MPD1    H5 3327   4.518   1.121  10.841  0.9737  0.7896  1.9483
  215MPD1    N1 3328   4.241   0.956  10.495 -0.6173 -0.5856 -0.1618
  215MPD1    H6 3329   4.242   0.897  10.412 -3.2182 -0.1305 -0.5335
  215MPD1    H7 3330   4.291   1.039  10.462 -2.0291  0.0868 -0.6287
  216MPD1     C 3331   1.151   2.706   0.104  0.6193  0.5889 -1.3343
  216MPD1    C1 3332   1.090   2.594   0.043  0.1054 -0.0784 -0.0340
  216MPD1    C2 3333   1.165   2.479   0.029  0.3925  0.6071 -0.1466
  216MPD1    C3 3334   1.302   2.477   0.070 -0.4874  0.1855  0.5252
  216MPD1    C4 3335   1.361   2.591   0.122  0.0407  0.2844  0.2264
  216MPD1    C5 3336   1.280   2.701   0.140  0.3950 -0.1869  0.0878
  216MPD1     H 3337   1.113   2.393  17.737  0.9651  0.4771 -0.5957
  216MPD1    H1 3338   1.462   2.594   0.160 -0.2929 -1.9957  1.3077
  216MPD1    H2 3339   1.101   2.802   0.112 -1.3801 -0.3556 -2.2150
  216MPD1    H3 3340   1.319   2.798   0.167  3.7394 -1.5953  0.2908
  216MPD1     N 3341   1.366   2.352   0.047 -0.1089 -0.0895  0.0662
  216MPD1    H5 3342   1.316   2.273   0.008  2.4369 -0.7550 -1.8484
  216MPD1    N1 3343   0.962   2.603  17.746  0.7067 -0.0969 -0.5716
  216MPD1    H6 3344   0.957   2.586  17.645  0.2662 -0.5888 -0.4645
  216MPD1    H7 3345   0.922   2.694   0.020  0.1104 -0.9053  1.5858
  217MPD1     C 3346   2.980   1.036   9.108 -0.2191 -0.0376 -0.1611
  217MPD1    C1 3347   2.842   1.003   9.125 -0.6705 -0.8208  0.1251
  217MPD1    C2 3348   2.797   0.930   9.231  0.0670  0.3122 -0.4187
  217MPD1    C3 3349   2.888   0.894   9.330  0.0892  1.1396  0.0319
  217MPD1    C4 3350   3.018   0.931   9.316  0.2263  0.1405  0.1871
  217MPD1    C5 3351   3.066   1.003   9.208  0.4604  0.1371 -0.2297
  217MPD1     H 3352   2.697   0.887   9.227  1.0666 -2.0429 -0.2463
  217MPD1    H1 3353   3.093   0.908   9.391 -1.3669 -3.1251  0.7817
  217MPD1    H2 3354   3.024   1.082   9.020 -0.4966 -1.1025 -0.8610
  217MPD1    H3 3355   3.171   1.031   9.206  0.5093 -0.0728 -0.6830
  217MPD1     N 3356   2.861   0.798   9.433  0.2375  0.3689  0.1088
  217MPD1    H5 3357   2.939   0.752   9.478 -1.2963 -2.9481 -0.6932
  217MPD1    N1 3358   2.754   1.029   9.023  0.4236  0.1484 -0.1254
  217MPD1    H6 3359   2.654   1.027   9.044  0.4256  2.9501  0.1923
  217MPD1    H7 3360   2.779   1.105   8.959 -2.1037 -0.5537 -1.9680
  218MPD1     C 3361   3.727   1.031  12.719 -0.1920  0.2261 -0.1882
  218MPD1    C1 3362   3.790   0.930  12.656  0.8083 -0.0335  0.0666
  218MPD1    C2 3363   3.909   0.960  12.581 -1.3340 -0.5635 -0.3086
  218MPD1    C3 3364   3.942   1.093  12.568  0.1441 -0.3162 -0.5271
  218MPD1    C4 3365   3.890   1.189  12.644 -0.5561  0.1487  0.3989
  218MPD1    C5 3366   3.779   1.162  12.720 -0.5708 -0.0825  0.6885
  218MPD1     H 3367   3.960   0.880  12.529  0.9728  2.0521 -2.1233
  218MPD1    H1 3368   3.938   1.283  12.665 -1.9321  0.8564  0.3480
  218MPD1    H2 3369   3.637   1.018  12.779  2.5192 -1.4725  3.5269
  218MPD1    H3 3370   3.740   1.247  12.775  1.1308  1.9402 -1.2249
  218MPD1     N 3371   4.056   1.128  12.484 -0.7503  0.4765  0.0385
  218MPD1    H5 3372   4.091   1.049  12.431 -3.7999 -0.6542 -0.3201
  218MPD1    N1 3373   3.752   0.799  12.673  0.3334  0.2162  0.6631
  218MPD1    H6 3374   3.652   0.786  12.692  0.4326  0.8317  1.5817
  218MPD1    H7 3375   3.757   0.744  12.587 -0.9467 -0.0173  0.7236
  219MPD1     C 3376   4.531   1.906  11.993  0.5810  0.2771 -0.1699
  219MPD1    C1 3377   4.594   1.883  12.117  0.4287 -0.8834  0.1668
  219MPD1    C2 3378   4.569   1.759  12.181  0.3784  0.0603 -0.1341
  219MPD1    C3 3379   4.480   1.675  12.117 -0.3194 -0.3537  0.3465
  219MPD1    C4 3380   4.424   1.696  11.993  1.0868  0.2936 -0.3179
  219MPD1    C5 3381   4.452   1.814  11.925  0.3558  0.0331 -0.3293
  219MPD1     H 3382   4.617   1.731  12.274  2.5985 -0.7105 -1.5049
  219MPD1    H1 3383   4.352   1.633  11.943 -0.0709  1.7039 -0.4267
  219MPD1    H2 3384   4.544   2.003  11.946 -0.3760  1.6656  2.4259
  219MPD1    H3 3385   4.400   1.844  11.834 -0.2175  2.3630  0.7899
  219MPD1     N 3386   4.433   1.557  12.181 -0.1966  0.2338 -0.1840
  219MPD1    H5 3387   4.361   1.503  12.135 -0.2979 -0.2453  0.5373
  219MPD1    N1 3388   4.685   1.977  12.163 -0.2476 -0.2495  0.3894
  219MPD1    H6 3389   4.692   1.984  12.264  1.2584 -1.0218  0.3406
  219MPD1    H7 3390   4.673   2.072  12.129 -1.9195  0.2796  2.4863
  220MPD1     C 3391   3.461   2.411  10.650 -0.3377  0.5260  1.4183
  220MPD1    C1 3392   3.595   2.404  10.644 -0.6062 -0.3846  0.4790
  220MPD1    C2 3393   3.663   2.292  10.684  0.2184 -0.9678  0.3234
  220MPD1    C3 3394   3.596   2.194  10.751 -0.4175  0.5160 -0.1277
  220MPD1    C4 3395   3.467   2.211  10.783  0.2454  0.3921 -1.1609
  220MPD1    C5 3396   3.400   2.319  10.732 -0.1602  0.2069  0.4443
  220MPD1     H 3397   3.770   2.288  10.664  0.5611  2.5776  1.3828
  220MPD1    H1 3398   3.409   2.130  10.824  0.2952 -0.8319 -3.5009
  220MPD1    H2 3399   3.395   2.490  10.614 -1.6136 -1.2340 -0.1497
  220MPD1    H3 3400   3.293   2.321  10.743  0.0161  0.2809  2.2275
  220MPD1     N 3401   3.665   2.082  10.804  0.6477  0.4938  0.4089
  220MPD1    H5 3402   3.761   2.075  10.772  0.5735 -2.1306  0.7504
  220MPD1    N1 3403   3.658   2.510  10.578  0.0582 -0.4385 -0.0130
  220MPD1    H6 3404   3.624   2.602  10.605 -0.8957 -0.7791 -0.0757
  220MPD1    H7 3405   3.758   2.513  10.598  0.1301 -0.2110 -0.4036
  221MPD1     C 3406   1.385   0.604  15.540  1.0668  0.3518 -0.4434
  221MPD1    C1 3407   1.376   0.477  15.598  0.2190 -0.5852 -0.9133
  221MPD1    C2 3408   1.487   0.424  15.662 -0.8487 -0.2085  0.5125
  221MPD1    C3 3409   1.605   0.501  15.676  0.0990  0.8439 -0.3929
  221MPD1    C4 3410   1.607   0.627  15.626 -0.0731 -1.1531  0.5032
  221MPD1    C5 3411   1.504   0.678  15.547  0.3976  0.1940  0.2458
  221MPD1     H 3412   1.482   0.317  15.680 -0.5489 -0.4639 -0.8552
  221MPD1    H1 3413   1.684   0.703  15.636  0.1216 -1.2525 -0.2725
  221MPD1    H2 3414   1.308   0.651  15.481  0.3634  0.0014  0.1859
  221MPD1    H3 3415   1.519   0.768  15.488  2.1652 -0.8585 -0.9050
  221MPD1     N 3416   1.718   0.448  15.730  0.2779 -0.1609  0.1739
  221MPD1    H5 3417   1.799   0.509  15.724  0.0530  0.3332  1.9836
  221MPD1    N1 3418   1.267   0.394  15.566  0.6337 -0.4569 -0.0805
  221MPD1    H6 3419   1.238   0.328  15.638 -1.6046  0.5324 -0.0857
  221MPD1    H7 3420   1.187   0.456  15.551  2.2270  2.3027  2.6561
  222MPD1     C 3421   1.260   3.420   1.858  0.0423 -0.3261 -0.4451
  222MPD1    C1 3422   1.377   3.456   1.804 -0.1579 -0.3485 -0.1268
  222MPD1    C2 3423   1.374   3.542   1.694  0.1569 -0.0206  0.5456
  222MPD1    C3 3424   1.252   3.567   1.634 -0.0969  0.0895 -0.4544
  222MPD1    C4 3425   1.133   3.514   1.685  0.4541 -0.2679 -0.5914
  222MPD1    C5 3426   1.138   3.444   1.800  0.3014 -0.6297  0.0398
  222MPD1     H 3427   1.464   3.583   1.652  0.9489 -1.0082  1.2777
  222MPD1    H1 3428   1.037   3.536   1.641  0.5594 -2.4334 -1.9224
  222MPD1    H2 3429   1.260   3.350   1.941  0.8091 -1.1065 -1.1054
  222MPD1    H3 3430   1.047   3.400   1.840  0.3233  1.1426  2.0571
  222MPD1     N 3431   1.250   3.631   1.507 -0.0450  0.5060  0.4321
  222MPD1    H5 3432   1.156   3.647   1.474 -0.1394  1.6623  1.2486
  222MPD1    N1 3433   1.489   3.444   1.883  0.3372 -0.1032 -0.1447
  222MPD1    H6 3434   1.572   3.441   1.824  2.0155 -0.3742  2.2413
  222MPD1    H7 3435   1.483   3.353   1.929  2.4781  0.0788  0.5284
  223MPD1     C 3436   0.555   3.525   1.148 -0.2842  0.8259  0.3963
  223MPD1    C1 3437   0.625   3.513   1.268  0.2999  1.2155  0.0918
  223MPD1    C2 3438   0.760   3.540   1.267 -0.7063 -0.0139 -0.5874
  223MPD1    C3 3439   0.820   3.582   1.152 -0.6539 -1.0320  0.2824
  223MPD1    C4 3440   0.751   3.591   1.034  0.4459  0.3037  0.3995
  223MPD1    C5 3441   0.616   3.568   1.034 -0.3642  0.1805 -0.2277
  223MPD1     H 3442   0.812   3.541   1.363 -1.4323  0.3052 -0.1952
  223MPD1    H1 3443   0.784   3.630   0.938 -1.6027  0.2520 -0.3047
  223MPD1    H2 3444   0.448   3.507   1.148 -0.3335  1.1238  3.1832
  223MPD1    H3 3445   0.563   3.573   0.940 -0.2910 -2.2559 -0.3858
  223MPD1     N 3446   0.956   3.618   1.158 -0.1400  0.2990 -0.6070
  223MPD1    H5 3447   0.986   3.642   1.252 -0.4589  0.0544 -0.4439
  223MPD1    N1 3448   0.566   3.459   1.387 -0.5030 -0.5270  0.7789
  223MPD1    H6 3449   0.467   3.483   1.390 -0.0114  1.7140 -0.6361
  223MPD1    H7 3450   0.607   3.503   1.469  0.2534  1.0382 -0.4226
  224MPD1     C 3451   2.970   0.853   9.770  0.1510  0.1403 -1.1299
  224MPD1    C1 3452   2.848   0.918   9.764  0.1784 -0.7040 -0.3865
  224MPD1    C2 3453   2.740   0.855   9.819 -0.5489  0.1551  0.0393
  224MPD1    C3 3454   2.751   0.725   9.870  0.0070  0.3320  0.1002
  224MPD1    C4 3455   2.875   0.660   9.871 -0.5401  0.5681  0.4523
  224MPD1    C5 3456   2.982   0.730   9.820  0.0185  0.0096  0.1804
  224MPD1     H 3457   2.650   0.916   9.817 -1.7047 -1.6132 -2.1067
  224MPD1    H1 3458   2.892   0.558   9.904 -1.5527 -0.5816 -2.6011
  224MPD1    H2 3459   3.057   0.900   9.725  0.1692  0.0758 -1.1626
  224MPD1    H3 3460   3.079   0.680   9.819  0.1382  0.2086  2.8058
  224MPD1     N 3461   2.636   0.664   9.910 -0.2069 -0.3524 -0.3224
  224MPD1    H5 3462   2.645   0.574   9.956  0.5029 -0.3979 -0.5569
  224MPD1    N1 3463   2.833   1.051   9.732 -0.5676  0.3545  0.9145
  224MPD1    H6 3464   2.913   1.063   9.670  0.6973  1.3033  2.7140
  224MPD1    H7 3465   2.747   1.065   9.680 -1.2799 -0.7405  1.8071
  225MPD1     C 3466   4.301   1.855  12.383  0.4089 -0.4746 -0.2433
  225MPD1    C1 3467   4.205   1.904  12.294 -0.8321 -0.1862  0.1547
  225MPD1    C2 3468   4.073   1.907  12.331 -0.1738  0.0725 -0.2955
  225MPD1    C3 3469   4.037   1.843  12.454  0.7010  0.7248  0.1005
  225MPD1    C4 3470   4.136   1.781  12.527 -0.4923  0.7783 -0.5375
  225MPD1    C5 3471   4.264   1.783  12.492  0.2668  0.8790  0.0095
  225MPD1     H 3472   4.006   1.958  12.263 -1.0660 -1.5858 -0.6375
  225MPD1    H1 3473   4.112   1.720  12.614 -2.7645  1.4339 -0.7036
  225MPD1    H2 3474   4.407   1.844  12.362  0.6961  0.1372  0.8606
  225MPD1    H3 3475   4.340   1.725  12.543 -0.0969  1.4294  1.1679
  225MPD1     N 3476   3.905   1.828  12.500  1.1604 -0.2531  0.2515
  225MPD1    H5 3477   3.900   1.779  12.589  0.6672  0.6789  0.7358
  225MPD1    N1 3478   4.242   1.974  12.184  0.2892  0.0642 -0.3202
  225MPD1    H6 3479   4.166   1.989  12.117  0.5889 -0.3355 -0.7465
  225MPD1    H7 3480   4.323   1.933  12.138  0.7282 -1.4556  1.8539
  226MPD1     C 3481   1.029   2.046   9.440 -0.2078  0.0680 -0.0636
  226MPD1    C1 3482   1.140   2.119   9.469  0.4992  0.4722 -0.4318
  226MPD1    C2 3483   1.251   2.055   9.502 -0.7525  0.4500 -0.3721
  226MPD1    C3 3484   1.258   1.920   9.500 -0.5681 -0.0229  0.5423
  226MPD1    C4 3485   1.145   1.844   9.470  0.2521 -0.5978  0.0766
  226MPD1    C5 3486   1.030   1.905   9.433  0.6439  0.0228  0.0189
  226MPD1     H 3487   1.332   2.124   9.525  0.4538 -1.0770 -0.0575
  226MPD1    H1 3488   1.137   1.736   9.463  0.0984 -0.5657 -0.3072
  226MPD1    H2 3489   0.939   2.097   9.407 -1.1019 -0.2658  1.8714
  226MPD1    H3 3490   0.945   1.846   9.400  0.0566  0.4930  0.6796
  226MPD1     N 3491   1.388   1.866   9.542 -1.3127 -0.6005 -0.2054
  226MPD1    H5 3492   1.456   1.940   9.558 -0.1809 -1.2674 -1.9104
  226MPD1    N1 3493   1.130   2.257   9.482 -0.1740  0.8018 -0.0672
  226MPD1    H6 3494   1.047   2.278   9.426  2.0117  2.0430 -2.8038
  226MPD1    H7 3495   1.212   2.302   9.442  1.3199 -0.1493  1.9276
  227MPD1     C 3496   2.322   2.055   9.799 -0.0877 -0.1526  0.3753
  227MPD1    C1 3497   2.314   1.930   9.843 -0.2306  0.1352 -0.5073
  227MPD1    C2 3498   2.194   1.868   9.842  0.0749  0.1168 -0.5354
  227MPD1    C3 3499   2.079   1.931   9.798 -0.2882 -0.6050 -0.2072
  227MPD1    C4 3500   2.082   2.062   9.758 -0.1533  0.1050 -0.5393
  227MPD1    C5 3501   2.206   2.129   9.770  1.1391  0.9384  0.2381
  227MPD1     H 3502   2.193   1.761   9.860  0.9084 -0.2296 -2.5348
  227MPD1    H1 3503   1.993   2.110   9.719  1.9917  1.0671 -4.2156
  227MPD1    H2 3504   2.418   2.104   9.806  1.3328 -2.4489 -3.3013
  227MPD1    H3 3505   2.216   2.229   9.730  1.7730  0.9281  0.3785
  227MPD1     N 3506   1.960   1.848   9.783 -0.2840  0.0383 -0.4567
  227MPD1    H5 3507   1.974   1.749   9.801  0.4079 -0.0516 -1.5309
  227MPD1    N1 3508   2.428   1.850   9.868 -1.0269  0.7159 -0.1284
  227MPD1    H6 3509   2.502   1.895   9.922 -2.0186  0.3891  1.5183
  227MPD1    H7 3510   2.398   1.763   9.910  1.7483  0.4625  1.3499
  228MPD1     C 3511   1.206   4.265  12.650 -0.1139 -0.2537  0.0127
  228MPD1    C1 3512   1.137   4.180  12.734 -0.0192 -0.0829  0.3594
  228MPD1    C2 3513   1.013   4.136  12.693 -0.0140 -0.1847 -0.2703
  228MPD1    C3 3514   0.959   4.197  12.581 -0.0618  0.8841  0.0712
  228MPD1    C4 3515   1.020   4.297  12.513 -0.6788 -0.2668 -0.3072
  228MPD1    C5 3516   1.151   4.323  12.538  0.0349  0.0438 -0.0061
  228MPD1     H 3517   0.959   4.058  12.745  2.1482 -0.6981  1.2105
  228MPD1    H1 3518   0.992   4.338  12.417  1.0118 -2.5136 -1.7469
  228MPD1    H2 3519   1.308   4.290  12.676 -1.1784  1.8966  2.0984
  228MPD1    H3 3520   1.204   4.397  12.479 -0.0777 -0.4479 -0.7319
  228MPD1     N 3521   0.827   4.161  12.551  0.1690 -0.4558  0.3184
  228MPD1    H5 3522   0.788   4.103  12.625 -2.2378  0.5960 -0.1472
  228MPD1    N1 3523   1.214   4.109  12.830  0.5291 -0.0809 -0.6190
  228MPD1    H6 3524   1.164   4.080  12.914  1.9866 -0.4211  0.1315
  228MPD1    H7 3525   1.306   4.149  12.848  0.3322  0.2738 -0.3927
  229MPD1     C 3526   0.260   2.758  14.924  0.3833 -0.4123  0.0917
  229MPD1    C1 3527   0.329   2.667  14.845 -0.1315 -0.0172  0.7073
  229MPD1    C2 3528   0.454   2.638  14.890 -0.6529  0.4613  0.2913
  229MPD1    C3 3529   0.486   2.638  15.028 -0.1400  0.1410 -0.3279
  229MPD1    C4 3530   0.409   2.713  15.107 -0.2189  0.4701 -0.6843
  229MPD1    C5 3531   0.307   2.790  15.055 -0.3643  0.9105 -0.6012
  229MPD1     H 3532   0.524   2.594  14.818  1.7508 -0.5169  3.2129
  229MPD1    H1 3533   0.421   2.737  15.212  2.0751  2.7301 -1.4565
  229MPD1    H2 3534   0.174   2.803  14.877  1.4662  0.5077 -0.9997
  229MPD1    H3 3535   0.242   2.852  15.115  0.7412 -0.3264  1.8788
  229MPD1     N 3536   0.595   2.571  15.095 -0.2776  0.5717 -0.0548
  229MPD1    H5 3537   0.596   2.567  15.196  0.7648 -2.5904 -0.1840
  229MPD1    N1 3538   0.294   2.667  14.708 -1.1010 -0.2566  0.6335
  229MPD1    H6 3539   0.339   2.591  14.658 -1.3770 -2.6003  3.9092
  229MPD1    H7 3540   0.193   2.662  14.698 -0.8665  0.9755 -2.3536
  230MPD1     C 3541   0.846   2.220  15.965  0.7608  0.5976  0.3856
  230MPD1    C1 3542   0.962   2.213  15.900  0.6131 -0.3842 -0.0036
  230MPD1    C2 3543   0.960   2.211  15.758  0.1119  0.3257  0.5279
  230MPD1    C3 3544   0.855   2.256  15.691 -0.3089 -0.0962  0.2320
  230MPD1    C4 3545   0.743   2.291  15.767 -0.0453  0.3496 -0.3739
  230MPD1    C5 3546   0.736   2.281  15.900 -0.0055 -0.3118 -0.1521
  230MPD1     H 3547   1.052   2.191  15.705 -1.3175 -1.9467 -1.0292
  230MPD1    H1 3548   0.664   2.345  15.718  0.1098 -1.4390 -2.6501
  230MPD1    H2 3549   0.835   2.222  16.072  0.9434 -0.7021  0.4318
  230MPD1    H3 3550   0.656   2.318  15.963  0.2982 -0.1929  0.1715
  230MPD1     N 3551   0.860   2.273  15.552  1.3431 -0.0920 -0.5802
  230MPD1    H5 3552   0.946   2.247  15.504  0.3924  0.9251 -2.8389
  230MPD1    N1 3553   1.078   2.167  15.970  0.2734 -0.2695  0.1394
  230MPD1    H6 3554   1.168   2.191  15.931  0.0231 -1.5576 -1.2168
  230MPD1    H7 3555   1.073   2.199  16.067 -3.0361 -0.9420  0.2047
  231MPD1     C 3556   3.380   4.384  15.680 -0.4480 -0.7324 -0.4251
  231MPD1    C1 3557   3.396   4.307  15.566 -0.0010  0.2306  0.7054
  231MPD1    C2 3558   3.468   4.356  15.458 -0.0048  0.2073 -0.4295
  231MPD1    C3 3559   3.543   4.469  15.471  0.8741  1.1689 -0.4529
  231MPD1    C4 3560   3.541   4.536  15.591  0.3593 -0.2055  0.2007
  231MPD1    C5 3561   3.460   4.490  15.694 -0.4072 -0.0137  0.3864
  231MPD1     H 3562   3.480   4.307  15.362  0.4458 -1.4159  0.4538
  231MPD1    H1 3563   3.604   4.622  15.608 -0.0225  0.0819  0.1616
  231MPD1    H2 3564   3.324   4.356  15.769  1.8631  0.4730  1.3871
  231MPD1    H3 3565   3.448   4.544  15.787 -0.5458  2.2429 -0.9556
  231MPD1     N 3566   3.619   4.515  15.357 -0.0074  0.2642  0.2063
  231MPD1    H5 3567   3.622   4.457  15.273  0.2338  1.2792 -0.4944
  231MPD1    N1 3568   3.309   4.196  15.543 -0.4502 -0.1268  0.1382
  231MPD1    H6 3569   3.309   4.140  15.628 -1.1878  1.3708  1.1256
  231MPD1    H7 3570   3.347   4.143  15.465  0.4874  0.0997  0.4444
  232MPD1     C 3571   1.101   2.094   0.308  0.4502  0.0272  0.3377
  232MPD1    C1 3572   1.034   1.971   0.316  0.3979 -0.8228  0.7907
  232MPD1    C2 3573   0.928   1.951   0.235 -1.3555  0.3729 -0.6998
  232MPD1    C3 3574   0.890   2.047   0.137  0.0618 -0.0426  0.4488
  232MPD1    C4 3575   0.962   2.170   0.130 -0.4600  0.1166 -0.3881
  232MPD1    C5 3576   1.063   2.193   0.219  1.4847 -0.5119 -0.3361
  232MPD1     H 3577   0.867   1.862   0.247  1.2464 -1.3037  0.0004
  232MPD1    H1 3578   0.931   2.253   0.068  1.5114  1.8258  0.8961
  232MPD1    H2 3579   1.176   2.125   0.379  1.7082 -1.4392 -0.3660
  232MPD1    H3 3580   1.086   2.298   0.230  2.1972 -0.6178 -0.8340
  232MPD1     N 3581   0.764   2.025   0.073  0.3967  0.0163 -0.4408
  232MPD1    H5 3582   0.711   1.939   0.085  0.7506 -0.1387  0.0407
  232MPD1    N1 3583   1.076   1.872   0.407 -0.2284  0.6688  0.1571
  232MPD1    H6 3584   1.174   1.878   0.435 -0.2935  0.1559  0.4962
  232MPD1    H7 3585   1.048   1.776   0.386 -1.5783  0.3789  3.3535
  233MPD1     C 3586   0.875   3.924   1.031  0.6056 -0.2861 -0.7865
  233MPD1    C1 3587   0.892   3.948   1.166 -0.0762 -0.9359 -0.0266
  233MPD1    C2 3588   0.998   4.024   1.204 -1.1338  0.4693  0.3364
  233MPD1    C3 3589   1.083   4.078   1.109  0.1816  0.5490 -0.3236
  233MPD1    C4 3590   1.050   4.062   0.976  0.5830 -0.2337  0.8019
  233MPD1    C5 3591   0.950   3.983   0.937 -0.3801 -0.2750 -0.2746
  233MPD1     H 3592   1.023   4.050   1.306  0.4094  3.2991 -0.7528
  233MPD1    H1 3593   1.108   4.094   0.890  0.3225 -0.7046  0.4524
  233MPD1    H2 3594   0.797   3.858   0.995  1.4313 -1.3709 -0.5786
  233MPD1    H3 3595   0.935   3.958   0.833  0.3804 -1.3562 -0.1273
  233MPD1     N 3596   1.193   4.167   1.136  0.3246 -0.3487  0.5140
  233MPD1    H5 3597   1.240   4.213   1.059 -1.6100 -1.3852 -1.2771
  233MPD1    N1 3598   0.796   3.894   1.256 -0.1640  0.2214 -0.0922
  233MPD1    H6 3599   0.707   3.873   1.212 -0.4284  0.8675  0.1305
  233MPD1    H7 3600   0.782   3.951   1.339  2.5661 -0.9010  1.1380
  234MPD1     C 3601   3.688   4.286  10.240 -0.1091 -0.1741  0.0192
  234MPD1    C1 3602   3.713   4.409  10.182  0.0030 -0.1970 -0.3762
  234MPD1    C2 3603   3.630   4.508  10.207 -0.5899  0.7775  0.3403
  234MPD1    C3 3604   3.528   4.492  10.294 -0.6574 -0.3086  0.0525
  234MPD1    C4 3605   3.507   4.373  10.354 -0.6696 -0.6899 -0.3392
  234MPD1    C5 3606   3.581   4.268  10.319  0.3103 -0.0108  0.5911
  234MPD1     H 3607   3.653   4.609  10.175  2.5376  0.1510  0.6232
  234MPD1    H1 3608   3.422   4.352  10.417 -0.6680  0.1262 -0.0682
  234MPD1    H2 3609   3.763   4.210  10.223  0.1999 -0.1805  1.4033
  234MPD1    H3 3610   3.563   4.168  10.356  0.9513 -0.9044 -1.5042
  234MPD1     N 3611   3.445   4.608  10.323 -0.2487 -0.0877  0.3896
  234MPD1    H5 3612   3.459   4.688  10.262 -3.1912 -1.3366 -1.9198
  234MPD1    N1 3613   3.841   4.441  10.131  0.6246  0.5362  0.2659
  234MPD1    H6 3614   3.842   4.519  10.065  0.4744 -0.0748 -0.4668
  234MPD1    H7 3615   3.887   4.362  10.085 -1.9887  0.2185 -1.7904
  235MPD1     C 3616   4.250   2.054  10.403  0.6424 -0.1416 -0.0338
  235MPD1    C1 3617   4.217   2.130  10.293  0.0058 -0.5115 -0.1790
  235MPD1    C2 3618   4.311   2.213  10.232 -0.6076  0.6141  0.4328
  235MPD1    C3 3619   4.439   2.233  10.285 -0.5715 -0.2141  0.3228
  235MPD1    C4 3620   4.467   2.167  10.402  0.2387  0.1517 -1.1356
  235MPD1    C5 3621   4.373   2.083  10.458  0.1450  0.0383 -0.5276
  235MPD1     H 3622   4.289   2.271  10.143  0.8357  3.1845  1.7437
  235MPD1    H1 3623   4.554   2.181  10.465 -0.3594  0.4412 -0.3722
  235MPD1    H2 3624   4.182   1.991  10.459  0.2594 -0.1529 -0.5186
  235MPD1    H3 3625   4.399   2.047  10.557  1.3360 -0.4133 -1.0009
  235MPD1     N 3626   4.512   2.347  10.233  0.0174  0.2149  0.0808
  235MPD1    H5 3627   4.465   2.420  10.181  0.1986 -0.8436 -1.5430
  235MPD1    N1 3628   4.106   2.096  10.213  0.2371  0.2636 -0.0845
  235MPD1    H6 3629   4.085   2.162  10.138 -1.9237 -2.5574 -1.9410
  235MPD1    H7 3630   4.027   2.077  10.274 -1.3836  2.2971 -1.5462
  236MPD1     C 3631   3.506   3.022   9.923 -1.0608 -0.0853 -0.3951
  236MPD1    C1 3632   3.595   3.127   9.933  0.5200 -0.2819 -0.2519
  236MPD1    C2 3633   3.693   3.124  10.030 -0.0011  0.1490  0.9312
  236MPD1    C3 3634   3.697   3.036  10.129 -0.1636  0.2451 -0.3692
  236MPD1    C4 3635   3.613   2.936  10.120  0.1304 -0.2827 -0.0923
  236MPD1    C5 3636   3.510   2.927  10.019  0.1599 -0.1495 -0.5756
  236MPD1     H 3637   3.773   3.197  10.029  0.9624 -0.9586 -2.7430
  236MPD1    H1 3638   3.613   2.848  10.183  1.2262 -1.0891 -1.2307
  236MPD1    H2 3639   3.435   3.014   9.842 -1.0046 -0.1714 -0.4362
  236MPD1    H3 3640   3.450   2.837  10.021  0.3324 -0.2078  2.0012
  236MPD1     N 3641   3.798   3.021  10.229 -0.8536 -0.5641  0.4340
  236MPD1    H5 3642   3.785   2.946  10.295 -0.1916  1.2368  2.5939
  236MPD1    N1 3643   3.604   3.214   9.823 -0.6296  0.0720 -0.0595
  236MPD1    H6 3644   3.647   3.306   9.838 -0.9601 -0.0961  1.7776
  236MPD1    H7 3645   3.522   3.225   9.764  1.5235  0.1740 -3.0678
  237MPD1     C 3646   3.920   0.945  14.550 -0.3999  0.6766  0.4968
  237MPD1    C1 3647   3.925   0.856  14.654  0.0212  0.8271  0.4719
  237MPD1    C2 3648   3.813   0.827  14.721  0.3854  0.4403 -0.2963
  237MPD1    C3 3649   3.699   0.899  14.709  0.3527 -0.5235  0.0680
  237MPD1    C4 3650   3.702   1.006  14.618  0.5795 -0.2706 -0.6494
  237MPD1    C5 3651   3.808   1.018  14.534  0.3676 -0.0865 -0.6312
  237MPD1     H 3652   3.816   0.761  14.808 -0.4452  0.9634  0.1270
  237MPD1    H1 3653   3.618   1.073  14.611  0.3617 -0.2445  2.2410
  237MPD1    H2 3654   4.003   0.969  14.485 -0.1913  1.4290  1.0335
  237MPD1    H3 3655   3.803   1.090  14.452  0.6469 -0.0177 -0.5895
  237MPD1     N 3656   3.582   0.877  14.781  0.0519 -0.7388  0.2820
  237MPD1    H5 3657   3.509   0.947  14.775 -0.3651 -1.4840 -3.1015
  237MPD1    N1 3658   4.040   0.774  14.669 -0.0193  0.7286  0.2203
  237MPD1    H6 3659   4.118   0.828  14.634  1.1303  0.3908  2.2659
  237MPD1    H7 3660   4.055   0.741  14.764  2.4786  0.4024 -0.3064
  238MPD1     C 3661   1.040   4.200  14.899  0.0540  0.2938  0.5037
  238MPD1    C1 3662   0.932   4.143  14.976 -0.7560 -0.0895 -0.2804
  238MPD1    C2 3663   0.807   4.151  14.917 -0.0786  0.2565 -0.0273
  238MPD1    C3 3664   0.783   4.221  14.795  0.2112  0.0589  0.6649
  238MPD1    C4 3665   0.890   4.280  14.727  0.0855 -0.5846  0.4184
  238MPD1    C5 3666   1.019   4.264  14.780  0.0345 -0.6285 -0.2253
  238MPD1     H 3667   0.730   4.102  14.976  1.9472  0.6022  2.8893
  238MPD1    H1 3668   0.875   4.319  14.627  1.7535 -1.1982 -0.0690
  238MPD1    H2 3669   1.143   4.198  14.935  0.2622 -1.0081 -0.1662
  238MPD1    H3 3670   1.103   4.318  14.739 -0.1932 -0.1762 -0.1014
  238MPD1     N 3671   0.658   4.209  14.731 -0.5390  0.1022 -0.2568
  238MPD1    H5 3672   0.641   4.270  14.652 -2.4515  1.2357  1.0274
  238MPD1    N1 3673   0.946   4.055  15.084  0.2093 -0.0275 -0.0677
  238MPD1    H6 3674   1.040   4.059  15.124  0.2432  0.3872 -0.1885
  238MPD1    H7 3675   0.872   4.050  15.153  0.7558  1.2504  0.6238
  239MPD1     C 3676   0.883   4.693  14.966  0.5172  0.2740 -0.1666
  239MPD1    C1 3677   0.995   4.734  14.893 -0.0285 -0.2717 -0.4697
  239MPD1    C2 3678   0.982   0.106  14.809 -0.3859  0.1102  0.0942
  239MPD1    C3 3679   0.858   0.164  14.787  0.6941  0.2153  0.1565
  239MPD1    C4 3680   0.758   0.131  14.873 -0.1506  0.1665 -0.2061
  239MPD1    C5 3681   0.776   0.029  14.962  0.4260 -0.4091  1.0083
  239MPD1     H 3682   1.072   0.128  14.753 -0.4325  0.1971  0.0539
  239MPD1    H1 3683   0.660   0.178  14.873  0.8137  2.1348 -0.2694
  239MPD1    H2 3684   0.895   4.610  15.034 -2.2601 -1.5455 -1.8977
  239MPD1    H3 3685   0.686   0.008  15.020 -0.4366  1.4349  0.3518
  239MPD1     N 3686   0.837   0.274  14.701  0.3951  0.5699 -0.4332
  239MPD1    H5 3687   0.747   0.321  14.708  0.4422  0.2876  2.0544
  239MPD1    N1 3688   1.106   4.648  14.872 -0.4903 -0.5783 -0.5264
  239MPD1    H6 3689   1.198   4.688  14.855  0.0351 -2.0124 -1.0728
  239MPD1    H7 3690   1.111   4.573  14.941 -1.3880 -0.9015 -0.8168
  240MPD1     C 3691   0.614   0.291  13.864  0.1710 -0.3721  0.4305
  240MPD1    C1 3692   0.653   0.253  13.989  0.9272 -0.0527 -0.3641
  240MPD1    C2 3693   0.566   0.171  14.059 -0.0700 -0.3593  0.9849
  240MPD1    C3 3694   0.450   0.118  14.004 -0.7265 -0.4531 -0.1873
  240MPD1    C4 3695   0.412   0.157  13.874 -0.2482  0.2395 -0.0087
  240MPD1    C5 3696   0.499   0.239  13.807 -0.0911 -1.0485 -0.5267
  240MPD1     H 3697   0.579   0.139  14.161  1.3224  0.2223  0.9831
  240MPD1    H1 3698   0.321   0.124  13.826 -0.3271  1.2846 -0.5733
  240MPD1    H2 3699   0.669   0.371  13.814  3.1724 -0.9007  2.8908
  240MPD1    H3 3700   0.458   0.281  13.716  0.3318 -2.4617 -1.3708
  240MPD1     N 3701   0.371   0.039  14.093 -0.0126  1.0146 -0.1174
  240MPD1    H5 3702   0.414   0.029  14.185  0.3028 -1.1458 -0.5087
  240MPD1    N1 3703   0.762   0.315  14.046 -0.3483 -0.1387 -0.3884
  240MPD1    H6 3704   0.790   0.260  14.127 -3.1769  0.0384  0.7460
  240MPD1    H7 3705   0.841   0.336  13.986 -0.2822  0.1663 -0.1903
  241MPD1     C 3706   0.298   4.387  15.026  0.5880 -0.1639 -0.2892
  241MPD1    C1 3707   0.400   4.411  14.947 -0.5647 -0.2623 -0.1811
  241MPD1    C2 3708   0.373   4.463  14.823  0.5133  0.2174  0.2378
  241MPD1    C3 3709   0.243   4.491  14.777 -0.1729  0.4352 -0.2376
  241MPD1    C4 3710   0.142   4.478  14.866  0.0332 -0.3826  0.4004
  241MPD1    C5 3711   0.174   4.426  14.990 -0.4294 -0.2437 -0.5376
  241MPD1     H 3712   0.459   4.490  14.765 -0.3203  0.2422 -0.9858
  241MPD1    H1 3713   0.038   4.498  14.840  0.1780 -1.8492 -1.2828
  241MPD1    H2 3714   0.309   4.350  15.127  0.0325 -0.7991 -0.4582
  241MPD1    H3 3715   0.099   4.419  15.067 -0.5615  0.7611 -0.5658
  241MPD1     N 3716   0.205   4.539  14.644  0.2626  0.7012  0.0711
  241MPD1    H5 3717   0.109   4.569  14.634  0.0406  0.5158  1.6747
  241MPD1    N1 3718   0.526   4.420  15.005 -0.7852  0.2184 -0.0754
  241MPD1    H6 3719   0.533   4.345  15.073 -0.0481  0.2529 -0.1184
  241MPD1    H7 3720   0.605   4.405  14.943  1.5835 -0.1509  3.0275
  242MPD1     C 3721   4.658   3.622  15.823  0.3842 -0.2643  0.4160
  242MPD1    C1 3722   4.600   3.635  15.696 -0.4310  0.1245 -0.3617
  242MPD1    C2 3723   4.678   3.599  15.585  0.1162  0.2642 -0.0143
  242MPD1    C3 3724   0.070   3.546  15.599  1.0885  0.0274  0.4051
  242MPD1    C4 3725   0.116   3.531  15.730  0.2358 -0.6371 -0.4790
  242MPD1    C5 3726   0.047   3.577  15.837  0.8798 -0.4293 -0.3357
  242MPD1     H 3727   4.631   3.618  15.489 -0.7465  1.5059  0.6445
  242MPD1    H1 3728   0.212   3.484  15.750  0.8933 -0.4711 -3.2116
  242MPD1    H2 3729   4.603   3.652  15.912  1.6821  0.7502  0.8753
  242MPD1    H3 3730   0.085   3.562  15.937  2.4082 -2.1426 -1.1512
  242MPD1     N 3731   0.148   3.485  15.499  1.2698  0.4177 -0.3547
  242MPD1    H5 3732   0.240   3.449  15.525  1.0303  0.2758  0.2929
  242MPD1    N1 3733   4.468   3.678  15.674 -0.7049  0.0009 -0.0142
  242MPD1    H6 3734   4.454   3.726  15.585  2.5370  2.7895  0.9701
  242MPD1    H7 3735   4.438   3.740  15.749  1.3617  1.4793 -0.3841
  243MPD1     C 3736   0.789   1.289  17.688  0.1537  0.6158 -0.9878
  243MPD1    C1 3737   0.888   1.216  17.730  0.0118  1.2481  0.4302
  243MPD1    C2 3738   1.005   1.227  17.651 -0.5597  0.3095 -0.2061
  243MPD1    C3 3739   1.015   1.289  17.529  0.0790 -0.2721 -0.1270
  243MPD1    C4 3740   0.903   1.358  17.485  0.2366  0.2329  0.0260
  243MPD1    C5 3741   0.791   1.356  17.565  0.1170 -0.1277 -0.4313
  243MPD1     H 3742   1.101   1.198  17.692 -0.3014 -0.8921 -1.6642
  243MPD1    H1 3743   0.909   1.416  17.394  2.6362 -1.2983 -0.7918
  243MPD1    H2 3744   0.705   1.316   0.002  1.0268  2.9848 -0.8354
  243MPD1    H3 3745   0.705   1.413  17.532  2.2775  2.4768 -1.4983
  243MPD1     N 3746   1.141   1.287  17.462  0.3063  0.0726 -0.3969
  243MPD1    H5 3747   1.213   1.224  17.495  0.8220  1.3524  0.8709
  243MPD1    N1 3748   0.902   1.171   0.114 -0.3153 -0.1861  0.0632
  243MPD1    H6 3749   0.821   1.119   0.147 -0.0184 -0.4120  0.4356
  243MPD1    H7 3750   0.969   1.096   0.129 -1.1067 -1.2162 -1.5449
  244MPD1     C 3751   1.923   0.686  17.295 -0.1681  0.4080 -0.1395
  244MPD1    C1 3752   1.933   0.768  17.186  0.0888  0.4682 -0.0773
  244MPD1    C2 3753   1.836   0.867  17.169  0.0076 -0.3081 -0.0494
  244MPD1    C3 3754   1.755   0.904  17.274 -0.1470  0.1260  0.0750
  244MPD1    C4 3755   1.749   0.828  17.385 -0.0727  0.1747 -0.5295
  244MPD1    C5 3756   1.835   0.723  17.386 -1.4042  0.0341 -0.2712
  244MPD1     H 3757   1.840   0.914  17.072  1.5818  2.4259  1.3414
  244MPD1    H1 3758   1.689   0.849  17.473  0.3213 -1.1526  0.0505
  244MPD1    H2 3759   1.995   0.606  17.313 -1.9319 -1.7406 -2.6143
  244MPD1    H3 3760   1.836   0.662  17.476 -1.9908 -2.9258 -2.3088
  244MPD1     N 3761   1.679   1.022  17.267 -0.3871 -0.2747  0.0769
  244MPD1    H5 3762   1.696   1.077  17.183  0.3981 -0.4295  0.1335
  244MPD1    N1 3763   2.018   0.717  17.082 -0.7191  0.2909 -0.3167
  244MPD1    H6 3764   2.056   0.787  17.019 -1.5986  1.8343  0.8806
  244MPD1    H7 3765   2.103   0.678  17.123 -1.3618  0.1413  0.8801
  245MPD1     C 3766   2.947   2.195  12.815  0.6691 -0.0026  0.0349
  245MPD1    C1 3767   3.047   2.165  12.905  0.1588  0.0906 -0.2192
  245MPD1    C2 3768   3.097   2.272  12.973 -0.3163 -0.5718 -0.6551
  245MPD1    C3 3769   3.094   2.398  12.920 -0.1747  0.6172  0.2954
  245MPD1    C4 3770   3.010   2.423  12.813 -0.6227 -0.3285  0.8592
  245MPD1    C5 3771   2.926   2.323  12.772 -0.6541 -0.0621  0.5261
  245MPD1     H 3772   3.162   2.266  13.059 -1.8022 -0.2429  0.5119
  245MPD1    H1 3773   3.004   2.521  12.768 -2.6005 -1.7988 -2.0827
  245MPD1    H2 3774   2.897   2.118  12.758 -0.9486  1.1035 -0.0578
  245MPD1    H3 3775   2.853   2.359  12.701  0.2034 -0.7275 -0.6789
  245MPD1     N 3776   3.164   2.505  12.985 -0.6236  0.5843  0.3776
  245MPD1    H5 3777   3.227   2.478  13.060 -0.2636  2.0428  0.6033
  245MPD1    N1 3778   3.045   2.036  12.961 -0.2171  0.1960 -0.4827
  245MPD1    H6 3779   3.126   2.011  13.018  0.2552 -1.4685 -1.9105
  245MPD1    H7 3780   3.042   1.956  12.899 -2.1194 -0.9112  1.0472
  246MPD1     C 3781   2.192   4.330   9.388  0.1687  0.6318  0.0985
  246MPD1    C1 3782   2.267   4.219   9.394  0.7096 -0.4471  0.7028
  246MPD1    C2 3783   2.394   4.228   9.352  0.3119  0.4160  0.0601
  246MPD1    C3 3784   2.448   4.355   9.317  0.1909 -0.6089  0.2786
  246MPD1    C4 3785   2.364   4.462   9.321  0.4191  0.4243 -0.4663
  246MPD1    C5 3786   2.235   4.447   9.340  0.1669 -0.0426  0.2889
  246MPD1     H 3787   2.458   4.141   9.350 -1.5251 -0.9127 -0.4927
  246MPD1    H1 3788   2.392   4.556   9.275 -3.1340  2.5464  1.7794
  246MPD1    H2 3789   2.086   4.333   9.411 -0.4461 -1.6426 -2.4808
  246MPD1    H3 3790   2.165   4.529   9.347  1.4161  1.0545 -0.2848
  246MPD1     N 3791   2.588   4.375   9.302  0.0836  0.3049 -0.4033
  246MPD1    H5 3792   2.645   4.290   9.298 -0.6650 -0.0886 -2.7628
  246MPD1    N1 3793   2.219   4.101   9.454 -0.4757  0.0848  0.5747
  246MPD1    H6 3794   2.256   4.015   9.414 -2.3854 -0.4281 -0.1064
  246MPD1    H7 3795   2.117   4.097   9.449 -0.5030  0.6758  0.6843
  247MPD1     C 3796   2.835   1.712  16.936  0.2930 -0.1056  0.3656
  247MPD1    C1 3797   2.893   1.800  17.021 -0.1557  0.1578  0.6098
  247MPD1    C2 3798   2.963   1.905  16.967  0.0185  0.0828  0.5308
  247MPD1    C3 3799   2.955   1.930  16.834  0.4747  0.2776 -0.1435
  247MPD1    C4 3800   2.883   1.845  16.748 -0.6574  0.4561 -0.5449
  247MPD1    C5 3801   2.833   1.735  16.802  0.3546  0.2464 -0.9777
  247MPD1     H 3802   3.015   1.978  17.028  1.5226 -1.0347  0.5859
  247MPD1    H1 3803   2.885   1.858  16.641  0.4144  2.1518 -0.3205
  247MPD1    H2 3804   2.784   1.629  16.985 -1.1120 -0.9981 -2.6112
  247MPD1    H3 3805   2.778   1.666  16.739  1.3017 -1.1222 -0.3208
  247MPD1     N 3806   3.030   2.034  16.769  0.2092 -0.7337  0.4009
  247MPD1    H5 3807   3.014   2.047  16.670 -0.4078 -1.9558  0.3282
  247MPD1    N1 3808   2.894   1.783  17.157 -0.5456  0.3445  0.0968
  247MPD1    H6 3809   2.806   1.747  17.194 -0.7082  0.2156 -0.4185
  247MPD1    H7 3810   2.909   1.870  17.209 -0.7891  0.7030 -0.4267
  248MPD1     C 3811   4.429   3.053  17.578 -0.1383  0.1129  0.8135
  248MPD1    C1 3812   4.474   2.950  17.648  0.4418  0.2873 -0.5934
  248MPD1    C2 3813   4.468   2.828  17.589 -0.2046 -0.4576  0.2160
  248MPD1    C3 3814   4.444   2.814  17.454 -0.3821  0.5231 -0.0254
  248MPD1    C4 3815   4.409   2.925  17.379 -0.1659 -0.6136 -0.4935
  248MPD1    C5 3816   4.403   3.041  17.447 -0.4834  0.6815  1.0820
  248MPD1     H 3817   4.507   2.748  17.652  1.2960 -2.1514 -2.8571
  248MPD1    H1 3818   4.386   2.923  17.273 -1.7924 -0.3347 -0.1399
  248MPD1    H2 3819   4.423   3.154  17.619 -1.9605 -0.4926  2.0264
  248MPD1    H3 3820   4.365   3.128  17.393  0.1388  0.0466 -0.3968
  248MPD1     N 3821   4.450   2.681  17.405  0.3259  0.2680  0.2668
  248MPD1    H5 3822   4.459   2.611  17.478 -2.1929 -1.4404 -1.0462
  248MPD1    N1 3823   4.505   2.964   0.034 -0.4582 -0.2379  0.7924
  248MPD1    H6 3824   4.571   2.898   0.074  0.7528  1.1823  1.1524
  248MPD1    H7 3825   4.548   3.052   0.061 -1.2003  0.2455  0.3840
  249MPD1     C 3826   4.579   0.982  10.033  0.1611  0.0942 -0.4146
  249MPD1    C1 3827   4.546   1.036   9.907 -0.1537 -0.4741 -1.1516
  249MPD1    C2 3828   4.588   1.167   9.895 -0.4798 -0.0565  0.6755
  249MPD1    C3 3829   4.658   1.233   9.992  0.0795 -0.5392  0.9888
  249MPD1    C4 3830   4.683   1.168  10.112 -0.0546  0.2480 -0.5719
  249MPD1    C5 3831   4.650   1.040  10.128 -0.1315  0.5956  0.1138
  249MPD1     H 3832   4.574   1.229   9.807  2.1772 -1.8547 -1.0110
  249MPD1    H1 3833   4.729   1.217  10.198 -2.0998  0.7865  0.2045
  249MPD1    H2 3834   4.541   0.885  10.062  0.1339  0.2012 -0.0959
  249MPD1    H3 3835   4.672   0.992  10.223  0.3046 -1.3546 -0.9701
  249MPD1     N 3836   4.710   1.358   9.962  0.6008  0.6144 -0.0670
  249MPD1    H5 3837   4.697   1.394   9.868 -1.2972 -2.9279 -1.1831
  249MPD1    N1 3838   4.445   0.976   9.822  0.5040  0.3856 -0.3206
  249MPD1    H6 3839   4.440   0.998   9.723  1.1146  0.9043 -0.2401
  249MPD1    H7 3840   4.435   0.878   9.849  0.3297  0.3697 -0.4472
  250MPD2     C 3841   1.137   1.163  13.230 -0.1818 -0.2260 -0.1861
  250MPD2    C1 3842   1.186   1.194  13.101  0.3486  0.0097  0.5429
  250MPD2    C2 3843   1.160   1.111  13.000 -0.5003  0.0905  0.3930
  250MPD2    C3 3844   1.104   0.985  13.024  0.4773 -0.0091 -0.2731
  250MPD2    C4 3845   1.072   0.952  13.155 -0.9643  0.0732  0.2543
  250MPD2    C5 3846   1.089   1.041  13.256 -0.0933 -0.0705 -0.6206
  250MPD2     H 3847   1.199   1.152  12.907 -1.9703  0.4970 -0.0503
  250MPD2    H1 3848   1.018   0.862  13.186 -1.4661 -0.2432 -1.4987
  250MPD2    H2 3849   1.150   1.222  13.320 -1.3117 -1.4748  0.8110
  250MPD2    H3 3850   1.055   1.004  13.353 -1.0281 -0.5748 -1.1449
  250MPD2     N 3851   1.097   0.886  12.917 -0.5929 -0.2258 -0.1146
  250MPD2    H5 3852   1.126   0.920  12.826  0.7092 -0.6490  0.1329
  250MPD2    N1 3853   1.251   1.318  13.087  0.3667 -0.0106  0.1743
  250MPD2    H7 3854   1.264   1.372  13.173  0.7130 -0.8187  0.6338
  251TMC3    C1 3855   1.415   1.479  13.032 -0.0281 -0.6488  0.3152
  251TMC3    C2 3856   1.364   1.566  13.129 -0.1933 -0.0444 -0.8960
  251TMC3    C3 3857   1.449   1.671  13.158 -0.0376  0.8327  0.7485
  251TMC3    C4 3858   1.534   1.505  12.969  0.0398  0.1864  0.2687
  251TMC3    C5 3859   1.616   1.612  12.997 -0.5321  0.0472  0.0720
  251TMC3    C6 3860   1.565   1.690  13.094 -1.5417 -0.2653 -0.3522
  251TMC3     C 3861   1.341   1.355  12.991 -0.3467  0.0993 -0.3273
  251TMC3     O 3862   1.385   1.287  12.899 -0.1484 -0.3390 -0.1731
  251TMC3     H 3863   1.272   1.537  13.179  0.3828  0.2921  0.3487
  251TMC3    H1 3864   1.561   1.438  12.889 -0.1225  0.8298 -0.3207
  251TMC3    H2 3865   1.631   1.771  13.127 -1.8172  0.6727 -2.1265
  251TMC3    C7 3866   1.758   1.603  12.989  0.1840 -0.4742  0.4584
  251TMC3    C8 3867   1.458   1.710  13.297 -0.1939 -0.1033 -0.1089
  251TMC3    O1 3868   1.815   1.679  13.073 -0.0670  0.0922  0.2881
  251TMC3    O2 3869   1.358   1.735  13.360  0.4860 -0.6653 -0.0608
  252TMC3    C1 3870   2.107   3.043   9.698 -0.9459 -0.3225  0.1497
  252TMC3    C2 3871   2.203   3.142   9.702  0.3658  0.2133  0.4592
  252TMC3    C3 3872   2.331   3.111   9.737 -0.6394 -0.8076 -0.1690
  252TMC3    C4 3873   2.131   2.919   9.745  0.1209  0.2953 -1.2285
  252TMC3    C5 3874   2.261   2.888   9.764 -0.8438  0.4715 -0.2603
  252TMC3    C6 3875   2.358   2.978   9.759 -0.1337 -0.1165 -0.3365
  252TMC3     C 3876   1.967   3.087   9.696 -0.5759 -0.2629  0.0594
  252TMC3     O 3877   1.884   3.007   9.737 -0.1427 -0.0039 -0.2530
  252TMC3     H 3878   2.187   3.247   9.679  1.6083  0.6232  1.4063
  252TMC3    H1 3879   2.046   2.851   9.752 -0.4443  0.9589 -1.5888
  252TMC3    H2 3880   2.459   2.948   9.786 -0.4160 -0.6324  0.1723
  252TMC3    C7 3881   2.279   2.793   9.867  0.5820  0.2959  0.6964
  252TMC3    C8 3882   2.433   3.213   9.755 -0.1710  0.0464 -0.4563
  252TMC3    O1 3883   2.371   2.806   9.945 -0.0224  0.0026 -0.2403
  252TMC3    O2 3884   2.399   3.323   9.717  0.5789 -0.5606  0.0812
  253MPD2     C 3885   3.212   1.188  15.201  0.1378 -0.4151  0.0483
  253MPD2    C1 3886   3.080   1.195  15.182  0.5146 -0.5591 -0.1208
  253MPD2    C2 3887   2.996   1.126  15.265 -0.5156 -0.9109  0.7982
  253MPD2    C3 3888   3.032   1.060  15.380 -1.0979  0.8400  0.1983
  253MPD2    C4 3889   3.171   1.060  15.406 -0.1616  0.4827  0.3703
  253MPD2    C5 3890   3.257   1.127  15.319  0.1315 -0.1114  0.5393
  253MPD2     H 3891   2.893   1.131  15.233 -0.6587  0.9969  1.5489
  253MPD2    H1 3892   3.214   1.020  15.497 -0.4779 -2.4240 -0.7387
  253MPD2    H2 3893   3.295   1.238  15.152 -0.4708  0.8495  0.3362
  253MPD2    H3 3894   3.364   1.130  15.341  0.4071 -0.9031 -0.7251
  253MPD2     N 3895   2.934   1.014  15.469  0.3423 -0.0632  0.6013
  253MPD2    H5 3896   2.974   0.984  15.557 -2.1746  1.7487  2.3739
  253MPD2    N1 3897   3.022   1.268  15.074  0.6220  0.3816  0.2835
  253MPD2    H7 3898   2.922   1.254  15.065  0.5659 -0.1831  1.7147
  254TMC3    C1 3899   2.731   0.977  15.566  0.0504 -0.1198 -0.3687
  254TMC3    C2 3900   2.603   1.032  15.566 -0.0991 -0.2141  0.2155
  254TMC3    C3 3901   2.531   1.038  15.684  0.5632 -0.6318  0.0498
  254TMC3    C4 3902   2.784   0.926  15.681 -0.6136 -0.4027  0.4388
  254TMC3    C5 3903   2.706   0.921  15.788  0.0571  0.8641  0.5772
  254TMC3    C6 3904   2.580   0.970  15.794  0.4722 -0.2238  0.0847
  254TMC3     C 3905   2.802   1.005  15.447  0.1424  0.4575  0.3183
  254TMC3     O 3906   2.740   1.017  15.340  0.0424 -0.5538  0.4559
  254TMC3     H 3907   2.571   1.097  15.486  1.6587 -1.8215 -1.7961
  254TMC3    H1 3908   2.881   0.878  15.684  0.4527  1.8989  3.1568
  254TMC3    H2 3909   2.528   0.954  15.888  0.1149 -3.0919 -0.5926
  254TMC3    C7 3910   2.770   0.925  15.917  0.3796 -0.0527 -0.3059
  254TMC3    C8 3911   2.483   1.175  15.710 -0.5461  0.1299  0.3551
  254TMC3    O1 3912   2.788   0.815  15.974 -0.0529  0.1656 -0.5576
  254TMC3    O2 3913   2.483   1.264  15.626  0.2269  0.3222  0.1806
  255MPD2     C 3914   1.169   3.473  10.497  0.0731  0.4360  0.5089
  255MPD2    C1 3915   1.303   3.483  10.513 -0.0449 -0.7036  1.0079
  255MPD2    C2 3916   1.378   3.375  10.494  0.0248  0.0619 -0.8046
  255MPD2    C3 3917   1.327   3.256  10.456 -0.3126 -0.2242  0.6456
  255MPD2    C4 3918   1.193   3.237  10.458  0.2436 -0.6429  0.3220
  255MPD2    C5 3919   1.116   3.351  10.473  0.4984  0.2818  0.1786
  255MPD2     H 3920   1.485   3.382  10.507  0.0371 -0.3538 -0.7080
  255MPD2    H1 3921   1.151   3.137  10.458  2.0062 -1.3929 -1.1849
  255MPD2    H2 3922   1.100   3.556  10.502 -0.1474  0.2397  0.6885
  255MPD2    H3 3923   1.011   3.352  10.448  0.8259 -0.3845 -1.2507
  255MPD2     N 3924   1.416   3.153  10.419  0.3817 -0.4336 -0.1483
  255MPD2    H5 3925   1.376   3.060  10.415 -0.6673  0.1417 -3.0541
  255MPD2    N1 3926   1.352   3.612  10.533  0.2989  0.5392  0.0409
  255MPD2    H7 3927   1.282   3.685  10.523  0.5654  0.4886 -2.2944
  256TMC3    C1 3928   1.501   3.787  10.514  0.0776 -0.0318 -0.4251
  256TMC3    C2 3929   1.611   3.826  10.432 -0.5991 -0.9926 -0.4266
  256TMC3    C3 3930   1.608   3.962  10.386  0.2647 -0.4851  0.4647
  256TMC3    C4 3931   1.407   3.874  10.556 -0.8568 -0.1062 -0.2822
  256TMC3    C5 3932   1.418   4.002  10.518 -0.6403 -0.3094  0.0232
  256TMC3    C6 3933   1.513   4.047  10.432  0.5547 -0.1128  0.0943
  256TMC3     C 3934   1.483   3.649  10.537  0.1771 -0.7460 -0.7953
  256TMC3     O 3935   1.586   3.584  10.533  0.2902  0.4333 -0.7353
  256TMC3     H 3936   1.678   3.756  10.384  0.8929  1.1113 -1.4206
  256TMC3    H1 3937   1.337   3.835  10.629 -1.3580 -0.3509 -0.8925
  256TMC3    H2 3938   1.501   4.153  10.410  2.5726 -0.2941 -1.8520
  256TMC3    C7 3939   1.326   4.091  10.573  0.0670  0.2220  0.1784
  256TMC3    C8 3940   1.691   4.004  10.275 -0.3486 -0.0440 -0.1968
  256TMC3    O1 3941   1.211   4.059  10.572  0.2852  0.0869  0.0194
  256TMC3    O2 3942   1.754   3.919  10.214  0.4389 -0.0453  0.4048
  257MPD2     C 3943   0.364   1.007  13.385 -0.1513  0.5215 -0.3359
  257MPD2    C1 3944   0.396   0.963  13.254  0.6021  0.0928  0.5516
  257MPD2    C2 3945   0.450   0.834  13.249  0.1918 -0.1924  0.0579
  257MPD2    C3 3946   0.451   0.747  13.359 -0.0983 -0.4682 -0.6158
  257MPD2    C4 3947   0.391   0.786  13.473 -0.3999  0.5139  0.2074
  257MPD2    C5 3948   0.355   0.917  13.489  0.2434  0.4913 -0.2702
  257MPD2     H 3949   0.485   0.788  13.157 -0.2725 -0.0327 -0.1983
  257MPD2    H1 3950   0.378   0.722  13.560  1.0819 -0.3951 -0.2350
  257MPD2    H2 3951   0.321   1.104  13.407  0.1440  0.1680  1.8211
  257MPD2    H3 3952   0.306   0.948  13.580 -1.8026 -1.3223 -0.7358
  257MPD2     N 3953   0.512   0.626  13.345 -0.1166 -0.5976  0.0616
  257MPD2    H5 3954   0.546   0.602  13.252 -3.5254 -1.1369 -1.0531
  257MPD2    N1 3955   0.386   1.053  13.144 -0.4129  0.1872 -0.6195
  257MPD2    H7 3956   0.372   1.148  13.175  0.7042 -0.3125  1.4340
  258TMC3    C1 3957   0.621   0.427  13.402 -0.5899  0.0664 -0.1962
  258TMC3    C2 3958   0.568   0.370  13.291 -0.4814  0.1551  0.2551
  258TMC3    C3 3959   0.602   0.235  13.268 -0.5645 -0.3601  0.4369
  258TMC3    C4 3960   0.683   0.349  13.494  0.0089 -0.8318 -0.6947
  258TMC3    C5 3961   0.723   0.223  13.465 -0.9416 -0.6420  0.1022
  258TMC3    C6 3962   0.674   0.161  13.359 -0.3915 -0.3238  0.4041
  258TMC3     C 3963   0.551   0.543  13.453  0.0477 -0.7100  0.7141
  258TMC3     O 3964   0.540   0.546  13.575  0.5436 -0.0739  0.2032
  258TMC3     H 3965   0.496   0.419  13.226 -0.8639  0.6147  1.0230
  258TMC3    H1 3966   0.724   0.396  13.584 -3.0977  0.0152  0.2689
  258TMC3    H2 3967   0.726   0.071  13.329 -1.1337  0.0612 -2.0309
  258TMC3    C7 3968   0.777   0.142  13.571 -0.1623 -0.2555  0.2280
  258TMC3    C8 3969   0.583   0.180  13.135  0.4413  0.2604 -0.4606
  258TMC3    O1 3970   0.779   0.018  13.555  0.1713  0.2531  0.6095
  258TMC3    O2 3971   0.580   0.059  13.126  0.2880  0.1308 -0.1924
  259MPD2     C 3972   4.290   2.943   1.156  0.0945 -0.0915  0.7735
  259MPD2    C1 3973   4.283   2.809   1.154  0.8767 -0.1790 -0.1932
  259MPD2    C2 3974   4.311   2.742   1.032 -0.2126  0.0455 -0.2308
  259MPD2    C3 3975   4.326   2.806   0.915  0.4137  0.4594 -0.0626
  259MPD2    C4 3976   4.334   2.945   0.923 -0.0632  0.0466  0.0548
  259MPD2    C5 3977   4.303   3.009   1.038 -0.6965  0.4430  0.4559
  259MPD2     H 3978   4.315   2.634   1.021  0.5074  0.0463  0.0094
  259MPD2    H1 3979   4.329   3.003   0.831  1.4660  0.3147  0.1363
  259MPD2    H2 3980   4.282   2.998   1.250  2.9321 -0.0053  0.9525
  259MPD2    H3 3981   4.331   3.114   1.044  0.3039  0.2913 -1.6547
  259MPD2     N 3982   4.331   2.734   0.794  0.0747 -0.1299 -0.3111
  259MPD2    H5 3983   4.320   2.635   0.814 -0.2651  0.1759  1.0326
  259MPD2    N1 3984   4.262   2.749   1.276 -0.3694  0.4867 -0.5546
  259MPD2    H7 3985   4.240   2.816   1.349  0.9578  0.8839 -0.5207
  260TMC3    C1 3986   4.387   2.678   0.566 -0.2590 -0.2128  0.2602
  260TMC3    C2 3987   4.448   2.731   0.449 -0.4667  0.2347  0.3052
  260TMC3    C3 3988   4.451   2.642   0.343  0.4371 -0.9030 -0.0196
  260TMC3    C4 3989   4.354   2.550   0.586  0.4777  1.0171  0.2664
  260TMC3    C5 3990   4.377   2.466   0.479 -0.1876  0.0926 -0.8709
  260TMC3    C6 3991   4.424   2.508   0.360 -0.1723 -1.1206 -0.1807
  260TMC3     C 3992   4.358   2.780   0.668  0.1479 -0.2757  0.6870
  260TMC3     O 3993   4.368   2.897   0.631  0.5211 -0.5055 -0.3978
  260TMC3     H 3994   4.466   2.837   0.434  0.1982  0.1487  0.4929
  260TMC3    H1 3995   4.314   2.503   0.676  0.5012 -1.5687 -1.0978
  260TMC3    H2 3996   4.425   2.446   0.271 -2.2868 -0.0949 -0.9304
  260TMC3    C7 3997   4.340   2.325   0.478  0.0472  0.4606 -0.5645
  260TMC3    C8 3998   4.560   2.673   0.251 -0.3184 -0.1245 -0.3708
  260TMC3    O1 3999   4.352   2.270   0.370  0.3303  0.0561 -0.2014
  260TMC3    O2 4000   4.608   2.787   0.252  0.3605 -0.4486  0.3832
  261MPD2     C 4001   0.896   0.707  12.202  0.4134  0.0405  0.0127
  261MPD2    C1 4002   0.964   0.805  12.268  0.6320 -0.5379 -0.2010
  261MPD2    C2 4003   1.027   0.907  12.198 -0.1413  0.3272 -0.3641
  261MPD2    C3 4004   1.020   0.904  12.062 -0.3296  0.1749  0.1116
  261MPD2    C4 4005   0.954   0.803  11.996  0.3296  0.1619 -0.3828
  261MPD2    C5 4006   0.892   0.706  12.067  0.3373  0.3790 -0.1380
  261MPD2     H 4007   1.080   0.989  12.245 -1.5481  1.3627 -0.5547
  261MPD2    H1 4008   0.925   0.799  11.891  0.8550  0.4425 -0.5353
  261MPD2    H2 4009   0.848   0.626  12.256  1.4858 -0.9984 -0.5890
  261MPD2    H3 4010   0.845   0.625  12.013 -0.9529  1.4875 -0.6832
  261MPD2     N 4011   1.071   1.010  11.989  0.4457  0.3851 -0.4256
  261MPD2    H5 4012   1.092   1.093  12.043 -2.0124  0.6180  0.1979
  261MPD2    N1 4013   0.982   0.790  12.411  0.5178 -0.3785 -0.4949
  261MPD2    H7 4014   1.066   0.829  12.452 -2.4051  2.2596  3.0168
  262TMC3    C1 4015   1.149   1.150  11.817 -0.2911 -0.5211 -0.3222
  262TMC3    C2 4016   1.095   1.256  11.883  0.5039  0.5250 -0.4890
  262TMC3    C3 4017   1.095   1.378  11.815 -0.1235  0.0621  1.6123
  262TMC3    C4 4018   1.209   1.167  11.697 -0.1510  0.3195  0.1445
  262TMC3    C5 4019   1.205   1.286  11.632 -0.1827  0.0376 -1.0513
  262TMC3    C6 4020   1.143   1.395  11.688 -0.3354  0.2589 -0.1980
  262TMC3     C 4021   1.094   1.018  11.858 -0.2795 -0.6309  0.8323
  262TMC3     O 4022   1.099   0.928  11.776 -0.1840 -0.2467 -0.4582
  262TMC3     H 4023   1.045   1.245  11.979  0.7874  0.6743 -0.3249
  262TMC3    H1 4024   1.257   1.084  11.648  0.1876  1.5302 -1.5896
  262TMC3    H2 4025   1.136   1.490  11.636  1.2621  1.5080  1.8601
  262TMC3    C7 4026   1.280   1.300  11.507  0.1012  0.3758  0.3008
  262TMC3    C8 4027   1.061   1.501  11.894 -0.5976 -0.2901  0.5433
  262TMC3    O1 4028   1.294   1.206  11.432  0.3533 -0.0341 -0.0442
  262TMC3    O2 4029   1.058   1.602  11.827 -0.0329  0.4944 -0.0528
  263MPD2     C 4030   2.351   0.665  11.631  0.9054  0.0927  0.0136
  263MPD2    C1 4031   2.473   0.651  11.568 -0.9956 -0.0842 -0.1777
  263MPD2    C2 4032   2.477   0.672  11.429  0.5228 -0.1704  0.0610
  263MPD2    C3 4033   2.372   0.715  11.353 -0.5570 -0.2070  0.8934
  263MPD2    C4 4034   2.251   0.734  11.419  0.6601  0.1830  0.1248
  263MPD2    C5 4035   2.249   0.718  11.558 -0.2164 -0.4029  0.2194
  263MPD2     H 4036   2.567   0.647  11.374 -0.0525 -0.9177 -0.5410
  263MPD2    H1 4037   2.168   0.782  11.370 -0.1272  0.4937  1.7511
  263MPD2    H2 4038   2.343   0.662  11.739 -2.3019 -0.2704 -0.2344
  263MPD2    H3 4039   2.157   0.745  11.609  0.5708  1.2214  0.7981
  263MPD2     N 4040   2.386   0.738  11.210  0.2966 -0.2432  0.1161
  263MPD2    H5 4041   2.482   0.727  11.180  0.4500 -0.8657  0.8365
  263MPD2    N1 4042   2.583   0.613  11.655 -0.2653 -0.2881  0.0259
  263MPD2    H7 4043   2.565   0.592  11.753 -0.4759  1.4064  0.3525
  264TMC3    C1 4044   2.340   0.842  11.007  0.0158 -0.2097 -0.3088
  264TMC3    C2 4045   2.289   0.966  10.991  0.3844  1.1543 -0.2100
  264TMC3    C3 4046   2.359   1.063  10.919  0.7524  0.5721  0.0273
  264TMC3    C4 4047   2.446   0.803  10.942  0.3216 -0.6215 -0.3622
  264TMC3    C5 4048   2.518   0.894  10.870 -0.7336  0.4040 -0.1778
  264TMC3    C6 4049   2.473   1.025  10.863 -0.8698 -0.1232  0.6664
  264TMC3     C 4050   2.286   0.766  11.121 -0.8336 -0.0092 -0.3787
  264TMC3     O 4051   2.162   0.776  11.138 -0.4148  0.2628  0.3543
  264TMC3     H 4052   2.193   0.991  11.036 -0.3888  0.1659 -1.3338
  264TMC3    H1 4053   2.480   0.701  10.956  1.7938 -0.3435 -1.8464
  264TMC3    H2 4054   2.535   1.098  10.813 -1.8819 -0.2925 -0.8570
  264TMC3    C7 4055   2.641   0.856  10.800 -0.1694 -0.5538 -0.4259
  264TMC3    C8 4056   2.360   1.196  10.978 -0.3614 -0.2939  0.1948
  264TMC3    O1 4057   2.715   0.952  10.772  0.2640 -0.0611  0.6569
  264TMC3    O2 4058   2.433   1.279  10.926 -0.6649  0.3418 -0.1447
  265MPD2     C 4059   4.033   0.589  15.560  0.2451  0.1631  0.4215
  265MPD2    C1 4060   4.132   0.684  15.544  0.0496 -0.1115 -0.2277
  265MPD2    C2 4061   4.245   0.658  15.467  0.4559  0.2191 -0.0657
  265MPD2    C3 4062   4.250   0.536  15.395  0.1215 -1.2898 -0.3194
  265MPD2    C4 4063   4.159   0.443  15.423 -0.0987 -0.0322  0.6041
  265MPD2    C5 4064   4.044   0.465  15.495  0.0838  0.3543 -0.2494
  265MPD2     H 4065   4.324   0.732  15.458 -0.1950  1.0209  0.8530
  265MPD2    H1 4066   4.153   0.360  15.354  0.7572 -1.6020  2.4131
  265MPD2    H2 4067   3.945   0.609  15.619  0.5646  0.8493  0.6705
  265MPD2    H3 4068   3.967   0.391  15.514  0.6348 -0.1370  0.0910
  265MPD2     N 4069   4.355   0.494  15.313 -0.7007 -0.1582  0.0531
  265MPD2    H5 4070   4.370   0.395  15.300  0.7211  0.0632 -0.0776
  265MPD2    N1 4071   4.120   0.815  15.601  0.2293 -0.1460 -0.0098
  265MPD2    H7 4072   4.201   0.874  15.588  1.5722 -1.3686  2.9108
  266TMC3    C1 4073   4.036   1.010  15.702  0.9948 -0.1847 -0.0868
  266TMC3    C2 4074   4.140   1.027  15.783  0.3785 -0.5915 -0.4829
  266TMC3    C3 4075   4.153   1.152  15.850  0.5217  0.4740 -0.8883
  266TMC3    C4 4076   3.932   1.098  15.688 -0.9984  0.1219  0.2336
  266TMC3    C5 4077   3.950   1.226  15.746  0.6405 -0.3664 -0.4225
  266TMC3    C6 4078   4.055   1.246  15.826 -0.0897 -0.2584 -0.2297
  266TMC3     C 4079   4.009   0.877  15.637 -0.4661 -0.0134  0.6960
  266TMC3     O 4080   3.895   0.839  15.618 -0.1086 -0.4066 -0.0643
  266TMC3     H 4081   4.220   0.954  15.780  1.5157  0.6600 -0.5716
  266TMC3    H1 4082   3.844   1.082  15.627 -1.3153 -0.6674  0.8928
  266TMC3    H2 4083   4.063   1.342  15.874  0.8930 -0.0255 -0.8602
  266TMC3    C7 4084   3.865   1.335  15.698  0.0394  0.3452  0.4163
  266TMC3    C8 4085   4.255   1.169  15.948 -0.1190 -0.0833  0.1454
  266TMC3    O1 4086   3.747   1.310  15.675  0.3672  0.4964  0.0279
  266TMC3    O2 4087   4.314   1.065  15.982  0.1664 -0.2097  0.1783
  267MPD2     C 4088   2.195   1.709   0.413  0.9653  0.7323 -0.2605
  267MPD2    C1 4089   2.200   1.816   0.330  0.2369 -0.2144  0.0126
  267MPD2    C2 4090   2.086   1.874   0.277 -0.2153  0.6850  0.0087
  267MPD2    C3 4091   1.970   1.803   0.296  0.0926  1.2544 -0.5472
  267MPD2    C4 4092   1.959   1.683   0.363 -0.0469  0.3216  0.2096
  267MPD2    C5 4093   2.074   1.647   0.425  0.0015  0.0537 -0.6966
  267MPD2     H 4094   2.086   1.955   0.205 -0.2932 -0.2517 -1.0521
  267MPD2    H1 4095   1.868   1.625   0.368  1.6591 -2.5057 -1.7061
  267MPD2    H2 4096   2.288   1.662   0.445  0.1129 -1.0862 -0.4554
  267MPD2    H3 4097   2.065   1.558   0.487  2.0502 -0.5300 -1.2199
  267MPD2     N 4098   1.843   1.843   0.233  0.4841 -0.0044 -0.4018
  267MPD2    H5 4099   1.769   1.780   0.263 -0.3434  1.3301  0.3668
  267MPD2    N1 4100   2.321   1.872   0.306  0.3744  0.1826 -0.2823
  267MPD2    H7 4101   2.395   1.834   0.365  2.4356  2.6244 -1.2932
  268TMC3    C1 4102   2.497   2.010   0.234 -0.2066 -0.0707 -0.1785
  268TMC3    C2 4103   2.568   2.061   0.124 -0.1085 -0.1805 -0.0697
  268TMC3    C3 4104   2.693   2.111   0.147 -0.6417  0.6837 -0.3786
  268TMC3    C4 4105   2.551   2.004   0.361 -0.3663 -0.3728 -0.2606
  268TMC3    C5 4106   2.680   2.047   0.379 -0.2668  0.3699  0.7267
  268TMC3    C6 4107   2.746   2.100   0.273 -0.5502 -0.2293 -0.7833
  268TMC3     C 4108   2.363   1.956   0.207 -0.1532  0.1016 -1.0487
  268TMC3     O 4109   2.289   2.031   0.138 -0.0570  0.1611 -0.0489
  268TMC3     H 4110   2.511   2.080   0.034 -0.2908 -1.0141 -0.1313
  268TMC3    H1 4111   2.499   1.954   0.442 -0.3654 -0.1122 -0.0967
  268TMC3    H2 4112   2.843   2.145   0.294 -0.5135 -0.0654 -1.2855
  268TMC3    C7 4113   2.734   2.052   0.519 -0.4205 -0.1788  0.0497
  268TMC3    C8 4114   2.778   2.174   0.048 -0.3904  0.0076 -0.3114
  268TMC3    O1 4115   2.655   2.011   0.602  0.7483 -0.1468 -0.5497
  268TMC3    O2 4116   2.898   2.167   0.067 -0.0600  0.2692 -0.1069
  269MPD2     C 4117   2.351   1.580  15.449 -0.1462 -0.2385  0.0622
  269MPD2    C1 4118   2.243   1.606  15.526 -0.4998  0.4969 -0.0214
  269MPD2    C2 4119   2.183   1.727  15.507 -0.4405  1.0352  0.1514
  269MPD2    C3 4120   2.236   1.818  15.412  0.0604  0.4946  0.4232
  269MPD2    C4 4121   2.344   1.785  15.335  0.3904 -0.1638 -0.2447
  269MPD2    C5 4122   2.406   1.662  15.356 -0.2455 -0.7094  0.6326
  269MPD2     H 4123   2.102   1.766  15.567  0.4729  1.8077  0.8873
  269MPD2    H1 4124   2.383   1.856  15.263  1.6313 -0.1450  0.4411
  269MPD2    H2 4125   2.402   1.484  15.441  0.7882  0.2445  0.1694
  269MPD2    H3 4126   2.496   1.645  15.298  0.0486 -0.5775  1.0493
  269MPD2     N 4127   2.165   1.937  15.395 -0.4822  1.1536 -0.8133
  269MPD2    H5 4128   2.092   1.950  15.464  1.2522 -1.2949  1.4701
  269MPD2    N1 4129   2.188   1.518  15.629  1.3963 -1.2157 -0.5484
  269MPD2    H7 4130   2.238   1.431  15.644  0.0991 -2.0073 -0.8122
  270TMC3    C1 4131   2.026   1.409  15.768  0.3028  0.1654 -0.4938
  270TMC3    C2 4132   1.895   1.376  15.746  0.3912 -0.2080 -0.0401
  270TMC3    C3 4133   1.853   1.245  15.747  0.5888 -0.1814  0.2962
  270TMC3    C4 4134   2.119   1.310  15.783  0.3422  0.0753  0.2506
  270TMC3    C5 4135   2.069   1.179  15.781 -0.1687  0.3043 -0.1353
  270TMC3    C6 4136   1.941   1.144  15.771 -0.4538  0.1344 -0.4507
  270TMC3     C 4137   2.066   1.532  15.701  0.3813 -0.1091 -0.4093
  270TMC3     O 4138   1.971   1.608  15.679 -0.6623  0.0433 -0.3563
  270TMC3     H 4139   1.810   1.443  15.741 -0.6831 -1.7472 -2.4733
  270TMC3    H1 4140   2.225   1.326  15.794  0.4347  0.4598 -1.2281
  270TMC3    H2 4141   1.915   1.040  15.783 -0.4651  0.4777  2.6235
  270TMC3    C7 4142   2.153   1.068  15.783  0.0336  0.7269 -0.2107
  270TMC3    C8 4143   1.721   1.203  15.692  0.3197  0.3156  0.3996
  270TMC3    O1 4144   2.212   1.035  15.889  0.8339 -0.1237  0.2091
  270TMC3    O2 4145   1.640   1.295  15.677 -0.2017 -0.3483 -0.1437
  271MPD2     C 4146   1.187   0.904  14.009  0.0782  0.7027  0.2782
  271MPD2    C1 4147   1.127   0.916  14.132  0.0685 -0.3182 -0.2500
  271MPD2    C2 4148   1.004   0.967  14.140  0.5378 -0.0349  0.0334
  271MPD2    C3 4149   0.925   0.985  14.024  0.8431  0.1121 -0.4452
  271MPD2    C4 4150   0.984   0.971  13.905 -0.3037  0.0311  0.2242
  271MPD2    C5 4151   1.115   0.924  13.899 -0.4741  0.1494  0.7229
  271MPD2     H 4152   0.969   0.983  14.241 -1.0710  0.6752 -0.6375
  271MPD2    H1 4153   0.938   0.991  13.809  0.9397 -1.1037 -0.5979
  271MPD2    H2 4154   1.288   0.871  13.991 -0.4317 -0.4806 -0.4196
  271MPD2    H3 4155   1.157   0.903  13.801 -1.9126 -0.9333  0.3297
  271MPD2     N 4156   0.794   1.042  14.032  0.2319 -0.2298 -0.2201
  271MPD2    H5 4157   0.746   1.053  13.943 -0.6415 -1.6464  0.0726
  271MPD2    N1 4158   1.199   0.896  14.252  0.0352  1.3308 -0.9105
  271MPD2    H7 4159   1.146   0.888  14.338  0.3501 -3.2756 -1.1453
  272TMC3    C1 4160   1.391   0.865  14.391  0.1294 -0.4545 -0.4351
  272TMC3    C2 4161   1.509   0.796  14.419  1.1182  0.2358  0.5127
  272TMC3    C3 4162   1.553   0.790  14.551  0.0056  0.2579 -0.3898
  272TMC3    C4 4163   1.323   0.925  14.491 -0.3895  0.5189  0.0634
  272TMC3    C5 4164   1.374   0.912  14.622  0.1600  0.3437  0.2924
  272TMC3    C6 4165   1.483   0.838  14.653 -0.3643 -0.3823 -0.6263
  272TMC3     C 4166   1.335   0.862  14.257  0.7517  0.1616 -0.1363
  272TMC3     O 4167   1.414   0.845  14.166 -0.2183  0.3777  0.0683
  272TMC3     H 4168   1.569   0.771  14.332  0.7198  0.8450  0.0619
  272TMC3    H1 4169   1.229   0.975  14.474 -1.4618 -1.8955 -1.1259
  272TMC3    H2 4170   1.526   0.828  14.752 -2.1697 -0.4442  0.1577
  272TMC3    C7 4171   1.305   0.983  14.721  0.2863 -0.2117  0.5250
  272TMC3    C8 4172   1.690   0.765  14.562 -0.7566  0.4091 -0.0869
  272TMC3    O1 4173   1.183   0.982  14.707  0.0283 -0.3817 -0.1387
  272TMC3    O2 4174   1.757   0.784  14.460  0.6943 -0.0917 -0.1668
  273MPD2     C 4175   2.803   4.146  11.865 -0.3116 -0.0510  0.2760
  273MPD2    C1 4176   2.933   4.186  11.841  0.7330  0.2687  0.1869
  273MPD2    C2 4177   2.980   4.193  11.711  0.4456  0.5190 -0.7210
  273MPD2    C3 4178   2.898   4.178  11.603  0.5674  0.4754  0.4447
  273MPD2    C4 4179   2.777   4.114  11.629 -0.1565 -0.0143 -0.9985
  273MPD2    C5 4180   2.731   4.104  11.756 -0.6708  0.8035 -0.8109
  273MPD2     H 4181   3.080   4.234  11.704  1.4034 -1.5574  0.7023
  273MPD2    H1 4182   2.717   4.078  11.545  2.5640 -1.4792 -2.3290
  273MPD2    H2 4183   2.770   4.129  11.966  0.8545 -1.4780  0.4217
  273MPD2    H3 4184   2.631   4.061  11.756 -0.0711 -0.5886 -1.6216
  273MPD2     N 4185   2.924   4.210  11.471 -0.0138 -0.4974 -0.2137
  273MPD2    H5 4186   2.840   4.221  11.414  0.0539 -0.3284 -0.2816
  273MPD2    N1 4187   2.998   4.211  11.960  0.1723 -0.0101 -0.6001
  273MPD2    H7 4188   2.943   4.209  12.045  1.2893  1.8628  0.1783
  274TMC3    C1 4189   3.031   4.330  11.301 -0.1268  0.1639 -0.3896
  274TMC3    C2 4190   2.921   4.315  11.218  1.1014  0.0525 -0.2365
  274TMC3    C3 4191   2.877   4.412  11.137  0.9827 -0.1621  1.0666
  274TMC3    C4 4192   3.103   4.446  11.298 -0.0250 -0.2393 -0.3329
  274TMC3    C5 4193   3.058   4.548  11.214  0.1130  0.3594  0.0240
  274TMC3    C6 4194   2.944   4.529  11.130 -0.1561 -1.1580  0.3576
  274TMC3     C 4195   3.047   4.260  11.425 -0.1125  0.5891  0.8160
  274TMC3     O 4196   3.160   4.260  11.476 -0.5607 -0.0659  0.0630
  274TMC3     H 4197   2.857   4.228  11.210 -3.1283  2.9403  2.2970
  274TMC3    H1 4198   3.174   4.454  11.380 -0.8631 -1.2973  0.4831
  274TMC3    H2 4199   2.893   4.620  11.100  0.6811 -0.3864  1.2860
  274TMC3    C7 4200   3.066   4.679  11.277  0.5447 -0.5432  0.3455
  274TMC3    C8 4201   2.780   4.383  11.048  0.4606  0.4529  0.0034
  274TMC3    O1 4202   2.973   0.018  11.263  0.0029  0.1636 -0.0192
  274TMC3    O2 4203   2.719   4.279  11.064 -0.0162  0.3822 -0.4806
  275MPD2     C 4204   2.720   2.047  14.468  0.3547  0.4762 -0.3718
  275MPD2    C1 4205   2.633   2.109  14.554 -0.0954 -0.0470  0.2966
  275MPD2    C2 4206   2.498   2.071  14.562 -0.0858  0.1028 -0.8277
  275MPD2    C3 4207   2.455   1.975  14.476 -0.8876 -0.5757 -0.8141
  275MPD2    C4 4208   2.541   1.904  14.401 -0.2275 -0.6960  0.2769
  275MPD2    C5 4209   2.677   1.944  14.395 -0.3899 -0.1587 -0.1041
  275MPD2     H 4210   2.437   2.124  14.634  1.1924  0.2882  0.1244
  275MPD2    H1 4211   2.509   1.829  14.330 -0.0977 -0.3263 -0.1743
  275MPD2    H2 4212   2.824   2.078  14.460  1.3996 -3.2849 -1.5772
  275MPD2    H3 4213   2.750   1.898  14.329 -0.5442 -2.2706  1.1840
  275MPD2     N 4214   2.316   1.927  14.459 -0.0217  0.9237 -0.1648
  275MPD2    H5 4215   2.291   1.855  14.392  1.1528 -0.0168  0.4101
  275MPD2    N1 4216   2.680   2.213  14.640 -0.3256 -0.6696  0.7605
  275MPD2    H7 4217   2.610   2.248  14.705 -1.8416 -1.9747 -0.1527
  276TMC3    C1 4218   2.829   2.329  14.779  0.7873 -0.0421  0.1863
  276TMC3    C2 4219   2.738   2.331  14.882 -0.4058  0.3576 -0.9173
  276TMC3    C3 4220   2.747   2.417  14.987 -1.0053 -0.1738 -0.1454
  276TMC3    C4 4221   2.925   2.433  14.771  0.5702 -0.0461  0.4660
  276TMC3    C5 4222   2.936   2.514  14.882  0.0460  0.2037  0.1938
  276TMC3    C6 4223   2.841   2.522  14.985 -0.1491 -0.0892  0.5815
  276TMC3     C 4224   2.808   2.250  14.655 -0.7865 -0.5119 -0.1858
  276TMC3     O 4225   2.903   2.242  14.580 -0.3380 -0.0558 -0.0582
  276TMC3     H 4226   2.671   2.248  14.900 -1.5499  1.8379  1.6882
  276TMC3    H1 4227   2.999   2.426  14.692  0.6408 -1.0880  0.6142
  276TMC3    H2 4228   2.852   2.582  15.075  1.6337  0.1396  0.2110
  276TMC3    C7 4229   3.061   2.538  14.945  0.0076  0.4485  0.1905
  276TMC3    C8 4230   2.711   2.368  15.117 -0.3790  0.3307  0.1677
  276TMC3    O1 4231   3.081   2.621  15.034 -0.2097  0.3687  0.0669
  276TMC3    O2 4232   2.662   2.438  15.206 -0.3593  0.5981 -0.5060
  277MPD2     C 4233   4.638   1.044  13.292 -0.1062  0.6342  0.1668
  277MPD2    C1 4234   4.502   1.047  13.315  0.6408 -0.4196 -0.0446
  277MPD2    C2 4235   4.446   0.950  13.402  0.1106  0.5754  0.0781
  277MPD2    C3 4236   4.523   0.845  13.440  0.5056  0.5561  0.8032
  277MPD2    C4 4237   4.659   0.837  13.418 -0.1791 -0.4955  0.1505
  277MPD2    C5 4238   4.711   0.936  13.337  0.0786  0.2824  0.1895
  277MPD2     H 4239   4.342   0.955  13.434 -0.7126 -1.8925 -2.2591
  277MPD2    H1 4240   4.724   0.762  13.463 -0.5044  0.2533  1.8369
  277MPD2    H2 4241   4.691   1.121  13.236  0.0208  0.5896  0.2250
  277MPD2    H3 4242   0.077   0.938  13.305  0.4475 -1.2170  1.3188
  277MPD2     N 4243   4.447   0.747  13.516  0.0046  0.1324 -0.4825
  277MPD2    H5 4244   4.349   0.761  13.540  0.0189 -0.9849  0.2154
  277MPD2    N1 4245   4.430   1.158  13.272  0.6135 -0.0080  0.0836
  277MPD2    H7 4246   4.482   1.231  13.226  0.2733  0.1382 -0.0656
  278TMC3    C1 4247   4.389   0.536  13.604 -0.0843 -0.1030 -0.6535
  278TMC3    C2 4248   4.378   0.422  13.532  0.3792  0.2358  0.6569
  278TMC3    C3 4249   4.262   0.346  13.548  0.6659  0.4413  0.0969
  278TMC3    C4 4250   4.300   0.574  13.696 -0.3763 -0.3148  0.8904
  278TMC3    C5 4251   4.189   0.493  13.718 -0.2445  0.3348 -0.4106
  278TMC3    C6 4252   4.164   0.380  13.639 -0.5923 -0.1218 -0.2480
  278TMC3     C 4253   4.496   0.628  13.566 -0.4510  0.2821  0.0150
  278TMC3     O 4254   4.603   0.572  13.536 -0.1936  0.4940 -0.9450
  278TMC3     H 4255   4.447   0.403  13.450 -1.2975 -0.6600 -0.5529
  278TMC3    H1 4256   4.315   0.667  13.750 -1.1866 -1.4472  3.0714
  278TMC3    H2 4257   4.076   0.317  13.649 -0.7613  0.3578  1.3072
  278TMC3    C7 4258   4.103   0.526  13.830 -0.2561  0.3751 -0.7622
  278TMC3    C8 4259   4.233   0.234  13.466  0.5934  0.2898  0.0565
  278TMC3    O1 4260   4.122   0.620  13.904 -0.0021  0.0085 -0.4580
  278TMC3    O2 4261   4.323   0.152  13.439  0.2981  0.2011  0.2723
  279MPD2     C 4262   3.595   0.547  17.674 -0.0141 -0.0708 -0.1900
  279MPD2    C1 4263   3.571   0.682  17.685 -0.1287  0.0162  0.4247
  279MPD2    C2 4264   3.665   0.767  17.624  0.6915  0.1593 -0.0721
  279MPD2    C3 4265   3.756   0.711  17.533  0.3762 -0.5464  0.1609
  279MPD2    C4 4266   3.784   0.573  17.529  0.9860  0.6467 -0.5413
  279MPD2    C5 4267   3.705   0.494  17.607 -0.6732 -0.8570 -0.3403
  279MPD2     H 4268   3.671   0.873  17.645 -0.9942 -0.0837  1.6303
  279MPD2    H1 4269   3.871   0.528  17.484  1.6951 -0.3479  1.8366
  279MPD2    H2 4270   3.535   0.479  17.734  3.4957 -2.4556  0.6349
  279MPD2    H3 4271   3.735   0.391  17.625  0.5471 -0.4565 -0.0370
  279MPD2     N 4272   3.840   0.807  17.470  0.7053  0.2492  0.5943
  279MPD2    H5 4273   3.826   0.900  17.508 -2.7541  0.5278 -1.3417
  279MPD2    N1 4274   3.470   0.726   0.022  0.1153 -0.3666  0.0182
  279MPD2    H7 4275   3.408   0.654   0.057 -0.8884  0.2186 -0.5543
  280TMC3    C1 4276   3.329   0.890   0.134 -0.0863  0.0558 -0.3232
  280TMC3    C2 4277   3.286   0.800   0.216  0.2847  0.1894 -0.0614
  280TMC3    C3 4278   3.200   0.843   0.314  0.0409  0.1804 -0.0902
  280TMC3    C4 4279   3.295   1.018   0.130 -0.1476  0.4072  0.3437
  280TMC3    C5 4280   3.220   1.059   0.235  0.2846  0.3603 -0.2677
  280TMC3    C6 4281   3.168   0.971   0.326  0.6668 -0.2971 -0.1513
  280TMC3     C 4282   3.425   0.859   0.031 -0.4315 -0.8435 -0.6046
  280TMC3     O 4283   3.469   0.952  17.716 -0.5592 -0.0970 -0.0333
  280TMC3     H 4284   3.331   0.702   0.232  2.7676  1.6216  1.8458
  280TMC3    H1 4285   3.338   1.093   0.065  2.7439 -2.7315 -1.3926
  280TMC3    H2 4286   3.106   0.997   0.411  0.5818  2.2467 -0.9992
  280TMC3    C7 4287   3.203   1.201   0.259  0.1523 -0.3527 -0.6551
  280TMC3    C8 4288   3.123   0.749   0.387 -0.2948 -0.2808  0.3351
  280TMC3    O1 4289   3.173   1.232   0.374  0.0277  0.0073  1.0150
  280TMC3    O2 4290   3.064   0.786   0.482  0.4698 -0.6982  0.1950
  281TMC3    C1 4291   2.315   1.602  13.622 -0.6482  0.1656 -0.2068
  281TMC3    C2 4292   2.331   1.616  13.484  0.1229 -0.3983  0.2351
  281TMC3    C3 4293   2.307   1.497  13.412  0.4010 -0.2033 -0.0084
  281TMC3    C4 4294   2.292   1.480  13.677 -0.1745 -0.0786  0.0697
  281TMC3    C5 4295   2.297   1.368  13.611 -0.0558 -0.5241 -0.5724
  281TMC3    C6 4296   2.292   1.367  13.469  0.2551  0.2578 -0.1703
  281TMC3     C 4297   2.226   1.702  13.678 -0.0163  0.2964 -0.1251
  281TMC3     O 4298   2.135   1.661  13.750 -0.1295 -0.8981 -0.6543
  281TMC3     H 4299   2.327   1.711  13.432  1.0381  0.1143  1.1075
  281TMC3    H1 4300   2.265   1.476  13.782 -1.0178  0.6669 -0.1219
  281TMC3    H2 4301   2.264   1.273  13.424 -1.5013  0.9863 -0.6129
  281TMC3    C7 4302   2.225   1.261  13.680  0.5576  0.2070 -0.0160
  281TMC3    C8 4303   2.233   1.521  13.284 -0.3835 -0.0599 -0.3981
  281TMC3    O1 4304   2.117   1.293  13.733  0.0748  0.9775 -0.1377
  281TMC3    O2 4305   2.194   1.631  13.245 -0.1298 -0.4953  0.1160
  282MPD2     C 4306   4.175   2.378  15.049  0.1127  0.5577 -0.2322
  282MPD2    C1 4307   4.131   2.508  15.024 -0.3822 -0.1996 -0.1300
  282MPD2    C2 4308   4.098   2.542  14.894  0.0612  0.0239  0.8639
  282MPD2    C3 4309   4.090   2.444  14.796  0.5778 -0.0607 -0.4968
  282MPD2    C4 4310   4.135   2.315  14.820 -0.1458 -0.1999 -0.2705
  282MPD2    C5 4311   4.172   2.284  14.949  0.3975 -0.6806  0.3872
  282MPD2     H 4312   4.059   2.639  14.866  1.9743  0.6635  0.4391
  282MPD2    H1 4313   4.137   2.233  14.749 -1.4212 -1.0922  0.7140
  282MPD2    H2 4314   4.201   2.345  15.149 -3.9867 -1.4178  0.1856
  282MPD2    H3 4315   4.206   2.182  14.964  1.2222 -0.2142  1.6242
  282MPD2     N 4316   4.022   2.486  14.677 -0.4587 -0.4353 -0.5871
  282MPD2    H5 4317   4.004   2.586  14.677 -0.8737 -0.5054  2.2700
  282MPD2    N1 4318   4.120   2.583  15.135  0.0886 -0.0969 -0.1277
  282MPD2    H7 4319   4.148   2.542  15.223 -0.1296  0.7711  0.3491
  283TMC3    C1 4320   4.053   2.758  15.270  0.5812 -0.6385 -1.0022
  283TMC3    C2 4321   4.046   2.897  15.297 -0.5469  0.7107  0.0604
  283TMC3    C3 4322   4.018   2.932  15.423  0.9491  0.0081 -0.0735
  283TMC3    C4 4323   4.008   2.664  15.365 -0.1390 -0.0310 -0.2499
  283TMC3    C5 4324   3.982   2.715  15.486  0.9211  0.0820 -0.8756
  283TMC3    C6 4325   3.983   2.850  15.513  0.0749 -1.2906 -0.2527
  283TMC3     C 4326   4.079   2.713  15.138  0.2824 -0.2502 -0.0592
  283TMC3     O 4327   4.062   2.800  15.051  0.0517 -0.3732  0.0375
  283TMC3     H 4328   4.086   2.970  15.226  0.0883 -0.3334 -0.6627
  283TMC3    H1 4329   4.009   2.558  15.342 -1.6264  0.0463 -0.7215
  283TMC3    H2 4330   3.953   2.885  15.611  1.4495 -0.3119 -0.1703
  283TMC3    C7 4331   3.912   2.641  15.585  0.1569  0.2071  0.1063
  283TMC3    C8 4332   4.057   3.064  15.469 -0.6785 -0.0744  0.4968
  283TMC3    O1 4333   3.926   2.681  15.699  0.5003  0.0536 -0.4258
  283TMC3    O2 4334   4.063   3.076  15.591 -0.4623  0.0668 -0.0825
  284MPD2     C 4335   2.062   1.980  12.360 -0.0116 -0.3127  0.0159
  284MPD2    C1 4336   2.194   1.986  12.322 -0.9080 -0.7199 -0.3993
  284MPD2    C2 4337   2.291   1.911  12.383 -0.1254  0.6989  0.2842
  284MPD2    C3 4338   2.253   1.827  12.481  0.6042  0.5643  0.3801
  284MPD2    C4 4339   2.122   1.819  12.517 -0.5092  0.1699 -0.0652
  284MPD2    C5 4340   2.026   1.895  12.457 -0.2836 -0.0962 -0.4424
  284MPD2     H 4341   2.393   1.914  12.347 -0.6660  0.1243 -1.2717
  284MPD2    H1 4342   2.098   1.763  12.607  1.3481 -1.4119 -0.5607
  284MPD2    H2 4343   1.981   2.036  12.314  0.5072  0.8562  0.5278
  284MPD2    H3 4344   1.927   1.892  12.502 -0.4001  1.6009 -0.5941
  284MPD2     N 4345   2.348   1.769  12.569 -0.2193  0.2489 -0.2393
  284MPD2    H5 4346   2.322   1.700  12.639  1.7486  1.0261  1.2737
  284MPD2    N1 4347   2.241   2.068  12.217  0.1016  0.1743  0.2115
  284MPD2    H7 4348   2.340   2.088  12.222  0.0221  1.5508 -3.3442
  285TMC3    C1 4349   2.224   2.201  12.021  0.5239 -0.2346 -0.0052
  285TMC3    C2 4350   2.360   2.198  12.020 -0.0768 -0.2080  0.1769
  285TMC3    C3 4351   2.422   2.290  11.943 -0.1491  0.0711  0.1276
  285TMC3    C4 4352   2.145   2.281  11.936  1.2548  0.1503 -0.2178
  285TMC3    C5 4353   2.215   2.367  11.850 -0.6352 -0.0957 -0.1881
  285TMC3    C6 4354   2.351   2.376  11.862 -0.7685  0.7671 -0.9241
  285TMC3     C 4355   2.155   2.133  12.128 -0.4301 -0.4358  0.2924
  285TMC3     O 4356   2.035   2.137  12.119  0.3304  0.2056 -0.8837
  285TMC3     H 4357   2.419   2.120  12.066  0.2837 -0.1260 -0.1447
  285TMC3    H1 4358   2.037   2.277  11.933  1.2774 -1.1291  0.6162
  285TMC3    H2 4359   2.403   2.447  11.799  1.2888  1.1302  1.2050
  285TMC3    C7 4360   2.149   2.491  11.826 -0.5126  0.3193  0.0694
  285TMC3    C8 4361   2.540   2.246  11.884  0.2943 -0.4132 -0.1349
  285TMC3    O1 4362   2.210   2.599  11.856  0.4661  0.3987 -0.0544
  285TMC3    O2 4363   2.532   2.124  11.861 -0.1552 -0.4233  0.3095
  286MPD2     C 4364   3.061   0.822   1.701  0.4577 -0.0563 -0.5334
  286MPD2    C1 4365   3.022   0.775   1.576 -0.3169 -0.3626  0.1151
  286MPD2    C2 4366   3.126   0.730   1.492  0.3637 -0.0270 -0.9599
  286MPD2    C3 4367   3.257   0.728   1.531 -0.1748  0.5232 -0.1249
  286MPD2    C4 4368   3.287   0.775   1.656 -0.9024  0.7729 -0.0699
  286MPD2    C5 4369   3.194   0.832   1.737  0.1385  0.3404  0.2908
  286MPD2     H 4370   3.098   0.690   1.395 -1.5501 -1.6542  0.2589
  286MPD2    H1 4371   3.387   0.765   1.696 -1.7279  0.2917  1.9005
  286MPD2    H2 4372   2.998   0.868   1.776  0.4354 -0.1456 -0.4983
  286MPD2    H3 4373   3.234   0.874   1.828  0.8547 -0.6099  0.4084
  286MPD2     N 4374   3.363   0.664   1.463  0.2210 -0.3558  0.2754
  286MPD2    H5 4375   3.449   0.664   1.517  0.4256  1.5926 -0.0680
  286MPD2    N1 4376   2.888   0.787   1.526  0.6639  1.0633 -0.6403
  286MPD2    H7 4377   2.876   0.755   1.430 -0.0311 -1.0336  0.1534
  287TMC3    C1 4378   3.482   0.542   1.303  0.1983  0.7683 -0.5312
  287TMC3    C2 4379   3.477   0.457   1.193  0.0320  0.3979  0.6508
  287TMC3    C3 4380   3.580   0.374   1.181 -0.5127 -0.3157  0.8660
  287TMC3    C4 4381   3.592   0.553   1.385  0.1120 -0.4145  0.1338
  287TMC3    C5 4382   3.699   0.473   1.355 -0.4187  0.5047  0.0654
  287TMC3    C6 4383   3.690   0.374   1.262  0.3603 -0.1346 -1.1917
  287TMC3     C 4384   3.355   0.601   1.340 -0.9852  0.4798  0.2262
  287TMC3     O 4385   3.253   0.574   1.274 -0.5838  0.4147  0.1446
  287TMC3     H 4386   3.387   0.452   1.133  0.7224 -1.0360 -0.2684
  287TMC3    H1 4387   3.602   0.630   1.461  0.5445 -0.3132 -0.0268
  287TMC3    H2 4388   3.765   0.298   1.249  0.6708 -0.1294  0.5599
  287TMC3    C7 4389   3.827   0.508   1.417 -0.3554 -0.1419  0.5332
  287TMC3    C8 4390   3.561   0.273   1.075  0.2216 -0.3817 -0.0106
  287TMC3    O1 4391   3.838   0.627   1.437  0.6520 -0.5119 -0.5692
  287TMC3    O2 4392   3.450   0.222   1.065 -0.0342  0.9249  0.2295
  288TMC3    C1 4393   4.724   0.391  14.438  0.0457  0.4775  0.1061
  288TMC3    C2 4394   4.606   0.362  14.504  0.0054 -0.2193  1.0575
  288TMC3    C3 4395   4.502   0.445  14.480  0.5610  0.0612  0.9714
  288TMC3    C4 4396   4.735   0.489  14.350 -0.0875  0.1810 -0.0173
  288TMC3    C5 4397   4.626   0.562  14.315 -0.0601  0.8102  0.5534
  288TMC3    C6 4398   4.509   0.539  14.381  0.2382 -0.8318  0.2454
  288TMC3     C 4399   0.096   0.294  14.467  0.0078 -0.1378  0.3802
  288TMC3     O 4400   0.070   0.202  14.542 -0.5950 -0.3477  0.0086
  288TMC3     H 4401   4.604   0.300  14.593 -1.8868  0.7425  1.7006
  288TMC3    H1 4402   0.092   0.502  14.300  1.9710 -1.7919  3.4008
  288TMC3    H2 4403   4.414   0.585  14.360  0.6586  0.8595  2.0226
  288TMC3    C7 4404   4.640   0.655  14.209 -0.3335 -0.1424 -0.2372
  288TMC3    C8 4405   4.400   0.466  14.573 -0.1894 -0.1759 -0.1573
  288TMC3    O1 4406   0.014   0.688  14.173 -0.5666  0.3430  0.0509
  288TMC3    O2 4407   4.354   0.578  14.578 -0.3074 -0.2494  0.1109
  289MPD2     C 4408   4.472   4.383  14.046  0.0060 -0.1115 -1.1865
  289MPD2    C1 4409   4.460   4.471  14.156 -0.8213  0.2664  0.2477
  289MPD2    C2 4410   4.337   4.478  14.218  0.5054 -0.0833  0.3484
  289MPD2    C3 4411   4.235   4.392  14.187 -0.6665  0.4607  0.1351
  289MPD2    C4 4412   4.255   4.302  14.085 -0.3384 -0.8386 -0.8716
  289MPD2    C5 4413   4.372   4.294  14.014  0.2159  0.2338  0.0504
  289MPD2     H 4414   4.330   4.546  14.302 -2.4491  0.3314 -0.2157
  289MPD2    H1 4415   4.180   4.228  14.057 -0.4479 -0.8212 -0.6338
  289MPD2    H2 4416   4.556   4.376  13.978  0.6810  2.0219 -0.5709
  289MPD2    H3 4417   4.399   4.217  13.943  0.6355  1.1156 -0.7432
  289MPD2     N 4418   4.100   4.401  14.241 -0.1099 -0.3586  0.2531
  289MPD2    H5 4419   4.018   4.358  14.201 -0.3991  1.9088 -1.6021
  289MPD2    N1 4420   4.575   4.542  14.193 -0.0027 -0.0204 -0.1925
  289MPD2    H7 4421   4.652   4.537  14.126  0.9787  0.2481  0.9149
  290TMC3    C1 4422   3.928   4.462  14.383 -0.3796  0.3097  0.6131
  290TMC3    C2 4423   3.875   4.575  14.443 -0.1201 -0.5807 -0.5260
  290TMC3    C3 4424   3.740   4.586  14.445 -0.1760  0.0238 -0.6017
  290TMC3    C4 4425   3.842   4.365  14.333 -0.0770 -0.3091  0.6274
  290TMC3    C5 4426   3.706   4.386  14.321  1.0793  0.4411 -0.5942
  290TMC3    C6 4427   3.657   4.499  14.380 -0.1668 -0.0508 -0.2016
  290TMC3     C 4428   4.064   4.483  14.341 -0.6875 -0.7059  0.3651
  290TMC3     O 4429   4.132   4.562  14.401 -0.1454  0.1170 -0.7121
  290TMC3     H 4430   3.943   4.652  14.479 -1.9102  1.6151 -1.8620
  290TMC3    H1 4431   3.887   4.275  14.293  0.2226 -0.8554  2.1802
  290TMC3    H2 4432   3.552   4.523  14.369  0.2098  1.6501 -0.0537
  290TMC3    C7 4433   3.617   4.290  14.259 -0.2475 -0.6192  0.0454
  290TMC3    C8 4434   3.688   4.722  14.458 -0.1713 -0.1225  0.3607
  290TMC3    O1 4435   3.501   4.331  14.253 -0.4203  0.1396 -0.7443
  290TMC3    O2 4436   3.598   0.022  14.382  0.3143 -0.3340  1.4834
  291MPD2     C 4437   3.891   4.611   0.330  0.6026 -0.3297 -0.4725
  291MPD2    C1 4438   3.979   4.529   0.387  0.1946  0.3027  0.0690
  291MPD2    C2 4439   4.071   4.578   0.479  0.0848  0.1806  0.6475
  291MPD2    C3 4440   4.066   4.716   0.515 -0.3365 -0.5609  0.4145
  291MPD2    C4 4441   3.970   0.058   0.458 -0.4545  0.4109 -0.8373
  291MPD2    C5 4442   3.893   0.009   0.356  0.6941 -0.2592  0.1556
  291MPD2     H 4443   4.145   4.504   0.509 -1.9868 -1.8619  0.7695
  291MPD2    H1 4444   3.962   0.164   0.481 -1.2663  0.9274 -3.5099
  291MPD2    H2 4445   3.829   4.580   0.247  1.0219  0.2130 -0.9921
  291MPD2    H3 4446   3.830   0.081   0.305  1.2258 -0.3785 -0.6869
  291MPD2     N 4447   4.166   0.041   0.589  0.1364  0.0551  0.4429
  291MPD2    H5 4448   4.154   0.142   0.586  0.2478  0.0657  0.3550
  291MPD2    N1 4449   4.004   4.392   0.349  0.1605 -0.3890 -0.1612
  291MPD2    H7 4450   4.076   4.349   0.407  0.7849  0.4836 -0.2820
  292TMC3    C1 4451   4.028   4.218   0.195 -0.0643 -0.0868  1.1518
  292TMC3    C2 4452   4.157   4.195   0.243 -0.1052  0.4926  0.7675
  292TMC3    C3 4453   4.234   4.097   0.186 -0.2583  0.0815 -0.8857
  292TMC3    C4 4454   3.975   4.148   0.091 -0.2752  0.4619  0.5389
  292TMC3    C5 4455   4.065   4.063   0.026  0.3820  0.3380  0.1724
  292TMC3    C6 4456   4.189   4.032   0.073 -0.0720 -0.5754  0.0309
  292TMC3     C 4457   3.942   4.319   0.249 -0.1805 -0.0698 -0.1493
  292TMC3     O 4458   3.836   4.332   0.192 -0.0944 -0.0210 -0.5250
  292TMC3     H 4459   4.190   4.237   0.337  0.0034  3.2074 -0.4968
  292TMC3    H1 4460   3.879   4.173   0.048 -0.5497  0.1581  0.9818
  292TMC3    H2 4461   4.261   3.977   0.013  0.6777 -1.2788  1.5722
  292TMC3    C7 4462   4.022   3.988  17.656 -0.1639 -0.4225 -0.0263
  292TMC3    C8 4463   4.293   4.016   0.291 -1.0117  0.1452 -0.5295
  292TMC3    O1 4464   4.112   3.943  17.588 -0.9602  0.5169 -0.4828
  292TMC3    O2 4465   4.362   4.062   0.385 -0.6071  0.5093 -0.0168
  293MPD2     C 4466   0.928   1.259  12.750  1.1515 -0.0172  0.5173
  293MPD2    C1 4467   0.846   1.149  12.750 -0.2041 -0.6377  0.1099
  293MPD2    C2 4468   0.790   1.103  12.869  0.2116  0.6677  0.3119
  293MPD2    C3 4469   0.794   1.169  12.988  0.1106 -0.3332  0.1173
  293MPD2    C4 4470   0.867   1.289  12.984 -0.1206 -0.5586 -0.0241
  293MPD2    C5 4471   0.931   1.328  12.870  0.2142 -0.1007  0.0103
  293MPD2     H 4472   0.725   1.016  12.870  1.2354 -0.1002  0.1310
  293MPD2    H1 4473   0.886   1.338  13.079  0.9384 -0.1995 -0.4231
  293MPD2    H2 4474   0.992   1.280  12.665 -0.6701  3.0572 -0.0931
  293MPD2    H3 4475   0.988   1.420  12.871 -1.7699  1.1527 -3.0138
  293MPD2     N 4476   0.739   1.110  13.106 -0.6267  0.0619  0.6909
  293MPD2    H5 4477   0.692   1.024  13.082  2.8418 -1.3553 -0.9280
  293MPD2    N1 4478   0.813   1.103  12.623  0.5691  0.0637  0.8138
  293MPD2    H7 4479   0.855   1.139  12.538 -1.9420 -1.5585 -1.1220
  294TMC3    C1 4480   0.694   0.967  12.457 -0.3300 -0.5475  0.6249
  294TMC3    C2 4481   0.609   0.860  12.434 -0.6352  0.1823 -0.2479
  294TMC3    C3 4482   0.563   0.844  12.309 -0.3963 -0.1479 -0.2208
  294TMC3    C4 4483   0.742   1.043  12.359  0.0607  0.4511 -0.6222
  294TMC3    C5 4484   0.690   1.023  12.234 -0.2543  0.7691 -0.1222
  294TMC3    C6 4485   0.595   0.931  12.205  0.3548  0.2808  0.0332
  294TMC3     C 4486   0.717   0.998  12.597  0.3154 -0.0644  0.1764
  294TMC3     O 4487   0.668   0.917  12.678  0.9291 -0.6650 -0.5691
  294TMC3     H 4488   0.577   0.798  12.517 -0.6243  0.7277  0.1607
  294TMC3    H1 4489   0.817   1.119  12.377  0.5546  0.2274 -1.7445
  294TMC3    H2 4490   0.549   0.941  12.107 -0.5073 -2.2606  0.1812
  294TMC3    C7 4491   0.743   1.110  12.126 -0.1844  0.2191 -0.4078
  294TMC3    C8 4492   0.476   0.729  12.293 -0.3006  0.4483 -0.5814
  294TMC3    O1 4493   0.799   1.212  12.159 -0.0266  0.0629 -0.4586
  294TMC3    O2 4494   0.429   0.681  12.395  0.1150  0.1214 -0.1277
  295MPD2     C 4495   1.128   4.516   0.222  0.8083 -0.6955 -0.0725
  295MPD2    C1 4496   1.137   4.511   0.357 -0.1707  0.3263 -0.5619
  295MPD2    C2 4497   1.038   4.444   0.429 -0.1673  0.8969  0.1320
  295MPD2    C3 4498   0.924   4.401   0.366 -0.2198  0.9958  0.1638
  295MPD2    C4 4499   0.922   4.406   0.228 -0.1557  0.1092 -0.6009
  295MPD2    C5 4500   1.014   4.478   0.155  0.7477  0.3983 -0.1341
  295MPD2     H 4501   1.043   4.438   0.537 -0.9804  0.3919  0.1445
  295MPD2    H1 4502   0.830   4.368   0.183  0.0879 -1.2013 -0.0029
  295MPD2    H2 4503   1.208   4.558   0.161  1.4521 -0.1936  1.1082
  295MPD2    H3 4504   1.007   4.479   0.047  2.4011 -2.0666 -0.2728
  295MPD2     N 4505   0.822   4.325   0.439  0.4208 -0.1909  0.4769
  295MPD2    H5 4506   0.741   4.300   0.383  0.6290  2.4578 -0.9933
  295MPD2    N1 4507   1.251   4.548   0.436  0.1867 -0.3056  0.1215
  295MPD2    H7 4508   1.245   4.534   0.536  0.6298 -2.2403 -0.1221
  296TMC3    C1 4509   0.699   4.218   0.598  0.0214  0.0817  0.1925
  296TMC3    C2 4510   0.634   4.231   0.719 -0.6929  0.6296 -0.4436
  296TMC3    C3 4511   0.567   4.120   0.764  0.2511 -0.3358 -0.3699
  296TMC3    C4 4512   0.676   4.110   0.511 -0.1524 -0.0922  0.2036
  296TMC3    C5 4513   0.606   4.006   0.563 -0.6941  0.3240 -0.7218
  296TMC3    C6 4514   0.553   4.005   0.691 -0.6094 -0.0448  0.3522
  296TMC3     C 4515   0.812   4.302   0.575  0.1250 -0.6471 -0.5492
  296TMC3     O 4516   0.881   4.333   0.669  0.3226 -0.6162  0.0376
  296TMC3     H 4517   0.643   4.328   0.766 -5.7682  1.0170 -0.2580
  296TMC3    H1 4518   0.706   4.100   0.407 -2.2271 -1.0815 -0.3103
  296TMC3    H2 4519   0.496   3.919   0.724 -0.6680  0.8135  2.5042
  296TMC3    C7 4520   0.624   3.877   0.501 -0.1174  0.4897  0.5557
  296TMC3    C8 4521   0.465   4.131   0.861  0.1139  1.1023 -0.1688
  296TMC3    O1 4522   0.604   3.870   0.382 -0.6883 -0.0364 -0.1157
  296TMC3    O2 4523   0.374   4.052   0.870 -0.2478 -0.6193  0.0440
  297MPD2     C 4524   3.134   1.522  16.184 -1.4029 -0.5625  0.6708
  297MPD2    C1 4525   3.155   1.655  16.162 -0.3857  1.0165  0.2602
  297MPD2    C2 4526   3.282   1.696  16.146  0.5873 -0.1518  0.2629
  297MPD2    C3 4527   3.382   1.611  16.159  0.9594  0.5262  0.4700
  297MPD2    C4 4528   3.362   1.473  16.170  0.4508 -0.0553  0.3070
  297MPD2    C5 4529   3.236   1.436  16.186 -0.5226  0.3850 -0.0854
  297MPD2     H 4530   3.297   1.801  16.124  0.3987 -0.0531  0.6074
  297MPD2    H1 4531   3.443   1.401  16.167 -0.4760 -1.0965  0.3617
  297MPD2    H2 4532   3.034   1.482  16.190 -0.9248 -2.0400 -1.1742
  297MPD2    H3 4533   3.219   1.334  16.218  1.1774  0.2978  0.5420
  297MPD2     N 4534   3.511   1.666  16.143  0.3328  0.3750 -0.0715
  297MPD2    H5 4535   3.510   1.767  16.141  0.2398  0.3611 -0.6204
  297MPD2    N1 4536   3.041   1.740  16.144 -0.8805  0.2501 -0.3474
  297MPD2    H7 4537   2.954   1.702  16.180  0.0995 -1.6265  0.0579
  298TMC3    C1 4538   2.894   1.883  16.027  0.3220 -0.1503  0.2650
  298TMC3    C2 4539   2.865   1.860  15.893  0.1726  0.8324 -0.5775
  298TMC3    C3 4540   2.735   1.859  15.855 -0.4289  0.1500  0.0444
  298TMC3    C4 4541   2.793   1.906  16.117 -0.1476  0.3408 -0.1776
  298TMC3    C5 4542   2.668   1.900  16.070  0.0843 -0.1996 -0.2704
  298TMC3    C6 4543   2.634   1.877  15.946  0.1131  0.2403  0.1359
  298TMC3     C 4544   3.034   1.857  16.067 -0.1435  0.5388  0.0723
  298TMC3     O 4545   3.124   1.913  16.003  0.0312  0.1868 -0.5278
  298TMC3     H 4546   2.942   1.838  15.820 -0.8770  0.1163 -1.4659
  298TMC3    H1 4547   2.815   1.914  16.223 -0.2902  0.3306 -0.1468
  298TMC3    H2 4548   2.533   1.876  15.908 -0.4685 -0.5378  1.6794
  298TMC3    C7 4549   2.565   1.920  16.170  0.5529  0.0310  0.0820
  298TMC3    C8 4550   2.698   1.814  15.728  0.2732  0.7559  0.3215
  298TMC3    O1 4551   2.579   1.909  16.294  0.3452 -0.7748  0.3116
  298TMC3    O2 4552   2.587   1.767  15.716 -0.2734 -0.4207  0.5740
  299MPD2     C 4553   4.010   2.582  10.199 -0.0597 -0.4115  0.3527
  299MPD2    C1 4554   4.001   2.485  10.299  0.4420  0.3821 -0.0383
  299MPD2    C2 4555   3.886   2.409  10.288 -0.0418  0.3750 -0.0600
  299MPD2    C3 4556   3.772   2.435  10.204  0.5524 -0.2751  0.1186
  299MPD2    C4 4557   3.784   2.539  10.120 -0.1803  0.1018 -0.0937
  299MPD2    C5 4558   3.904   2.605  10.113 -0.1409  0.1130 -0.1806
  299MPD2     H 4559   3.879   2.327  10.358  1.4317 -0.3646 -0.7750
  299MPD2    H1 4560   3.714   2.568  10.042 -0.3686 -0.1730 -0.0309
  299MPD2    H2 4561   4.106   2.632  10.193  0.6958 -1.8623  0.5841
  299MPD2    H3 4562   3.914   2.681  10.036  2.6411 -1.9731 -1.9173
  299MPD2     N 4563   3.651   2.366  10.200  0.1602  0.0911 -0.0649
  299MPD2    H5 4564   3.572   2.404  10.150 -0.3118 -0.0067  0.6116
  299MPD2    N1 4565   4.105   2.456  10.397  0.4311  0.1744  0.5260
  299MPD2    H7 4566   4.188   2.514  10.400  0.4135  0.2303 -0.1235
  300TMC3    C1 4567   3.500   2.207  10.275  0.0086 -0.2234  0.0636
  300TMC3    C2 4568   3.396   2.296  10.244 -0.2134  0.0508  0.6200
  300TMC3    C3 4569   3.274   2.277  10.303  0.6385  0.1678  0.6522
  300TMC3    C4 4570   3.481   2.100  10.359 -0.3190 -0.0567 -1.0498
  300TMC3    C5 4571   3.360   2.088  10.415 -0.3258 -0.3356  0.5151
  300TMC3    C6 4572   3.253   2.168  10.383  0.0101  0.0024 -0.1139
  300TMC3     C 4573   3.636   2.249  10.269  0.3189 -0.2194 -0.7579
  300TMC3     O 4574   3.722   2.167  10.310  0.0107 -0.0615 -0.4248
  300TMC3     H 4575   3.417   2.393  10.202 -3.6988  0.1345 -0.9544
  300TMC3    H1 4576   3.560   2.026  10.368  0.4494  0.9235  0.2284
  300TMC3    H2 4577   3.161   2.146  10.436  1.5822 -1.8978  1.7847
  300TMC3    C7 4578   3.338   1.954  10.472  0.5462 -1.0370 -0.2283
  300TMC3    C8 4579   3.217   2.400  10.340 -0.3291 -0.3795  0.1769
  300TMC3    O1 4580   3.404   1.858  10.434 -0.3677  0.7672 -0.2915
  300TMC3    O2 4581   3.285   2.505  10.334  0.0723  0.0311  0.0751
  301MPD2     C 4582   0.717   1.937   1.766 -0.1900 -0.5451 -0.2578
  301MPD2    C1 4583   0.640   1.936   1.650 -0.3972 -0.2700 -0.1540
  301MPD2    C2 4584   0.667   1.836   1.558  0.6284 -0.0839 -0.0549
  301MPD2    C3 4585   0.747   1.733   1.590  0.0144  0.0469  0.0192
  301MPD2    C4 4586   0.814   1.736   1.708 -0.0369 -0.4988  0.0300
  301MPD2    C5 4587   0.807   1.839   1.793  0.0170 -0.3791 -0.1458
  301MPD2     H 4588   0.621   1.839   1.460 -0.2673 -2.4890  0.2946
  301MPD2    H1 4589   0.877   1.652   1.732  0.9813 -0.1069 -1.2876
  301MPD2    H2 4590   0.691   1.998   1.852  0.8783 -0.9401  0.3540
  301MPD2    H3 4591   0.858   1.829   1.889  0.6862 -2.8259 -0.7424
  301MPD2     N 4592   0.768   1.618   1.503  0.3987 -0.1432  0.4708
  301MPD2    H5 4593   0.843   1.554   1.526  0.9948  0.5618  0.4785
  301MPD2    N1 4594   0.543   2.031   1.630  0.4358  0.3043  0.2043
  301MPD2    H7 4595   0.492   2.025   1.542  1.2132 -2.5286 -0.0532
  302TMC3    C1 4596   0.773   1.512   1.287  0.3406  0.5529 -0.3348
  302TMC3    C2 4597   0.905   1.496   1.309  0.1103 -1.0500 -0.6763
  302TMC3    C3 4598   0.970   1.436   1.201  0.0049 -0.1060  0.6642
  302TMC3    C4 4599   0.703   1.490   1.167 -0.6705 -0.7947  0.2957
  302TMC3    C5 4600   0.786   1.448   1.061  0.1818  0.5052  0.4441
  302TMC3    C6 4601   0.916   1.409   1.083 -0.4823  0.1469  1.5151
  302TMC3     C 4602   0.699   1.597   1.381  0.0583 -0.7474  0.5182
  302TMC3     O 4603   0.606   1.653   1.324 -0.4948 -0.5869 -0.2924
  302TMC3     H 4604   0.968   1.533   1.390 -0.7052 -0.7183 -0.1929
  302TMC3    H1 4605   0.595   1.500   1.160 -0.3857  1.6063 -0.6229
  302TMC3    H2 4606   0.977   1.370   1.003 -1.3038  0.6564  0.6464
  302TMC3    C7 4607   0.737   1.431   0.930  0.4401  0.3913  0.3235
  302TMC3    C8 4608   1.088   1.359   1.240  0.4872 -0.6147  0.4665
  302TMC3    O1 4609   0.804   1.368   0.845  0.0654  0.5097  0.3506
  302TMC3    O2 4610   1.159   1.409   1.325 -0.2312 -0.2105 -0.0450
  303MPD2     C 4611   1.417   1.092  10.540 -0.5324  0.0100  0.6409
  303MPD2    C1 4612   1.319   1.012  10.478  0.5382  0.2112  0.5170
  303MPD2    C2 4613   1.235   1.070  10.378 -0.4452  0.2843  0.3343
  303MPD2    C3 4614   1.247   1.202  10.342 -0.8307  0.3893 -0.4820
  303MPD2    C4 4615   1.353   1.271  10.400  0.1848  0.5179 -0.2420
  303MPD2    C5 4616   1.434   1.217  10.497 -0.1903  0.1190  0.5424
  303MPD2     H 4617   1.150   1.014  10.342  0.9940 -1.3102 -0.5858
  303MPD2    H1 4618   1.374   1.368  10.358 -0.3729  0.1324 -1.4016
  303MPD2    H2 4619   1.471   1.058  10.628  1.3945  1.3088 -0.0522
  303MPD2    H3 4620   1.515   1.283  10.529  0.2697  0.7431 -1.8826
  303MPD2     N 4621   1.155   1.270  10.252  0.2417  0.5040 -0.3869
  303MPD2    H5 4622   1.154   1.371  10.258  1.0463  0.2567  3.5248
  303MPD2    N1 4623   1.295   0.887  10.543 -0.5417  0.0700 -0.0276
  303MPD2    H7 4624   1.356   0.867  10.621 -0.1660  1.6231  0.0689
  304TMC3    C1 4625   1.196   0.688  10.596  0.1892 -0.3271 -0.4458
  304TMC3    C2 4626   1.169   0.722  10.728 -0.3626 -0.7311 -0.1132
  304TMC3    C3 4627   1.084   0.646  10.803  0.2160  0.0944  0.3062
  304TMC3    C4 4628   1.154   0.573  10.539 -0.5833  0.5312  0.5357
  304TMC3    C5 4629   1.081   0.493  10.620 -0.0756 -0.8104 -0.8597
  304TMC3    C6 4630   1.044   0.529  10.751 -0.4781 -0.0150  0.4995
  304TMC3     C 4631   1.213   0.794  10.499  0.4962  0.7085 -0.6205
  304TMC3     O 4632   1.147   0.784  10.394  0.7406 -0.4762  0.4645
  304TMC3     H 4633   1.198   0.818  10.769  0.3729 -1.5798  1.3914
  304TMC3    H1 4634   1.182   0.551  10.436 -1.6478 -0.1919  0.3949
  304TMC3    H2 4635   0.993   0.460  10.817 -1.8493 -2.2442 -2.8525
  304TMC3    C7 4636   0.963   0.433  10.558  0.0657 -0.5537  0.2842
  304TMC3    C8 4637   0.972   0.732  10.842  0.1383 -1.3724  0.5616
  304TMC3    O1 4638   0.863   0.424  10.633 -0.4248 -0.0491 -0.0051
  304TMC3    O2 4639   0.997   0.847  10.874  0.3559 -0.5902  0.4800
  305MPD2     C 4640   4.002   2.941  14.127  0.0756 -0.1899 -0.4093
  305MPD2    C1 4641   4.041   2.815  14.165  0.7917  0.3620  0.9471
  305MPD2    C2 4642   4.032   2.714  14.076 -0.7343  0.3272 -0.4570
  305MPD2    C3 4643   3.975   2.727  13.952  0.0679 -0.3700  0.0635
  305MPD2    C4 4644   3.946   2.855  13.909  0.0186 -0.2148  0.5525
  305MPD2    C5 4645   3.963   2.961  13.997 -0.4987 -0.4313  0.4416
  305MPD2     H 4646   4.066   2.616  14.108  0.6350  0.3962 -1.6648
  305MPD2    H1 4647   3.914   2.875  13.808  1.4199  0.1462  0.1713
  305MPD2    H2 4648   4.013   3.022  14.197  0.0830 -0.9229  0.4445
  305MPD2    H3 4649   3.949   3.062  13.961  0.1728 -0.4727  0.0744
  305MPD2     N 4650   3.962   2.626  13.856  0.7806 -0.2961  0.4499
  305MPD2    H5 4651   3.926   2.652  13.765  0.1402  0.1691  0.8387
  305MPD2    N1 4652   4.096   2.807  14.291 -0.2241 -0.0130 -0.5564
  305MPD2    H7 4653   4.100   2.889  14.351 -0.5483  0.2651 -0.9193
  306TMC3    C1 4654   4.275   2.749  14.434  0.6383  0.4259  0.2143
  306TMC3    C2 4655   4.338   2.644  14.508  0.5270  0.0359  0.8827
  306TMC3    C3 4656   4.448   2.683  14.578 -0.6432  0.7046  0.4074
  306TMC3    C4 4657   4.317   2.880  14.440 -0.1612 -0.4710  0.2347
  306TMC3    C5 4658   4.424   2.914  14.515 -0.4139 -0.3445  0.0776
  306TMC3    C6 4659   4.496   2.813  14.574 -0.8331 -0.2588 -0.6666
  306TMC3     C 4660   4.181   2.705  14.336 -0.3641 -0.0273 -0.6878
  306TMC3     O 4661   4.184   2.588  14.310 -0.1471 -0.0852 -0.1185
  306TMC3     H 4662   4.315   2.540  14.488 -0.6569  0.7454 -1.4649
  306TMC3    H1 4663   4.275   2.950  14.369  1.1943  1.5732  1.4541
  306TMC3    H2 4664   4.595   2.828  14.615 -2.4130  1.4622  2.4599
  306TMC3    C7 4665   4.436   3.059  14.542  0.2217 -1.0458  0.1905
  306TMC3    C8 4666   4.540   2.576  14.610  0.3853  1.0248  0.3074
  306TMC3    O1 4667   4.363   3.137  14.482 -0.0823 -0.5373 -0.0091
  306TMC3    O2 4668   4.519   2.479  14.541  0.2964  0.5936 -0.2964
  307MPD2     C 4669   2.519   0.080   0.326 -0.2028  0.1215 -0.4536
  307MPD2    C1 4670   2.493   0.214   0.332  0.6537 -0.2641  0.2166
  307MPD2    C2 4671   2.410   0.264   0.430 -0.0829 -0.0839 -0.1040
  307MPD2    C3 4672   2.334   0.183   0.509 -0.2755 -0.1343 -0.1566
  307MPD2    C4 4673   2.356   0.047   0.496  0.7811  0.1724 -0.1711
  307MPD2    C5 4674   2.452   4.734   0.411  0.2825  0.2184 -0.0352
  307MPD2     H 4675   2.379   0.368   0.423 -0.9681 -0.4656 -1.9715
  307MPD2    H1 4676   2.309   4.713   0.563 -0.3957 -0.4852 -1.7083
  307MPD2    H2 4677   2.579   0.037   0.246 -1.4936 -0.6403 -1.0260
  307MPD2    H3 4678   2.452   4.626   0.409  1.5041  0.2153  0.5867
  307MPD2     N 4679   2.236   0.243   0.583 -0.6518 -0.4597 -0.5165
  307MPD2    H5 4680   2.230   0.344   0.588 -0.7803 -0.3951 -2.0790
  307MPD2    N1 4681   2.553   0.313   0.244 -0.3041 -0.3246  0.4435
  307MPD2    H7 4682   2.507   0.403   0.246  1.0111  0.3644 -0.6157
  308TMC3    C1 4683   1.786   0.310   0.650  0.1099 -0.5729  0.1469
  308TMC3    C2 4684   1.805   0.443   0.696  0.3661 -0.2314 -0.1092
  308TMC3    C3 4685   1.933   0.485   0.724  0.4115 -0.5416 -0.0678
  308TMC3    C4 4686   1.892   0.233   0.626  0.0224 -0.1014  0.2641
  308TMC3    C5 4687   2.021   0.277   0.653  0.4095 -0.4687  0.2158
  308TMC3    C6 4688   2.040   0.398   0.716  0.2555 -0.2340  0.2898
  308TMC3     C 4689   1.669   0.277   0.581  0.3011  0.0368 -0.0545
  308TMC3     O 4690   1.679   0.185   0.502 -0.3155  0.0681 -0.4650
  308TMC3     H 4691   1.727   0.516   0.679  0.7665  0.7116  2.1495
  308TMC3    H1 4692   1.877   0.136   0.579  2.5941 -0.7195  0.7548
  308TMC3    H2 4693   2.138   0.431   0.749 -0.2327  0.3794  1.1351
  308TMC3    C7 4694   2.124   0.183   0.635  0.1040 -0.2444  0.3155
  308TMC3    C8 4695   1.962   0.623   0.751 -0.5893  0.3067 -0.5847
  308TMC3    O1 4696   2.098   0.063   0.643 -0.2080  0.3365  0.6337
  308TMC3    O2 4697   2.076   0.664   0.733  0.2653 -0.4720 -0.0098
  309MPD2     C 4698   1.265   1.091  17.022 -1.3655 -0.3072 -0.6441
  309MPD2    C1 4699   1.205   1.209  16.983  0.1544 -0.0283  0.3998
  309MPD2    C2 4700   1.080   1.242  17.025  0.0157 -0.3344  0.4134
  309MPD2    C3 4701   1.011   1.153  17.109  0.4075  0.7785 -0.2759
  309MPD2    C4 4702   1.082   1.045  17.157  0.1547 -0.4800 -0.2865
  309MPD2    C5 4703   1.203   1.007  17.112  0.4768  0.5375 -0.2730
  309MPD2     H 4704   1.052   1.336  16.977  0.3089 -1.1747 -1.4192
  309MPD2    H1 4705   1.024   0.974  17.214 -3.4944  1.6656 -1.3559
  309MPD2    H2 4706   1.362   1.054  16.989 -0.4613  0.4936  1.1259
  309MPD2    H3 4707   1.234   0.907  17.141  1.2676  0.3960 -1.5714
  309MPD2     N 4708   0.883   1.180  17.163 -0.1152 -1.0263 -0.6826
  309MPD2    H5 4709   0.849   1.111  17.229 -1.7369  0.0404 -0.4005
  309MPD2    N1 4710   1.274   1.298  16.891  0.1468  0.1788 -1.0043
  309MPD2    H7 4711   1.227   1.379  16.852 -1.7898 -0.4551  0.0539
  310TMC3    C1 4712   1.455   1.383  16.754  0.0447  0.4787  0.4899
  310TMC3    C2 4713   1.371   1.462  16.679 -0.0588  0.2751  0.0384
  310TMC3    C3 4714   1.438   1.524  16.574 -0.3537  0.1854  0.0047
  310TMC3    C4 4715   1.592   1.378  16.727  0.6532  0.2796 -0.4559
  310TMC3    C5 4716   1.651   1.448  16.622 -0.4501 -0.8267 -0.5610
  310TMC3    C6 4717   1.568   1.517  16.537 -0.3322 -0.2228 -0.0277
  310TMC3     C 4718   1.413   1.296  16.861 -0.3418 -0.5915  0.0389
  310TMC3     O 4719   1.496   1.219  16.901 -0.0618 -0.2681  0.0790
  310TMC3     H 4720   1.265   1.476  16.696  0.0106  1.5565 -0.6179
  310TMC3    H1 4721   1.650   1.313  16.791 -0.8991  1.3116  1.9893
  310TMC3    H2 4722   1.620   1.572  16.459 -0.7571 -0.3847 -0.4219
  310TMC3    C7 4723   1.749   1.378  16.539  0.2088 -0.3576  0.8527
  310TMC3    C8 4724   1.346   1.585  16.483  0.7756 -0.2729  0.2144
  310TMC3    O1 4725   1.729   1.376  16.420 -0.4497 -0.7553 -0.0913
  310TMC3    O2 4726   1.227   1.556  16.492  0.1406 -0.2601  0.1511
  311MPD2     C 4727   2.766   2.986  12.150  0.1854  0.6941 -0.1111
  311MPD2    C1 4728   2.861   2.977  12.243 -0.3004  0.3025 -0.2304
  311MPD2    C2 4729   2.836   2.918  12.366  0.6540  0.3705 -0.3122
  311MPD2    C3 4730   2.732   2.832  12.380 -0.0143 -0.8593 -0.5194
  311MPD2    C4 4731   2.647   2.821  12.279  0.1756  0.1090 -0.5295
  311MPD2    C5 4732   2.660   2.903  12.169  0.4105  0.3334 -0.5858
  311MPD2     H 4733   2.907   2.928  12.448  0.4390 -0.6059 -0.0142
  311MPD2    H1 4734   2.557   2.761  12.273  1.6845 -2.3277  1.4147
  311MPD2    H2 4735   2.777   3.027  12.050 -2.2428  2.5045  0.3603
  311MPD2    H3 4736   2.584   2.895  12.092  0.6423  0.8952 -0.8753
  311MPD2     N 4737   2.726   2.751  12.493 -0.0278  0.2194  0.7398
  311MPD2    H5 4738   2.810   2.744  12.550  1.2439  1.9467 -0.9555
  311MPD2    N1 4739   2.992   3.033  12.238  0.3117  0.4021  0.4779
  311MPD2    H7 4740   3.064   3.013  12.308  0.7629  0.9394  0.1702
  312TMC3    C1 4741   2.627   2.632  12.671  0.1192 -0.7800 -0.3202
  312TMC3    C2 4742   2.514   2.580  12.727  0.5100  0.2852  0.4669
  312TMC3    C3 4743   2.483   2.608  12.852 -0.0943 -0.3043 -0.2820
  312TMC3    C4 4744   2.717   2.700  12.751  0.3079  0.0381 -0.4400
  312TMC3    C5 4745   2.693   2.700  12.881 -0.4898  0.3997  0.1521
  312TMC3    C6 4746   2.572   2.669  12.928 -0.5966 -0.3694  0.2798
  312TMC3     C 4747   2.617   2.674  12.532  0.5102 -0.3881  0.9041
  312TMC3     O 4748   2.523   2.624  12.469 -0.4449  0.5910  0.6801
  312TMC3     H 4749   2.437   2.533  12.668 -1.0479  1.6979  1.3887
  312TMC3    H1 4750   2.806   2.745  12.708  0.3070 -0.7858 -1.3127
  312TMC3    H2 4751   2.555   2.682  13.035  1.3350  2.5945  0.2036
  312TMC3    C7 4752   2.794   2.783  12.955 -0.2251  0.1156 -0.2779
  312TMC3    C8 4753   2.362   2.555  12.909 -0.4337  0.3643  0.7726
  312TMC3    O1 4754   2.890   2.832  12.897 -0.1293 -0.7731  0.1492
  312TMC3    O2 4755   2.330   2.442  12.882 -0.5057 -0.0201  0.0979
  313MPD2     C 4756   2.401   2.186  11.557  0.5977 -0.3152  0.4343
  313MPD2    C1 4757   2.395   2.206  11.421 -0.3828  0.3497 -0.6955
  313MPD2    C2 4758   2.344   2.111  11.339  0.1324  0.1533  0.2042
  313MPD2    C3 4759   2.294   1.989  11.383  0.4060 -0.0208  0.1857
  313MPD2    C4 4760   2.301   1.969  11.520 -0.2699 -0.1025  0.3949
  313MPD2    C5 4761   2.349   2.068  11.602 -1.0203  0.4023  0.5749
  313MPD2     H 4762   2.343   2.122  11.231 -0.9209  0.2165  0.2171
  313MPD2    H1 4763   2.279   1.870  11.558 -0.2999  0.0166  0.6856
  313MPD2    H2 4764   2.448   2.247  11.633  0.8665 -1.3774  1.1195
  313MPD2    H3 4765   2.356   2.052  11.709  1.9555 -0.3026  0.2732
  313MPD2     N 4766   2.235   1.898  11.291 -0.4642 -0.1165  0.1366
  313MPD2    H5 4767   2.243   1.929  11.195 -2.3249 -0.6376 -0.1911
  313MPD2    N1 4768   2.441   2.328  11.368 -0.0338  0.3148  0.3505
  313MPD2    H7 4769   2.450   2.340  11.267 -2.0328 -1.0774  0.0047
  314TMC3    C1 4770   2.521   2.544  11.358  0.3022  0.0757  0.1799
  314TMC3    C2 4771   2.625   2.623  11.407 -0.4795 -0.4801 -0.2035
  314TMC3    C3 4772   2.632   2.750  11.356  0.4764 -0.3898 -0.1751
  314TMC3    C4 4773   2.425   2.587  11.269 -0.6948  0.3341  0.7830
  314TMC3    C5 4774   2.443   2.715  11.228 -0.1238  0.3752 -0.3639
  314TMC3    C6 4775   2.541   2.800  11.268  0.0907  0.2019  0.5970
  314TMC3     C 4776   2.493   2.432  11.442 -0.0657 -0.3967  0.5951
  314TMC3     O 4777   2.487   2.455  11.562 -0.1711 -0.3001  0.1227
  314TMC3     H 4778   2.696   2.599  11.486 -0.8509 -2.3647 -0.4448
  314TMC3    H1 4779   2.342   2.527  11.234 -0.2996  0.4088 -0.2828
  314TMC3    H2 4780   2.561   2.901  11.232 -1.7792 -0.8005 -3.2401
  314TMC3    C7 4781   2.385   2.745  11.095 -0.0801  0.5063 -0.3528
  314TMC3    C8 4782   2.748   2.829  11.387  0.0346 -0.0390 -0.2611
  314TMC3    O1 4783   2.278   2.689  11.072  0.6893  0.0583  0.3508
  314TMC3    O2 4784   2.724   2.944  11.414  0.7554  0.4517 -0.2239
  315MPD2     C 4785   2.394   1.453   0.223  0.1534  0.1167  0.1209
  315MPD2    C1 4786   2.518   1.406   0.186 -0.3126 -0.0537 -0.0124
  315MPD2    C2 4787   2.584   1.470   0.082 -0.0826  0.5782 -0.3978
  315MPD2    C3 4788   2.536   1.586   0.040 -0.2024  0.1508  0.3490
  315MPD2    C4 4789   2.406   1.623   0.061 -0.4689 -0.9183 -0.1641
  315MPD2    C5 4790   2.335   1.545   0.145  0.3307 -0.0912 -0.5801
  315MPD2     H 4791   2.686   1.439   0.064  0.4212  1.4920  0.9430
  315MPD2    H1 4792   2.363   1.711   0.015 -2.2618  0.0327  3.3553
  315MPD2    H2 4793   2.343   1.412   0.309 -0.5974  0.2601 -0.2529
  315MPD2    H3 4794   2.239   1.588   0.170  0.8205  0.6300  0.0519
  315MPD2     N 4795   2.626   1.664  17.712 -0.0653  0.1650 -0.3655
  315MPD2    H5 4796   2.720   1.626  17.709 -0.8583 -1.8155 -0.0353
  315MPD2    N1 4797   2.571   1.295   0.249 -0.0442 -0.4817  0.0020
  315MPD2    H7 4798   2.659   1.264   0.209  0.9492  0.6582  1.3350
  316TMC3    C1 4799   2.725   1.839  17.604 -0.0664  0.6686  0.6396
  316TMC3    C2 4800   2.843   1.767  17.627 -0.5154 -0.0949  0.4190
  316TMC3    C3 4801   2.958   1.817  17.566  0.7248  0.2862 -0.1547
  316TMC3    C4 4802   2.712   1.933  17.511  0.1454 -0.4177 -0.2960
  316TMC3    C5 4803   2.826   1.977  17.450 -0.8132 -0.4246  0.1059
  316TMC3    C6 4804   2.953   1.921  17.476 -0.3514  0.5144 -0.3017
  316TMC3     C 4805   2.602   1.785  17.655  0.1489 -0.2725  0.3900
  316TMC3     O 4806   2.505   1.859  17.652  0.1086  0.4278  0.1714
  316TMC3     H 4807   2.863   1.698  17.708 -2.0475 -1.2464 -0.2016
  316TMC3    H1 4808   2.625   1.997  17.498 -1.2278 -1.9368  1.3309
  316TMC3    H2 4809   3.041   1.970  17.436 -1.2234  2.1561 -0.2478
  316TMC3    C7 4810   2.818   2.061  17.328  0.1390 -0.4091  0.2614
  316TMC3    C8 4811   3.075   1.799  17.643  0.0342  0.0360  0.4123
  316TMC3    O1 4812   2.923   2.090  17.271 -0.0631  0.2147  0.2020
  316TMC3    O2 4813   3.117   1.894  17.708 -0.3658 -0.4230  0.4283
  317MPD2     C 4814   4.515   0.074  12.432 -0.1916  0.1420  0.3361
  317MPD2    C1 4815   4.530   4.690  12.371  0.5678 -0.1491 -0.2113
  317MPD2    C2 4816   4.545   4.579  12.457 -0.2815 -0.3553  0.3750
  317MPD2    C3 4817   4.564   4.592  12.600 -0.1865 -0.9340  0.2399
  317MPD2    C4 4818   4.557   4.716  12.654 -0.1237 -0.3959  0.5915
  317MPD2    C5 4819   4.536   0.087  12.573 -0.4784 -0.8613  0.4539
  317MPD2     H 4820   4.555   4.483  12.410  0.3683 -0.5323  0.8814
  317MPD2    H1 4821   4.572   4.724  12.761 -1.5972 -0.8002  0.8153
  317MPD2    H2 4822   4.485   0.158  12.371  0.4042 -0.5808 -0.9557
  317MPD2    H3 4823   4.524   0.189  12.610  2.0571  0.4725 -2.4282
  317MPD2     N 4824   4.602   4.474  12.672  0.1533  0.2552 -0.3464
  317MPD2    H5 4825   4.576   4.387  12.627  2.3265 -0.3996 -0.3178
  317MPD2    N1 4826   4.521   4.669  12.230  0.3938  0.6601 -0.0264
  317MPD2    H7 4827   4.532   4.570  12.211  0.9927  0.9617 -1.2481
  318TMC3    C1 4828   4.690   4.345  12.852 -0.4232  0.3328  0.4771
  318TMC3    C2 4829   4.624   4.238  12.809 -0.4622  0.6911  0.1628
  318TMC3    C3 4830   4.679   4.116  12.837  0.5653  0.6042  0.5595
  318TMC3    C4 4831   0.066   4.338  12.931  0.3765 -0.5528 -0.1213
  318TMC3    C5 4832   0.115   4.210  12.960 -0.5719  0.9089  0.3421
  318TMC3    C6 4833   0.061   4.103  12.901 -0.3129  0.6815  0.0801
  318TMC3     C 4834   4.649   4.476  12.805  0.5776  0.4718 -0.3749
  318TMC3     O 4835   4.694   4.574  12.871 -0.3209 -0.5278 -0.0517
  318TMC3     H 4836   4.524   4.257  12.773 -0.1333 -0.7059 -1.4997
  318TMC3    H1 4837   0.118   4.428  12.961 -1.3532 -0.0727  1.4525
  318TMC3    H2 4838   0.107   4.005  12.909 -1.1847  0.3050  0.5942
  318TMC3    C7 4839   0.252   4.206  13.008  0.9431  0.4977 -0.3543
  318TMC3    C8 4840   4.630   3.989  12.795  0.7157 -1.1191  0.4794
  318TMC3    O1 4841   0.315   4.313  12.989 -0.6660 -0.1264  0.8637
  318TMC3    O2 4842   4.669   3.882  12.845 -0.1696 -0.1653 -0.4785
  319MPD2     C 4843   0.444   0.951  16.740 -0.6808  0.0466  0.2699
  319MPD2    C1 4844   0.465   0.815  16.775 -0.2089 -0.7701 -0.0271
  319MPD2    C2 4845   0.379   0.717  16.721  0.7318  0.5144  0.2056
  319MPD2    C3 4846   0.289   0.754  16.624  0.5289 -0.4030 -0.0915
  319MPD2    C4 4847   0.272   0.886  16.596 -0.2913  0.4209 -1.0457
  319MPD2    C5 4848   0.350   0.981  16.655 -0.6521  0.0504 -0.1856
  319MPD2     H 4849   0.386   0.612  16.747  0.3869  1.1216  2.7944
  319MPD2    H1 4850   0.206   0.930  16.522  0.6824  0.2329 -2.0304
  319MPD2    H2 4851   0.504   1.029  16.786  1.5454 -0.7937 -1.1776
  319MPD2    H3 4852   0.334   1.085  16.629 -0.8109  0.6716  2.3933
  319MPD2     N 4853   0.194   0.663  16.559  0.1784 -0.0429 -0.5910
  319MPD2    H5 4854   0.119   0.714  16.514 -0.2723 -0.9848 -0.8983
  319MPD2    N1 4855   0.564   0.773  16.867  0.4924 -0.0784  0.3627
  319MPD2    H7 4856   0.569   0.673  16.886 -0.9120 -0.2742 -0.2629
  320TMC3    C1 4857   0.118   0.466  16.456 -0.1332 -0.5469 -0.2342
  320TMC3    C2 4858   0.069   0.534  16.344  1.0124  0.1124  0.1329
  320TMC3    C3 4859   0.003   0.468  16.245  0.2111 -0.9318  0.2686
  320TMC3    C4 4860   0.089   0.334  16.467  0.2591 -0.0700  0.2171
  320TMC3    C5 4861   0.008   0.276  16.376 -0.1701  0.0597  0.4666
  320TMC3    C6 4862   4.697   0.339  16.265 -0.2620 -0.7357 -0.1059
  320TMC3     C 4863   0.213   0.526  16.549 -0.2837 -0.7948 -0.1800
  320TMC3     O 4864   0.300   0.453  16.599 -0.3905 -0.5573 -0.3937
  320TMC3     H 4865   0.122   0.627  16.324  0.7850  0.4815  1.2613
  320TMC3    H1 4866   0.114   0.286  16.561 -0.4692 -0.0230  0.4422
  320TMC3    H2 4867   4.626   0.286  16.203  0.4040 -2.4518  0.6030
  320TMC3    C7 4868   0.052   0.140  16.342  0.5503  0.6178 -0.3509
  320TMC3    C8 4869   4.707   0.546  16.127  0.1743  0.2915 -0.0112
  320TMC3    O1 4870   0.042   0.121  16.219  0.1715 -0.1903 -0.3424
  320TMC3    O2 4871   4.734   0.664  16.128 -0.1239  0.2562  0.0251
  321TMC3    C1 4872   0.716   0.779  17.052  0.3119 -0.5821 -0.7790
  321TMC3    C2 4873   0.734   0.645  17.040 -0.3650  0.0785 -0.5106
  321TMC3    C3 4874   0.761   0.579  17.159  0.1721  0.4106  0.0244
  321TMC3    C4 4875   0.709   0.849  17.178  0.7740 -0.7320 -0.2864
  321TMC3    C5 4876   0.726   0.775  17.289 -0.5241  0.5837 -0.2877
  321TMC3    C6 4877   0.737   0.638  17.281 -0.2926  0.4497 -0.0528
  321TMC3     C 4878   0.638   0.853  16.950 -0.4076  0.0592 -0.4052
  321TMC3     O 4879   0.659   0.973  16.953 -0.0684 -0.0389 -0.2004
  321TMC3     H 4880   0.740   0.589  16.948 -0.8407 -2.6316  1.0995
  321TMC3    H1 4881   0.700   0.957  17.171 -1.3204 -0.8803  0.2400
  321TMC3    H2 4882   0.756   0.580  17.371  2.7404  0.1332 -0.8919
  321TMC3    C7 4883   0.816   0.838  17.381  0.1842  0.1360  0.1690
  321TMC3    C8 4884   0.885   0.505  17.167  0.3770  0.7985  0.0095
  321TMC3    O1 4885   0.801   0.959  17.389 -0.7264  0.5976  0.5893
  321TMC3    O2 4886   0.951   0.505  17.272  0.1939 -0.3472  0.0620
  322MPD2     C 4887   3.868   2.033  13.803  0.6563 -0.2847  0.2551
  322MPD2    C1 4888   3.921   1.973  13.915  0.0759  0.5557 -0.2687
  322MPD2    C2 4889   3.971   1.847  13.902 -0.3262  0.3813  0.0084
  322MPD2    C3 4890   3.966   1.785  13.770  0.2262  0.0413  0.8187
  322MPD2    C4 4891   3.915   1.852  13.665 -1.1260  0.9122 -0.2193
  322MPD2    C5 4892   3.860   1.977  13.683 -0.6762  0.5656 -0.4244
  322MPD2     H 4893   4.019   1.794  13.983 -0.3863  0.3013 -0.0088
  322MPD2    H1 4894   3.909   1.805  13.567 -0.0161 -0.8377  0.5398
  322MPD2    H2 4895   3.817   2.127  13.818  1.0342 -0.1806  0.8983
  322MPD2    H3 4896   3.802   2.026  13.606 -1.0813  0.6927 -0.0408
  322MPD2     N 4897   4.011   1.651  13.757  0.0913 -0.3971  0.5795
  322MPD2    H5 4898   4.035   1.600  13.842 -1.0361 -0.0399  1.1081
  322MPD2    N1 4899   3.950   2.048  14.033  0.2174  0.5541 -0.3592
  322MPD2    H7 4900   3.937   2.149  14.031 -1.6879  0.2762 -2.1328
  323TMC3    C1 4901   4.048   2.078  14.243 -0.2826  0.3028  0.3162
  323TMC3    C2 4902   4.119   2.183  14.186 -0.0179  0.2178  0.0579
  323TMC3    C3 4903   4.217   2.247  14.259  0.1944  0.5148  0.1816
  323TMC3    C4 4904   4.095   2.018  14.358 -0.3709 -0.5741 -0.1406
  323TMC3    C5 4905   4.194   2.080  14.424 -0.2774 -0.8752 -0.0721
  323TMC3    C6 4906   4.247   2.197  14.387  0.6927 -0.3916 -0.5097
  323TMC3     C 4907   3.973   1.991  14.153  0.0629  0.0625 -0.2965
  323TMC3     O 4908   3.931   1.882  14.189 -0.1596 -0.1523  0.2511
  323TMC3     H 4909   4.090   2.235  14.095  0.9086 -2.3857 -1.7286
  323TMC3    H1 4910   4.044   1.930  14.396 -1.2489 -0.2347 -0.5274
  323TMC3    H2 4911   4.336   2.236  14.436  1.6821 -1.0183 -1.8141
  323TMC3    C7 4912   4.229   2.025  14.555  0.1180  0.7182  0.0136
  323TMC3    C8 4913   4.328   2.310  14.191  0.5777  0.3600 -0.3017
  323TMC3    O1 4914   4.181   1.918  14.585 -0.5335  0.3178  0.0237
  323TMC3    O2 4915   4.436   2.298  14.245 -0.2120  0.7018 -0.1450
  324MPD2     C 4916   1.223   3.086  14.628 -0.4164  0.2577 -0.5556
  324MPD2    C1 4917   1.184   3.216  14.644  0.5486  0.5092  0.2836
  324MPD2    C2 4918   1.051   3.258  14.622 -0.2080  0.6986  0.0654
  324MPD2    C3 4919   0.956   3.160  14.596  0.4973  0.2091  0.3201
  324MPD2    C4 4920   1.003   3.029  14.581 -0.4505  0.2229  0.0239
  324MPD2    C5 4921   1.130   2.990  14.598 -0.2718 -0.1807 -0.1585
  324MPD2     H 4922   1.025   3.362  14.639 -0.7418  0.3527  1.3538
  324MPD2    H1 4923   0.935   2.951  14.548  1.0438 -1.7035  1.4513
  324MPD2    H2 4924   1.329   3.064  14.639 -0.7154  0.4605  2.7254
  324MPD2    H3 4925   1.159   2.887  14.580  2.3822  0.2072  1.8518
  324MPD2     N 4926   0.820   3.193  14.581  0.0327 -0.2763 -0.1592
  324MPD2    H5 4927   0.755   3.114  14.581 -2.6803  1.9650  1.7020
  324MPD2    N1 4928   1.274   3.315  14.692  0.0855  0.5515 -0.2779
  324MPD2    H7 4929   1.241   3.411  14.699  1.2031  0.9528 -0.4862
  325TMC3    C1 4930   0.630   3.294  14.518  0.6711 -0.5476  0.2300
  325TMC3    C2 4931   0.592   3.182  14.455  0.3231 -0.7570 -0.1877
  325TMC3    C3 4932   0.467   3.174  14.402  0.1772  0.4803 -0.0948
  325TMC3    C4 4933   0.540   3.395  14.544 -0.1366 -0.0196  0.5790
  325TMC3    C5 4934   0.411   3.382  14.484  0.0700 -0.5573  0.3796
  325TMC3    C6 4935   0.378   3.271  14.411 -0.1417  0.9014  0.9647
  325TMC3     C 4936   0.763   3.315  14.558  0.2590 -0.2516  0.4882
  325TMC3     O 4937   0.809   3.430  14.558  0.1871 -0.5218  0.5197
  325TMC3     H 4938   0.647   3.089  14.446  1.0660 -0.1411 -1.9502
  325TMC3    H1 4939   0.561   3.478  14.610  0.8256 -0.0795  0.3413
  325TMC3    H2 4940   0.299   3.270  14.338  0.5872  0.4186  0.1816
  325TMC3    C7 4941   0.338   3.504  14.453 -0.0680 -0.6314 -0.6710
  325TMC3    C8 4942   0.433   3.080  14.304  0.8551 -0.2076  0.1748
  325TMC3    O1 4943   0.398   3.610  14.472 -0.4632  0.3490  0.0980
  325TMC3    O2 4944   0.523   3.045  14.228 -0.5509  0.5226 -0.4827
  326MPD2     C 4945   2.451   4.441  11.308  0.5230  0.4862 -0.6723
  326MPD2    C1 4946   2.397   4.528  11.212  0.1262  0.2142  0.2510
  326MPD2    C2 4947   2.471   4.641  11.176 -0.0497 -0.4026 -0.4788
  326MPD2    C3 4948   2.606   4.659  11.221  0.6420  0.1587 -0.2640
  326MPD2    C4 4949   2.661   4.569  11.306 -0.3158 -0.1794 -0.9889
  326MPD2    C5 4950   2.586   4.458  11.348 -1.1008 -0.4834  0.6016
  326MPD2     H 4951   2.439   4.708  11.097 -0.2147  0.3366  0.2104
  326MPD2    H1 4952   2.763   4.576  11.342 -0.0760  1.6027 -2.0140
  326MPD2    H2 4953   2.409   4.344  11.332  1.3284  0.6000  1.1935
  326MPD2    H3 4954   2.624   4.387  11.421 -0.7634  0.4286  1.3043
  326MPD2     N 4955   2.684   0.028  11.176 -0.2109 -0.4988 -0.0591
  326MPD2    H5 4956   2.774   0.034  11.223 -1.0437 -0.4254  1.5110
  326MPD2    N1 4957   2.274   4.506  11.142 -0.0787 -0.2557  0.1773
  326MPD2    H7 4958   2.238   4.585  11.090 -0.4893  0.0674  0.9474
  327TMC3    C1 4959   2.112   4.380  11.041  0.2141  0.9739  0.2612
  327TMC3    C2 4960   2.045   4.501  11.034  0.5362 -0.3497  0.1026
  327TMC3    C3 4961   2.000   4.547  10.911 -0.0041  0.3470 -0.7839
  327TMC3    C4 4962   2.133   4.307  10.928 -0.4760 -0.4904 -0.3114
  327TMC3    C5 4963   2.108   4.366  10.803  0.3946 -0.2732 -0.3915
  327TMC3    C6 4964   2.021   4.475  10.797 -0.0707  0.6414  0.1411
  327TMC3     C 4965   2.226   4.380  11.131 -0.0016 -0.1304  0.0613
  327TMC3     O 4966   2.293   4.280  11.135  0.5000 -0.3016  0.2530
  327TMC3     H 4967   2.014   4.549  11.127  1.4973  1.7913 -0.6791
  327TMC3    H1 4968   2.194   4.218  10.939 -1.8125 -1.5482 -1.3752
  327TMC3    H2 4969   1.993   4.516  10.701  1.1213 -0.4707 -0.6718
  327TMC3    C7 4970   2.222   4.400  10.724 -0.1062  0.3100 -0.1366
  327TMC3    C8 4971   1.884   4.638  10.888 -0.0967 -0.5992  0.1850
  327TMC3    O1 4972   2.200   4.477  10.629  0.1363 -0.0643  0.8559
  327TMC3    O2 4973   1.838   4.652  10.776  0.0011 -0.4311  0.4409
  328MPD2     C 4974   0.194   4.644  17.151 -0.1317  0.4831  0.0525
  328MPD2    C1 4975   0.092   4.561  17.186 -0.8028 -0.0376 -0.5867
  328MPD2    C2 4976   4.711   4.556  17.111 -0.0398  0.0417 -0.9172
  328MPD2    C3 4977   4.706   4.625  16.994  0.4549  0.2789  0.6005
  328MPD2    C4 4978   0.078   4.696  16.949  0.1258 -0.3028  0.4422
  328MPD2    C5 4979   0.188   4.709  17.030  0.2054  0.3623 -0.5223
  328MPD2     H 4980   4.618   4.515  17.147 -0.1113  0.8456 -0.1755
  328MPD2    H1 4981   0.068   0.032  16.870 -0.2811 -0.8310  0.0006
  328MPD2    H2 4982   0.291   4.643  17.199  1.1561 -5.6744 -2.5703
  328MPD2    H3 4983   0.265   0.045  17.009  0.3156 -0.5379 -3.2533
  328MPD2     N 4984   4.594   4.624  16.908  0.0848 -0.5157 -0.4228
  328MPD2    H5 4985   4.587   4.691  16.832  0.6612  0.6655  0.5538
  328MPD2    N1 4986   0.115   4.488  17.307 -0.3340  0.0001  0.0582
  328MPD2    H7 4987   0.210   4.502  17.339  0.5162 -1.7129 -1.7054
  329TMC3    C1 4988   0.073   4.342  17.496 -0.1638 -0.0764 -0.0857
  329TMC3    C2 4989   0.134   4.421  17.581  0.6130  0.3095  0.3552
  329TMC3    C3 4990   0.152   4.377  17.714  0.5713 -1.0446  0.0230
  329TMC3    C4 4991   0.019   4.225  17.545  0.0206 -0.9498 -0.6917
  329TMC3    C5 4992   0.033   4.187  17.674  0.3377  0.2013 -0.7281
  329TMC3    C6 4993   0.103   4.264   0.014  0.7372  0.2433  0.2022
  329TMC3     C 4994   0.029   4.399  17.374 -0.5026 -0.1187 -0.0118
  329TMC3     O 4995   4.666   4.358  17.324 -0.0105 -0.1498  0.7300
  329TMC3     H 4996   0.163   4.522  17.554 -1.6888  0.6154 -0.9518
  329TMC3    H1 4997   4.692   4.174  17.475 -1.7792 -0.7821  0.8841
  329TMC3    H2 4998   0.107   4.226   0.116 -0.9382 -1.7278 -0.4680
  329TMC3    C7 4999   4.687   4.079  17.720  0.0894  0.2763 -0.0547
  329TMC3    C8 5000   0.220   4.475   0.050  0.1147 -0.2005 -0.4255
  329TMC3    O1 5001   4.677   4.058   0.093  0.7766 -0.8020  0.1758
  329TMC3    O2 5002   0.307   4.546  17.744 -0.2927 -0.0219  0.1235
  330TMC3    C1 5003   3.186   4.446   9.687  0.7013 -0.0404  0.1615
  330TMC3    C2 5004   3.054   4.416   9.720 -0.8607  0.2354  0.0126
  330TMC3    C3 5005   3.033   4.286   9.768  0.2895 -0.7543  0.6157
  330TMC3    C4 5006   3.292   4.365   9.717  0.1976  0.3914  0.2645
  330TMC3    C5 5007   3.263   4.240   9.775  0.7934  0.6218 -0.3411
  330TMC3    C6 5008   3.133   4.199   9.793  1.1761 -0.4077 -0.9275
  330TMC3     C 5009   3.225   4.571   9.625  0.7149 -0.6339  0.1789
  330TMC3     O 5010   3.342   4.605   9.610  0.2884 -0.1902  0.6796
  330TMC3     H 5011   2.969   4.483   9.714 -3.8579 -3.4732  0.6397
  330TMC3    H1 5012   3.392   4.383   9.679 -0.2073  1.5340 -0.2491
  330TMC3    H2 5013   3.117   4.094   9.817  0.9870 -0.4110 -1.0630
  330TMC3    C7 5014   3.378   4.161   9.823  0.4961 -0.7019  0.0586
  330TMC3    C8 5015   2.908   4.236   9.729 -0.1077 -0.6822 -0.7007
  330TMC3    O1 5016   3.488   4.210   9.803  0.1315  0.1051  0.5607
  330TMC3    O2 5017   2.853   4.304   9.644  0.0598  0.2182 -0.1072
  331MPD2     C 5018   0.096   2.826  12.853 -0.1277  0.2557  0.0236
  331MPD2    C1 5019   0.205   2.835  12.768  0.3943 -0.1794  0.4101
  331MPD2    C2 5020   0.276   2.717  12.739  0.3938 -0.0467 -0.0951
  331MPD2    C3 5021   0.246   2.598  12.802 -0.2508  0.1228  0.5025
  331MPD2    C4 5022   0.139   2.597  12.893 -0.1347  0.1657 -0.7939
  331MPD2    C5 5023   0.060   2.704  12.907 -0.4384  0.7497 -0.1903
  331MPD2     H 5024   0.361   2.717  12.672 -1.5102  0.3659 -2.5141
  331MPD2    H1 5025   0.105   2.508  12.944 -3.1666  0.8149 -1.7057
  331MPD2    H2 5026   0.043   2.919  12.872 -0.2182  0.1176  0.4494
  331MPD2    H3 5027   4.711   2.703  12.971  0.6330  1.3612  1.2711
  331MPD2     N 5028   0.326   2.483  12.767  0.2535 -0.4765 -0.4331
  331MPD2    H5 5029   0.384   2.495  12.685 -0.4243  1.0707 -0.6831
  331MPD2    N1 5030   0.232   2.960  12.705 -0.0605 -0.6107  0.4797
  331MPD2    H7 5031   0.170   3.038  12.725  0.8919  0.4297 -0.6325
  332TMC3    C1 5032   0.462   2.301  12.815 -0.0727 -0.0639  0.6114
  332TMC3    C2 5033   0.516   2.299  12.694  0.6387 -0.0042  0.7966
  332TMC3    C3 5034   0.637   2.238  12.676 -0.2436 -0.2027  0.7049
  332TMC3    C4 5035   0.545   2.270  12.930 -0.6645  0.0702 -0.6281
  332TMC3    C5 5036   0.666   2.210  12.908 -0.3300  0.2081  0.2607
  332TMC3    C6 5037   0.716   2.197  12.783 -0.1478  0.1183  0.3816
  332TMC3     C 5038   0.351   2.382  12.854 -0.6605 -0.4821 -0.0975
  332TMC3     O 5039   0.311   2.367  12.970  0.7647  0.0199  0.4483
  332TMC3     H 5040   0.459   2.340  12.612  0.5616 -0.9844  0.3616
  332TMC3    H1 5041   0.514   2.280  13.033  2.2876 -0.0129  0.2790
  332TMC3    H2 5042   0.817   2.160  12.764 -0.1810  0.7223 -1.0001
  332TMC3    C7 5043   0.739   2.183  13.028  0.2682  0.7132 -0.6325
  332TMC3    C8 5044   0.704   2.267  12.559 -1.0856 -0.9018  0.2476
  332TMC3    O1 5045   0.681   2.208  13.135 -0.5648 -0.1451 -0.4736
  332TMC3    O2 5046   0.809   2.328  12.578  0.4587  0.4376 -0.1444
  333MPD2     C 5047   1.059   3.054  11.267 -0.7879 -0.4216 -0.0426
  333MPD2    C1 5048   1.078   2.990  11.150 -0.4263 -0.2386  0.9174
  333MPD2    C2 5049   1.075   2.853  11.149  0.7358 -0.2822 -0.2827
  333MPD2    C3 5050   1.025   2.781  11.251 -0.4889 -0.6902  0.0914
  333MPD2    C4 5051   0.999   2.850  11.370  0.5374  0.5696  0.4136
  333MPD2    C5 5052   1.017   2.988  11.375 -0.1153 -0.4438 -0.4079
  333MPD2     H 5053   1.105   2.799  11.060 -2.5758 -1.0518 -0.9394
  333MPD2    H1 5054   0.975   2.795  11.461  1.3385  1.3335  1.0803
  333MPD2    H2 5055   1.077   3.160  11.279  1.1251 -0.8753  1.2145
  333MPD2    H3 5056   0.989   3.035  11.469 -0.2589 -0.6418 -0.3503
  333MPD2     N 5057   1.007   2.644  11.236 -0.0430  0.3056  0.2899
  333MPD2    H5 5058   1.006   2.617  11.138 -0.5099 -2.2779  0.9963
  333MPD2    N1 5059   1.114   3.067  11.036  0.0186  0.1842  0.7547
  333MPD2    H7 5060   1.140   3.164  11.048  2.0018  0.0259 -2.4733
  334TMC3    C1 5061   1.195   3.096  10.825 -0.2523 -0.6455  0.8966
  334TMC3    C2 5062   1.316   3.041  10.797 -0.2153 -0.5033  0.4062
  334TMC3    C3 5063   1.427   3.115  10.772 -0.0514 -0.2823 -0.1512
  334TMC3    C4 5064   1.184   3.234  10.838  0.0105  0.3995  0.6344
  334TMC3    C5 5065   1.301   3.310  10.819  0.1596  0.0345 -0.0348
  334TMC3    C6 5066   1.425   3.250  10.792 -0.0536  1.2251 -0.7580
  334TMC3     C 5067   1.114   3.018  10.911 -0.0498  0.0023 -0.3489
  334TMC3     O 5068   1.078   2.908  10.864 -0.0715 -0.4388  0.2774
  334TMC3     H 5069   1.316   2.932  10.795  0.6424 -0.4831 -0.6253
  334TMC3    H1 5070   1.087   3.272  10.868 -1.0980 -0.7308 -1.5050
  334TMC3    H2 5071   1.514   3.312  10.788  0.8804 -0.1053 -0.7745
  334TMC3    C7 5072   1.305   3.461  10.836  0.3464  0.5408  0.2824
  334TMC3    C8 5073   1.549   3.042  10.758  0.5230 -0.1838 -0.6247
  334TMC3    O1 5074   1.413   3.515  10.852  0.2668 -0.2864  0.4641
  334TMC3    O2 5075   1.534   2.921  10.778 -0.3641  0.0466  0.5834
  335TMC3    C1 5076   0.743   4.180  17.317 -0.3491 -1.1189 -0.2779
  335TMC3    C2 5077   0.653   4.203  17.216 -0.5410  0.2517  0.1450
  335TMC3    C3 5078   0.689   4.202  17.084 -0.0096  0.3953 -1.0224
  335TMC3    C4 5079   0.875   4.182  17.280 -0.1810  0.3548  0.8968
  335TMC3    C5 5080   0.908   4.211  17.151  0.6550  0.6709 -0.1086
  335TMC3    C6 5081   0.819   4.212  17.049 -0.1560  0.3489 -0.0553
  335TMC3     C 5082   0.706   4.110  17.433 -0.1399 -0.3642 -0.6812
  335TMC3     O 5083   0.591   4.077  17.450  0.0626 -0.4018 -0.1193
  335TMC3     H 5084   0.552   4.191  17.256 -1.4568  2.8389 -1.4096
  335TMC3    H1 5085   0.948   4.165  17.358  0.1544 -2.0017  0.0936
  335TMC3    H2 5086   0.853   4.235  16.948 -0.1870  1.3020  0.1481
  335TMC3    C7 5087   1.047   4.212  17.115 -1.0080  0.0944 -0.1976
  335TMC3    C8 5088   0.624   4.108  17.002  0.3285  0.4251  1.0526
  335TMC3    O1 5089   1.069   4.147  17.014  1.2068  0.3433  0.0021
  335TMC3    O2 5090   0.627   4.123  16.884  0.5751  0.0907  0.8430
  336MPD2     C 5091   0.561   1.880  16.170 -0.2166  0.0864 -1.1627
  336MPD2    C1 5092   0.523   1.821  16.047 -0.1990  0.3079 -0.5523
  336MPD2    C2 5093   0.537   1.684  16.022 -0.0587  0.4845 -0.3258
  336MPD2    C3 5094   0.585   1.602  16.122  0.3072 -0.2127  0.3515
  336MPD2    C4 5095   0.603   1.657  16.247  0.5124  0.5259  1.1447
  336MPD2    C5 5096   0.593   1.788  16.275  0.3779 -0.3954  0.2967
  336MPD2     H 5097   0.522   1.647  15.921 -0.5332  0.0437 -0.0965
  336MPD2    H1 5098   0.647   1.600  16.328  1.8071  0.0451  0.1052
  336MPD2    H2 5099   0.566   1.984  16.201  1.7863 -0.2029 -0.4593
  336MPD2    H3 5100   0.619   1.827  16.373 -1.7235 -0.0955  0.7194
  336MPD2     N 5101   0.606   1.460  16.110 -0.1467  0.2865  0.3244
  336MPD2    H5 5102   0.630   1.408  16.194 -0.1524 -0.1510  0.0547
  336MPD2    N1 5103   0.476   1.902  15.945  0.4961 -0.3083  0.2950
  336MPD2    H7 5104   0.459   1.864  15.853  1.1344 -1.1270  0.5095
  337TMC3    C1 5105   0.408   2.085  15.828 -0.0654  0.5548 -0.4917
  337TMC3    C2 5106   0.287   2.138  15.809 -0.1943  0.0969  0.0269
  337TMC3    C3 5107   0.249   2.150  15.676  0.2627  0.1647  0.0824
  337TMC3    C4 5108   0.487   2.047  15.724  0.3928  0.1792 -0.6889
  337TMC3    C5 5109   0.447   2.062  15.597  0.5456  0.1531  0.2168
  337TMC3    C6 5110   0.316   2.101  15.569  0.7883 -0.1783 -0.0109
  337TMC3     C 5111   0.448   2.033  15.957 -0.0405  0.0922 -0.3438
  337TMC3     O 5112   0.429   2.106  16.057  0.6583 -0.3572 -0.3090
  337TMC3     H 5113   0.219   2.162  15.891 -0.6606  2.1715 -0.9616
  337TMC3    H1 5114   0.586   2.015  15.753  0.4304 -1.2704 -2.4233
  337TMC3    H2 5115   0.277   2.122  15.470 -1.2904 -1.2874  0.5766
  337TMC3    C7 5116   0.532   2.035  15.482  0.0460 -0.4681 -0.0852
  337TMC3    C8 5117   0.113   2.188  15.652 -0.2845  0.0417 -0.5386
  337TMC3    O1 5118   0.489   2.057  15.370  0.0631 -0.6056  0.1235
  337TMC3    O2 5119   0.064   2.256  15.738 -0.3231  0.1981  0.1653
  338MPD2     C 5120   0.675   1.023   0.929  0.3452 -0.3822  0.7493
  338MPD2    C1 5121   0.627   1.001   0.797 -0.4269  0.4251 -0.1152
  338MPD2    C2 5122   0.507   1.054   0.758  0.1187 -0.0018  0.0737
  338MPD2    C3 5123   0.429   1.125   0.848 -0.1528 -0.3698  0.1903
  338MPD2    C4 5124   0.482   1.142   0.979  0.1761 -0.0345 -0.3841
  338MPD2    C5 5125   0.598   1.083   1.021  0.1546  0.0817 -0.3036
  338MPD2     H 5126   0.483   1.051   0.652 -0.1005  1.1203  0.0855
  338MPD2    H1 5127   0.416   1.188   1.051 -1.5432 -0.2046 -1.8438
  338MPD2    H2 5128   0.768   0.980   0.963  2.0750  3.1451  0.5235
  338MPD2    H3 5129   0.623   1.094   1.126  0.2717  1.3219 -0.4636
  338MPD2     N 5130   0.309   1.182   0.801  0.4244 -0.4240 -0.3065
  338MPD2    H5 5131   0.297   1.163   0.702  0.9912 -2.8468  0.0851
  338MPD2    N1 5132   0.692   0.926   0.699 -0.3624  0.2899 -0.0320
  338MPD2    H7 5133   0.636   0.894   0.621 -0.3470 -1.5072  0.6878
  339TMC3    C1 5134   0.111   1.305   0.803  0.3488 -0.3290  0.3425
  339TMC3    C2 5135   0.010   1.350   0.881 -0.2234  0.0298  0.3792
  339TMC3    C3 5136   4.656   1.426   0.820  0.6519  0.1921 -0.0998
  339TMC3    C4 5137   0.129   1.332   0.672  0.0855 -0.0379 -0.1942
  339TMC3    C5 5138   0.046   1.424   0.618  0.2068 -0.4250  1.1706
  339TMC3    C6 5139   4.678   1.470   0.692  0.2285 -0.1444 -0.0379
  339TMC3     C 5140   0.220   1.246   0.877 -0.3389 -0.3405 -0.3594
  339TMC3     O 5141   0.225   1.272   0.997 -0.1367  0.4442 -0.5575
  339TMC3     H 5142   4.736   1.312   0.982  0.5322  1.3169  0.9619
  339TMC3    H1 5143   0.226   1.317   0.627 -0.4108  2.7691 -2.2503
  339TMC3    H2 5144   4.611   1.542   0.647 -0.9514  0.7867  3.2190
  339TMC3    C7 5145   0.071   1.488   0.486 -0.8568 -0.3208 -0.5504
  339TMC3    C8 5146   4.594   1.522   0.904 -0.2508  0.6201  0.1182
  339TMC3    O1 5147   0.056   1.610   0.479 -0.1830 -0.1830  0.2531
  339TMC3    O2 5148   4.507   1.589   0.853 -0.1918 -0.5020 -0.0924
  340MPD2     C 5149   1.215   4.567  10.753 -0.2947 -0.3661  0.1527
  340MPD2    C1 5150   1.134   4.462  10.706 -0.5676 -0.7048 -0.6247
  340MPD2    C2 5151   1.188   4.342  10.658  0.1687  0.7117  0.6603
  340MPD2    C3 5152   1.319   4.323  10.666  0.2452  0.1499 -0.2027
  340MPD2    C4 5153   1.400   4.427  10.716  0.3093  0.7462 -0.1303
  340MPD2    C5 5154   1.351   4.547  10.756 -0.0481  0.2462 -0.0891
  340MPD2     H 5155   1.125   4.260  10.624  1.4292 -0.1643  0.4413
  340MPD2    H1 5156   1.507   4.412  10.710 -0.0690 -2.1139  0.3030
  340MPD2    H2 5157   1.169   4.658  10.791  0.0477 -0.4969  0.8776
  340MPD2    H3 5158   1.422   4.621  10.792 -2.2142  2.2554  0.0651
  340MPD2     N 5159   1.388   4.209  10.612  1.0811 -0.1348 -0.0949
  340MPD2    H5 5160   1.489   4.210  10.613  1.0585  2.0254  0.3200
  340MPD2    N1 5161   0.994   4.496  10.697 -0.1284 -0.2059 -0.0594
  340MPD2    H7 5162   0.968   4.588  10.730  1.0048  0.4611 -0.9989
  341TMC3    C1 5163   0.785   4.491  10.601 -0.8311 -0.1424 -0.3608
  341TMC3    C2 5164   0.687   4.400  10.569  0.7382 -0.5792  0.1055
  341TMC3    C3 5165   0.636   4.390  10.441  0.0403  0.0992 -0.2113
  341TMC3    C4 5166   0.812   4.588  10.513 -0.5648  0.1991  0.1677
  341TMC3    C5 5167   0.756   4.585  10.388  0.1119 -0.9413 -0.6960
  341TMC3    C6 5168   0.671   4.484  10.348  0.4110  0.3534  0.6628
  341TMC3     C 5169   0.897   4.416  10.645  0.4621  0.2705  0.4254
  341TMC3     O 5170   0.899   4.294  10.625 -0.4368  1.0177  0.3177
  341TMC3     H 5171   0.651   4.331  10.644 -0.8737 -3.7903 -3.5945
  341TMC3    H1 5172   0.881   4.666  10.543 -2.5898  0.8300  3.1065
  341TMC3    H2 5173   0.657   4.469  10.241  1.1991  0.7750  0.4946
  341TMC3    C7 5174   0.855   4.619  10.290 -0.0255  0.3471 -0.0371
  341TMC3    C8 5175   0.585   4.262  10.390 -0.2059 -0.4229 -0.2724
  341TMC3    O1 5176   0.967   4.631  10.336 -1.0725 -0.3682 -0.2041
  341TMC3    O2 5177   0.551   4.247  10.273  1.2189  0.1353 -0.7990
  342MPD2     C 5178   4.026   2.623  17.538 -0.4040 -0.2937 -0.4484
  342MPD2    C1 5179   3.945   2.641  17.421 -0.5738  0.1834  0.3804
  342MPD2    C2 5180   3.927   2.769  17.368  0.3321 -0.5355 -0.3474
  342MPD2    C3 5181   3.988   2.878  17.432 -0.1833  0.2744  0.1875
  342MPD2    C4 5182   4.073   2.855  17.536  0.3475 -0.6283 -0.1960
  342MPD2    C5 5183   4.097   2.730  17.586  0.8925 -0.1363 -0.9707
  342MPD2     H 5184   3.862   2.789  17.284 -2.3822 -1.6071  1.5313
  342MPD2    H1 5185   4.132   2.937  17.576  1.0746 -1.8096  1.1797
  342MPD2    H2 5186   4.052   2.522  17.567 -1.7163 -0.2862  0.7780
  342MPD2    H3 5187   4.176   2.707  17.656 -0.1871 -0.3849  0.1658
  342MPD2     N 5188   3.975   3.003  17.384 -0.1912 -0.3251 -0.0004
  342MPD2    H5 5189   4.027   3.074  17.434  0.8139 -0.3828 -0.9722
  342MPD2    N1 5190   3.884   2.530  17.356 -0.3849 -0.3589 -0.0763
  342MPD2    H7 5191   3.844   2.543  17.264  1.3583  2.8027 -0.4236
  343TMC3    C1 5192   3.843   2.306  17.298  0.5512  0.7705  1.1462
  343TMC3    C2 5193   3.926   2.312  17.190 -0.2828  0.9797 -0.3717
  343TMC3    C3 5194   3.928   2.205  17.108 -0.3267  0.2454 -0.4797
  343TMC3    C4 5195   3.783   2.190  17.334  0.4869  0.2225  0.0221
  343TMC3    C5 5196   3.779   2.083  17.243  0.2079 -1.0014  0.1584
  343TMC3    C6 5197   3.844   2.097  17.124  0.2029 -0.2025 -0.5474
  343TMC3     C 5198   3.884   2.403  17.405 -0.0915  0.3484  0.2285
  343TMC3     O 5199   3.897   2.368  17.521 -0.0261 -0.4020 -0.1295
  343TMC3     H 5200   3.994   2.395  17.175  3.3404 -1.4987  2.2417
  343TMC3    H1 5201   3.732   2.187  17.430  1.8521  1.2085  0.7653
  343TMC3    H2 5202   3.857   2.008  17.064 -0.6850  0.0577 -1.1362
  343TMC3    C7 5203   3.710   1.953  17.272 -0.1217  0.7630 -0.5296
  343TMC3    C8 5204   4.011   2.230  16.991  0.2509  1.1269 -0.5398
  343TMC3    O1 5205   3.692   1.880  17.172  0.7068 -0.1540  0.2523
  343TMC3    O2 5206   4.040   2.345  16.963  0.8417 -0.1652  0.0447
  344MPD2     C 5207   0.065   2.624  10.554 -0.0404 -0.3096  0.1808
  344MPD2    C1 5208   4.674   2.655  10.510 -0.1741  0.3858  1.1407
  344MPD2    C2 5209   4.658   2.775  10.449  0.4896 -0.2816 -0.0174
  344MPD2    C3 5210   0.021   2.872  10.454  0.3161  0.6032 -0.8955
  344MPD2    C4 5211   0.148   2.838  10.494  0.2350 -0.7678 -0.5913
  344MPD2    C5 5212   0.167   2.711  10.538 -0.2971 -0.5080 -0.0417
  344MPD2     H 5213   4.562   2.800  10.404 -0.1856 -1.0077  1.0204
  344MPD2    H1 5214   0.235   2.903  10.492 -0.6786  0.3847 -2.4328
  344MPD2    H2 5215   0.089   2.536  10.613  0.3074 -1.1882 -1.2885
  344MPD2    H3 5216   0.265   2.698  10.582  1.3365  1.7863 -3.0593
  344MPD2     N 5217   0.003   3.006  10.422  0.6052  0.5564 -0.1258
  344MPD2    H5 5218   0.087   3.059  10.444 -1.1700  0.9318  5.8257
  344MPD2    N1 5219   4.560   2.576  10.540  0.1202  0.1924  0.7210
  344MPD2    H7 5220   4.473   2.609  10.500  0.4215  0.0403 -0.0700
  345TMC3    C1 5221   4.662   3.197  10.321  0.3280  0.0702 -0.5572
  345TMC3    C2 5222   0.010   3.268  10.412 -0.3408 -0.6439  0.1676
  345TMC3    C3 5223   0.024   3.408  10.389 -0.3220 -0.2759 -0.0299
  345TMC3    C4 5224   4.596   3.259  10.220 -0.4361 -0.1006 -0.9664
  345TMC3    C5 5225   4.620   3.398  10.200 -0.8603 -1.2456  0.3415
  345TMC3    C6 5226   4.703   3.471  10.283 -0.2412 -0.2236  0.5700
  345TMC3     C 5227   4.641   3.058  10.345 -0.2604  0.6811  0.5907
  345TMC3     O 5228   4.552   3.004  10.280  0.2399  0.0553  0.4510
  345TMC3     H 5229   0.076   3.228  10.488  0.2275 -1.1456 -0.5883
  345TMC3    H1 5230   4.541   3.203  10.145  0.6750 -0.4632 -1.5034
  345TMC3    H2 5231   0.009   3.567  10.257  0.8004 -0.6758  0.6211
  345TMC3    C7 5232   4.542   3.476  10.109  0.4111 -0.7277  0.3873
  345TMC3    C8 5233   0.105   3.485  10.492 -0.8956 -0.5810  0.5316
  345TMC3    O1 5234   4.553   3.593  10.129 -0.0245 -0.1867  0.1371
  345TMC3    O2 5235   0.160   3.425  10.584 -0.1177 -0.5430  0.0322
  346MPD2     C 5236   4.244   3.236  13.400  0.0551  0.3075 -0.1516
  346MPD2    C1 5237   4.340   3.321  13.444 -0.6176 -0.9346 -0.1702
  346MPD2    C2 5238   4.349   3.353  13.582 -0.8465  0.6895  0.5158
  346MPD2    C3 5239   4.258   3.299  13.673 -0.7206  0.7524  0.4877
  346MPD2    C4 5240   4.172   3.199  13.625  0.1342  0.3218  0.1942
  346MPD2    C5 5241   4.163   3.172  13.491  0.0987  0.6226  0.5439
  346MPD2     H 5242   4.422   3.427  13.613 -0.9867  1.5970 -1.3232
  346MPD2    H1 5243   4.108   3.137  13.687  0.9254 -1.3158 -0.6086
  346MPD2    H2 5244   4.242   3.193  13.301 -0.6798  1.1448 -0.5014
  346MPD2    H3 5245   4.096   3.095  13.457  1.0719  0.1465 -0.3087
  346MPD2     N 5246   4.253   3.343  13.806 -0.4022 -0.3265  0.3721
  346MPD2    H5 5247   4.326   3.408  13.834  0.9711 -1.8372  0.2987
  346MPD2    N1 5248   4.425   3.397  13.351 -0.5385 -0.1169  0.0545
  346MPD2    H7 5249   4.502   3.449  13.393 -1.2888  0.1911  1.0689
  347TMC3    C1 5250   4.180   3.397  14.020  0.3608 -0.2773  0.6440
  347TMC3    C2 5251   4.310   3.397  14.054 -0.4810 -0.9084 -0.0502
  347TMC3    C3 5252   4.344   3.496  14.137  0.1856 -0.3062 -0.6773
  347TMC3    C4 5253   4.085   3.480  14.065 -0.7706 -0.1815 -0.2700
  347TMC3    C5 5254   4.125   3.584  14.139  0.5074  0.2976 -0.5975
  347TMC3    C6 5255   4.254   3.591  14.182  0.3297  0.4233 -0.3165
  347TMC3     C 5256   4.149   3.333  13.894 -0.3567 -0.1286  0.5288
  347TMC3     O 5257   4.035   3.291  13.886  0.1113 -0.2922  0.1936
  347TMC3     H 5258   4.378   3.316  14.033 -0.5681 -0.9857 -0.0334
  347TMC3    H1 5259   3.981   3.462  14.039 -0.8846 -0.0536  0.0941
  347TMC3    H2 5260   4.290   3.667  14.251  0.2049 -1.3027  1.6762
  347TMC3    C7 5261   4.016   3.665  14.201  0.0864 -0.1016 -0.5931
  347TMC3    C8 5262   4.483   3.504  14.180  0.3895 -0.5540 -0.0356
  347TMC3    O1 5263   3.910   3.608  14.215  0.4763 -0.5917 -0.3978
  347TMC3    O2 5264   4.530   3.391  14.199  0.4242  0.1998 -0.3153
  348MPD2     C 5265   3.554   3.264  11.873 -0.0439  0.3240  0.2668
  348MPD2    C1 5266   3.420   3.291  11.846  0.3852 -0.0330 -0.9184
  348MPD2    C2 5267   3.382   3.422  11.843  0.3885 -0.1521 -0.0741
  348MPD2    C3 5268   3.476   3.522  11.880 -0.3124  0.3227  0.0417
  348MPD2    C4 5269   3.607   3.491  11.908  0.3790  0.1975 -0.1283
  348MPD2    C5 5270   3.648   3.360  11.911  0.1159  0.0491  0.2688
  348MPD2     H 5271   3.279   3.445  11.820  1.0816  2.5992 -0.3934
  348MPD2    H1 5272   3.686   3.560  11.936 -0.1217  0.0000  1.7608
  348MPD2    H2 5273   3.593   3.163  11.869 -0.5436  0.1690 -0.8726
  348MPD2    H3 5274   3.746   3.323  11.938  0.6468  2.6116  1.7529
  348MPD2     N 5275   3.426   3.654  11.868  0.0158  0.0004 -0.5604
  348MPD2    H5 5276   3.325   3.666  11.862 -0.0970 -0.5904  0.1513
  348MPD2    N1 5277   3.327   3.191  11.818  0.2282  0.2949 -0.4978
  348MPD2    H7 5278   3.233   3.229  11.822  0.4903  0.8512  0.4619
  349TMC3    C1 5279   3.217   2.992  11.810 -1.3521  0.8633  0.1390
  349TMC3    C2 5280   3.211   2.886  11.891 -0.3282 -0.1573  0.1104
  349TMC3    C3 5281   3.084   2.837  11.925  0.6251  0.8201  0.1713
  349TMC3    C4 5282   3.105   3.055  11.767  0.1033  0.0795 -0.1604
  349TMC3    C5 5283   2.980   3.008  11.800 -0.1924  0.2254  0.5790
  349TMC3    C6 5284   2.973   2.898  11.883 -0.4443  0.1522 -0.2568
  349TMC3     C 5285   3.340   3.054  11.795 -0.9362 -0.5331 -0.6021
  349TMC3     O 5286   3.437   2.979  11.791 -0.1251  0.5631  0.9398
  349TMC3     H 5287   3.303   2.836  11.918 -0.0597 -1.0568 -2.4370
  349TMC3    H1 5288   3.103   3.103  11.670 -0.0190 -0.3031 -0.3500
  349TMC3    H2 5289   2.877   2.860  11.918 -0.6448  0.0723 -0.8908
  349TMC3    C7 5290   2.856   3.078  11.752 -0.1165 -0.2479  0.3353
  349TMC3    C8 5291   3.085   2.763  12.048  0.8110  0.6926 -0.0338
  349TMC3    O1 5292   2.756   3.013  11.784 -0.7629  0.3343 -0.5640
  349TMC3    O2 5293   3.194   2.762  12.099  0.2948 -0.6450 -0.6771
  350MPD2     C 5294   1.822   1.735  10.470 -0.3958  0.1611  0.7002
  350MPD2    C1 5295   1.823   1.600  10.504  0.2587 -1.1483  0.6443
  350MPD2    C2 5296   1.897   1.548  10.610  0.0840  0.3390  0.9571
  350MPD2    C3 5297   1.976   1.639  10.684 -0.5351  0.1273  0.1189
  350MPD2    C4 5298   1.965   1.775  10.649 -0.5545 -0.3798  0.6028
  350MPD2    C5 5299   1.897   1.821  10.544 -0.1914 -0.0374  0.3726
  350MPD2     H 5300   1.884   1.443  10.630  1.6142 -0.1977 -0.8255
  350MPD2    H1 5301   2.011   1.848  10.715  0.4247 -1.3112  0.9597
  350MPD2    H2 5302   1.779   1.779  10.381  2.0446  0.3759 -0.3817
  350MPD2    H3 5303   1.898   1.924  10.508  1.5134 -0.5362 -1.0107
  350MPD2     N 5304   2.048   1.594  10.798 -0.3229  0.7141  0.4401
  350MPD2    H5 5305   2.037   1.499  10.832  2.7790  0.6080  1.1503
  350MPD2    N1 5306   1.747   1.505  10.426  0.0960  0.5389 -0.5393
  350MPD2    H7 5307   1.753   1.408  10.456  1.3683  1.2623  1.5685
  351TMC3    C1 5308   1.621   1.407  10.253  0.3877  0.3436 -0.0736
  351TMC3    C2 5309   1.684   1.286  10.261 -0.1834  0.4013 -0.4093
  351TMC3    C3 5310   1.662   1.194  10.157 -0.1781 -0.8794  0.2203
  351TMC3    C4 5311   1.532   1.433  10.153  0.0601  0.4959 -0.5206
  351TMC3    C5 5312   1.503   1.337  10.060 -0.0427 -0.8232 -0.5719
  351TMC3    C6 5313   1.570   1.219  10.058 -0.0177  0.3694  0.4691
  351TMC3     C 5314   1.663   1.528  10.321  0.4019 -0.2280  0.2941
  351TMC3     O 5315   1.629   1.637  10.269  0.4252 -0.5109 -0.0265
  351TMC3     H 5316   1.773   1.267  10.320 -2.2956 -0.2337  2.5240
  351TMC3    H1 5317   1.478   1.526  10.148 -0.8572  0.0761  1.3243
  351TMC3    H2 5318   1.560   1.142   9.983 -1.2162  2.1945 -1.2414
  351TMC3    C7 5319   1.393   1.354   9.968  0.6612 -0.5529 -0.2198
  351TMC3    C8 5320   1.716   1.060  10.169  1.0127 -0.3488  0.1548
  351TMC3    O1 5321   1.338   1.457   9.991  0.4244 -0.3140  0.2277
  351TMC3    O2 5322   1.734   0.989  10.069 -0.1039  0.3842 -0.2966
  352MPD2     C 5323   0.648   2.897   1.356  0.5554  1.1990  0.5322
  352MPD2    C1 5324   0.513   2.901   1.368 -0.1847 -0.3300 -0.3254
  352MPD2    C2 5325   0.450   2.796   1.427  0.7294 -0.5701  0.0474
  352MPD2    C3 5326   0.519   2.689   1.478 -0.1057 -0.6203 -0.3482
  352MPD2    C4 5327   0.658   2.694   1.474 -0.6124 -0.1688 -0.0591
  352MPD2    C5 5328   0.714   2.794   1.409 -0.4165  0.1680 -0.2180
  352MPD2     H 5329   0.342   2.799   1.441  0.7563 -0.3462  0.2079
  352MPD2    H1 5330   0.713   2.617   1.527  0.5163  1.3955  1.0131
  352MPD2    H2 5331   0.709   2.969   1.302  1.6644 -0.0277  0.1499
  352MPD2    H3 5332   0.822   2.795   1.406 -0.3928 -1.0722  0.2558
  352MPD2     N 5333   0.454   2.587   1.549  0.0978 -0.0518 -0.3641
  352MPD2    H5 5334   0.520   2.515   1.577  0.3588  0.3693  0.1101
  352MPD2    N1 5335   0.458   3.024   1.316  0.2241  0.1641  0.0147
  352MPD2    H7 5336   0.516   3.076   1.251  1.4658  0.6423  1.4952
  353TMC3    C1 5337   0.309   2.420   1.609 -0.7352 -0.5341 -0.5100
  353TMC3    C2 5338   0.425   2.352   1.659 -0.1830  0.3697  0.3679
  353TMC3    C3 5339   0.416   2.217   1.650  0.3380  0.4227 -0.1709
  353TMC3    C4 5340   0.194   2.354   1.575  0.1899  0.0937  0.7599
  353TMC3    C5 5341   0.188   2.221   1.582  0.0594  0.8077 -0.3319
  353TMC3    C6 5342   0.298   2.152   1.619 -0.8919 -0.3845 -0.0178
  353TMC3     C 5343   0.322   2.552   1.548  0.9490 -0.6643 -0.3751
  353TMC3     O 5344   0.218   2.613   1.516 -0.1667  0.5450  0.0624
  353TMC3     H 5345   0.514   2.406   1.685  0.9294 -0.0692 -2.5512
  353TMC3    H1 5346   0.111   2.411   1.535  2.1939  2.5466  0.1098
  353TMC3    H2 5347   0.291   2.046   1.636 -1.7095 -0.3919 -0.3606
  353TMC3    C7 5348   0.103   2.156   1.485  0.1926  0.0348 -0.6564
  353TMC3    C8 5349   0.519   2.144   1.710  0.4560 -0.2078 -0.2475
  353TMC3    O1 5350   0.154   2.063   1.426  0.6880 -0.2203  0.6170
  353TMC3    O2 5351   0.576   2.197   1.800  0.3187 -0.6239  0.4652
  354TMC3    C1 5352   2.326   4.323  13.673 -0.0880  0.0851 -0.7200
  354TMC3    C2 5353   2.232   4.399  13.607 -0.3438  0.5344  0.1118
  354TMC3    C3 5354   2.261   4.437  13.483 -0.2000 -0.5988 -0.0877
  354TMC3    C4 5355   2.436   4.276  13.605  0.6257 -0.4333  0.1557
  354TMC3    C5 5356   2.442   4.302  13.474 -0.4099 -0.0425 -0.3405
  354TMC3    C6 5357   2.363   4.389  13.405 -0.0135 -1.0110  0.5106
  354TMC3     C 5358   2.299   4.294  13.815  0.0680  0.3343 -0.2281
  354TMC3     O 5359   2.192   4.320  13.865 -0.5816  0.2686 -1.1862
  354TMC3     H 5360   2.145   4.444  13.654 -0.1752  1.9067 -0.8913
  354TMC3    H1 5361   2.487   4.188  13.642 -2.6260 -2.6110 -0.5875
  354TMC3    H2 5362   2.384   4.413  13.301 -1.2785 -4.3603 -0.5207
  354TMC3    C7 5363   2.570   4.251  13.419 -0.0709 -0.2582  0.9119
  354TMC3    C8 5364   2.179   4.544  13.436 -0.5866  0.1243 -0.0106
  354TMC3    O1 5365   2.655   4.218  13.496 -0.0423 -0.2416  0.7024
  354TMC3    O2 5366   2.078   4.575  13.494  0.1089  0.3152  0.1184
  355MPD2     C 5367   2.299   0.879  11.997 -0.1495 -0.0190 -0.7212
  355MPD2    C1 5368   2.322   0.916  11.870  0.1478  0.1951 -0.1647
  355MPD2    C2 5369   2.455   0.910  11.828  0.2731 -0.1348 -0.7777
  355MPD2    C3 5370   2.557   0.882  11.919 -0.5863  0.4470  0.7034
  355MPD2    C4 5371   2.524   0.842  12.046 -0.5401 -0.1219 -0.7737
  355MPD2    C5 5372   2.396   0.832  12.082 -0.2510  0.3628 -0.0050
  355MPD2     H 5373   2.490   0.934  11.728 -0.4960  0.3356 -0.9328
  355MPD2    H1 5374   2.600   0.834  12.122 -1.4383  0.1894  0.1517
  355MPD2    H2 5375   2.205   0.889  12.050  0.5271  0.2384  0.4303
  355MPD2    H3 5376   2.370   0.800  12.182 -0.8069  0.2541 -0.1817
  355MPD2     N 5377   2.690   0.932  11.898 -0.1308  0.6736  0.0870
  355MPD2    H5 5378   2.761   0.921  11.969  0.3629 -0.7133 -0.6068
  355MPD2    N1 5379   2.219   0.957  11.783  0.0126  0.0391 -0.4675
  355MPD2    H7 5380   2.126   0.938  11.817 -0.5748 -0.7037 -2.4702
  356TMC3    C1 5381   2.868   1.066  11.796 -0.0465  0.4415  0.3798
  356TMC3    C2 5382   2.910   1.144  11.692  0.7034  0.6803 -0.7197
  356TMC3    C3 5383   2.990   1.253  11.715 -0.0613 -0.4453  0.4888
  356TMC3    C4 5384   2.889   1.114  11.924 -0.0753  0.5157 -0.1062
  356TMC3    C5 5385   2.976   1.224  11.949  0.1020  0.2033 -0.6706
  356TMC3    C6 5386   3.031   1.290  11.842  0.9406 -0.3338  1.0574
  356TMC3     C 5387   2.741   0.987  11.782  0.3058 -0.3762 -0.4134
  356TMC3     O 5388   2.700   0.982  11.668  0.3493  0.1337  0.0789
  356TMC3     H 5389   2.878   1.117  11.592  3.2497  2.0404 -1.9004
  356TMC3    H1 5390   2.824   1.087  12.006  1.2498 -0.1794  0.7117
  356TMC3    H2 5391   3.096   1.373  11.866  1.3179 -0.7729  1.5584
  356TMC3    C7 5392   3.010   1.247  12.093 -0.8063  0.3564 -0.0311
  356TMC3    C8 5393   3.047   1.313  11.596 -0.4369 -0.0756  0.1615
  356TMC3    O1 5394   2.974   1.154  12.164  0.0382  0.5263  0.9567
  356TMC3    O2 5395   3.034   1.267  11.483 -0.1316  0.2414 -0.2470
  357MPD2     C 5396   1.487   0.283   0.976 -0.1129  1.2099 -0.1849
  357MPD2    C1 5397   1.596   0.201   0.994  0.9932 -0.2096 -0.2319
  357MPD2    C2 5398   1.575   0.063   0.985 -0.6721  0.3733 -0.0894
  357MPD2    C3 5399   1.450   0.007   0.989 -0.2890  0.3452  0.7365
  357MPD2    C4 5400   1.343   0.092   0.980 -0.4252  0.1048 -0.4108
  357MPD2    C5 5401   1.365   0.228   0.971 -0.9983 -0.2051  0.2307
  357MPD2     H 5402   1.655   4.727   0.979 -0.4876  0.6804 -1.4550
  357MPD2    H1 5403   1.245   0.047   0.978 -0.5024  0.2278  0.8306
  357MPD2    H2 5404   1.502   0.391   0.974 -0.1370  1.2716  3.1220
  357MPD2    H3 5405   1.275   0.286   0.954 -1.1344  0.2379  2.4274
  357MPD2     N 5406   1.421   4.606   1.007 -0.4465 -0.0108 -0.1245
  357MPD2    H5 5407   1.328   4.582   1.037  0.2942 -0.7911  1.5420
  357MPD2    N1 5408   1.722   0.266   0.998  0.6177 -0.1579  0.1205
  357MPD2    H7 5409   1.733   0.366   0.984  1.9247 -0.8204 -3.4940
  358TMC3    C1 5410   1.965   0.265   1.025 -1.2918 -0.4649 -0.3943
  358TMC3    C2 5411   2.080   0.196   0.997  0.7723  0.8688  0.3230
  358TMC3    C3 5412   2.200   0.268   0.999 -0.0659 -1.1014 -0.1566
  358TMC3    C4 5413   1.968   0.397   1.043  0.2482  0.2673 -0.0583
  358TMC3    C5 5414   2.087   0.463   1.032 -0.4488  0.3600 -0.1034
  358TMC3    C6 5415   2.212   0.402   1.021  0.4734 -0.7031  0.1258
  358TMC3     C 5416   1.839   0.188   1.022 -0.4468  0.5027  0.1811
  358TMC3     O 5417   1.852   0.075   1.059  0.2826 -0.1039  0.4847
  358TMC3     H 5418   2.071   0.094   0.962 -0.5813  1.9831 -2.5908
  358TMC3    H1 5419   1.886   0.459   1.076  1.4042  2.0492 -0.5132
  358TMC3    H2 5420   2.307   0.455   1.015  0.7257 -0.8136  2.9138
  358TMC3    C7 5421   2.091   0.600   1.085 -0.3313  0.3494  0.3218
  358TMC3    C8 5422   2.319   0.198   0.958 -0.1185  0.3811 -0.1466
  358TMC3    O1 5423   2.013   0.632   1.173 -0.7423 -0.3976 -0.1530
  358TMC3    O2 5424   2.401   0.268   0.910 -0.3789  0.4325  0.1968
  359MPD2     C 5425   2.826   4.346  12.638 -0.6171  0.5955 -0.2350
  359MPD2    C1 5426   2.815   4.294  12.516  0.5999 -0.5208 -0.7017
  359MPD2    C2 5427   2.701   4.221  12.487  0.0250  0.7802 -0.2394
  359MPD2    C3 5428   2.597   4.205  12.579 -0.7126 -0.8377  0.1439
  359MPD2    C4 5429   2.606   4.258  12.701  0.5418 -0.0949 -0.0403
  359MPD2    C5 5430   2.728   4.323  12.735 -0.2558 -0.7178  0.2253
  359MPD2     H 5431   2.693   4.171  12.391 -1.6819 -2.1291  1.4337
  359MPD2    H1 5432   2.524   4.250  12.771 -0.4868  1.9514 -1.0068
  359MPD2    H2 5433   2.917   4.391  12.677 -0.8684 -2.6175  4.0398
  359MPD2    H3 5434   2.741   4.360  12.836  0.5681  0.6831 -0.3912
  359MPD2     N 5435   2.482   4.124  12.561  0.3408 -0.0482  0.0976
  359MPD2    H5 5436   2.429   4.096  12.642  1.3930 -0.5164  0.6223
  359MPD2    N1 5437   2.925   4.287  12.428 -0.0360 -0.2585 -0.2452
  359MPD2    H7 5438   2.907   4.235  12.342 -1.7378  0.0824 -0.1007
  360TMC3    C1 5439   3.138   4.319  12.326  0.0200  0.4264  0.5253
  360TMC3    C2 5440   3.278   4.325  12.349 -0.4554 -0.3224  0.0106
  360TMC3    C3 5441   3.352   4.348  12.236  0.8963 -0.6021  0.3439
  360TMC3    C4 5442   3.083   4.299  12.204  0.2394  0.0892 -0.3349
  360TMC3    C5 5443   3.174   4.296  12.098  0.2202 -0.0890  0.6586
  360TMC3    C6 5444   3.304   4.329  12.111 -0.5798 -0.3695 -0.2838
  360TMC3     C 5445   3.051   4.342  12.446 -0.0621  0.0458 -0.0372
  360TMC3     O 5446   3.100   4.407  12.541 -0.7571 -0.6498  0.3350
  360TMC3     H 5447   3.309   4.357  12.447 -2.1815 -3.7697  1.6939
  360TMC3    H1 5448   2.976   4.293  12.188  0.1440  0.4290  0.1887
  360TMC3    H2 5449   3.365   4.348  12.024  1.8926  0.4073  1.6317
  360TMC3    C7 5450   3.132   4.251  11.966  0.4448  0.7463 -0.4791
  360TMC3    C8 5451   3.449   4.459  12.252 -0.1722  0.4773  0.1887
  360TMC3    O1 5452   3.215   4.250  11.881 -0.2381 -0.4797  0.0765
  360TMC3    O2 5453   3.429   4.552  12.329  0.2680  0.1090  0.7821
  361MPD2     C 5454   0.232   2.861  16.474 -0.2516 -0.0117  0.4271
  361MPD2    C1 5455   0.209   2.911  16.597 -0.1978 -0.3682  0.5327
  361MPD2    C2 5456   0.255   2.842  16.709 -0.2814 -0.6634 -0.1476
  361MPD2    C3 5457   0.337   2.733  16.694 -0.2442  0.0731  0.2889
  361MPD2    C4 5458   0.355   2.684  16.565  0.2988 -0.0279 -0.4081
  361MPD2    C5 5459   0.308   2.749  16.461 -0.6391 -0.7576 -0.3058
  361MPD2     H 5460   0.231   2.879  16.808 -0.7234 -1.0539 -0.1097
  361MPD2    H1 5461   0.398   2.588  16.539  2.9448  1.2621 -0.8667
  361MPD2    H2 5462   0.197   2.904  16.381  1.7766 -0.0071 -0.3206
  361MPD2    H3 5463   0.321   2.699  16.366  1.9175  0.5894 -0.6581
  361MPD2     N 5464   0.380   2.647  16.799 -0.1621 -0.2164  0.7459
  361MPD2    H5 5465   0.428   2.563  16.768  1.8456  1.6578 -1.2520
  361MPD2    N1 5466   0.128   3.028  16.620  0.3102 -0.7708 -0.3538
  361MPD2    H7 5467   0.137   3.068  16.713  0.3088 -0.4732 -0.4795
  362TMC3    C1 5468   0.014   3.233  16.552 -0.2317 -0.2518  0.1166
  362TMC3    C2 5469   0.043   3.292  16.672 -0.0142 -0.8449 -0.4511
  362TMC3    C3 5470   4.725   3.414  16.694 -0.4342  0.1955 -0.0298
  362TMC3    C4 5471   4.665   3.292  16.460  0.0242  0.0560  0.0197
  362TMC3    C5 5472   4.633   3.423  16.488  0.0428 -0.5054 -0.1217
  362TMC3    C6 5473   4.650   3.484  16.604 -0.0420 -0.0211  0.8284
  362TMC3     C 5474   0.058   3.095  16.522  0.3243 -0.4369 -0.8226
  362TMC3     O 5475   0.049   3.069  16.400  0.0409 -0.0209 -0.3268
  362TMC3     H 5476   0.119   3.259  16.741 -1.4782  1.0322  2.0454
  362TMC3    H1 5477   4.632   3.231  16.376  1.1673  0.3613 -0.6563
  362TMC3    H2 5478   4.635   3.589  16.624  0.2127 -0.0927  1.4168
  362TMC3    C7 5479   4.544   3.493  16.394  0.7068  0.4383 -0.3670
  362TMC3    C8 5480   0.010   3.464  16.828 -0.1495  0.4345  0.6482
  362TMC3    O1 5481   4.448   3.553  16.444  0.1331 -0.0112  0.3200
  362TMC3    O2 5482   0.124   3.454  16.873 -0.2039  0.6110 -0.1477
  363TMC3    C1 5483   2.638   1.303  10.144 -0.4652  0.1862  0.5692
  363TMC3    C2 5484   2.680   1.180  10.170  0.3488  0.7052 -1.0915
  363TMC3    C3 5485   2.594   1.084  10.118 -0.7680  0.5119  0.2511
  363TMC3    C4 5486   2.531   1.336  10.067  0.0895  0.0999  0.1028
  363TMC3    C5 5487   2.454   1.235  10.011  0.2176  0.6053  0.7239
  363TMC3    C6 5488   2.487   1.104  10.041 -0.9144 -0.0139  0.4747
  363TMC3     C 5489   2.715   1.415  10.203  0.0449 -0.2330 -0.2733
  363TMC3     O 5490   2.654   1.514  10.239  0.0978  0.3616 -0.0501
  363TMC3     H 5491   2.758   1.160  10.242 -1.2606  1.4331  0.8301
  363TMC3    H1 5492   2.501   1.440  10.065  1.4770  0.5252  1.1442
  363TMC3    H2 5493   2.429   1.016  10.016 -1.8250  1.1404 -1.4065
  363TMC3    C7 5494   2.319   1.274   9.970 -0.0139  0.2634  0.0697
  363TMC3    C8 5495   2.612   0.952  10.177 -0.5015  0.8663  0.0644
  363TMC3    O1 5496   2.284   1.393   9.972  0.2063  0.6090  0.2704
  363TMC3    O2 5497   2.514   0.887  10.210 -0.0817 -0.3458  0.3154
  364MPD2     C 5498   1.451   0.126  11.044 -0.1675 -0.3845  0.6027
  364MPD2    C1 5499   1.516   0.145  10.926  0.0590 -0.7624 -0.3146
  364MPD2    C2 5500   1.633   0.071  10.912 -0.0731  0.1634 -0.2088
  364MPD2    C3 5501   1.696   0.004  11.018  0.2697 -0.7849 -0.7244
  364MPD2    C4 5502   1.627   4.737  11.140  0.2982 -0.0807  0.0878
  364MPD2    C5 5503   1.508   0.066  11.147  0.5630  0.3201  0.1081
  364MPD2     H 5504   1.687   0.085  10.819 -0.6343  1.2416 -0.3694
  364MPD2    H1 5505   1.674   4.700  11.231  2.2910  1.3132 -0.3576
  364MPD2    H2 5506   1.355   0.175  11.050  0.4396  0.6834  1.4765
  364MPD2    H3 5507   1.459   0.048  11.242  0.6195  1.5107  0.3612
  364MPD2     N 5508   1.812   4.660  11.004 -0.0823 -0.1444 -0.4284
  364MPD2    H5 5509   1.855   4.635  11.093  0.3573 -0.4876 -0.7348
  364MPD2    N1 5510   1.462   0.247  10.834 -0.3701  0.0475  0.3236
  364MPD2    H7 5511   1.402   0.319  10.874 -1.1993 -1.2094  1.3313
  365TMC3    C1 5512   1.449   0.377  10.646  0.6474  0.2357 -0.3298
  365TMC3    C2 5513   1.485   0.380  10.515  0.0848 -0.0251 -0.3860
  365TMC3    C3 5514   1.527   0.497  10.458 -0.0130  0.0671 -0.2644
  365TMC3    C4 5515   1.453   0.488  10.727 -0.0879 -0.9972 -0.8539
  365TMC3    C5 5516   1.500   0.602  10.667  0.1986 -0.1898  0.3419
  365TMC3    C6 5517   1.527   0.613  10.534  0.2009  0.0116 -0.3478
  365TMC3     C 5518   1.507   0.264  10.708  0.0356  0.2733  0.1364
  365TMC3     O 5519   1.581   0.195  10.635  0.5745 -0.1288 -0.3503
  365TMC3     H 5520   1.473   0.296  10.448  2.2312  0.3032 -1.1833
  365TMC3    H1 5521   1.437   0.492  10.834 -0.0094  0.3855 -0.8945
  365TMC3    H2 5522   1.572   0.698  10.484  2.5688 -0.9804  0.1136
  365TMC3    C7 5523   1.544   0.706  10.750 -0.6639 -0.1116 -0.1974
  365TMC3    C8 5524   1.623   0.484  10.358  0.7040  0.0015  0.6365
  365TMC3    O1 5525   1.481   0.814  10.738 -0.3416 -0.7594 -0.3617
  365TMC3    O2 5526   1.629   0.573  10.276  0.2836  0.0170  0.0072
  366MPD2     C 5527   0.287   0.642  15.143  0.2456 -0.3881  0.0584
  366MPD2    C1 5528   0.336   0.757  15.209  0.8190 -0.5117 -0.4954
  366MPD2    C2 5529   0.459   0.803  15.176 -0.4791 -0.2804  0.0543
  366MPD2    C3 5530   0.531   0.758  15.067 -0.0644  0.5724 -0.4249
  366MPD2    C4 5531   0.479   0.656  14.994 -0.6126 -0.0774 -0.1494
  366MPD2    C5 5532   0.363   0.596  15.036 -0.0267  0.0719 -0.8062
  366MPD2     H 5533   0.499   0.889  15.227  0.7473  0.3745 -2.0099
  366MPD2    H1 5534   0.524   0.626  14.900  1.0906  0.7652  0.3928
  366MPD2    H2 5535   0.185   0.610  15.160 -0.1776  0.4503 -0.8995
  366MPD2    H3 5536   0.309   0.517  14.986 -1.3373  0.4836 -0.0576
  366MPD2     N 5537   0.659   0.820  15.039 -0.6327  0.2016 -0.2997
  366MPD2    H5 5538   0.682   0.895  15.104  2.7865  1.0245 -2.4812
  366MPD2    N1 5539   0.265   0.831  15.311 -0.3425  0.4553  0.4279
  366MPD2    H7 5540   0.321   0.912  15.339  0.4068 -1.4752  4.5650
  367TMC3    C1 5541   0.093   0.923  15.423 -0.6202  0.9226 -0.3420
  367TMC3    C2 5542   0.193   1.006  15.454 -0.9344 -0.0956  0.2792
  367TMC3    C3 5543   0.168   1.139  15.418  0.5814 -0.1152 -1.1058
  367TMC3    C4 5544   4.711   0.952  15.361  0.2511  0.5397 -0.3042
  367TMC3    C5 5545   4.697   1.083  15.324  1.0147 -0.1530 -0.0589
  367TMC3    C6 5546   0.055   1.176  15.343  0.6823 -0.1588  0.0287
  367TMC3     C 5547   0.141   0.805  15.361 -0.3170 -0.3589 -0.1184
  367TMC3     O 5548   0.065   0.715  15.337 -0.5284 -0.0530 -0.3138
  367TMC3     H 5549   0.273   0.981  15.523 -0.3991  0.3121 -0.1915
  367TMC3    H1 5550   4.634   0.877  15.344  0.5616  0.1511  0.0025
  367TMC3    H2 5551   0.064   1.260  15.276  3.8968 -0.1320  0.4776
  367TMC3    C7 5552   4.567   1.135  15.285  1.0426 -0.4694 -0.2234
  367TMC3    C8 5553   0.250   1.243  15.480 -0.2523  0.4795 -0.0644
  367TMC3    O1 5554   4.578   1.252  15.249 -0.0663 -0.2334  0.1744
  367TMC3    O2 5555   0.299   1.212  15.585  0.6448 -0.2080 -0.1233
  368MPD2     C 5556   1.240   2.742  12.782 -0.0652 -0.0398 -0.6798
  368MPD2    C1 5557   1.303   2.826  12.869  0.3859 -0.3373  0.0873
  368MPD2    C2 5558   1.440   2.850  12.850 -0.0180  0.4283  0.0492
  368MPD2    C3 5559   1.511   2.791  12.742  0.0098 -0.6654 -0.0244
  368MPD2    C4 5560   1.441   2.720  12.654 -0.5400 -0.2041 -0.0409
  368MPD2    C5 5561   1.307   2.692  12.675 -0.4487  0.4926  0.5827
  368MPD2     H 5562   1.486   2.920  12.918 -0.5908  1.0875 -0.2389
  368MPD2    H1 5563   1.483   2.674  12.566 -0.0780  1.9449 -0.9407
  368MPD2    H2 5564   1.136   2.714  12.794 -0.1860  1.5757  2.0972
  368MPD2    H3 5565   1.251   2.638  12.600 -1.4496  1.6000  0.5449
  368MPD2     N 5566   1.645   2.824  12.720 -0.8169  0.6295  0.1002
  368MPD2    H5 5567   1.687   2.787  12.636 -1.5202 -2.2043  0.9884
  368MPD2    N1 5568   1.226   2.889  12.964  0.1808  0.3434 -0.0334
  368MPD2    H7 5569   1.127   2.864  12.958  0.3912  0.1433 -2.6086
  369TMC3    C1 5570   1.161   3.034  13.142 -0.0335  0.0126 -0.1611
  369TMC3    C2 5571   1.208   3.158  13.172 -0.2749  0.1822 -0.2977
  369TMC3    C3 5572   1.116   3.257  13.165 -0.6187  0.3122  0.3472
  369TMC3    C4 5573   1.030   3.002  13.119  0.2163  0.5758  0.6995
  369TMC3    C5 5574   0.943   3.102  13.125 -0.2354  0.2197 -0.4836
  369TMC3    C6 5575   0.979   3.230  13.146 -0.1045  0.0918  0.0813
  369TMC3     C 5576   1.267   2.955  13.075  0.2118  0.1902 -0.5950
  369TMC3     O 5577   1.383   2.974  13.113  0.5674  0.2918  0.1802
  369TMC3     H 5578   1.313   3.179  13.161 -0.4616  0.8011 -0.9347
  369TMC3    H1 5579   1.001   2.902  13.090  0.6417  0.6585  0.0033
  369TMC3    H2 5580   0.906   3.310  13.134  1.4603  1.6290  0.8450
  369TMC3    C7 5581   0.802   3.083  13.107 -0.2779 -0.2639 -0.2071
  369TMC3    C8 5582   1.159   3.393  13.114  0.6460  0.5898 -0.2750
  369TMC3    O1 5583   0.736   3.177  13.065  0.9120 -0.0732 -0.6338
  369TMC3    O2 5584   1.068   3.464  13.073 -0.2672  0.0261  0.3757
  370TMC3    C1 5585   0.908   3.833  16.322 -0.0599  0.1796  0.2689
  370TMC3    C2 5586   0.844   3.776  16.430 -0.5801  0.8851  0.3803
  370TMC3    C3 5587   0.772   3.665  16.408  0.0502 -0.7082 -0.2503
  370TMC3    C4 5588   0.891   3.772  16.200  0.5420  0.3682 -0.1080
  370TMC3    C5 5589   0.818   3.662  16.170  0.2864 -0.2067 -0.2724
  370TMC3    C6 5590   0.756   3.606  16.282 -0.7112 -0.6811  0.3699
  370TMC3     C 5591   1.034   3.896  16.346 -0.4453  0.4722 -0.1730
  370TMC3     O 5592   1.093   3.884  16.454  0.1282  0.6186 -0.0786
  370TMC3     H 5593   0.860   3.821  16.528  0.4217 -0.7754  0.9788
  370TMC3    H1 5594   0.946   3.813  16.116 -0.3445  1.4172 -0.1652
  370TMC3    H2 5595   0.684   3.527  16.266 -2.2554  0.6680  0.6501
  370TMC3    C7 5596   0.877   3.589  16.058 -1.0238  0.4729  0.1494
  370TMC3    C8 5597   0.732   3.572  16.513  0.4489 -0.0705  0.5293
  370TMC3    O1 5598   0.909   3.651  15.961  0.1560 -0.1539 -0.1896
  370TMC3    O2 5599   0.719   3.451  16.480 -0.1821  0.1240  0.6279
  371TMC3    C1 5600   2.138   2.170  15.371 -0.1388 -0.7648  0.2241
  371TMC3    C2 5601   2.039   2.163  15.461 -0.1365  0.2119 -0.0998
  371TMC3    C3 5602   2.008   2.271  15.527 -0.7183  0.1116 -0.6108
  371TMC3    C4 5603   2.203   2.287  15.351  0.1482  0.3285 -0.1446
  371TMC3    C5 5604   2.160   2.400  15.408  0.5273  0.0149 -0.3249
  371TMC3    C6 5605   2.063   2.390  15.509 -0.9482 -0.3792 -0.4182
  371TMC3     C 5606   2.201   2.046  15.328  0.6754  0.3970  0.3789
  371TMC3     O 5607   2.295   2.060  15.251 -0.4151  0.3125  0.3005
  371TMC3     H 5608   1.975   2.076  15.470 -0.3279  0.3327 -0.2981
  371TMC3    H1 5609   2.295   2.281  15.295  0.5228  2.2973  0.2726
  371TMC3    H2 5610   2.040   2.475  15.572 -0.4116 -0.7695  0.3012
  371TMC3    C7 5611   2.229   2.530  15.393  0.6561  0.3098  0.9298
  371TMC3    C8 5612   1.948   2.255  15.660 -0.2964 -0.0780  0.2210
  371TMC3    O1 5613   2.225   2.606  15.490  0.4869  0.2775 -0.0655
  371TMC3    O2 5614   1.975   2.143  15.699 -0.5753 -0.0489  0.5914
  372MPD2     C 5615   2.412   3.810  12.994 -0.2405 -0.8171 -0.3295
  372MPD2    C1 5616   2.450   3.743  13.106  0.2796 -0.0151  0.7796
  372MPD2    C2 5617   2.358   3.663  13.161 -0.2062 -0.6668  0.1445
  372MPD2    C3 5618   2.233   3.635  13.103 -0.3417 -0.9189  0.9278
  372MPD2    C4 5619   2.189   3.710  12.996 -0.0160 -0.3136 -0.7257
  372MPD2    C5 5620   2.286   3.792  12.945  0.4034 -0.2051  0.3421
  372MPD2     H 5621   2.387   3.602  13.246  1.5956 -1.1031 -0.8005
  372MPD2    H1 5622   2.100   3.698  12.935  0.0173  0.7016 -0.9752
  372MPD2    H2 5623   2.476   3.876  12.936 -0.6881  0.5896  0.7713
  372MPD2    H3 5624   2.266   3.842  12.851  1.0523  0.4106  0.5304
  372MPD2     N 5625   2.153   3.533  13.161 -0.2782  0.0273 -0.5929
  372MPD2    H5 5626   2.192   3.486  13.242  0.3824  0.6210 -0.5676
  372MPD2    N1 5627   2.583   3.744  13.156  0.5138 -0.6241 -0.0208
  372MPD2    H7 5628   2.597   3.699  13.246  1.5120 -2.1513 -0.9463
  373TMC3    C1 5629   1.963   3.398  13.186  0.8158  0.3071  0.2398
  373TMC3    C2 5630   1.833   3.414  13.227  0.1010 -0.0693  0.3537
  373TMC3    C3 5631   1.782   3.311  13.295 -0.3363 -0.2109 -0.2507
  373TMC3    C4 5632   2.039   3.285  13.194  0.2989  0.0223 -0.0631
  373TMC3    C5 5633   1.979   3.171  13.250 -0.6018  0.3774  0.0957
  373TMC3    C6 5634   1.855   3.192  13.305 -0.0951 -0.0498  0.0165
  373TMC3     C 5635   2.020   3.523  13.139 -0.4529  0.0751  0.1655
  373TMC3     O 5636   1.948   3.601  13.084 -0.9504  0.7156  0.7284
  373TMC3     H 5637   1.780   3.509  13.223  2.9658  1.5125 -0.1928
  373TMC3    H1 5638   2.139   3.282  13.152 -0.3721  1.8025 -1.8085
  373TMC3    H2 5639   1.831   3.118  13.382  0.7880  0.8570  1.1685
  373TMC3    C7 5640   2.062   3.065  13.303  0.9667  0.1437 -0.2874
  373TMC3    C8 5641   1.767   3.349  13.431 -0.6292  0.7042  0.4230
  373TMC3    O1 5642   2.025   3.024  13.412 -1.0649  0.3083  0.2175
  373TMC3    O2 5643   1.804   3.457  13.471 -0.5631 -0.4519 -0.1152
  374TMC3    C1 5644   2.459   4.218  10.021  0.2291 -0.0793  0.7671
  374TMC3    C2 5645   2.590   4.203  10.062 -0.3749 -0.5535  0.5189
  374TMC3    C3 5646   2.668   4.309  10.027 -0.6466  0.1077 -0.2217
  374TMC3    C4 5647   2.405   4.325   9.954  0.0088 -0.1181  0.2959
  374TMC3    C5 5648   2.496   4.425   9.922  0.1673  0.1179  0.4838
  374TMC3    C6 5649   2.628   4.418   9.960  0.2842  0.3651  0.1211
  374TMC3     C 5650   2.365   4.102  10.061  0.1116 -0.4308 -0.8745
  374TMC3     O 5651   2.257   4.109  10.009  0.0846  0.0272 -0.2677
  374TMC3     H 5652   2.636   4.120  10.115  3.2084  0.1018 -1.5755
  374TMC3    H1 5653   2.304   4.320   9.914 -0.6227  0.7536  1.7807
  374TMC3    H2 5654   2.698   4.499   9.946  0.2060  0.7956  2.2632
  374TMC3    C7 5655   2.457   4.517   9.814  0.6489 -0.0465  0.0660
  374TMC3    C8 5656   2.809   4.311  10.049  0.8257 -0.0314  0.2640
  374TMC3    O1 5657   2.541   4.601   9.785  0.5706  0.8195  0.3140
  374TMC3    O2 5658   2.880   4.397   9.999  0.4621 -0.4593  0.3146
  375MPD2     C 5659   2.081   3.424  16.884 -0.3862  0.3556  0.7855
  375MPD2    C1 5660   2.077   3.514  16.779 -0.5121 -0.2784 -0.0727
  375MPD2    C2 5661   2.153   3.496  16.666 -0.3863 -0.0822 -0.1182
  375MPD2    C3 5662   2.246   3.395  16.655 -0.3595  0.0557  0.0165
  375MPD2    C4 5663   2.250   3.302  16.757 -0.0816 -0.0390 -0.0523
  375MPD2    C5 5664   2.164   3.313  16.868  0.2125  0.0741  0.6797
  375MPD2     H 5665   2.134   3.574  16.594  0.8849  0.0847 -0.2758
  375MPD2    H1 5666   2.314   3.214  16.760  0.3869  0.2991  0.0068
  375MPD2    H2 5667   2.020   3.442  16.972  0.5003 -1.1666  1.6999
  375MPD2    H3 5668   2.166   3.228  16.935 -0.1014 -0.2486  0.2789
  375MPD2     N 5669   2.324   3.386  16.538 -0.1578  0.0160 -0.0459
  375MPD2    H5 5670   2.303   3.454  16.465  0.2184  1.3930  1.1207
  375MPD2    N1 5671   1.994   3.627  16.785 -0.2458  0.4905 -0.7506
  375MPD2    H7 5672   1.984   3.666  16.692  0.1396  1.6906 -0.2869
  376TMC3    C1 5673   2.512   3.353  16.399  0.1566 -0.0854 -0.3779
  376TMC3    C2 5674   2.643   3.365  16.432  0.0906  0.6835 -0.6915
  376TMC3    C3 5675   2.728   3.432  16.350  0.6504 -0.2562 -0.2643
  376TMC3    C4 5676   2.457   3.414  16.284 -0.0875 -0.0267 -0.0424
  376TMC3    C5 5677   2.546   3.478  16.203  0.0465  1.3341  0.2832
  376TMC3    C6 5678   2.678   3.487  16.233  0.3056  0.7588 -0.2779
  376TMC3     C 5679   2.430   3.302  16.510 -0.7320 -0.1243  0.9271
  376TMC3     O 5680   2.487   3.226  16.588  0.9826  0.1020 -0.2939
  376TMC3     H 5681   2.675   3.320  16.525  0.6676  1.2112 -0.6355
  376TMC3    H1 5682   2.354   3.398  16.256  0.4360  0.6961 -2.3363
  376TMC3    H2 5683   2.742   3.548  16.170 -0.1025 -0.9123 -2.2978
  376TMC3    C7 5684   2.503   3.540  16.078  0.8842  0.5413 -0.0270
  376TMC3    C8 5685   2.837   3.513  16.415 -0.1377 -0.4686 -0.1367
  376TMC3    O1 5686   2.571   3.622  16.018  0.9030 -0.3053 -0.0374
  376TMC3    O2 5687   2.870   3.616  16.359 -0.3282 -0.3842  0.0333
  377MPD2     C 5688   4.647   3.469  12.756 -0.2798  0.1523  0.1283
  377MPD2    C1 5689   0.034   3.434  12.806  0.1653 -0.4814 -0.1337
  377MPD2    C2 5690   0.044   3.334  12.899 -0.2138  0.3633 -0.4493
  377MPD2    C3 5691   4.669   3.264  12.939 -0.2378 -0.3479 -0.0567
  377MPD2    C4 5692   4.544   3.293  12.880 -0.2550  0.3784 -0.6123
  377MPD2    C5 5693   4.535   3.402  12.798  0.4773  0.0805  0.0760
  377MPD2     H 5694   0.139   3.297  12.936 -0.4377  1.1979  0.9757
  377MPD2    H1 5695   4.453   3.240  12.906  0.0923  0.9048  1.7315
  377MPD2    H2 5696   4.632   3.555  12.692 -3.6353 -1.3528 -1.1078
  377MPD2    H3 5697   4.435   3.430  12.767  0.1404  0.3461  1.3860
  377MPD2     N 5698   4.676   3.169  13.046  0.2148 -0.3792 -0.3693
  377MPD2    H5 5699   4.587   3.124  13.063 -0.1650  0.2266 -0.7493
  377MPD2    N1 5700   0.144   3.502  12.757 -0.3578  0.4076  0.7878
  377MPD2    H7 5701   0.120   3.583  12.700 -0.2748  0.5924  1.0182
  378TMC3    C1 5702   0.426   3.663  12.503  0.2464  0.3738  0.1516
  378TMC3    C2 5703   0.331   3.616  12.584 -0.2809 -0.0359  0.2453
  378TMC3    C3 5704   0.379   3.541  12.689 -0.2961 -0.1059  0.1116
  378TMC3    C4 5705   0.559   3.628  12.524 -0.2100  0.0135  0.7486
  378TMC3    C5 5706   0.602   3.558  12.624 -0.5520 -0.2096  0.3345
  378TMC3    C6 5707   0.509   3.500  12.711  0.4678 -0.3455 -0.2660
  378TMC3     C 5708   0.385   3.714  12.378  0.6885 -0.7875  0.9804
  378TMC3     O 5709   0.271   3.744  12.359  0.5131  0.3674  0.1955
  378TMC3     H 5710   0.225   3.619  12.562 -0.3747 -0.6391  0.6400
  378TMC3    H1 5711   0.629   3.672  12.454 -0.4960  0.1914  0.5709
  378TMC3    H2 5712   0.530   3.450  12.805 -2.0852  1.0576  1.0759
  378TMC3    C7 5713   0.738   3.546  12.662  0.3964  0.3367 -0.2281
  378TMC3    C8 5714   0.275   3.462  12.769 -1.0481  0.2650 -0.8386
  378TMC3    O1 5715   0.765   3.516  12.777  0.9781 -0.7157 -0.3065
  378TMC3    O2 5716   0.320   3.361  12.824  0.3463  0.2457 -0.4214
  379MPD2     C 5717   1.247   1.835  16.051  1.3909  0.0105  0.3070
  379MPD2    C1 5718   1.176   1.736  16.114 -0.8702  0.5108  0.1161
  379MPD2    C2 5719   1.221   1.682  16.228  0.1300  0.7625 -0.1384
  379MPD2    C3 5720   1.347   1.724  16.275  0.7992 -0.0333  0.1452
  379MPD2    C4 5721   1.419   1.816  16.213 -0.3470  0.0879  0.2250
  379MPD2    C5 5722   1.372   1.875  16.099 -0.1951  0.2131  0.2376
  379MPD2     H 5723   1.171   1.600  16.277  1.3348 -0.8464 -1.5952
  379MPD2    H1 5724   1.520   1.842  16.243 -0.8525  1.7272  0.4515
  379MPD2    H2 5725   1.214   1.872  15.954  0.9866 -0.8470  0.1244
  379MPD2    H3 5726   1.438   1.950  16.059 -1.3555  1.3145  0.3952
  379MPD2     N 5727   1.408   1.661  16.384  0.2922  0.6095  0.7866
  379MPD2    H5 5728   1.501   1.696  16.404  0.8733 -0.4422 -0.0662
  379MPD2    N1 5729   1.052   1.706  16.059  0.4486  0.4670  0.0078
  379MPD2    H7 5730   1.030   1.731  15.963 -1.8739  0.0176  0.4272
  380TMC3    C1 5731   0.894   1.563  15.997  0.3658 -0.0188  0.6636
  380TMC3    C2 5732   0.926   1.434  15.965 -0.0571  0.0945  0.4024
  380TMC3    C3 5733   0.924   1.402  15.834 -0.1136 -0.6863 -0.0037
  380TMC3    C4 5734   0.849   1.652  15.904  0.1660  0.7418 -0.5851
  380TMC3    C5 5735   0.829   1.612  15.775  0.0376  0.1022  0.4279
  380TMC3    C6 5736   0.860   1.483  15.741 -0.0322  0.0194 -0.2687
  380TMC3     C 5737   0.971   1.609  16.108 -0.3340  1.4336  0.5488
  380TMC3     O 5738   0.967   1.543  16.210 -0.2045 -0.0368  0.7623
  380TMC3     H 5739   0.957   1.371  16.048 -0.7822 -1.3481 -0.4102
  380TMC3    H1 5740   0.810   1.744  15.945  0.2690  1.7196 -2.6835
  380TMC3    H2 5741   0.852   1.465  15.634  1.4597 -0.1135 -0.3492
  380TMC3    C7 5742   0.716   1.673  15.706 -0.0881 -0.5936 -0.6092
  380TMC3    C8 5743   1.062   1.386  15.784  0.2059  0.0451 -0.0356
  380TMC3    O1 5744   0.704   1.794  15.711  0.0900 -0.1938 -0.6980
  380TMC3    O2 5745   1.103   1.473  15.704 -0.5371 -0.2699  0.0909
  381TMC3    C1 5746   0.609   3.144  16.497  0.5405  0.6072  0.4841
  381TMC3    C2 5747   0.716   3.162  16.414  0.4244 -0.2230  0.2213
  381TMC3    C3 5748   0.831   3.099  16.451 -0.5909 -0.5528  0.6782
  381TMC3    C4 5749   0.603   3.060  16.604  0.0267  0.4871  0.3064
  381TMC3    C5 5750   0.716   2.995  16.632 -0.7168  0.5579 -0.1663
  381TMC3    C6 5751   0.835   3.019  16.566  0.1188  0.0062  0.3635
  381TMC3     C 5752   0.483   3.201  16.462 -0.0386  0.0548  0.5082
  381TMC3     O 5753   0.400   3.211  16.553  0.3759 -0.2050 -0.4499
  381TMC3     H 5754   0.713   3.224  16.325  0.4347 -0.1516  0.2713
  381TMC3    H1 5755   0.510   3.036  16.655 -0.4452 -0.3666 -0.9500
  381TMC3    H2 5756   0.932   2.983  16.598  1.7305  1.3649 -3.0220
  381TMC3    C7 5757   0.729   2.944  16.768  0.6364 -0.0638 -0.2365
  381TMC3    C8 5758   0.960   3.154  16.409  0.0107  0.6908  0.2878
  381TMC3    O1 5759   0.822   2.867  16.790  0.0924 -0.7891  0.1660
  381TMC3    O2 5760   1.063   3.090  16.384 -0.5560 -0.1838 -0.4508
  382MPD2     C 5761   4.679   0.878  16.711  0.4110  0.8400  0.1701
  382MPD2    C1 5762   0.032   0.863  16.814 -0.1692  0.0579 -1.0610
  382MPD2    C2 5763   0.061   0.738  16.868 -0.0730  0.0439  0.5979
  382MPD2    C3 5764   4.731   0.626  16.822 -0.3118 -0.3859  0.3178
  382MPD2    C4 5765   4.641   0.645  16.716  0.4729  0.2843 -0.0283
  382MPD2    C5 5766   4.619   0.771  16.662  0.1901 -0.1442 -0.6661
  382MPD2     H 5767   0.143   0.736  16.939 -1.8980  2.1272  2.7678
  382MPD2    H1 5768   4.583   0.559  16.686 -2.1566  1.0719  2.7869
  382MPD2    H2 5769   4.660   0.981  16.684  0.3645  1.2304  1.7078
  382MPD2    H3 5770   4.547   0.781  16.581 -2.6319  0.1921  1.8652
  382MPD2     N 5771   0.008   0.497  16.874 -0.9564  0.8787  0.3034
  382MPD2    H5 5772   4.701   0.417  16.830  0.4230  0.6107 -0.5965
  382MPD2    N1 5773   0.104   0.965  16.869 -0.8526  0.2363  0.3316
  382MPD2    H7 5774   0.183   0.935  16.925 -1.4077 -2.4046 -0.3150
  383TMC3    C1 5775   0.073   0.327  17.034  0.1248 -0.3551 -0.6221
  383TMC3    C2 5776   4.688   0.270  17.019 -0.0353 -0.6210 -0.8699
  383TMC3    C3 5777   4.640   0.192  17.116  0.4549  0.0460  0.8352
  383TMC3    C4 5778   0.144   0.307  17.154 -0.4978 -0.3397  0.1153
  383TMC3    C5 5779   0.096   0.224  17.251 -0.0238  0.1210 -0.6395
  383TMC3    C6 5780   4.709   0.163  17.229  0.0854  0.1844 -0.0437
  383TMC3     C 5781   0.086   0.465  16.983  0.0988 -0.2614  0.4541
  383TMC3     O 5782   0.163   0.541  17.045 -0.5256 -0.5495 -0.5403
  383TMC3     H 5783   4.623   0.298  16.937 -0.3047  0.0981 -0.4076
  383TMC3    H1 5784   0.231   0.366  17.177 -0.4153  0.4961 -2.2918
  383TMC3    H2 5785   4.659   0.114  17.312  1.0393 -1.2897 -0.3330
  383TMC3    C7 5786   0.161   0.229  17.379  0.5456 -0.2272  0.7642
  383TMC3    C8 5787   4.509   0.127  17.104  0.7528  0.0365  1.1321
  383TMC3    O1 5788   0.272   0.273  17.381  0.4764  0.1090  0.1578
  383TMC3    O2 5789   4.448   0.158  17.004  0.5724 -0.6373 -0.1552
  384MPD2     C 5790   1.596   1.643  12.064  0.0333 -0.6776  0.7496
  384MPD2    C1 5791   1.492   1.568  12.118  0.1141 -0.3744 -0.2864
  384MPD2    C2 5792   1.495   1.433  12.100  1.0319 -0.4756  0.3321
  384MPD2    C3 5793   1.611   1.370  12.067  0.1056  0.2133 -0.2309
  384MPD2    C4 5794   1.724   1.447  12.029  0.2202 -0.1290  0.7031
  384MPD2    C5 5795   1.708   1.585  12.016  0.2635 -0.8948 -0.9681
  384MPD2     H 5796   1.404   1.378  12.125  1.0329  0.7706  3.1651
  384MPD2    H1 5797   1.820   1.410  11.993 -0.7361 -0.7665 -1.2359
  384MPD2    H2 5798   1.599   1.751  12.072  0.2552 -0.4607 -2.2619
  384MPD2    H3 5799   1.789   1.650  11.986 -2.7299  0.9925 -4.9179
  384MPD2     N 5800   1.630   1.230  12.086 -0.2718 -0.3376 -0.0011
  384MPD2    H5 5801   1.722   1.190  12.072 -0.5323 -2.2226  3.6524
  384MPD2    N1 5802   1.385   1.639  12.181 -0.2667 -0.5812 -0.4072
  384MPD2    H7 5803   1.395   1.740  12.184  0.2247 -0.7012  1.6936
  385TMC3    C1 5804   1.587   1.022  12.192  1.0216 -0.4894 -0.4148
  385TMC3    C2 5805   1.715   0.988  12.164 -1.0937  0.9232 -0.2942
  385TMC3    C3 5806   1.797   0.961  12.272 -0.0513 -0.4763 -0.3603
  385TMC3    C4 5807   1.540   1.036  12.325 -0.5018  0.5083  0.0774
  385TMC3    C5 5808   1.636   1.038  12.422 -0.2583 -0.0603  0.0465
  385TMC3    C6 5809   1.763   0.997  12.400  0.0878  0.0223  0.3830
  385TMC3     C 5810   1.535   1.136  12.121  0.5816 -0.9213  0.1241
  385TMC3     O 5811   1.415   1.143  12.127 -0.2271  0.1854  0.6152
  385TMC3     H 5812   1.743   0.970  12.061 -1.4203 -0.0237 -0.2175
  385TMC3    H1 5813   1.448   1.093  12.334  0.0309  1.5083 -0.7965
  385TMC3    H2 5814   1.826   0.979  12.486 -0.1417  1.9562  0.9513
  385TMC3    C7 5815   1.607   1.146  12.517  0.5964 -0.1792 -0.3203
  385TMC3    C8 5816   1.908   0.866  12.269  0.1342 -0.0064  0.2633
  385TMC3    O1 5817   1.488   1.183  12.524 -0.2093  0.2730 -0.1093
  385TMC3    O2 5818   1.981   0.858  12.368 -0.1849  0.3358 -0.2355
  386TMC3    C1 5819   2.112   3.964  11.806 -0.2992 -0.1315 -0.7353
  386TMC3    C2 5820   2.115   4.037  11.690  0.4638  0.2607  0.0658
  386TMC3    C3 5821   2.006   4.112  11.655  0.7714 -0.0311  0.2314
  386TMC3    C4 5822   2.002   3.966  11.883 -0.4797 -0.7987  1.0849
  386TMC3    C5 5823   1.896   4.044  11.848 -0.5160  0.0543 -0.5765
  386TMC3    C6 5824   1.897   4.115  11.734 -0.4679  0.3020  0.4482
  386TMC3     C 5825   2.203   3.857  11.820 -0.2257 -0.3106  0.0134
  386TMC3     O 5826   2.315   3.868  11.770 -0.3506 -0.1366  0.0358
  386TMC3     H 5827   2.203   4.025  11.629  2.1854  2.3135  2.1489
  386TMC3    H1 5828   1.996   3.914  11.978 -3.3735 -1.2163  0.6731
  386TMC3    H2 5829   1.834   4.203  11.723 -0.7798  0.2173  1.5089
  386TMC3    C7 5830   1.789   4.050  11.949  0.1624 -0.1053  0.3853
  386TMC3    C8 5831   1.991   4.161  11.518 -0.3993  0.0343  0.1040
  386TMC3    O1 5832   1.786   3.966  12.040 -0.0601  0.1818 -0.4795
  386TMC3    O2 5833   1.896   4.235  11.498 -0.1397  0.1617  0.1490
  387MPD2     C 5834   3.888   0.056   9.686  0.4280 -0.3619 -0.2996
  387MPD2    C1 5835   3.921   0.017   9.818 -0.7374  0.4307  0.1418
  387MPD2    C2 5836   3.950   4.621   9.839  0.3180 -0.0799  0.4683
  387MPD2    C3 5837   3.947   4.532   9.729  0.4627  0.5224  0.5427
  387MPD2    C4 5838   3.902   4.572   9.605 -0.1802 -0.3811  0.0999
  387MPD2    C5 5839   3.871   4.702   9.587  0.2385  0.0729  0.3175
  387MPD2     H 5840   3.979   4.590   9.938  0.8342 -0.8158  0.0840
  387MPD2    H1 5841   3.910   4.501   9.523  1.0623 -0.3013  0.1649
  387MPD2    H2 5842   3.886   0.159   9.655 -0.9959  0.5836  2.9032
  387MPD2    H3 5843   3.844   4.736   9.488  0.2113 -2.2362 -0.4881
  387MPD2     N 5844   3.991   4.397   9.747  0.4985  0.6652  0.1815
  387MPD2    H5 5845   4.025   4.375   9.840 -0.6569 -0.0213  0.4426
  387MPD2    N1 5846   3.955   0.109   9.918  0.6581 -0.4994 -0.5173
  387MPD2    H7 5847   3.989   0.074  10.007 -1.7641 -1.2623  0.0953
  388TMC3    C1 5848   4.054   0.305   9.992 -0.2447  0.4173 -0.5611
  388TMC3    C2 5849   4.028   0.421  10.057  0.0092  0.5245  0.2101
  388TMC3    C3 5850   4.119   0.456  10.154 -0.0096  0.2237 -0.1792
  388TMC3    C4 5851   4.175   0.240   9.993 -0.1878 -0.3751  0.5752
  388TMC3    C5 5852   4.255   0.281  10.094  0.0901  0.6575  0.2575
  388TMC3    C6 5853   4.231   0.383  10.181  0.2089  0.3277 -0.5852
  388TMC3     C 5854   3.958   0.246   9.905 -0.2801 -0.7116  0.2948
  388TMC3     O 5855   3.898   0.327   9.834 -0.3704 -0.1268 -0.1245
  388TMC3     H 5856   3.934   0.470  10.035  0.2537  0.6938 -0.4559
  388TMC3    H1 5857   4.191   0.148   9.938 -1.4606 -0.9666  1.1886
  388TMC3    H2 5858   4.311   0.401  10.253  0.1994  1.0315 -0.7448
  388TMC3    C7 5859   4.349   0.182  10.149 -0.2855  0.1311  0.4270
  388TMC3    C8 5860   4.090   0.553  10.258  0.2513 -0.0361 -0.2790
  388TMC3    O1 5861   4.381   0.196  10.266  0.5488 -0.7270  0.0697
  388TMC3    O2 5862   4.169   0.576  10.351  0.3745  0.1169  0.3127
  389MPD2     C 5863   3.525   2.545  11.500  0.6197 -0.1534  0.0174
  389MPD2    C1 5864   3.427   2.480  11.427  0.4981  0.0475 -0.3088
  389MPD2    C2 5865   3.343   2.390  11.498  0.4900  0.7551  0.0509
  389MPD2    C3 5866   3.346   2.380  11.636  1.2129 -0.9115  0.4319
  389MPD2    C4 5867   3.449   2.448  11.704  0.7339  0.4228 -0.4474
  389MPD2    C5 5868   3.538   2.522  11.632 -0.3670  0.8190 -0.0655
  389MPD2     H 5869   3.264   2.342  11.442  1.4775 -0.8356  0.0163
  389MPD2    H1 5870   3.445   2.472  11.809 -0.1253  0.6102 -0.5253
  389MPD2    H2 5871   3.586   2.618  11.447  1.1000  0.8357  1.9130
  389MPD2    H3 5872   3.609   2.583  11.687  1.0201 -0.4344 -0.4645
  389MPD2     N 5873   3.261   2.305  11.708  0.2591  0.2673 -0.1040
  389MPD2    H5 5874   3.263   2.308  11.809 -4.0556  0.5753 -0.0336
  389MPD2    N1 5875   3.411   2.505  11.288 -0.5596  0.5407 -0.4519
  389MPD2    H7 5876   3.485   2.559  11.244 -1.8089  1.2772 -1.6384
  390TMC3    C1 5877   3.103   2.145  11.761 -0.1661 -0.7499  0.0586
  390TMC3    C2 5878   3.042   2.028  11.738  0.0890  0.4899 -0.1463
  390TMC3    C3 5879   2.962   1.978  11.838 -0.6768 -0.2691 -0.2362
  390TMC3    C4 5880   3.066   2.225  11.868 -0.1962 -0.0006 -0.1383
  390TMC3    C5 5881   2.975   2.171  11.960 -0.3423  0.3422 -0.5696
  390TMC3    C6 5882   2.927   2.043  11.950  0.3954  0.3684 -0.5135
  390TMC3     C 5883   3.182   2.206  11.655  0.6426 -0.3480 -0.3487
  390TMC3     O 5884   3.175   2.153  11.543 -0.5977  0.1625  0.2063
  390TMC3     H 5885   3.064   1.964  11.653 -1.5113  0.3357 -0.4379
  390TMC3    H1 5886   3.093   2.330  11.880 -0.9692 -0.1282  2.8212
  390TMC3    H2 5887   2.851   1.998  12.012  2.9752 -0.7038  1.8707
  390TMC3    C7 5888   3.011   2.199  12.098  0.0342  0.3467  0.4846
  390TMC3    C8 5889   2.940   1.835  11.834 -0.0757 -0.1706 -0.3141
  390TMC3    O1 5890   3.108   2.271  12.113  0.1346 -0.2495 -0.3148
  390TMC3    O2 5891   2.905   1.784  11.727  0.1611 -0.2522 -0.2124
  391MPD2     C 5892   2.965   3.715  11.429 -0.1741  0.4197  0.1294
  391MPD2    C1 5893   3.075   3.791  11.414 -0.8371  0.1688  0.0933
  391MPD2    C2 5894   3.122   3.802  11.283 -0.0958  0.5802 -0.2356
  391MPD2    C3 5895   3.055   3.747  11.175 -0.0841 -0.1479 -0.4551
  391MPD2    C4 5896   2.946   3.660  11.199  0.4881 -0.3885  0.0245
  391MPD2    C5 5897   2.897   3.647  11.327  0.1204 -0.9928 -0.3928
  391MPD2     H 5898   3.214   3.852  11.254 -0.8121  1.3043 -1.2784
  391MPD2    H1 5899   2.902   3.612  11.112 -2.5464  0.3938  1.1022
  391MPD2    H2 5900   2.924   3.715  11.530  1.7282 -3.3958  0.8984
  391MPD2    H3 5901   2.807   3.593  11.354  0.1494 -0.3850  0.9509
  391MPD2     N 5902   3.108   3.770  11.045 -0.1421 -0.1872  0.1403
  391MPD2    H5 5903   3.202   3.808  11.041 -0.0013 -0.3910  1.3755
  391MPD2    N1 5904   3.134   3.852  11.527 -0.2486 -0.4417  0.7579
  391MPD2    H7 5905   3.091   3.846  11.618 -0.7952  0.3842  0.5581
  392TMC3    C1 5906   3.125   3.787  10.810 -0.0302  1.2230  1.1530
  392TMC3    C2 5907   3.071   3.817  10.694 -0.3040  0.6271  0.1438
  392TMC3    C3 5908   3.146   3.828  10.580 -0.2760  0.4933 -0.4044
  392TMC3    C4 5909   3.266   3.767  10.819  0.3661 -0.5778  0.5699
  392TMC3    C5 5910   3.347   3.782  10.707  0.1171 -0.0879  0.5011
  392TMC3    C6 5911   3.283   3.807  10.585 -0.5842  0.1531 -0.2556
  392TMC3     C 5912   3.043   3.754  10.922  0.3945 -0.1143 -0.1448
  392TMC3     O 5913   2.926   3.716  10.906 -0.0288 -0.0633 -0.4361
  392TMC3     H 5914   2.965   3.839  10.696 -0.5240 -0.4810  0.2301
  392TMC3    H1 5915   3.318   3.753  10.913  0.2277  0.2784  0.7793
  392TMC3    H2 5916   3.327   3.821  10.487 -0.7241  1.6566 -0.0889
  392TMC3    C7 5917   3.479   3.856  10.717  0.0104 -0.0987  0.2048
  392TMC3    C8 5918   3.082   3.893  10.471  0.1000 -0.2899 -0.3377
  392TMC3    O1 5919   3.505   3.894  10.830  0.2468  0.0586 -0.0379
  392TMC3    O2 5920   2.960   3.893  10.470 -0.6091 -0.1989  0.2098
  393TMC3    C1 5921   1.452   1.831  10.447 -1.0962 -0.5142 -1.2876
  393TMC3    C2 5922   1.343   1.810  10.360 -0.3233 -0.3929 -0.0889
  393TMC3    C3 5923   1.274   1.693  10.372 -0.2875  0.0119  0.5818
  393TMC3    C4 5924   1.487   1.739  10.545 -0.0320 -0.6825  0.2398
  393TMC3    C5 5925   1.406   1.623  10.560  0.5720  0.3889  0.1767
  393TMC3    C6 5926   1.298   1.605  10.475 -0.5486  0.0743 -0.5798
  393TMC3     C 5927   1.527   1.953  10.427  0.6556  0.1010  0.5259
  393TMC3     O 5928   1.494   2.021  10.333 -0.2408  0.0706  0.1462
  393TMC3     H 5929   1.314   1.882  10.284  1.3359  0.0442 -0.2963
  393TMC3    H1 5930   1.575   1.746  10.608 -0.5893  0.4662  0.9010
  393TMC3    H2 5931   1.254   1.506  10.482  0.8335 -0.5048 -0.1239
  393TMC3    C7 5932   1.421   1.519  10.660 -0.0746 -0.4848 -0.7990
  393TMC3    C8 5933   1.157   1.662  10.294 -0.0807  0.4696 -1.0680
  393TMC3    O1 5934   1.327   1.453  10.693  0.2784 -0.4477  0.3235
  393TMC3    O2 5935   1.142   1.543  10.271  0.4630  0.0772 -0.3066
  394TMC3    C1 5936   3.296   2.560  11.093 -0.7055 -0.0869 -0.0428
  394TMC3    C2 5937   3.178   2.621  11.052 -0.0078  0.3848  0.2452
  394TMC3    C3 5938   3.181   2.705  10.940 -0.9520 -0.0176  0.0833
  394TMC3    C4 5939   3.414   2.589  11.025 -0.0304 -0.5651 -0.0067
  394TMC3    C5 5940   3.415   2.669  10.914 -0.1021 -0.1315 -0.2981
  394TMC3    C6 5941   3.300   2.723  10.864 -0.4301  0.3050 -0.1006
  394TMC3     C 5942   3.300   2.474  11.212  0.7998  0.7157  0.2028
  394TMC3     O 5943   3.188   2.431  11.247  1.2681 -0.6966  0.2511
  394TMC3     H 5944   3.081   2.590  11.089  1.1568 -2.2905  1.1047
  394TMC3    H1 5945   3.501   2.529  11.048  0.4784  0.3074  0.3412
  394TMC3    H2 5946   3.306   2.779  10.772 -1.4853  1.2123  0.3863
  394TMC3    C7 5947   3.532   2.679  10.834  0.5755  0.0177  0.7443
  394TMC3    C8 5948   3.053   2.697  10.865 -0.2907  0.0094  0.1762
  394TMC3    O1 5949   3.518   2.715  10.715  0.2742  0.3712 -0.2016
  394TMC3    O2 5950   2.951   2.666  10.928  0.1969 -0.1935  0.0621
  395TMC3    C1 5951   3.333   3.643  15.146 -0.9490 -0.5705 -0.1177
  395TMC3    C2 5952   3.213   3.604  15.104  0.1357 -0.4423  0.5958
  395TMC3    C3 5953   3.149   3.676  15.008 -0.1826  0.0403 -0.0132
  395TMC3    C4 5954   3.398   3.744  15.081 -0.2046  0.1049 -0.2073
  395TMC3    C5 5955   3.331   3.820  14.995 -0.4762  0.5167  0.2375
  395TMC3    C6 5956   3.205   3.792  14.962 -0.2531 -0.1638  0.8862
  395TMC3     C 5957   3.378   3.605  15.289  0.9285 -0.2624 -0.6652
  395TMC3     O 5958   3.453   3.677  15.351 -0.1352  0.2924  1.0759
  395TMC3     H 5959   3.159   3.540  15.172 -1.1924  1.4556  1.3193
  395TMC3    H1 5960   3.490   3.782  15.125 -1.2606  1.5533  0.7418
  395TMC3    H2 5961   3.149   3.867  14.906 -0.9322 -0.5307  1.0833
  395TMC3    C7 5962   3.386   3.960  14.987  0.5276  0.2215  0.2432
  395TMC3    C8 5963   3.012   3.687  15.037  0.4783  0.1650 -0.3490
  395TMC3    O1 5964   3.434   4.011  15.087 -0.0800  0.0747  0.0914
  395TMC3    O2 5965   2.977   3.786  15.093  0.1309  0.1454 -0.2845
  396MPD2     C 5966   3.021   0.175  17.138 -0.6369 -0.4467 -0.3288
  396MPD2    C1 5967   3.154   0.191  17.094 -0.0936 -0.6701 -0.5106
  396MPD2    C2 5968   3.181   0.273  16.987  0.0730 -0.0727 -0.3507
  396MPD2    C3 5969   3.078   0.342  16.931 -0.7041 -0.9070  0.2493
  396MPD2    C4 5970   2.948   0.335  16.980 -0.3270 -0.7213  1.1122
  396MPD2    C5 5971   2.922   0.250  17.084 -1.1664 -0.4833 -0.1029
  396MPD2     H 5972   3.273   0.253  16.934  0.1803  0.5385 -0.3926
  396MPD2    H1 5973   2.862   0.386  16.938 -0.5392 -1.3085  0.8404
  396MPD2    H2 5974   3.006   0.097  17.212  0.6754 -1.0279 -0.6600
  396MPD2    H3 5975   2.821   0.236  17.120 -0.9438  0.5965  0.9536
  396MPD2     N 5976   3.113   0.419  16.818 -0.1543 -0.1508 -0.1950
  396MPD2    H5 5977   3.206   0.415  16.779  0.7525 -1.4335  2.0737
  396MPD2    N1 5978   3.253   0.109  17.152 -0.3518  0.4307 -0.2342
  396MPD2    H7 5979   3.221   0.025  17.197 -0.0654 -0.2121 -1.2198
  397TMC3    C1 5980   3.449   4.729  17.150  0.9016  0.3366 -0.0041
  397TMC3    C2 5981   3.461   4.676  17.021 -0.0661  0.2046 -0.7242
  397TMC3    C3 5982   3.396   4.564  16.983  0.4537  0.4517  0.4417
  397TMC3    C4 5983   3.394   4.647  17.249  1.0016  0.0628 -0.0299
  397TMC3    C5 5984   3.359   4.520  17.211 -0.3517  0.0939  0.0576
  397TMC3    C6 5985   3.361   4.475  17.078 -1.2225 -0.1494 -0.5580
  397TMC3     C 5986   3.389   0.122  17.139 -0.0533  0.0487  0.2639
  397TMC3     O 5987   3.457   0.206  17.080  0.4093 -0.9963  0.4917
  397TMC3     H 5988   3.485   0.011  16.944 -0.2089  0.7910 -0.2160
  397TMC3    H1 5989   3.392   4.671  17.354  1.5857  0.2884 -0.0723
  397TMC3    H2 5990   3.314   4.381  17.054  0.4821 -1.4384  1.1387
  397TMC3    C7 5991   3.336   4.406  17.307 -1.0181 -0.0289  0.2056
  397TMC3    C8 5992   3.306   4.595  16.876  0.3262  0.0951  0.1150
  397TMC3    O1 5993   3.381   4.305  17.264 -0.2470 -0.4131 -0.0985
  397TMC3    O2 5994   3.359   4.663  16.786  0.2235  0.0647  0.1513
  398MPD2     C 5995   1.255   1.158   0.276 -0.4204  0.0592 -0.0086
  398MPD2    C1 5996   1.354   1.065   0.256 -0.3458 -0.5157 -0.3392
  398MPD2    C2 5997   1.486   1.101   0.270  0.3060 -0.9189 -0.4904
  398MPD2    C3 5998   1.526   1.232   0.284  0.4138 -0.3581  0.3939
  398MPD2    C4 5999   1.425   1.331   0.302  0.0137  0.5560  0.0330
  398MPD2    C5 6000   1.292   1.289   0.308 -0.0846  0.8229 -0.5426
  398MPD2     H 6001   1.561   1.025   0.252  2.0889  0.2285  1.9879
  398MPD2    H1 6002   1.446   1.435   0.321  1.2267  0.1346  0.9944
  398MPD2    H2 6003   1.149   1.135   0.286 -0.6428  0.9049 -0.4233
  398MPD2    H3 6004   1.215   1.361   0.332  0.9552  2.1543 -1.2055
  398MPD2     N 6005   1.665   1.255   0.296  0.2927 -0.5706  0.4198
  398MPD2    H5 6006   1.718   1.169   0.285  1.5227  0.5222 -2.1066
  398MPD2    N1 6007   1.331   0.934   0.233  0.4072 -0.7750  0.0585
  398MPD2    H7 6008   1.413   0.874   0.235  0.2019 -1.0912 -1.1404
  399TMC3    C1 6009   1.232   0.733   0.181  0.3643  0.0170 -0.6410
  399TMC3    C2 6010   1.348   0.675   0.228  0.6145 -0.6060 -0.5706
  399TMC3    C3 6011   1.361   0.540   0.208  0.1870  0.5593 -0.0607
  399TMC3    C4 6012   1.141   0.664   0.105  0.1454 -0.5145 -0.3639
  399TMC3    C5 6013   1.171   0.533   0.070  0.2529  0.0527  0.5324
  399TMC3    C6 6014   1.273   0.469   0.130  0.0692 -0.0483  0.2302
  399TMC3     C 6015   1.211   0.875   0.205  0.5629 -0.1655  0.5635
  399TMC3     O 6016   1.099   0.924   0.187  0.1997  0.4596 -0.4458
  399TMC3     H 6017   1.387   0.718   0.320  1.9159 -1.0114 -0.9305
  399TMC3    H1 6018   1.056   0.715   0.061  0.1075  0.0820  0.3956
  399TMC3    H2 6019   1.297   0.366   0.103  3.2825  0.5962  0.6260
  399TMC3    C7 6020   1.075   0.445   0.009 -0.1245  0.5505  1.1875
  399TMC3    C8 6021   1.494   0.479   0.235  0.1537 -0.1169  0.1209
  399TMC3    O1 6022   1.112   0.328  17.739  0.2627  0.0794 -0.4394
  399TMC3    O2 6023   1.511   0.361   0.211  0.4887  0.1682 -0.3657
  400TMC3    C1 6024   4.380   4.563  16.812 -0.1125 -0.8421 -0.1717
  400TMC3    C2 6025   4.289   4.469  16.775 -0.0151  0.3025  0.6881
  400TMC3    C3 6026   4.177   4.509  16.700  0.2388 -0.5013 -0.5852
  400TMC3    C4 6027   4.356   4.698  16.777  0.7297  0.2434  0.2172
  400TMC3    C5 6028   4.250   4.735  16.709  0.6596  0.4933 -0.0190
  400TMC3    C6 6029   4.157   4.643  16.671  0.4613 -0.3772  0.0632
  400TMC3     C 6030   4.491   4.529  16.900 -0.1723  0.0482 -0.1303
  400TMC3     O 6031   4.483   4.427  16.973 -0.2215  0.3276  0.2003
  400TMC3     H 6032   4.322   4.368  16.795  1.0945  0.3454 -0.9090
  400TMC3    H1 6033   4.436   0.032  16.795  0.1624  0.5407  1.5636
  400TMC3    H2 6034   4.076   4.658  16.600  0.2581 -0.8855  0.1874
  400TMC3    C7 6035   4.212   0.137  16.695  0.2678  0.6680  1.0985
  400TMC3    C8 6036   4.091   4.403  16.642  0.1612  0.5467 -0.4768
  400TMC3    O1 6037   4.140   0.159  16.596  0.3049 -0.1901  0.2204
  400TMC3    O2 6038   4.009   4.437  16.556  0.2631 -0.0014 -0.2941
  401MPD2     C 6039   3.737   2.840  17.667  0.5371  0.5913  0.5487
  401MPD2    C1 6040   3.795   2.788   0.030 -0.2967  0.5340 -0.2433
  401MPD2    C2 6041   3.771   2.656   0.062 -0.3594  0.3835  0.1781
  401MPD2    C3 6042   3.687   2.578  17.737  0.0995  0.6356  0.2323
  401MPD2    C4 6043   3.640   2.633  17.620 -0.1882  0.4917 -0.1251
  401MPD2    C5 6044   3.660   2.765  17.582 -0.4950  0.2839 -0.2503
  401MPD2     H 6045   3.838   2.630   0.143 -0.3159 -3.3898 -1.0683
  401MPD2    H1 6046   3.572   2.577  17.557 -1.1824  0.5728  0.8632
  401MPD2    H2 6047   3.755   2.939  17.629 -0.9981  0.2942 -0.9837
  401MPD2    H3 6048   3.616   2.812  17.495  0.3891  0.0001 -0.8471
  401MPD2     N 6049   3.659   2.453   0.039 -0.5194  0.5066  0.1300
  401MPD2    H5 6050   3.611   2.391  17.724 -1.6059  0.1757  1.2673
  401MPD2    N1 6051   3.886   2.867   0.103  0.1946 -0.4084 -0.1835
  401MPD2    H7 6052   3.955   2.822   0.162 -1.4492 -1.3094  1.0646
  402TMC3    C1 6053   3.655   2.278   0.191 -0.1274 -0.4267 -0.3132
  402TMC3    C2 6054   3.640   2.262   0.329 -0.8617  1.0035 -0.1269
  402TMC3    C3 6055   3.678   2.140   0.377 -0.1776 -0.0757  0.2125
  402TMC3    C4 6056   3.714   2.186   0.108 -0.0577  0.2953 -0.1935
  402TMC3    C5 6057   3.750   2.070   0.167  0.1773  0.7084  0.1156
  402TMC3    C6 6058   3.733   2.040   0.298  0.2377  0.2251  0.2718
  402TMC3     C 6059   3.688   2.418   0.164  0.3616  0.0796 -0.0709
  402TMC3     O 6060   3.744   2.472   0.257  0.4272  0.4531  0.1842
  402TMC3     H 6061   3.605   2.345   0.389 -1.5040 -1.4219  2.8606
  402TMC3    H1 6062   3.715   2.194   0.000 -2.6100  0.2430 -0.2072
  402TMC3    H2 6063   3.761   1.945   0.341 -1.1518 -0.0971  0.4516
  402TMC3    C7 6064   3.825   1.979   0.091 -0.2904 -0.7867 -0.0624
  402TMC3    C8 6065   3.628   2.100   0.509  0.2815  0.0290 -0.1720
  402TMC3    O1 6066   3.822   1.866   0.127  0.3249 -0.4499 -0.1521
  402TMC3    O2 6067   3.618   1.978   0.540  0.9094 -0.8156  0.3068
  403MPD2     C 6068   0.403   1.471  13.793  0.3431  0.8025 -0.0503
  403MPD2    C1 6069   0.527   1.411  13.783  0.1599 -0.6816  0.1800
  403MPD2    C2 6070   0.616   1.434  13.881 -0.4646  0.3592  0.3580
  403MPD2    C3 6071   0.583   1.524  13.987 -0.2355  0.1363  0.5063
  403MPD2    C4 6072   0.464   1.588  13.993 -0.0674 -0.3894  0.4589
  403MPD2    C5 6073   0.372   1.560  13.894  0.7709 -0.5936 -0.3185
  403MPD2     H 6074   0.716   1.394  13.878 -0.5077  0.3284 -0.5151
  403MPD2    H1 6075   0.438   1.660  14.070  1.3975 -1.5510  2.0315
  403MPD2    H2 6076   0.337   1.459  13.707 -0.5957 -0.3828  0.8360
  403MPD2    H3 6077   0.276   1.611  13.891  0.6006 -0.9784 -1.4751
  403MPD2     N 6078   0.689   1.543  14.082 -0.3017  0.0404  0.1833
  403MPD2    H5 6079   0.784   1.510  14.068 -0.0431  0.5180  0.7848
  403MPD2    N1 6080   0.559   1.324  13.673  0.1314 -0.4365 -0.2633
  403MPD2    H7 6081   0.492   1.325  13.596 -0.0565  0.1640 -0.0903
  404TMC3    C1 6082   0.645   1.132  13.562 -0.1215 -0.0499 -0.5427
  404TMC3    C2 6083   0.690   1.007  13.587  0.0352 -0.5535  0.0241
  404TMC3    C3 6084   0.735   0.932  13.485 -0.3199 -0.0359  0.1204
  404TMC3    C4 6085   0.634   1.177  13.438 -0.8309  0.2326  0.4887
  404TMC3    C5 6086   0.683   1.105  13.330 -0.0265  0.9671  0.2926
  404TMC3    C6 6087   0.732   0.978  13.350 -0.4317 -0.0476  0.3036
  404TMC3     C 6088   0.660   1.224  13.676  0.4285 -0.6221  0.8755
  404TMC3     O 6089   0.747   1.196  13.757  0.6775  0.0038  0.5257
  404TMC3     H 6090   0.698   0.973  13.689  1.3315  1.5591  0.6444
  404TMC3    H1 6091   0.633   1.285  13.433 -1.5834  0.2350  0.5648
  404TMC3    H2 6092   0.782   0.927  13.269  2.9041  1.5255  1.3545
  404TMC3    C7 6093   0.726   1.181  13.222 -0.6722  0.5609  0.0446
  404TMC3    C8 6094   0.813   0.815  13.525  0.0994 -1.0832 -1.1135
  404TMC3    O1 6095   0.739   1.301  13.235 -0.2863  0.3725  0.0785
  404TMC3    O2 6096   0.888   0.768  13.445 -0.7979 -0.1481  0.6801
  405MPD2     C 6097   1.459   2.130  14.742  0.1846  0.0633  0.1031
  405MPD2    C1 6098   1.391   2.042  14.660 -0.4884 -0.0627  0.4648
  405MPD2    C2 6099   1.265   2.080  14.610  0.1413 -0.2857  0.0056
  405MPD2    C3 6100   1.207   2.195  14.660  0.4857  0.2091  0.1037
  405MPD2    C4 6101   1.276   2.287  14.733 -0.3369 -1.0408  0.4155
  405MPD2    C5 6102   1.402   2.250  14.773 -0.5006  0.0544 -0.8895
  405MPD2     H 6103   1.212   2.018  14.539 -2.1848 -0.2057  1.6575
  405MPD2    H1 6104   1.237   2.375  14.783 -0.5242 -2.0478  2.0179
  405MPD2    H2 6105   1.562   2.111  14.769 -0.1288 -2.0031 -0.1066
  405MPD2    H3 6106   1.456   2.320  14.836 -1.1046 -1.7760  1.6704
  405MPD2     N 6107   1.074   2.221  14.633 -0.3063 -0.3541  0.6710
  405MPD2    H5 6108   1.030   2.144  14.585  0.0167  0.2234 -0.5443
  405MPD2    N1 6109   1.447   1.914  14.631  0.0029 -0.1980 -0.0540
  405MPD2    H7 6110   1.538   1.891  14.669  0.0473  1.3714  0.7600
  406TMC3    C1 6111   0.623   2.326  14.669  0.2880  0.0183  0.1552
  406TMC3    C2 6112   0.596   2.200  14.727  0.3132 -0.2113  0.3368
  406TMC3    C3 6113   0.705   2.122  14.757 -0.1823  0.6090 -0.2976
  406TMC3    C4 6114   0.753   2.374  14.658  0.0600 -0.6261 -0.4001
  406TMC3    C5 6115   0.853   2.290  14.688 -0.1331  0.2051 -0.0217
  406TMC3    C6 6116   0.831   2.166  14.744  0.8028  0.7160 -0.0339
  406TMC3     C 6117   0.509   2.389  14.598 -0.1026 -0.3556 -0.2727
  406TMC3     O 6118   0.514   2.510  14.600 -0.2191 -0.2112 -0.0695
  406TMC3     H 6119   0.497   2.159  14.736  0.5974 -1.0033 -0.0788
  406TMC3    H1 6120   0.776   2.467  14.607  0.5961 -1.1250 -1.0659
  406TMC3    H2 6121   0.921   2.115  14.777  0.1269 -0.2599  0.3107
  406TMC3    C7 6122   0.995   2.329  14.673 -0.3923  0.3228  0.1373
  406TMC3    C8 6123   0.688   1.984  14.787  0.2031  0.2690  0.0081
  406TMC3    O1 6124   1.022   2.448  14.695  0.3873 -0.5624 -0.2214
  406TMC3    O2 6125   0.600   1.944  14.860  0.3900 -0.4894  0.0377
  407MPD2     C 6126   4.049   3.784  10.003 -0.8185 -0.0142 -0.4494
  407MPD2    C1 6127   3.986   3.897   9.954 -0.4071  0.4406 -0.4081
  407MPD2    C2 6128   4.035   4.021  10.007  1.1901  0.5158 -0.7924
  407MPD2    C3 6129   4.151   4.035  10.086  0.4216 -0.2735  0.8637
  407MPD2    C4 6130   4.196   3.916  10.139 -0.1517  0.6630 -0.3442
  407MPD2    C5 6131   4.144   3.800  10.102  0.9004  0.5314  0.8276
  407MPD2     H 6132   3.975   4.108   9.985  1.0807  0.7640  0.4790
  407MPD2    H1 6133   4.287   3.903  10.197 -1.3010  0.8732  1.5290
  407MPD2    H2 6134   4.037   3.682   9.967 -0.7343 -0.8278  1.8387
  407MPD2    H3 6135   4.188   3.712  10.148 -2.8369 -1.6077  0.3116
  407MPD2     N 6136   4.200   4.155  10.138  0.2897  0.1577  0.7787
  407MPD2    H5 6137   4.260   4.133  10.217  1.4986 -0.4307 -0.3103
  407MPD2    N1 6138   3.888   3.891   9.849  0.5158 -0.5983  0.1205
  407MPD2    H7 6139   3.850   3.979   9.815  3.2574  0.3737 -0.4578
  408TMC3    C1 6140   3.790   3.804   9.654  0.2275  0.4239  0.3329
  408TMC3    C2 6141   3.861   3.771   9.542  0.7070 -0.1462  1.0261
  408TMC3    C3 6142   3.819   3.816   9.418  0.7441  0.0782  0.1281
  408TMC3    C4 6143   3.668   3.863   9.645  0.2226 -0.3569  0.4592
  408TMC3    C5 6144   3.624   3.911   9.522  0.3117 -0.3248 -0.0457
  408TMC3    C6 6145   3.702   3.894   9.409  0.0768 -0.9159  0.0919
  408TMC3     C 6146   3.846   3.776   9.785 -0.4024  0.5048  0.0198
  408TMC3     O 6147   3.895   3.666   9.788 -0.4056 -0.0501 -0.5381
  408TMC3     H 6148   3.967   3.748   9.553  1.2953  1.7365 -0.7437
  408TMC3    H1 6149   3.620   3.902   9.734 -0.3204  0.5206 -0.2197
  408TMC3    H2 6150   3.662   3.919   9.312  0.2939  0.5304  0.3740
  408TMC3    C7 6151   3.498   3.983   9.501  0.0135  0.1854  0.0966
  408TMC3    C8 6152   3.910   3.843   9.305 -0.2179 -0.3375  0.7513
  408TMC3    O1 6153   3.500   4.058   9.401 -0.0300 -0.1332  0.4497
  408TMC3    O2 6154   3.866   3.884   9.197 -0.1394  0.8131  0.1651
  409MPD2     C 6155   3.680   4.025  16.682  0.5616 -0.8482  0.2148
  409MPD2    C1 6156   3.723   4.084  16.797  0.2427 -0.3148 -0.8259
  409MPD2    C2 6157   3.716   4.222  16.804  0.7895  0.1315 -0.1583
  409MPD2    C3 6158   3.676   4.304  16.700  0.2969 -0.4170 -0.5011
  409MPD2    C4 6159   3.635   4.238  16.588  0.5730  0.1611 -0.0606
  409MPD2    C5 6160   3.627   4.099  16.575  0.1937 -0.1480  0.4390
  409MPD2     H 6161   3.748   4.260  16.901 -0.3047 -1.2436  0.7527
  409MPD2    H1 6162   3.607   4.289  16.497  2.0523  1.3566  0.1602
  409MPD2    H2 6163   3.694   3.919  16.668  1.7865 -0.7150  0.4318
  409MPD2    H3 6164   3.599   4.051  16.481 -0.5449 -0.0608  0.6163
  409MPD2     N 6165   3.689   4.446  16.702  0.0433  0.4013 -0.5305
  409MPD2    H5 6166   3.644   4.482  16.618  1.5618 -0.3809 -1.6863
  409MPD2    N1 6167   3.771   4.018  16.912 -0.6820  0.3481  0.1950
  409MPD2    H7 6168   3.798   4.082  16.986 -1.5577 -2.2253  2.7342
  410TMC3    C1 6169   3.739   4.665  16.781  0.1298 -0.1092 -0.3785
  410TMC3    C2 6170   3.778   4.720  16.901 -0.4761 -0.0047  0.6297
  410TMC3    C3 6171   3.859   0.094  16.893  0.5272  0.9807 -0.0424
  410TMC3    C4 6172   3.783   4.707  16.658 -0.0844  0.5371  0.6716
  410TMC3    C5 6173   3.851   0.083  16.657  0.4382 -0.2060 -0.0591
  410TMC3    C6 6174   3.882   0.150  16.769 -0.1164  0.2229 -0.1921
  410TMC3     C 6175   3.737   4.517  16.804  0.2485  0.1417 -0.6162
  410TMC3     O 6176   3.779   4.480  16.911 -0.2081  0.1130  0.3897
  410TMC3     H 6177   3.751   4.679  16.998  1.2288  0.7227  1.4160
  410TMC3    H1 6178   3.739   4.663  16.569 -0.2409 -2.1390  2.0641
  410TMC3    H2 6179   3.960   0.226  16.771  3.0163 -3.0023  1.2312
  410TMC3    C7 6180   3.871   0.144  16.524 -0.1981 -0.0093  0.6412
  410TMC3    C8 6181   3.981   0.094  16.982  0.0745 -0.8025 -0.2551
  410TMC3    O1 6182   3.866   0.060  16.435  0.0212  0.7144 -0.0002
  410TMC3    O2 6183   4.047   0.199  16.987  0.5956  0.3027 -0.3395
  411MPD2     C 6184   3.360   4.545  14.603 -0.3833  0.8107 -0.4802
  411MPD2    C1 6185   3.363   4.596  14.735 -0.1412  0.1650  0.0934
  411MPD2    C2 6186   3.309   4.513  14.835 -0.3111 -0.8355  0.3783
  411MPD2    C3 6187   3.242   4.394  14.807 -0.4627  1.2279 -0.0507
  411MPD2    C4 6188   3.255   4.346  14.681  0.1880  0.2058 -0.4071
  411MPD2    C5 6189   3.313   4.416  14.581  0.0626 -0.2136  1.1063
  411MPD2     H 6190   3.297   4.557  14.933  0.3157 -0.0400  0.0980
  411MPD2    H1 6191   3.191   4.265  14.648  1.9618 -0.5480 -2.0279
  411MPD2    H2 6192   3.384   4.608  14.518 -1.4244  0.2339 -1.2005
  411MPD2    H3 6193   3.317   4.384  14.477 -0.4012  2.4357  0.2815
  411MPD2     N 6194   3.158   4.325  14.897 -0.0355 -0.2338 -0.5232
  411MPD2    H5 6195   3.124   4.235  14.864  1.0842  0.4528 -3.5597
  411MPD2    N1 6196   3.411   4.729  14.758  0.3725  0.3732 -0.3879
  411MPD2    H7 6197   3.435   0.050  14.678  0.6427 -0.5192 -0.9672
  412TMC3    C1 6198   3.012   4.289  15.076 -0.2444 -0.4375 -0.9500
  412TMC3    C2 6199   2.897   4.357  15.082  0.5409 -0.1217  0.5447
  412TMC3    C3 6200   2.781   4.306  15.025  0.2124 -0.2358 -0.3917
  412TMC3    C4 6201   3.018   4.163  15.031  0.8068  0.1644  0.6916
  412TMC3    C5 6202   2.909   4.110  14.974 -0.3819 -0.6501 -0.0046
  412TMC3    C6 6203   2.788   4.181  14.975  0.2666  0.0274  0.0415
  412TMC3     C 6204   3.120   4.372  15.021 -0.1276  0.1226 -0.7655
  412TMC3     O 6205   3.163   4.463  15.089 -0.3699  0.2597 -0.4046
  412TMC3     H 6206   2.907   4.464  15.091 -0.3253 -0.0948  1.1615
  412TMC3    H1 6207   3.114   4.113  15.021  1.0005  1.1441 -2.4086
  412TMC3    H2 6208   2.700   4.141  14.925  0.4717 -0.8463  0.3687
  412TMC3    C7 6209   2.943   4.062  14.846  0.3131 -0.0074  0.5520
  412TMC3    C8 6210   2.721   4.402  14.937 -0.1991  0.4071  0.7219
  412TMC3    O1 6211   3.061   4.079  14.819 -0.4317 -0.6951 -0.2030
  412TMC3    O2 6212   2.789   4.486  14.876  0.8705 -0.4326 -0.2732
  413MPD2     C 6213   0.360   2.930  15.700 -0.3006 -0.0729 -0.4716
  413MPD2    C1 6214   0.414   2.952  15.575 -0.4687  0.7526  0.5088
  413MPD2    C2 6215   0.522   2.882  15.535  0.0799 -0.2097  0.5972
  413MPD2    C3 6216   0.601   2.810  15.622 -0.2049  0.0009 -0.1963
  413MPD2    C4 6217   0.552   2.802  15.751  0.3687  0.1227 -0.2440
  413MPD2    C5 6218   0.434   2.859  15.786 -0.0255 -0.5691 -0.3241
  413MPD2     H 6219   0.554   2.876  15.431  3.9076  0.0059  1.7709
  413MPD2    H1 6220   0.610   2.759  15.831 -0.4407  0.8048  0.7072
  413MPD2    H2 6221   0.260   2.959  15.732  0.8193  1.2583  1.8881
  413MPD2    H3 6222   0.397   2.847  15.888 -2.1168 -2.8881 -1.3635
  413MPD2     N 6223   0.715   2.743  15.576 -1.0480  0.4474 -0.4772
  413MPD2    H5 6224   0.741   2.762  15.480  1.3427  0.6103  0.1916
  413MPD2    N1 6225   0.352   3.046  15.489  0.8022  0.2906 -0.6371
  413MPD2    H7 6226   0.265   3.084  15.526  1.2873  0.5082  0.2856
  414TMC3    C1 6227   0.903   2.604  15.565 -0.0165  0.5317  0.8572
  414TMC3    C2 6228   0.999   2.554  15.645  0.1768  0.7757 -0.1132
  414TMC3    C3 6229   1.125   2.550  15.594 -0.3653  0.1428 -0.3668
  414TMC3    C4 6230   0.927   2.644  15.434 -0.0635  0.1272 -0.2532
  414TMC3    C5 6231   1.055   2.639  15.385  0.4979 -0.0483  0.2465
  414TMC3    C6 6232   1.157   2.600  15.467  0.1162 -0.5046 -0.8274
  414TMC3     C 6233   0.786   2.652  15.642  0.1700 -0.1516 -0.8994
  414TMC3     O 6234   0.779   2.612  15.756 -0.2090 -0.3519  0.3595
  414TMC3     H 6235   0.982   2.520  15.746 -1.0518  0.6292 -0.3720
  414TMC3    H1 6236   0.849   2.679  15.368  0.6503 -0.0144 -1.1721
  414TMC3    H2 6237   1.258   2.580  15.434 -0.4964 -1.7016 -2.0069
  414TMC3    C7 6238   1.073   2.657  15.244  0.1704  0.4435 -0.7795
  414TMC3    C8 6239   1.222   2.452  15.650  0.1807  0.2068 -0.3952
  414TMC3    O1 6240   0.975   2.646  15.174  0.1790  0.0743  0.0288
  414TMC3    O2 6241   1.268   2.375  15.570 -0.3679 -0.0655 -0.7272
  415TMC3    C1 6242   0.987   1.290  10.091  0.5951 -0.3521 -0.2304
  415TMC3    C2 6243   1.028   1.405  10.035 -0.3532 -0.0865 -0.2514
  415TMC3    C3 6244   0.950   1.472   9.940  0.3459  0.4065 -0.3510
  415TMC3    C4 6245   0.869   1.233  10.042  0.5311 -0.0148 -0.5202
  415TMC3    C5 6246   0.792   1.304   9.956 -0.2000 -0.3341  0.2904
  415TMC3    C6 6247   0.829   1.425   9.900 -0.0237 -0.2004  0.2305
  415TMC3     C 6248   1.077   1.201  10.161  0.1962  0.0485  0.4562
  415TMC3     O 6249   1.060   1.082  10.141 -0.1568  0.0184  0.0746
  415TMC3     H 6250   1.123   1.445  10.066 -0.5633  0.7057 -0.6189
  415TMC3    H1 6251   0.830   1.150  10.100  0.5287  0.4093  0.0822
  415TMC3    H2 6252   0.773   1.482   9.827  1.8872  0.8765 -0.3804
  415TMC3    C7 6253   0.663   1.250   9.909  0.1889  0.1973  1.0417
  415TMC3    C8 6254   0.988   1.608   9.897  0.0480 -0.3618  0.1870
  415TMC3    O1 6255   0.603   1.320   9.831  0.5128 -0.3395 -0.9134
  415TMC3    O2 6256   0.910   1.667   9.824 -0.0666 -0.5221 -0.8798
  416MPD2     C 6257   3.321   0.219  11.630  0.3331 -0.0860 -0.2396
  416MPD2    C1 6258   3.192   0.229  11.578  0.4305  0.0184 -1.1325
  416MPD2    C2 6259   3.146   0.136  11.486 -0.6790  0.1688  0.4647
  416MPD2    C3 6260   3.231   0.039  11.432 -0.3481 -0.7853 -0.6835
  416MPD2    C4 6261   3.361   0.041  11.468 -0.7257 -0.3023  0.9100
  416MPD2    C5 6262   3.405   0.128  11.563 -0.3086  0.1578 -0.3212
  416MPD2     H 6263   3.040   0.140  11.464 -0.4522  0.9684 -0.4802
  416MPD2    H1 6264   3.435   4.717  11.418  0.0612 -0.0270  1.7324
  416MPD2    H2 6265   3.369   0.282  11.705 -1.6831  0.2713  0.7297
  416MPD2    H3 6266   3.510   0.123  11.591  0.0566 -0.9441 -1.8817
  416MPD2     N 6267   3.188   4.679  11.340 -0.1887 -0.2846 -0.8229
  416MPD2    H5 6268   3.249   4.603  11.313  0.1975 -0.6443  1.0507
  416MPD2    N1 6269   3.111   0.332  11.634 -0.1960 -0.0438  0.0373
  416MPD2    H7 6270   3.022   0.348  11.587  1.4097  1.4579 -2.5123
  417TMC3    C1 6271   3.025   0.492  11.775 -0.3433  0.3303  0.7261
  417TMC3    C2 6272   3.004   0.520  11.910  0.9188  1.1304  0.7529
  417TMC3    C3 6273   2.881   0.561  11.945  0.1351 -1.2689 -0.0882
  417TMC3    C4 6274   2.940   0.526  11.677 -0.0352  0.4981 -0.6123
  417TMC3    C5 6275   2.816   0.570  11.716  0.5086 -1.0423  0.5730
  417TMC3    C6 6276   2.785   0.589  11.849 -0.4563  0.1307 -0.1788
  417TMC3     C 6277   3.132   0.408  11.745 -0.8046 -0.5931 -0.2331
  417TMC3     O 6278   3.213   0.397  11.838 -0.4557  0.2732  0.0668
  417TMC3     H 6279   3.083   0.518  11.984  1.0080 -1.9239  0.5944
  417TMC3    H1 6280   2.961   0.537  11.571  0.4711 -0.7783 -0.6528
  417TMC3    H2 6281   2.693   0.632  11.886 -0.2277 -0.1683  0.7383
  417TMC3    C7 6282   2.715   0.610  11.613  0.4452 -0.5430  0.3403
  417TMC3    C8 6283   2.831   0.528  12.086  0.2335  0.0021  0.0538
  417TMC3    O1 6284   2.767   0.628  11.503  0.3025 -0.4460  0.1971
  417TMC3    O2 6285   2.736   0.591  12.132 -0.0262 -0.3735 -0.2120
  418TMC3    C1 6286   2.069   1.278   0.234 -0.0997  0.2393  0.3997
  418TMC3    C2 6287   1.953   1.346   0.220  0.0154 -0.1742  0.3783
  418TMC3    C3 6288   1.880   1.370   0.330 -0.0632  0.5367  0.0303
  418TMC3    C4 6289   2.117   1.235   0.353  0.7637  0.5067  0.3526
  418TMC3    C5 6290   2.041   1.247   0.464  0.5117  0.3194 -0.2745
  418TMC3    C6 6291   1.916   1.308   0.452  0.0640  0.1364 -0.1486
  418TMC3     C 6292   2.132   1.247   0.106  0.5322 -0.1163  0.2499
  418TMC3     O 6293   2.093   1.298   0.004 -0.1035  0.3268  0.2991
  418TMC3     H 6294   1.927   1.392   0.125  0.2401 -2.3979 -0.7497
  418TMC3    H1 6295   2.209   1.178   0.354 -0.2458 -1.1486  0.3473
  418TMC3    H2 6296   1.841   1.309   0.530  0.8119 -1.2434  0.5994
  418TMC3    C7 6297   2.063   1.152   0.570  0.3473  0.4295  0.0292
  418TMC3    C8 6298   1.731   1.378   0.306 -0.2716  0.4081 -0.7185
  418TMC3    O1 6299   2.120   1.048   0.541  0.0791 -0.2397  0.0627
  418TMC3    O2 6300   1.677   1.488   0.316  0.5539 -0.4684 -0.0619
  419MPD2     C 6301   0.196   4.704  11.948  0.7665 -0.3678 -0.1042
  419MPD2    C1 6302   0.131   0.091  11.949 -0.5605  0.4067  0.5694
  419MPD2    C2 6303   0.092   0.156  12.064  0.0757  0.4766  0.1790
  419MPD2    C3 6304   0.119   0.098  12.187 -0.3713  0.2386  0.7084
  419MPD2    C4 6305   0.187   4.711  12.186  0.0373 -0.3104  0.0712
  419MPD2    C5 6306   0.227   4.647  12.068  0.1093  0.4262 -0.1753
  419MPD2     H 6307   0.042   0.252  12.061  0.2984  0.4880 -2.5502
  419MPD2    H1 6308   0.227   4.667  12.276  0.0140 -1.1495 -0.3288
  419MPD2    H2 6309   0.210   4.645  11.858 -0.5560 -1.4039  0.3773
  419MPD2    H3 6310   0.286   4.556  12.068 -0.7068 -0.1230 -3.1211
  419MPD2     N 6311   0.086   0.166  12.303 -0.9828 -0.2313  0.2200
  419MPD2    H5 6312   0.021   0.240  12.279 -1.7595 -0.1501  2.5723
  419MPD2    N1 6313   0.098   0.159  11.824 -0.1461  0.1253  0.1260
  419MPD2    H7 6314   0.048   0.247  11.837  1.4016  1.0402 -0.0987
  420TMC3    C1 6315   0.098   0.242  12.535  0.6776  0.8909 -0.1240
  420TMC3    C2 6316   0.071   0.368  12.493 -0.5699 -0.6065  0.3747
  420TMC3    C3 6317   0.079   0.459  12.589 -0.1293 -0.2585  0.8145
  420TMC3    C4 6318   0.140   0.219  12.666 -0.4486 -0.1558  0.1418
  420TMC3    C5 6319   0.151   0.318  12.761 -0.0029  0.2177 -0.2636
  420TMC3    C6 6320   0.120   0.441  12.720 -0.1749  0.3532 -0.4674
  420TMC3     C 6321   0.120   0.131  12.433  0.6997  0.0200  0.0861
  420TMC3     O 6322   0.172   0.023  12.470  0.9541 -0.0791  0.3440
  420TMC3     H 6323   0.029   0.401  12.399 -1.6213 -0.8677  0.7552
  420TMC3    H1 6324   0.164   0.114  12.683  1.4824 -0.0092 -1.6427
  420TMC3    H2 6325   0.110   0.514  12.799 -1.8654 -0.9578  0.5283
  420TMC3    C7 6326   0.166   0.282  12.897 -0.1016 -0.0304 -0.3158
  420TMC3    C8 6327   0.049   0.601  12.558  0.2408 -0.1585 -0.2051
  420TMC3    O1 6328   0.127   0.169  12.924 -0.0225  0.4296 -0.4468
  420TMC3    O2 6329   4.705   0.624  12.467 -0.3006  0.4071 -0.4793
  421TMC3    C1 6330   0.814   1.643  14.267 -0.5483  0.0501  0.7599
  421TMC3    C2 6331   0.812   1.766  14.326 -0.4119  0.0170 -0.5206
  421TMC3    C3 6332   0.929   1.823  14.343  0.2694 -0.4729  0.0610
  421TMC3    C4 6333   0.929   1.579  14.222  0.3734  0.1808 -0.0821
  421TMC3    C5 6334   1.046   1.646  14.246 -0.4587  0.0366 -0.3998
  421TMC3    C6 6335   1.050   1.765  14.321  0.3174 -0.3236 -0.5950
  421TMC3     C 6336   0.684   1.613  14.199  0.3696  0.5117  0.1635
  421TMC3     O 6337   0.591   1.672  14.258  0.3246 -0.2013 -0.4268
  421TMC3     H 6338   0.719   1.815  14.355  0.9502  1.9662  0.5527
  421TMC3    H1 6339   0.932   1.491  14.158  0.4721 -0.6194  1.0179
  421TMC3    H2 6340   1.135   1.832  14.325  0.3746 -0.4061 -0.4420
  421TMC3    C7 6341   1.180   1.600  14.191 -0.0511  0.3742 -0.1032
  421TMC3    C8 6342   0.931   1.956  14.378 -0.3662 -0.3558  0.4226
  421TMC3    O1 6343   1.268   1.680  14.202  0.3389 -0.3425  0.0589
  421TMC3    O2 6344   1.003   2.008  14.465  0.0294  0.0245  0.2172
  422TMC3    C1 6345   3.383   3.098  12.219 -0.9530 -0.7120 -0.0888
  422TMC3    C2 6346   3.415   3.229  12.217 -0.4707  0.0226  0.2283
  422TMC3    C3 6347   3.325   3.329  12.188 -0.6288 -0.4123 -0.3510
  422TMC3    C4 6348   3.255   3.060  12.188 -0.7039  1.0423 -0.5759
  422TMC3    C5 6349   3.174   3.162  12.157 -0.0445 -0.6211 -0.2747
  422TMC3    C6 6350   3.205   3.299  12.141 -0.8177 -0.3470  0.1164
  422TMC3     C 6351   3.489   3.000  12.234  0.3152 -1.1048  0.1903
  422TMC3     O 6352   3.595   3.048  12.274  0.0987 -0.3606  0.6261
  422TMC3     H 6353   3.513   3.251  12.257  0.5051 -2.2106 -0.9944
  422TMC3    H1 6354   3.226   2.955  12.192  2.3818  0.1753 -0.6007
  422TMC3    H2 6355   3.127   3.371  12.116 -0.0085 -0.1033 -1.6437
  422TMC3    C7 6356   3.035   3.129  12.151 -0.3249  0.6604 -0.2128
  422TMC3    C8 6357   3.360   3.474  12.208 -0.3798 -0.5392 -0.3981
  422TMC3    O1 6358   2.965   3.195  12.082 -0.2664  0.6681  0.3612
  422TMC3    O2 6359   3.471   3.490  12.256 -0.2838 -0.4141 -0.2277
  423MPD2     C 6360   0.294   3.644   0.798  0.1340 -0.9516 -0.2923
  423MPD2    C1 6361   0.299   3.514   0.792  0.6470  1.0906  1.0620
  423MPD2    C2 6362   0.322   3.441   0.680  0.0811  0.2117  0.9158
  423MPD2    C3 6363   0.335   3.511   0.556  0.2124  0.0524 -0.6069
  423MPD2    C4 6364   0.309   3.648   0.555  0.0033 -0.5782 -0.1374
  423MPD2    C5 6365   0.290   3.709   0.680 -0.0872  0.7881  0.0369
  423MPD2     H 6366   0.324   3.333   0.677  0.7090  0.2821 -0.8748
  423MPD2    H1 6367   0.312   3.713   0.469  0.7303  2.0162  1.8669
  423MPD2    H2 6368   0.285   3.699   0.892 -1.0160 -0.5328 -0.6493
  423MPD2    H3 6369   0.281   3.817   0.682 -1.7996  0.5892  2.3769
  423MPD2     N 6370   0.350   3.453   0.427 -0.2961 -0.2669 -0.0326
  423MPD2    H5 6371   0.315   3.511   0.352  0.5024 -0.6003 -0.6684
  423MPD2    N1 6372   0.288   3.453   0.919 -0.7810 -0.0980  0.5161
  423MPD2    H7 6373   0.263   3.512   0.998 -0.9345 -1.8218  1.7533
  424TMC3    C1 6374   0.266   3.278   1.061 -0.0769 -0.4222  0.3581
  424TMC3    C2 6375   0.347   3.198   1.148 -0.3724  0.8500 -0.1995
  424TMC3    C3 6376   0.300   3.181   1.275 -0.1344 -0.2032 -0.4106
  424TMC3    C4 6377   0.144   3.326   1.106  0.1131 -0.6042 -0.2626
  424TMC3    C5 6378   0.112   3.313   1.236  0.1381  0.3590 -0.0857
  424TMC3    C6 6379   0.190   3.248   1.319 -0.8872 -1.0920 -0.1111
  424TMC3     C 6380   0.311   3.315   0.935 -0.1582  0.1115  0.1918
  424TMC3     O 6381   0.388   3.235   0.877  0.0849  0.4305  0.5610
  424TMC3     H 6382   0.440   3.154   1.112 -0.8903 -0.7496  0.4304
  424TMC3    H1 6383   0.074   3.369   1.035  0.3397  0.7832  0.3621
  424TMC3    H2 6384   0.154   3.234   1.421  0.2094 -0.0012  0.4202
  424TMC3    C7 6385   0.022   3.411   1.291 -0.1309  0.0738  0.5858
  424TMC3    C8 6386   0.335   3.062   1.350  0.6704  0.3004  0.6104
  424TMC3    O1 6387   0.041   3.442   1.406 -0.1367  0.4829 -0.3633
  424TMC3    O2 6388   0.251   3.004   1.425 -0.3912  0.0314 -0.1966
  425MPD2     C 6389   4.704   3.193  17.168  0.2779 -0.0910 -0.0791
  425MPD2    C1 6390   4.628   3.106  17.099  0.2272 -0.9052 -0.5003
  425MPD2    C2 6391   4.493   3.128  17.087 -0.8235 -0.4008  0.0372
  425MPD2    C3 6392   4.437   3.234  17.147  0.6129 -0.3427 -0.0437
  425MPD2    C4 6393   4.515   3.329  17.216 -0.3336  0.4277 -0.1741
  425MPD2    C5 6394   4.647   3.302  17.227  0.6583  0.2216 -0.2706
  425MPD2     H 6395   4.429   3.058  17.036  1.4150  0.3689 -3.8093
  425MPD2    H1 6396   4.482   3.427  17.250 -0.4665  0.5566 -0.6756
  425MPD2    H2 6397   0.073   3.177  17.178 -0.0238 -2.5377 -0.7636
  425MPD2    H3 6398   4.715   3.371  17.276 -1.1864  0.5599  1.7837
  425MPD2     N 6399   4.298   3.241  17.138 -0.3799  0.0614  0.2411
  425MPD2    H5 6400   4.249   3.177  17.077 -1.3929 -0.2472  1.3935
  425MPD2    N1 6401   4.681   2.985  17.041  0.0805 -0.0546  0.3854
  425MPD2    H7 6402   0.043   2.984  17.061  0.7251  1.4441 -2.7108
  426TMC3    C1 6403   4.710   2.788  16.915  0.1795 -0.1623 -0.0611
  426TMC3    C2 6404   4.683   2.733  16.792 -0.8974  0.4942 -0.2519
  426TMC3    C3 6405   0.005   2.618  16.762 -0.3674 -0.1732  0.9882
  426TMC3    C4 6406   0.013   2.704  17.018  0.3898 -0.0854 -0.6792
  426TMC3    C5 6407   0.057   2.573  16.986  0.7134  0.5872  0.3620
  426TMC3    C6 6408   0.055   2.533  16.860  0.8248  0.0981 -0.4030
  426TMC3     C 6409   4.617   2.895  16.957 -0.9784  0.2206  0.8963
  426TMC3     O 6410   4.502   2.885  16.916 -0.4614 -0.3130  0.2904
  426TMC3     H 6411   4.634   2.789  16.713 -2.8408  0.9799  1.2905
  426TMC3    H1 6412   0.021   2.725  17.124 -0.0011 -1.1459 -0.4376
  426TMC3    H2 6413   0.108   2.443  16.831 -1.3025 -1.7007  1.3291
  426TMC3    C7 6414   0.080   2.482  17.097 -0.0470 -0.0501  0.2531
  426TMC3    C8 6415   4.695   2.545  16.648  1.2078 -0.5886 -0.6042
  426TMC3    O1 6416   0.064   2.533  17.210 -0.0651  0.0048  0.2397
  426TMC3    O2 6417   0.022   2.451  16.614 -0.5123 -0.5992  0.3560
  427MPD2     C 6418   2.501   4.493  15.271 -0.6264 -0.7858 -0.2079
  427MPD2    C1 6419   2.553   4.591  15.348 -0.2207  0.1810 -0.1312
  427MPD2    C2 6420   2.506   4.725  15.334  0.7164 -0.0981 -0.2917
  427MPD2    C3 6421   2.398   0.010  15.255 -0.0979  0.9435  0.3426
  427MPD2    C4 6422   2.349   4.640  15.177 -0.8017  0.2226 -0.1982
  427MPD2    C5 6423   2.400   4.517  15.184  0.0000 -0.4659  0.2623
  427MPD2     H 6424   2.550   0.070  15.389 -2.5918 -0.1430  2.4363
  427MPD2    H1 6425   2.261   4.652  15.115 -0.9109 -0.3181 -0.1458
  427MPD2    H2 6426   2.566   4.406  15.267  0.6348  0.1010  1.1434
  427MPD2    H3 6427   2.362   4.438  15.120  0.0882 -0.4290  0.1628
  427MPD2     N 6428   2.324   0.133  15.240 -0.2963 -0.3671  0.6230
  427MPD2    H5 6429   2.251   0.132  15.169  2.9355  1.3531 -2.7157
  427MPD2    N1 6430   2.665   4.569  15.433 -0.2837  0.4057  0.1439
  427MPD2    H7 6431   2.704   4.652  15.475 -0.7729  1.2816 -1.1329
  428TMC3    C1 6432   2.799   4.471  15.597  0.0485 -0.2273 -0.2272
  428TMC3    C2 6433   2.805   4.373  15.696  0.9950 -0.0537  0.1647
  428TMC3    C3 6434   2.912   4.370  15.781 -0.5780 -0.5761 -0.2128
  428TMC3    C4 6435   2.899   4.564  15.577  0.0990  0.1525  0.5231
  428TMC3    C5 6436   3.004   4.552  15.673  0.3415 -0.3175  0.0020
  428TMC3    C6 6437   3.008   4.465  15.776  0.0153 -0.6816  0.4626
  428TMC3     C 6438   2.694   4.455  15.495  0.5014  0.2456 -0.5781
  428TMC3     O 6439   2.645   4.344  15.492  0.1683  0.3433 -0.0875
  428TMC3     H 6440   2.731   4.294  15.698  2.5968 -1.5328  0.4562
  428TMC3    H1 6441   2.895   4.642  15.502  0.3258 -0.1851  0.1611
  428TMC3    H2 6442   3.096   4.464  15.839 -1.3824  0.5445  2.4368
  428TMC3    C7 6443   3.111   4.639  15.671  0.4450 -0.7115  0.2484
  428TMC3    C8 6444   2.934   4.253  15.859 -0.1271 -0.0366 -0.0774
  428TMC3    O1 6445   3.132   4.685  15.783  0.1160  0.0945 -0.1052
  428TMC3    O2 6446   3.044   4.239  15.906  0.2729  0.3695  0.6081
  429MPD2     C 6447   4.063   0.446   0.071  0.1171 -0.0007 -0.1436
  429MPD2    C1 6448   4.135   0.367  17.724  1.4016  0.2131 -0.3075
  429MPD2    C2 6449   4.180   0.426  17.610  0.3403 -0.5566 -0.1060
  429MPD2    C3 6450   4.180   0.560  17.590 -0.0465  0.0271  0.3161
  429MPD2    C4 6451   4.099   0.634  17.675 -0.5005 -0.1805  0.8387
  429MPD2    C5 6452   4.045   0.574   0.040  0.2795 -0.2707 -0.2993
  429MPD2     H 6453   4.230   0.358  17.542  1.6949  0.1401  0.1851
  429MPD2    H1 6454   4.077   0.739  17.664 -1.3952 -0.3879  0.6935
  429MPD2    H2 6455   4.012   0.403   0.157  2.2352  0.8872  1.5482
  429MPD2    H3 6456   3.997   0.643   0.108 -1.9256 -0.5117 -1.5933
  429MPD2     N 6457   4.249   0.619  17.485 -0.2218  0.7617 -0.5442
  429MPD2    H5 6458   4.285   0.539  17.434  1.0145  0.7300  0.3817
  429MPD2    N1 6459   4.144   0.228  17.734 -0.0963  0.1174  0.2123
  429MPD2    H7 6460   4.157   0.158  17.661  1.3113  0.2583  0.3191
  430TMC3    C1 6461   4.330   0.787  17.338 -0.9818  0.5950 -0.6893
  430TMC3    C2 6462   4.292   0.896  17.267  0.3054  0.0971 -0.5223
  430TMC3    C3 6463   4.377   0.935  17.155 -0.9184  0.6285  0.2998
  430TMC3    C4 6464   4.421   0.699  17.287  0.7267  0.1351 -0.1718
  430TMC3    C5 6465   4.483   0.728  17.170 -0.6278 -0.3013 -0.6466
  430TMC3    C6 6466   4.464   0.843  17.103 -0.2050 -0.8496  0.3700
  430TMC3     C 6467   4.252   0.755  17.457  0.2486 -0.0012 -0.5678
  430TMC3     O 6468   4.192   0.849  17.506  0.0531 -0.1930  0.1020
  430TMC3     H 6469   4.209   0.958  17.300  2.1556  1.7537  1.0321
  430TMC3    H1 6470   4.453   0.606  17.333  0.7702 -0.5410 -1.5615
  430TMC3    H2 6471   4.524   0.874  17.018  1.0185  1.6490  2.1530
  430TMC3    C7 6472   4.464   0.620  17.083 -0.0289 -0.0898 -0.3190
  430TMC3    C8 6473   4.322   1.027  17.052  0.1407 -0.4938 -0.1408
  430TMC3    O1 6474   4.484   0.507  17.131 -0.4894  0.0384  0.1649
  430TMC3    O2 6475   4.358   1.003  16.940 -0.1511  0.0141 -0.1980
  431MPD2     C 6476   0.199   0.662  12.215 -0.1278  0.1765  0.7710
  431MPD2    C1 6477   0.305   0.674  12.125 -0.3472  0.6729 -0.4211
  431MPD2    C2 6478   0.287   0.650  11.988 -0.0215  0.3789 -0.6868
  431MPD2    C3 6479   0.172   0.591  11.952 -0.6775  0.0661 -0.2158
  431MPD2    C4 6480   0.079   0.559  12.049  0.0671 -0.1089  0.7726
  431MPD2    C5 6481   0.086   0.593  12.176  0.2265 -0.8755 -0.6343
  431MPD2     H 6482   0.377   0.658  11.929 -0.3063 -1.3549 -1.3723
  431MPD2    H1 6483   0.008   0.485  12.016  2.2434 -2.1696  0.7439
  431MPD2    H2 6484   0.209   0.686  12.320  1.8901  0.4352  0.5239
  431MPD2    H3 6485   0.008   0.566  12.247  0.3723 -0.4812 -0.3216
  431MPD2     N 6486   0.141   0.539  11.822 -0.5337 -0.3166  0.0705
  431MPD2    H5 6487   0.052   0.492  11.810 -0.0418 -1.5404  1.2393
  431MPD2    N1 6488   0.427   0.732  12.161 -0.3231 -1.0279  0.0751
  431MPD2    H7 6489   0.491   0.745  12.083 -0.5322  0.0563  0.0855
  432TMC3    C1 6490   0.174   0.457  11.609 -0.8484 -0.4504  0.4818
  432TMC3    C2 6491   0.270   0.440  11.511  0.0991 -0.4059  0.2823
  432TMC3    C3 6492   0.297   0.313  11.459  0.2842  0.0624  0.3433
  432TMC3    C4 6493   0.100   0.346  11.653 -0.0223  0.5515 -0.4770
  432TMC3    C5 6494   0.127   0.221  11.598  0.1769  0.5291 -0.3123
  432TMC3    C6 6495   0.219   0.203  11.498 -0.0506  0.0838  0.6607
  432TMC3     C 6496   0.218   0.553  11.707 -0.1285  0.4369  0.4083
  432TMC3     O 6497   0.323   0.612  11.680 -0.3897 -0.1588  0.3462
  432TMC3     H 6498   0.348   0.512  11.485 -0.9835  0.9424  0.7658
  432TMC3    H1 6499   0.012   0.349  11.715  1.2604  2.0136  1.2516
  432TMC3    H2 6500   0.258   0.108  11.462 -0.4273  0.5377 -0.9541
  432TMC3    C7 6501   0.138   0.120  11.699  0.0845 -0.1349  0.6980
  432TMC3    C8 6502   0.426   0.283  11.398  0.2184 -0.5106 -0.6063
  432TMC3    O1 6503   0.192   0.017  11.659 -0.0522 -0.3829  0.2097
  432TMC3    O2 6504   0.426   0.197  11.314 -0.4833  0.2030 -0.1748
  433MPD2     C 6505   4.117   4.258  10.931  0.3966 -0.6470  0.1785
  433MPD2    C1 6506   4.032   4.175  10.995 -0.5028  0.0998 -0.4654
  433MPD2    C2 6507   3.988   4.211  11.118 -0.8816  0.5350  0.3922
  433MPD2    C3 6508   4.042   4.322  11.182 -0.5729  0.5011 -0.2539
  433MPD2    C4 6509   4.119   4.410  11.115 -0.6310  0.2640  0.1850
  433MPD2    C5 6510   4.159   4.375  10.986  0.3283  0.2420 -0.6354
  433MPD2     H 6511   3.915   4.145  11.163 -0.7453  0.2373  0.1712
  433MPD2    H1 6512   4.156   4.506  11.151 -0.4471 -0.4281  1.8293
  433MPD2    H2 6513   4.145   4.231  10.830  0.6694  2.8647 -0.7003
  433MPD2    H3 6514   4.219   4.442  10.924 -1.2531 -0.5486 -3.0170
  433MPD2     N 6515   4.017   4.333  11.320 -0.2166 -0.1876 -0.0237
  433MPD2    H5 6516   3.958   4.262  11.363 -2.0249  0.1064 -2.0305
  433MPD2    N1 6517   3.988   4.058  10.923  0.5113 -0.0517 -0.1272
  433MPD2    H7 6518   4.049   4.037  10.844  2.4025 -0.0201  1.3383
  434TMC3    C1 6519   3.943   3.843  10.884  0.1311  0.5108  0.4857
  434TMC3    C2 6520   3.971   3.730  10.951 -0.4780  0.2583 -0.7953
  434TMC3    C3 6521   4.065   3.648  10.893 -0.5453 -0.1448  0.6403
  434TMC3    C4 6522   3.988   3.863  10.754 -0.9674  0.4976  0.2373
  434TMC3    C5 6523   4.082   3.781  10.696  0.1874  0.6574  0.2119
  434TMC3    C6 6524   4.123   3.673  10.767 -0.2136 -0.0102  0.5868
  434TMC3     C 6525   3.908   3.955  10.967  0.0646 -0.2226  0.5259
  434TMC3     O 6526   3.851   3.938  11.075 -0.3872  0.0218  0.1471
  434TMC3     H 6527   3.933   3.713  11.051 -0.7977 -2.5093 -1.3784
  434TMC3    H1 6528   3.963   3.954  10.701 -1.2362 -0.1982 -0.8195
  434TMC3    H2 6529   4.196   3.600  10.735 -0.9625 -0.1365 -0.8739
  434TMC3    C7 6530   4.153   3.827  10.575 -0.8629 -0.2020  0.5398
  434TMC3    C8 6531   4.109   3.541  10.983  0.5186  0.6221 -0.3017
  434TMC3    O1 6532   4.222   3.933  10.596 -0.8683  0.3786  0.2777
  434TMC3    O2 6533   4.054   3.535  11.093  0.1438  0.8687  0.1118
  435MPD2     C 6534   1.006   3.713  15.468 -0.7222 -0.0205  0.2643
  435MPD2    C1 6535   0.999   3.714  15.610 -0.4584  0.5485  0.0209
  435MPD2    C2 6536   1.095   3.647  15.685 -1.2304  0.2846 -0.6410
  435MPD2    C3 6537   1.200   3.578  15.621  0.4575 -0.1974 -0.5837
  435MPD2    C4 6538   1.203   3.569  15.487 -0.1175  0.4588  0.5927
  435MPD2    C5 6539   1.107   3.638  15.418 -0.2475 -0.0034  0.0765
  435MPD2     H 6540   1.086   3.640  15.793  0.9496  0.4304 -0.4422
  435MPD2    H1 6541   1.275   3.516  15.426  0.5945  2.3666 -0.1830
  435MPD2    H2 6542   0.934   3.756  15.398 -0.7252  0.3438  0.4928
  435MPD2    H3 6543   1.115   3.645  15.310  3.0511  0.7033  0.3793
  435MPD2     N 6544   1.303   3.533  15.706  0.0396 -0.5589  0.5015
  435MPD2    H5 6545   1.299   3.580  15.795  1.9314 -0.2602  0.4274
  435MPD2    N1 6546   0.895   3.759  15.688 -0.9907  0.2637 -0.0269
  435MPD2    H7 6547   0.902   3.754  15.789  0.2376 -0.2885 -0.1472
  436TMC3    C1 6548   0.676   3.951  15.965 -0.6161  0.6374 -0.2083
  436TMC3    C2 6549   0.759   3.932  15.853 -0.2826  0.2597 -0.2826
  436TMC3    C3 6550   0.702   3.885  15.739 -0.0335  0.2886  0.6503
  436TMC3    C4 6551   0.539   3.926  15.955 -0.0665  0.1119 -0.7348
  436TMC3    C5 6552   0.480   3.883  15.841  0.0640 -0.6119 -0.1162
  436TMC3    C6 6553   0.563   3.860  15.733 -0.0473 -0.4834  0.2259
  436TMC3     C 6554   0.729   4.011  16.092 -0.3518  0.3805  0.3768
  436TMC3     O 6555   0.849   4.031  16.094 -0.3957  0.6704  0.1645
  436TMC3     H 6556   0.862   3.965  15.861  0.1836 -1.6023  1.6602
  436TMC3    H1 6557   0.479   3.935  16.045  0.1958  2.2805 -0.7743
  436TMC3    H2 6558   0.523   3.841  15.633 -1.2980  0.7543  0.5016
  436TMC3    C7 6559   0.333   3.891  15.845  1.2742 -0.1949  0.0076
  436TMC3    C8 6560   0.782   3.820  15.640  0.9254 -0.3096  0.6055
  436TMC3    O1 6561   0.298   3.910  15.959  0.7128 -0.0868  0.1729
  436TMC3    O2 6562   0.751   3.823  15.524 -0.1608 -0.2975 -0.5002
  437TMC3    C1 6563   3.991   0.847  13.095 -0.4548  0.6971 -0.5916
  437TMC3    C2 6564   3.852   0.871  13.098 -0.5694 -0.0051  0.0677
  437TMC3    C3 6565   3.808   1.002  13.083  0.2087  0.8202 -0.1815
  437TMC3    C4 6566   4.082   0.947  13.064  0.2590  0.4331  0.6892
  437TMC3    C5 6567   4.032   1.076  13.061 -0.7613  0.4007 -0.5810
  437TMC3    C6 6568   3.896   1.107  13.063 -0.6778 -0.2377  0.1286
  437TMC3     C 6569   4.045   0.712  13.116  0.0827 -0.2481  0.2658
  437TMC3     O 6570   3.962   0.626  13.126  0.4402  0.3330  0.3613
  437TMC3     H 6571   3.778   0.793  13.111  0.7397 -1.1487  0.5352
  437TMC3    H1 6572   4.189   0.931  13.068 -0.0357 -1.6423  0.3465
  437TMC3    H2 6573   3.856   1.207  13.058  1.6526  0.6573 -0.7983
  437TMC3    C7 6574   4.106   1.176  12.991  0.2512 -0.2762  0.1325
  437TMC3    C8 6575   3.664   1.024  13.075  0.1720 -0.3048  0.2917
  437TMC3    O1 6576   4.043   1.282  12.972 -0.1161 -0.1150  0.3361
  437TMC3    O2 6577   3.597   0.925  13.063  0.1772 -0.4185  0.3978
  438MPD2     C 6578   2.127   1.571  16.972 -0.1852 -0.1313  0.0387
  438MPD2    C1 6579   2.214   1.463  16.973  0.1783 -0.2012 -0.0516
  438MPD2    C2 6580   2.211   1.380  17.076 -0.3214  0.2770 -0.1643
  438MPD2    C3 6581   2.122   1.384  17.178  0.1991  0.6413  0.0338
  438MPD2    C4 6582   2.037   1.491  17.177 -0.1200 -0.3227  0.1152
  438MPD2    C5 6583   2.042   1.583  17.073 -0.1818  0.4679  0.2593
  438MPD2     H 6584   2.287   1.303  17.077  0.0850  0.6786 -0.0370
  438MPD2    H1 6585   1.979   1.500  17.268  0.0022 -2.2956  0.3760
  438MPD2    H2 6586   2.116   1.647  16.896 -0.7585 -0.6353 -0.3878
  438MPD2    H3 6587   1.969   1.664  17.077  1.1430  1.7697 -2.5234
  438MPD2     N 6588   2.105   1.294  17.285  0.0089 -0.5721  0.3281
  438MPD2    H5 6589   2.037   1.311  17.359  0.9117 -3.0569  1.7005
  438MPD2    N1 6590   2.309   1.426  16.874  0.8118  0.5429  0.2071
  438MPD2    H7 6591   2.355   1.336  16.879 -1.2653 -0.5535 -0.5360
  439TMC3    C1 6592   2.436   1.439  16.677 -0.0407  0.5700  0.2879
  439TMC3    C2 6593   2.399   1.394  16.553 -0.3793  0.4803  0.7785
  439TMC3    C3 6594   2.478   1.309  16.483 -0.0739  0.5819 -0.0623
  439TMC3    C4 6595   2.559   1.399  16.732 -0.2708  0.5140 -0.1508
  439TMC3    C5 6596   2.632   1.312  16.658 -0.2576 -0.3520 -0.4063
  439TMC3    C6 6597   2.595   1.252  16.538  0.1788 -0.0773  0.2425
  439TMC3     C 6598   2.329   1.498  16.757  0.4405  0.0927  0.1937
  439TMC3     O 6599   2.256   1.586  16.707  0.4208  0.1895  0.0664
  439TMC3     H 6600   2.311   1.428  16.499  0.5723 -0.7754 -1.5490
  439TMC3    H1 6601   2.597   1.437  16.826  1.4085  1.9652 -1.4351
  439TMC3    H2 6602   2.661   1.190  16.478  2.0903  0.7678  1.4894
  439TMC3    C7 6603   2.745   1.254  16.734 -0.2519 -0.3515 -0.1806
  439TMC3    C8 6604   2.451   1.264  16.350 -0.4185 -0.7677 -0.4425
  439TMC3    O1 6605   2.802   1.327  16.816 -0.2191  0.3238  0.0575
  439TMC3    O2 6606   2.494   1.154  16.327 -0.3574 -0.1050  0.0997
  440MPD2     C 6607   1.285   2.005  15.023  0.0505  0.2648 -0.1981
  440MPD2    C1 6608   1.253   2.053  15.153 -0.5577  0.0482  0.1590
  440MPD2    C2 6609   1.335   2.007  15.257  0.1583 -0.0082 -0.0242
  440MPD2    C3 6610   1.458   1.940  15.231  0.6324  0.3284  0.1985
  440MPD2    C4 6611   1.487   1.900  15.096  0.0680  0.2341 -0.4606
  440MPD2    C5 6612   1.396   1.934  14.998 -0.3722  0.3336 -0.9836
  440MPD2     H 6613   1.307   2.006  15.361  1.0979 -1.1096  0.2105
  440MPD2    H1 6614   1.581   1.851  15.071 -0.4155 -0.0724 -1.6665
  440MPD2    H2 6615   1.221   2.019  14.937 -0.9577  0.8067  0.6422
  440MPD2    H3 6616   1.420   1.916  14.893 -0.9243 -4.3464 -0.3064
  440MPD2     N 6617   1.548   1.901  15.333 -0.2572  0.3447  0.3556
  440MPD2    H5 6618   1.626   1.842  15.306 -0.0228  0.9128 -0.2035
  440MPD2    N1 6619   1.141   2.127  15.183 -0.2332  0.2927 -0.1427
  440MPD2    H7 6620   1.127   2.154  15.280 -3.4462  0.8849 -0.7664
  441TMC3    C1 6621   1.645   1.888  15.544  0.1038 -0.0484 -0.3962
  441TMC3    C2 6622   1.700   1.972  15.633  0.4705 -0.0367  0.2432
  441TMC3    C3 6623   1.718   1.922  15.761  0.2947  0.0546 -0.2501
  441TMC3    C4 6624   1.615   1.760  15.577  0.0917 -0.2585 -0.0215
  441TMC3    C5 6625   1.644   1.712  15.703  0.5674 -0.1893 -0.2763
  441TMC3    C6 6626   1.698   1.794  15.797  0.4011 -0.5890  0.2659
  441TMC3     C 6627   1.543   1.947  15.464  0.0233  0.6107  0.9214
  441TMC3     O 6628   1.491   2.049  15.512 -0.5370 -0.0598 -0.1259
  441TMC3     H 6629   1.727   2.072  15.603  0.9092  0.1463  1.2331
  441TMC3    H1 6630   1.572   1.696  15.501 -1.3001  0.9400 -0.2274
  441TMC3    H2 6631   1.688   1.772  15.903 -0.1559  0.5882  0.4527
  441TMC3    C7 6632   1.538   1.620  15.747  0.1426  0.7660  0.2655
  441TMC3    C8 6633   1.642   1.996  15.864  0.3155  0.2538 -0.0930
  441TMC3    O1 6634   1.438   1.615  15.673 -0.1499 -0.5030 -0.0440
  441TMC3    O2 6635   1.662   1.968  15.978  0.0732 -0.5355 -0.2046
  442MPD2     C 6636   3.950   2.529  16.285 -0.5313  0.7408 -0.6014
  442MPD2    C1 6637   3.912   2.442  16.389  0.6038  0.2271  0.0181
  442MPD2    C2 6638   3.890   2.307  16.363  0.1674 -0.1230  0.2039
  442MPD2    C3 6639   3.911   2.260  16.238  0.1360  0.0843 -0.7519
  442MPD2    C4 6640   3.953   2.351  16.141 -0.0850  0.2083  0.3195
  442MPD2    C5 6641   3.962   2.485  16.159  0.9689  0.2577  0.6959
  442MPD2     H 6642   3.877   2.237  16.445  3.9315 -1.3231 -0.2403
  442MPD2    H1 6643   3.963   2.315  16.039 -3.1234 -1.5151  0.6418
  442MPD2    H2 6644   3.955   2.637  16.295 -0.0225  0.7604 -1.0973
  442MPD2    H3 6645   3.983   2.559  16.082  0.6554  0.6515  0.9966
  442MPD2     N 6646   3.889   2.129  16.184  1.0889  0.6630  0.1672
  442MPD2    H5 6647   3.922   2.121  16.088 -1.7023  2.1094 -0.8904
  442MPD2    N1 6648   3.893   2.473  16.526  0.7027  0.0679 -0.5762
  442MPD2    H7 6649   3.853   2.408  16.592 -0.9640 -0.9271 -2.5808
  443TMC3    C1 6650   3.823   2.627  16.699 -0.8706 -0.0836 -0.9516
  443TMC3    C2 6651   3.783   2.757  16.726  0.4362  0.0933  0.5776
  443TMC3    C3 6652   3.693   2.776  16.825 -0.1708  0.3987  0.4843
  443TMC3    C4 6653   3.774   2.522  16.768  0.7396 -0.9687 -0.0450
  443TMC3    C5 6654   3.690   2.545  16.871 -0.3023 -0.2663 -0.0571
  443TMC3    C6 6655   3.651   2.672  16.908  0.0779 -0.6966  0.6247
  443TMC3     C 6656   3.893   2.604  16.571  0.2233  0.1481 -0.0951
  443TMC3     O 6657   3.925   2.702  16.508 -0.1573 -0.7019 -0.3229
  443TMC3     H 6658   3.826   2.842  16.674 -0.5720  0.8952  1.0514
  443TMC3    H1 6659   3.810   2.421  16.754  2.5847 -0.3439  0.2189
  443TMC3    H2 6660   3.573   2.685  16.983 -0.8397 -0.3952 -0.3762
  443TMC3    C7 6661   3.649   2.434  16.952 -0.4354  0.0578  0.3347
  443TMC3    C8 6662   3.650   2.913  16.848  0.7925  0.1989 -0.2106
  443TMC3    O1 6663   3.642   2.329  16.894 -0.4712 -0.1489 -0.2497
  443TMC3    O2 6664   3.654   2.942  16.966  0.4166 -0.2574 -0.4304
  444MPD2     C 6665   4.173   2.209  16.744 -0.1926  0.3944  0.0447
  444MPD2    C1 6666   4.126   2.102  16.816  0.0821  0.0351  0.6664
  444MPD2    C2 6667   4.184   1.978  16.784  0.3638  0.0910 -0.4032
  444MPD2    C3 6668   4.284   1.960  16.686  0.4403 -0.5060 -0.0518
  444MPD2    C4 6669   4.332   2.078  16.627  0.5379 -0.5280  0.4045
  444MPD2    C5 6670   4.270   2.192  16.654  1.1055  0.3812  0.4074
  444MPD2     H 6671   4.146   1.894  16.842  0.9066  0.7864  0.9576
  444MPD2    H1 6672   4.408   2.075  16.550 -0.1417  1.9633 -0.3699
  444MPD2    H2 6673   4.138   2.310  16.761  0.4784  0.9725 -1.9101
  444MPD2    H3 6674   4.308   2.281  16.603  0.3294  1.1354  1.1436
  444MPD2     N 6675   4.321   1.826  16.647  0.0520 -0.1430 -0.0320
  444MPD2    H5 6676   4.269   1.748  16.684 -0.3567 -0.1350 -0.5992
  444MPD2    N1 6677   4.049   2.115  16.929  0.1380  0.5032  0.1801
  444MPD2    H7 6678   4.033   2.031  16.983  2.6624 -0.9119 -1.2726
  445TMC3    C1 6679   4.424   1.643  16.551 -0.1605  0.2334  0.7731
  445TMC3    C2 6680   4.307   1.600  16.502  0.3866 -0.0833  0.3213
  445TMC3    C3 6681   4.309   1.484  16.427  0.2372 -0.2663 -0.0524
  445TMC3    C4 6682   4.539   1.586  16.522 -0.1153  0.4284 -0.2876
  445TMC3    C5 6683   4.531   1.473  16.447 -0.0277  0.1116 -0.0836
  445TMC3    C6 6684   4.421   1.419  16.393 -0.2419 -0.2583 -0.1440
  445TMC3     C 6685   4.428   1.788  16.569 -0.7050 -0.2635 -0.5304
  445TMC3     O 6686   4.539   1.843  16.557  0.0512  0.3700 -0.3318
  445TMC3     H 6687   4.213   1.653  16.514  1.0397  1.3236 -0.6964
  445TMC3    H1 6688   4.634   1.625  16.559  1.2201 -1.5282 -1.6263
  445TMC3    H2 6689   4.424   1.339  16.320 -3.3865 -1.5974  1.2025
  445TMC3    C7 6690   4.648   1.388  16.449  0.0691 -0.0073 -0.4571
  445TMC3    C8 6691   4.182   1.435  16.362 -0.2313 -0.1192  0.2953
  445TMC3    O1 6692   0.013   1.441  16.461  0.4144 -0.5162 -0.8095
  445TMC3    O2 6693   4.085   1.509  16.352 -0.1443  0.0802 -0.7012
  446MPD2     C 6694   3.705   3.767  11.521 -0.5235 -0.5908 -0.8565
  446MPD2    C1 6695   3.707   3.716  11.390 -0.7699  0.4510  0.5551
  446MPD2    C2 6696   3.821   3.703  11.319 -0.0888 -0.8395 -0.2492
  446MPD2    C3 6697   3.942   3.745  11.365 -0.2244 -0.0995  0.0308
  446MPD2    C4 6698   3.934   3.811  11.490 -0.0278  0.8504  0.5768
  446MPD2    C5 6699   3.821   3.820  11.565 -0.8629 -0.1862 -0.0889
  446MPD2     H 6700   3.817   3.654  11.222 -2.6104 -2.2530  0.5811
  446MPD2    H1 6701   4.025   3.835  11.544 -0.6014  1.8424  1.1174
  446MPD2    H2 6702   3.617   3.781  11.583 -0.7609  2.6965 -1.9322
  446MPD2    H3 6703   3.823   3.869  11.661 -0.9416  1.4306 -0.9071
  446MPD2     N 6704   4.061   3.728  11.293 -0.5417 -0.2215 -0.6665
  446MPD2    H5 6705   4.054   3.684  11.202  0.4246 -2.5834  0.4219
  446MPD2    N1 6706   3.587   3.663  11.332  0.5445  0.6453  0.4703
  446MPD2    H7 6707   3.594   3.635  11.235 -1.6449 -0.7943  0.7254
  447TMC3    C1 6708   4.298   3.730  11.247 -0.2540 -0.2188  0.5332
  447TMC3    C2 6709   4.281   3.790  11.130  0.1637 -0.3674  0.3908
  447TMC3    C3 6710   4.391   3.846  11.064  0.2712  0.5452 -0.3230
  447TMC3    C4 6711   4.423   3.703  11.298 -0.0400 -0.0073 -0.1303
  447TMC3    C5 6712   4.528   3.760  11.230  0.3140  0.0120  0.0316
  447TMC3    C6 6713   4.514   3.835  11.118  0.1706  0.4677  0.3308
  447TMC3     C 6714   4.188   3.728  11.342 -0.6244 -0.8552 -0.5951
  447TMC3     O 6715   4.230   3.728  11.457 -0.0998  0.6605 -0.3256
  447TMC3     H 6716   4.185   3.833  11.102 -0.0232  0.0431  1.6967
  447TMC3    H1 6717   4.435   3.636  11.383  0.9158  1.9924  1.2974
  447TMC3    H2 6718   4.600   3.896  11.089 -1.1094  1.3264 -1.6304
  447TMC3    C7 6719   4.663   3.749  11.284 -0.1963 -0.1120  0.4750
  447TMC3    C8 6720   4.372   3.948  10.959  0.5920  0.1272  0.2389
  447TMC3    O1 6721   0.030   3.781  11.225 -0.7041  0.5713  0.0213
  447TMC3    O2 6722   4.258   3.989  10.935 -0.2450  0.5245 -0.2004
  448TMC3    C1 6723   2.492   2.910  17.080 -0.0118 -0.0115  0.6688
  448TMC3    C2 6724   2.372   2.843  17.069  0.8629  0.4223  0.6885
  448TMC3    C3 6725   2.353   2.734  17.149  0.5008  0.1207 -0.2630
  448TMC3    C4 6726   2.599   2.860  17.157 -0.1333 -0.8903  0.0082
  448TMC3    C5 6727   2.576   2.745  17.234 -0.4442  0.1479 -0.4697
  448TMC3    C6 6728   2.454   2.682  17.229  1.1920  0.3743  0.3093
  448TMC3     C 6729   2.485   3.049  17.046 -0.1928 -0.1617  0.7855
  448TMC3     O 6730   2.390   3.088  16.978  0.2884 -0.1693 -0.2786
  448TMC3     H 6731   2.292   2.895  17.018 -0.1420 -0.9842  0.8420
  448TMC3    H1 6732   2.695   2.909  17.171  0.4082 -2.2685  1.1300
  448TMC3    H2 6733   2.436   2.590  17.282 -0.0493 -0.6528 -1.8793
  448TMC3    C7 6734   2.696   2.680  17.290 -0.2009 -0.3882  0.0391
  448TMC3    C8 6735   2.239   2.657  17.127 -0.1279 -0.0016  0.0353
  448TMC3    O1 6736   2.805   2.734  17.275  0.1397  0.0053 -0.5815
  448TMC3    O2 6737   2.217   2.557  17.193 -0.2983 -0.5588 -0.6915
  449MPD2     C 6738   3.166   0.732  13.419 -0.2180 -1.1106 -0.3950
  449MPD2    C1 6739   3.062   0.818  13.422  0.0423  0.5272  0.5529
  449MPD2    C2 6740   2.951   0.790  13.496 -0.4227 -0.0247 -0.4060
  449MPD2    C3 6741   2.934   0.669  13.556  0.5429  0.1666 -0.2999
  449MPD2    C4 6742   3.039   0.573  13.550  0.6432 -0.2732 -0.4954
  449MPD2    C5 6743   3.154   0.614  13.491  0.1263  0.5118 -0.4000
  449MPD2     H 6744   2.868   0.859  13.496  0.3960  0.9514  0.2727
  449MPD2    H1 6745   3.050   0.490  13.620 -1.9849  0.0310  0.2697
  449MPD2    H2 6746   3.251   0.760  13.358 -1.9017  1.8441 -1.4010
  449MPD2    H3 6747   3.244   0.556  13.504 -0.5257 -0.3770  0.1341
  449MPD2     N 6748   2.818   0.644  13.633  0.3320 -0.4773 -0.7183
  449MPD2    H5 6749   2.751   0.719  13.626  0.3139 -0.4463 -0.2439
  449MPD2    N1 6750   3.062   0.949  13.368  0.3470  0.7985 -0.5791
  449MPD2    H7 6751   2.980   1.006  13.381 -0.6546 -0.4861 -1.2196
  450TMC3    C1 6752   3.140   1.155  13.307  0.0426  0.7949  0.5342
  450TMC3    C2 6753   3.233   1.245  13.352 -0.2512 -0.2803  0.1603
  450TMC3    C3 6754   3.182   1.355  13.421  0.6633  0.2679 -0.0523
  450TMC3    C4 6755   3.003   1.183  13.312  0.4656  0.5039  0.0977
  450TMC3    C5 6756   2.952   1.286  13.384 -0.2838 -0.3790 -0.1751
  450TMC3    C6 6757   3.044   1.375  13.441  0.0777 -0.6657 -0.5711
  450TMC3     C 6758   3.172   1.015  13.309 -0.0932 -0.0857 -0.3555
  450TMC3     O 6759   3.281   0.971  13.285 -0.2564 -0.3876 -0.1271
  450TMC3     H 6760   3.338   1.217  13.346  0.4714  2.2855  0.7852
  450TMC3    H1 6761   2.941   1.113  13.256 -1.7363  0.7018  2.3240
  450TMC3    H2 6762   3.014   1.459  13.502 -1.2347 -0.1574 -1.9096
  450TMC3    C7 6763   2.836   1.230  13.457 -0.2705 -0.1181 -0.7026
  450TMC3    C8 6764   3.274   1.461  13.453  0.1857  0.3299  0.2896
  450TMC3    O1 6765   2.812   1.106  13.437 -0.1095  0.0122 -0.2257
  450TMC3    O2 6766   3.220   1.563  13.499  0.4952  0.3098 -0.0749
  451MPD2     C 6767   0.763   0.323   1.095 -0.0121 -0.5237  0.1096
  451MPD2    C1 6768   0.643   0.361   1.038  0.6158 -0.1128  0.6253
  451MPD2    C2 6769   0.571   0.266   0.967  0.0478  0.6268 -0.5394
  451MPD2    C3 6770   0.627   0.139   0.940  0.1013  0.6368 -0.1307
  451MPD2    C4 6771   0.753   0.111   0.990 -0.6014  0.7785 -0.0912
  451MPD2    C5 6772   0.821   0.204   1.058  0.0473 -0.2820  0.5532
  451MPD2     H 6773   0.475   0.296   0.926 -1.8826 -0.1098  3.4153
  451MPD2    H1 6774   0.810   0.021   0.969  1.2809  2.0782 -0.5096
  451MPD2    H2 6775   0.828   0.398   1.138 -0.0556  1.2320 -2.8541
  451MPD2    H3 6776   0.928   0.199   1.072  0.1930  1.9795  0.2874
  451MPD2     N 6777   0.539   0.038   0.889  0.4127  0.0155 -0.2441
  451MPD2    H5 6778   0.595   4.697   0.857  2.2665  2.3261 -2.7286
  451MPD2    N1 6779   0.586   0.487   1.059 -0.2327  0.1010  0.4887
  451MPD2    H7 6780   0.620   0.548   1.133  1.1822  1.4147 -1.2633
  452TMC3    C1 6781   0.332   4.663   0.865 -0.1780  0.3121 -0.4775
  452TMC3    C2 6782   0.202   4.652   0.900  0.2408  0.3788 -0.4903
  452TMC3    C3 6783   0.126   4.554   0.840  0.3227 -0.0070 -1.1665
  452TMC3    C4 6784   0.392   4.583   0.774  0.1825 -0.2816  0.8163
  452TMC3    C5 6785   0.319   4.482   0.719  0.0808  0.3837  0.5257
  452TMC3    C6 6786   0.182   4.472   0.744 -0.8333 -0.0947 -0.7796
  452TMC3     C 6787   0.402   0.041   0.913  0.2045 -0.1563  0.4425
  452TMC3     O 6788   0.332   0.124   0.973 -0.4672  0.5866 -0.6355
  452TMC3     H 6789   0.165   4.715   0.980  1.2389 -0.3631  0.5628
  452TMC3    H1 6790   0.493   4.605   0.742 -0.4378  2.1634  0.5249
  452TMC3    H2 6791   0.119   4.404   0.688 -0.7444  0.7536 -1.9093
  452TMC3    C7 6792   0.378   4.417   0.607 -0.2403  0.3519 -0.8438
  452TMC3    C8 6793   0.007   4.523   0.921 -0.3887  0.0823  0.0389
  452TMC3    O1 6794   0.487   4.458   0.573  0.0297 -0.3996 -0.4092
  452TMC3    O2 6795   4.692   4.604   0.999  0.3722 -0.3306  0.6401
  453TMC3    C1 6796   1.279   2.283  12.236  1.1758  0.3507  0.2437
  453TMC3    C2 6797   1.179   2.207  12.279 -0.9508 -0.1035 -0.0586
  453TMC3    C3 6798   1.099   2.148  12.189 -0.1986  0.3386  0.0310
  453TMC3    C4 6799   1.305   2.293  12.096 -0.2558 -0.2959  0.1007
  453TMC3    C5 6800   1.219   2.238  12.005  0.5300 -0.4397  0.5431
  453TMC3    C6 6801   1.111   2.164  12.049  0.2511 -0.5700  0.0887
  453TMC3     C 6802   1.394   2.318  12.314  0.3466 -0.6122 -0.2167
  453TMC3     O 6803   1.499   2.332  12.252  0.0400 -0.0552 -0.1572
  453TMC3     H 6804   1.181   2.188  12.385  1.1806 -0.4854 -0.1767
  453TMC3    H1 6805   1.393   2.346  12.063 -1.3984  0.8469 -1.1271
  453TMC3    H2 6806   1.044   2.110  11.982  0.9946 -0.5133 -0.7098
  453TMC3    C7 6807   1.250   2.232  11.865 -0.0799  0.0082  0.0615
  453TMC3    C8 6808   1.012   2.043  12.234  0.3864 -0.0846 -0.3263
  453TMC3    O1 6809   1.159   2.217  11.785 -0.0091 -0.1114  0.2952
  453TMC3    O2 6810   0.968   2.039  12.347 -0.4814 -0.1930  0.2244
  454MPD2     C 6811   0.241   1.408  16.024  0.5959 -0.2423  0.2080
  454MPD2    C1 6812   0.182   1.475  15.916  0.3159  0.2692 -0.2934
  454MPD2    C2 6813   0.161   1.613  15.925 -0.3328  0.3187 -0.2100
  454MPD2    C3 6814   0.188   1.683  16.040 -0.1251 -0.1188 -0.3688
  454MPD2    C4 6815   0.239   1.613  16.144  0.1909  0.0117 -1.0415
  454MPD2    C5 6816   0.260   1.483  16.135 -0.0250 -0.5192  0.6487
  454MPD2     H 6817   0.120   1.663  15.839  0.9690  3.4274  0.9930
  454MPD2    H1 6818   0.263   1.662  16.238 -2.9729  3.0977 -1.8422
  454MPD2    H2 6819   0.248   1.300  16.029 -1.5853 -0.4726 -1.7354
  454MPD2    H3 6820   0.298   1.432  16.223  0.0560  0.0234  0.9259
  454MPD2     N 6821   0.160   1.825  16.058  0.1426 -0.2800 -0.0068
  454MPD2    H5 6822   0.170   1.863  16.151  1.2494 -1.4339  0.3378
  454MPD2    N1 6823   0.136   1.403  15.800  0.7118 -0.5083  0.3047
  454MPD2    H7 6824   0.085   1.461  15.734  1.9543 -0.6853 -0.8163
  455TMC3    C1 6825   4.730   1.968  16.004  0.0449 -0.2827 -0.4743
  455TMC3    C2 6826   0.000   2.065  16.097  0.2142  0.6386 -0.2909
  455TMC3    C3 6827   4.629   2.079  16.184 -0.1514 -0.5107 -0.3782
  455TMC3    C4 6828   4.612   1.893  15.981 -0.0296  0.4023 -0.2482
  455TMC3    C5 6829   4.513   1.905  16.072  0.0815  0.4034 -0.7096
  455TMC3    C6 6830   4.511   2.005  16.172  0.1513  0.0151  0.2760
  455TMC3     C 6831   0.111   1.902  15.956  0.7455 -0.2070  0.3198
  455TMC3     O 6832   0.107   1.888  15.834 -0.7492  0.3244  0.2073
  455TMC3     H 6833   0.090   2.125  16.105 -0.0003  1.0765 -1.1176
  455TMC3    H1 6834   4.622   1.809  15.913 -0.9856  0.0872  0.0130
  455TMC3    H2 6835   4.439   2.003  16.253 -1.4677 -0.1179 -1.1782
  455TMC3    C7 6836   4.455   1.780  16.112 -0.2683 -0.1233 -0.1568
  455TMC3    C8 6837   4.620   2.210  16.245 -0.0636  0.5109 -0.4014
  455TMC3    O1 6838   4.341   1.777  16.153 -0.5940  0.1588  0.4813
  455TMC3    O2 6839   4.721   2.269  16.279 -0.0249  0.3560  0.2707
  456MPD2     C 6840   2.225   2.040  16.084  0.8458 -0.3508  0.2000
  456MPD2    C1 6841   2.327   1.997  16.168 -0.1506  0.2218 -0.4042
  456MPD2    C2 6842   2.295   1.980  16.302 -0.2015 -0.5134 -0.1048
  456MPD2    C3 6843   2.167   1.999  16.344 -0.1447 -0.9001  0.0028
  456MPD2    C4 6844   2.072   2.042  16.259  0.1512 -0.0325 -0.0739
  456MPD2    C5 6845   2.098   2.059  16.125 -0.5488  0.4766  0.1133
  456MPD2     H 6846   2.370   1.945  16.372 -0.3081  1.4768  1.0265
  456MPD2    H1 6847   1.966   2.054  16.278  0.2256 -0.6700  0.7391
  456MPD2    H2 6848   2.244   2.056  15.978  0.9463  0.0067  0.2728
  456MPD2    H3 6849   2.014   2.083  16.060 -0.7627 -0.6819 -0.0355
  456MPD2     N 6850   2.132   1.976  16.480 -0.4650  0.5756 -0.1770
  456MPD2    H5 6851   2.199   1.929  16.541 -1.7498 -0.9878  0.0322
  456MPD2    N1 6852   2.454   1.972  16.110  0.5137  1.2206 -0.7193
  456MPD2    H7 6853   2.453   1.992  16.011 -0.6513 -1.1932 -1.1951
  457TMC3    C1 6854   2.018   1.985  16.678  0.8293 -0.0801 -0.7107
  457TMC3    C2 6855   1.973   2.091  16.757 -0.2320  0.0382 -0.6921
  457TMC3    C3 6856   2.007   2.095  16.885 -0.2313 -0.5797  0.2580
  457TMC3    C4 6857   2.110   1.897  16.722  0.2672  0.2420 -0.1270
  457TMC3    C5 6858   2.160   1.915  16.849  0.1907 -0.3710  0.3269
  457TMC3    C6 6859   2.105   2.014  16.932  0.0968 -0.8371 -0.4020
  457TMC3     C 6860   2.019   2.015  16.538 -0.6405 -0.3109 -0.0321
  457TMC3     O 6861   1.931   2.092  16.505  0.3046 -0.3985 -0.2567
  457TMC3     H 6862   1.914   2.165  16.704 -0.9952  1.6491  2.4489
  457TMC3    H1 6863   2.143   1.813  16.662 -2.2929 -0.0737 -1.1065
  457TMC3    H2 6864   2.134   2.016  17.036 -0.8767  0.1374 -0.1432
  457TMC3    C7 6865   2.302   1.936  16.832  0.8657 -0.0308  0.3343
  457TMC3    C8 6866   1.982   2.220  16.951  0.1854 -0.3573 -0.6950
  457TMC3    O1 6867   2.336   1.952  16.714 -0.6889  1.0481 -0.2912
  457TMC3    O2 6868   2.060   2.241  17.044 -0.5497 -0.3364  0.2502
  458MPD2     C 6869   4.481   1.393  12.717 -0.0040  0.0884 -0.5197
  458MPD2    C1 6870   4.539   1.297  12.795  0.7658  0.3847  0.5941
  458MPD2    C2 6871   4.458   1.210  12.868 -0.3383 -0.7264 -0.2895
  458MPD2    C3 6872   4.321   1.223  12.871 -1.1796  0.2075  0.1269
  458MPD2    C4 6873   4.268   1.319  12.787  0.3769  0.4189  0.0572
  458MPD2    C5 6874   4.347   1.402  12.706  0.0891 -0.3784 -0.0329
  458MPD2     H 6875   4.494   1.126  12.927  2.1015 -0.0936 -0.8878
  458MPD2    H1 6876   4.161   1.329  12.774  0.1162 -1.5546  0.7349
  458MPD2    H2 6877   4.535   1.460  12.651 -0.9548  2.6124  1.2602
  458MPD2    H3 6878   4.298   1.469  12.637  0.0773  0.0049  0.3487
  458MPD2     N 6879   4.235   1.136  12.940 -0.3939  0.0222 -0.6150
  458MPD2    H5 6880   4.278   1.048  12.965  0.2888  0.4895 -0.1554
  458MPD2    N1 6881   4.675   1.285  12.795  0.2336  0.3265  0.2439
  458MPD2    H7 6882   4.730   1.341  12.730 -2.7533  1.1097 -1.5778
  459TMC3    C1 6883   0.153   1.207  12.849  0.7027  0.1946 -0.0189
  459TMC3    C2 6884   0.205   1.328  12.829 -0.6396 -0.1456 -0.5084
  459TMC3    C3 6885   0.342   1.342  12.862  0.4231 -0.4718 -0.2558
  459TMC3    C4 6886   0.225   1.098  12.893  0.6217  0.6698  0.3777
  459TMC3    C5 6887   0.358   1.114  12.918 -0.1226  1.2497 -0.1396
  459TMC3    C6 6888   0.420   1.236  12.914 -0.5517 -0.3931  0.9448
  459TMC3     C 6889   0.014   1.201  12.870 -0.8602  0.0231 -0.3432
  459TMC3     O 6890   4.723   1.110  12.951  0.1209  0.3100 -0.2435
  459TMC3     H 6891   0.155   1.409  12.778 -1.0115 -0.9210 -1.3788
  459TMC3    H1 6892   0.189   0.997  12.909  1.6823 -0.1272 -2.3000
  459TMC3    H2 6893   0.522   1.251  12.946 -1.1842  1.6857  2.0065
  459TMC3    C7 6894   0.396   1.013  13.016 -0.2118 -0.5746 -0.3157
  459TMC3    C8 6895   0.386   1.482  12.877 -0.5012  0.2322 -0.5094
  459TMC3    O1 6896   0.387   0.898  12.980 -0.0977 -0.4995 -0.2372
  459TMC3    O2 6897   0.309   1.565  12.924 -0.3076  0.5804 -0.3937
  460MPD2     C 6898   4.658   4.080  10.788 -0.0722  0.7144 -0.3457
  460MPD2    C1 6899   4.526   4.065  10.809 -0.3474 -0.2504  0.2203
  460MPD2    C2 6900   4.438   4.150  10.741 -0.1438 -0.7061  0.3973
  460MPD2    C3 6901   4.477   4.257  10.661  0.5961 -0.3144  0.2877
  460MPD2    C4 6902   4.613   4.283  10.652  0.0800 -0.1135 -0.4281
  460MPD2    C5 6903   4.695   4.192  10.710 -0.4434  0.0250  0.4562
  460MPD2     H 6904   4.332   4.135  10.762  0.0197  0.7036  2.1641
  460MPD2    H1 6905   4.654   4.364  10.592  0.6282 -0.0006  0.1035
  460MPD2    H2 6906   4.733   4.014  10.831 -1.2195  0.8380  1.8178
  460MPD2    H3 6907   0.064   4.189  10.693 -0.7081 -1.2862 -0.9645
  460MPD2     N 6908   4.387   4.327  10.584 -0.0758 -0.2010  0.0394
  460MPD2    H5 6909   4.300   4.275  10.584 -0.2985  0.1725  0.1922
  460MPD2    N1 6910   4.490   3.966  10.899 -0.0045 -0.0056  0.0229
  460MPD2    H7 6911   4.562   3.896  10.915 -0.8604 -1.1022 -0.9164
  461TMC3    C1 6912   4.310   4.469  10.404  0.1358  0.2125  0.2721
  461TMC3    C2 6913   4.272   4.371  10.317 -0.0410  0.0022 -0.0523
  461TMC3    C3 6914   4.200   4.398  10.202  0.0542  0.3788 -0.6184
  461TMC3    C4 6915   4.271   4.597  10.382  0.0278  0.4253  0.3460
  461TMC3    C5 6916   4.185   4.615  10.273 -0.3711 -0.3427 -0.2926
  461TMC3    C6 6917   4.154   4.520  10.180 -0.4257  0.1231  0.6834
  461TMC3     C 6918   4.411   4.440  10.508 -0.2600  0.6969  0.3752
  461TMC3     O 6919   4.490   4.530  10.535 -0.4275  0.6205  0.6738
  461TMC3     H 6920   4.300   4.268  10.336  2.1700  1.3775  4.0518
  461TMC3    H1 6921   4.301   4.682  10.443 -2.3299  0.9057  0.8395
  461TMC3    H2 6922   4.113   4.551  10.085  2.7956  1.2476 -0.3598
  461TMC3    C7 6923   4.097   4.736  10.261 -0.6252  0.2706 -0.0740
  461TMC3    C8 6924   4.158   4.286  10.107 -0.4259  0.2373 -0.0763
  461TMC3    O1 6925   4.025   0.008  10.164 -0.1856 -0.7544 -0.1304
  461TMC3    O2 6926   4.082   4.313  10.011  0.0086  0.0251  0.2939
  462TMC3    C1 6927   4.448   0.282   0.725  0.4593 -0.7747  0.8724
  462TMC3    C2 6928   4.578   0.251   0.706 -0.0239  0.6719  0.8663
  462TMC3    C3 6929   4.615   0.120   0.689  0.4570 -0.4929  0.1909
  462TMC3    C4 6930   4.346   0.197   0.705 -0.6372  0.1825 -1.0089
  462TMC3    C5 6931   4.380   0.072   0.681  0.6652  0.2802 -0.1266
  462TMC3    C6 6932   4.511   0.033   0.663 -0.0041 -0.6370 -0.3968
  462TMC3     C 6933   4.408   0.421   0.746 -0.5458  0.2735 -0.0034
  462TMC3     O 6934   4.296   0.454   0.706 -0.1510  0.2825  0.5613
  462TMC3     H 6935   4.655   0.328   0.716  1.1809 -0.3031 -0.8637
  462TMC3    H1 6936   4.243   0.219   0.731 -0.1889  1.3770 -0.2641
  462TMC3    H2 6937   4.523   4.664   0.678 -0.0224 -0.7771 -1.3917
  462TMC3    C7 6938   4.283   4.718   0.638 -0.3531  0.7727 -0.6265
  462TMC3    C8 6939   0.010   0.090   0.644  0.7610  0.3846 -0.2478
  462TMC3    O1 6940   4.320   4.600   0.627 -0.5179  0.2095  0.5834
  462TMC3    O2 6941   0.107   0.154   0.688 -0.2862  0.4693 -0.1143
  463MPD2     C 6942   1.018   3.099   1.692 -0.0546  0.2933 -0.3576
  463MPD2    C1 6943   0.919   3.129   1.598  0.3496  0.5494 -0.2369
  463MPD2    C2 6944   0.960   3.171   1.478 -1.2187 -0.0474 -0.3538
  463MPD2    C3 6945   1.083   3.191   1.436  0.5261  0.1011  0.0345
  463MPD2    C4 6946   1.182   3.164   1.527 -0.3320 -0.2341 -0.4983
  463MPD2    C5 6947   1.151   3.115   1.652 -0.3597  1.0818  0.9831
  463MPD2     H 6948   0.879   3.194   1.409 -0.5455  3.3233 -0.0051
  463MPD2    H1 6949   1.286   3.185   1.507  0.1414 -0.0467  2.1145
  463MPD2    H2 6950   1.013   3.075   1.798  0.1278  1.6678 -0.0322
  463MPD2    H3 6951   1.238   3.107   1.716 -2.2578 -0.6318  3.3648
  463MPD2     N 6952   1.130   3.241   1.307  0.1905  0.2861  0.2394
  463MPD2    H5 6953   1.229   3.250   1.290 -0.1443  1.4616 -1.0324
  463MPD2    N1 6954   0.782   3.112   1.621 -0.5139 -0.4699 -0.0068
  463MPD2    H7 6955   0.717   3.157   1.556  0.6170 -1.1410 -1.6014
  464TMC3    C1 6956   0.586   3.012   1.690  0.3061 -0.2870 -0.1544
  464TMC3    C2 6957   0.515   3.127   1.684  0.3138 -0.0395  0.0466
  464TMC3    C3 6958   0.390   3.126   1.734  0.3117 -0.1373 -0.9190
  464TMC3    C4 6959   0.537   2.899   1.745 -0.2212 -0.2957 -0.0429
  464TMC3    C5 6960   0.406   2.904   1.790 -0.1173  0.1921  0.0612
  464TMC3    C6 6961   0.332   3.012   1.786  0.3102 -0.5396 -0.2567
  464TMC3     C 6962   0.728   3.018   1.703  0.4334 -0.8510  0.1060
  464TMC3     O 6963   0.792   2.954   1.786 -0.1086 -0.0124 -0.0339
  464TMC3     H 6964   0.567   3.218   1.654 -0.7645  0.8436  0.8634
  464TMC3    H1 6965   0.595   2.808   1.735 -0.6456 -0.6615  0.7964
  464TMC3    H2 6966   0.233   3.009   1.830  0.9626 -2.4389  1.0800
  464TMC3    C7 6967   0.361   2.778   1.844 -0.2620  0.5926  0.1419
  464TMC3    C8 6968   0.302   3.242   1.719 -0.3122 -0.0466 -0.1682
  464TMC3    O1 6969   0.449   2.691   1.860  0.2100  0.0293  0.1741
  464TMC3    O2 6970   0.183   3.206   1.724 -0.5558  0.5382  0.0128
  465MPD2     C 6971   1.679   1.714  16.930 -0.3200 -1.0040  0.0876
  465MPD2    C1 6972   1.552   1.672  16.944  0.0902 -0.1914  0.1060
  465MPD2    C2 6973   1.455   1.724  16.858  1.0820 -0.2093  0.7648
  465MPD2    C3 6974   1.485   1.831  16.771  0.8132  0.3054  0.4326
  465MPD2    C4 6975   1.613   1.877  16.763 -0.4152  0.1246  0.1513
  465MPD2    C5 6976   1.709   1.816  16.831  0.3863  0.0268  0.6871
  465MPD2     H 6977   1.354   1.687  16.850  1.9028 -2.2122 -0.3314
  465MPD2    H1 6978   1.651   1.961  16.705 -2.9193  0.0612 -1.5668
  465MPD2    H2 6979   1.766   1.666  16.972  0.3196  0.4962  0.4587
  465MPD2    H3 6980   1.812   1.851  16.824  0.1295 -0.0196 -2.9221
  465MPD2     N 6981   1.376   1.892  16.703 -0.3113 -0.2425  0.2012
  465MPD2    H5 6982   1.281   1.859  16.714 -1.0095  1.4554 -0.5863
  465MPD2    N1 6983   1.510   1.572  17.036 -0.4235  0.3675  0.1992
  465MPD2    H7 6984   1.409   1.558  17.036 -0.6595  2.1374 -1.1068
  466TMC3    C1 6985   1.085   1.930  16.428  0.3727  0.4482 -0.2183
  466TMC3    C2 6986   1.071   2.044  16.352 -0.3634 -0.0558 -0.2111
  466TMC3    C3 6987   1.171   2.139  16.365 -0.1265  0.3593  0.0206
  466TMC3    C4 6988   1.191   1.918  16.512  0.8212 -0.1181 -0.3241
  466TMC3    C5 6989   1.284   2.018  16.524 -0.0947 -0.3855 -0.3793
  466TMC3    C6 6990   1.284   2.122  16.436  0.8307  0.8035  0.7829
  466TMC3     C 6991   0.963   1.879  16.482 -0.3221 -0.5379  0.7619
  466TMC3     O 6992   0.881   1.965  16.504 -0.0503  0.0694  0.1293
  466TMC3     H 6993   0.984   2.063  16.290 -0.7825 -2.1038 -0.2278
  466TMC3    H1 6994   1.195   1.832  16.579  2.1423  0.7368  0.6987
  466TMC3    H2 6995   1.366   2.193  16.429  0.2200  1.5806  1.3979
  466TMC3    C7 6996   1.392   1.994  16.609 -0.0190 -0.1231 -0.5258
  466TMC3    C8 6997   1.138   2.272  16.306 -0.0565  0.0440 -0.2906
  466TMC3    O1 6998   1.498   2.046  16.579  0.2140  0.3850  0.2098
  466TMC3    O2 6999   1.046   2.282  16.226  0.6527  0.0981  0.3151
  467TMC3    C1 7000   2.477   0.330  13.454  0.4031 -0.0928 -0.3943
  467TMC3    C2 7001   2.447   0.461  13.440 -0.1320 -0.2439  0.4383
  467TMC3    C3 7002   2.323   0.503  13.491  0.7774  0.5652  0.7481
  467TMC3    C4 7003   2.391   0.246  13.516  0.3909  0.2785  0.3021
  467TMC3    C5 7004   2.272   0.287  13.563  0.8522  0.1863 -0.5935
  467TMC3    C6 7005   2.235   0.413  13.549  0.0278 -0.2030 -0.6870
  467TMC3     C 7006   2.614   0.305  13.484  0.1398 -0.1580  1.4751
  467TMC3     O 7007   2.632   0.236  13.584  0.0063 -0.0371 -0.5911
  467TMC3     H 7008   2.521   0.539  13.426 -0.1454 -0.1493  0.9251
  467TMC3    H1 7009   2.419   0.142  13.525  2.6174  0.8361 -0.1857
  467TMC3    H2 7010   2.133   0.442  13.567  0.3454 -0.2935  1.2350
  467TMC3    C7 7011   2.194   0.192  13.634 -0.0670 -0.4667  0.4023
  467TMC3    C8 7012   2.308   0.647  13.519 -0.3855 -0.0007  0.2136
  467TMC3    O1 7013   2.230   0.078  13.619  0.1387  0.4819 -0.2146
  467TMC3    O2 7014   2.401   0.724  13.485  0.2961 -0.6395 -0.2007
  468MPD2     C 7015   1.074   3.908  10.917  0.1558 -1.1029 -0.0227
  468MPD2    C1 7016   1.206   3.871  10.922  0.1721  0.0881  0.0638
  468MPD2    C2 7017   1.246   3.747  10.897  0.3138 -0.3503  0.2186
  468MPD2    C3 7018   1.153   3.649  10.873  0.5967  0.3116  0.0006
  468MPD2    C4 7019   1.020   3.684  10.847 -0.1209 -0.4750  0.0519
  468MPD2    C5 7020   0.978   3.813  10.876 -0.4786  0.3239 -0.0676
  468MPD2     H 7021   1.351   3.721  10.899  0.3928 -0.0959 -0.4272
  468MPD2    H1 7022   0.944   3.608  10.834 -0.4149 -0.4119  1.3720
  468MPD2    H2 7023   1.050   4.013  10.924  0.4627 -0.9941 -0.6212
  468MPD2    H3 7024   0.871   3.828  10.866 -0.3929 -0.2733 -1.8013
  468MPD2     N 7025   1.180   3.509  10.851  0.0961  0.0358  0.7449
  468MPD2    H5 7026   1.094   3.457  10.842 -1.3057  1.9672  3.0914
  468MPD2    N1 7027   1.308   3.963  10.946  0.2532 -0.7360 -1.1529
  468MPD2    H7 7028   1.402   3.926  10.938  0.2894 -0.7209 -0.7781
  469TMC3    C1 7029   1.415   4.169  11.007  0.3284 -0.1289  0.4227
  469TMC3    C2 7030   1.515   4.151  10.910  0.3276 -0.0027 -0.0062
  469TMC3    C3 7031   1.624   4.233  10.908 -0.3680  0.1108  0.3246
  469TMC3    C4 7032   1.425   4.271  11.099 -0.5584  0.2645  0.2370
  469TMC3    C5 7033   1.533   4.357  11.092  0.5900  0.0377 -0.3972
  469TMC3    C6 7034   1.627   4.344  10.987  0.4228 -0.1259  0.7806
  469TMC3     C 7035   1.294   4.090  11.003 -0.1851  0.6534 -1.1009
  469TMC3     O 7036   1.199   4.134  11.066  0.0960 -0.0213  0.0819
  469TMC3     H 7037   1.519   4.068  10.841  0.9600 -0.4444  0.5642
  469TMC3    H1 7038   1.360   4.271  11.185 -0.6115  1.8802  0.1897
  469TMC3    H2 7039   1.707   4.416  10.972  0.7181 -0.4212  0.9436
  469TMC3    C7 7040   1.593   4.406  11.222 -0.7747  0.2235 -0.3389
  469TMC3    C8 7041   1.756   4.175  10.904  0.2909 -0.3603  0.6012
  469TMC3    O1 7042   1.715   4.400  11.226 -0.4878  0.4523 -0.2146
  469TMC3    O2 7043   1.780   4.090  10.818 -0.2004 -0.8376  0.5368
  470TMC3    C1 7044   3.766   4.397   0.816  0.8003  0.4706  0.1758
  470TMC3    C2 7045   3.872   4.456   0.881  0.5070  0.7343 -0.7804
  470TMC3    C3 7046   3.838   4.510   1.004 -0.4719  0.1146 -0.7011
  470TMC3    C4 7047   3.634   4.399   0.849 -0.6511  0.4774 -0.8807
  470TMC3    C5 7048   3.610   4.463   0.964 -0.3749 -0.5993  0.3345
  470TMC3    C6 7049   3.710   4.515   1.040  0.1082  0.0922 -0.4376
  470TMC3     C 7050   3.809   4.327   0.697  0.0066  0.4642  0.4731
  470TMC3     O 7051   3.923   4.290   0.702  0.0261 -0.7456 -0.8260
  470TMC3     H 7052   3.973   4.451   0.842 -0.2199  0.5165 -2.6249
  470TMC3    H1 7053   3.556   4.348   0.794 -1.9151  1.8515 -0.3749
  470TMC3    H2 7054   3.693   4.561   1.137 -0.0975 -1.0355  0.0691
  470TMC3    C7 7055   3.473   4.474   1.001 -0.0660  0.3268  0.9526
  470TMC3    C8 7056   3.937   4.590   1.074 -0.4502  0.0702 -1.1575
  470TMC3    O1 7057   3.399   4.390   0.956  0.4859 -0.2190 -0.1843
  470TMC3    O2 7058   3.891   4.667   1.158  0.4600  0.6733 -0.1466
  471MPD2     C 7059   3.949   1.371  16.928 -0.0903 -0.3117  0.1731
  471MPD2    C1 7060   3.999   1.257  16.857  0.1697  0.6029  0.1450
  471MPD2    C2 7061   4.104   1.187  16.913 -0.4286  0.9268 -0.7739
  471MPD2    C3 7062   4.158   1.211  17.036  0.4221  0.4295 -0.0936
  471MPD2    C4 7063   4.097   1.314  17.108  0.2486  0.1389  0.1738
  471MPD2    C5 7064   3.997   1.392  17.052 -0.7279 -0.2663 -0.4443
  471MPD2     H 7065   4.149   1.107  16.855 -0.3897 -0.4888  1.2131
  471MPD2    H1 7066   4.117   1.331  17.214 -0.9148 -0.2346  0.4535
  471MPD2    H2 7067   3.871   1.435  16.888 -0.0046 -0.7652 -0.7261
  471MPD2    H3 7068   3.948   1.472  17.106 -1.1201 -1.5126  1.0425
  471MPD2     N 7069   4.244   1.128  17.102  0.2105 -0.1133 -0.5652
  471MPD2    H5 7070   4.261   1.145  17.200 -2.6839 -2.4151  0.3341
  471MPD2    N1 7071   3.948   1.211  16.735  0.5474  0.0836 -0.0919
  471MPD2    H7 7072   3.987   1.122  16.704  0.1956  0.1537 -0.7452
  472TMC3    C1 7073   3.809   1.167  16.548 -0.1211  0.4329 -0.0437
  472TMC3    C2 7074   3.683   1.184  16.502 -0.2738 -0.6266 -0.1760
  472TMC3    C3 7075   3.643   1.085  16.412 -0.6462  0.2212 -0.3631
  472TMC3    C4 7076   3.874   1.046  16.535 -0.0259 -0.1753  0.7857
  472TMC3    C5 7077   3.818   0.945  16.457  0.5166  0.4086  0.5267
  472TMC3    C6 7078   3.712   0.968  16.380  0.0271 -0.1541  0.3538
  472TMC3     C 7079   3.843   1.260  16.656 -0.4902  0.2680  0.4061
  472TMC3     O 7080   3.783   1.365  16.663  0.0989 -1.0393  0.5907
  472TMC3     H 7081   3.623   1.271  16.524  1.5514 -0.0741  2.6080
  472TMC3    H1 7082   3.979   1.037  16.560 -0.0508 -0.2241  0.8698
  472TMC3    H2 7083   3.681   0.894  16.307  0.6627  1.2723 -1.3758
  472TMC3    C7 7084   3.873   0.806  16.460 -0.0093 -0.0137  0.3182
  472TMC3    C8 7085   3.517   1.108  16.349  0.0656 -0.8013  0.6081
  472TMC3    O1 7086   3.947   0.780  16.557  0.0478  0.3327  0.7809
  472TMC3    O2 7087   3.473   1.216  16.323  0.3359 -0.1517  0.1143
  473MPD2     C 7088   3.523   2.697  13.643 -0.0086 -0.5277  0.0814
  473MPD2    C1 7089   3.507   2.818  13.575  0.4763  0.0702  0.3619
  473MPD2    C2 7090   3.535   2.931  13.643 -0.8217  0.2238 -0.5575
  473MPD2    C3 7091   3.573   2.934  13.770 -0.2804 -0.2048 -0.7195
  473MPD2    C4 7092   3.593   2.819  13.839 -0.3940 -0.0623  0.5536
  473MPD2    C5 7093   3.575   2.703  13.768 -0.6039 -0.0089  0.3033
  473MPD2     H 7094   3.506   3.019  13.586  0.7466  1.0642 -0.0417
  473MPD2    H1 7095   3.631   2.823  13.940  2.8264  1.0507 -0.6971
  473MPD2    H2 7096   3.492   2.603  13.599  0.6046 -0.7017  0.0250
  473MPD2    H3 7097   3.604   2.614  13.824  0.1884 -1.0509 -1.7944
  473MPD2     N 7098   3.597   3.052  13.843  0.7113 -0.3556  1.0387
  473MPD2    H5 7099   3.635   3.031  13.935 -0.2118  0.7322  1.6700
  473MPD2    N1 7100   3.453   2.830  13.448 -1.0229  0.8104  0.5157
  473MPD2    H7 7101   3.436   2.925  13.416 -0.8535 -0.4946 -3.4509
  474TMC3    C1 7102   3.627   3.271  13.897  0.2680 -0.5012 -0.3853
  474TMC3    C2 7103   3.599   3.406  13.883 -0.4106 -0.8681  0.1166
  474TMC3    C3 7104   3.628   3.497  13.985 -0.2680  0.9150 -0.4282
  474TMC3    C4 7105   3.687   3.221  14.015 -1.1785 -0.1549 -0.5548
  474TMC3    C5 7106   3.714   3.317  14.108  0.6791  1.0749 -0.2293
  474TMC3    C6 7107   3.695   3.454  14.097  0.0846 -0.2076  0.0254
  474TMC3     C 7108   3.577   3.179  13.807  0.0275  0.6873 -0.1807
  474TMC3     O 7109   3.518   3.223  13.706  0.5854  0.0376 -0.3907
  474TMC3     H 7110   3.549   3.444  13.794 -1.6768 -1.1647  0.7032
  474TMC3    H1 7111   3.741   3.128  14.026  1.1202  1.1063 -1.0903
  474TMC3    H2 7112   3.686   3.519  14.183  0.5127 -0.6657  0.4194
  474TMC3    C7 7113   3.740   3.255  14.238  0.1517 -0.2905 -0.0356
  474TMC3    C8 7114   3.595   3.635  13.959 -0.1621 -0.1233 -0.0303
  474TMC3    O1 7115   3.715   3.134  14.254  0.2333 -0.1664  0.0135
  474TMC3    O2 7116   3.520   3.651  13.863  0.4899  0.4418 -0.1759
  475MPD2     C 7117   1.686   1.292  11.039  0.7479  0.0790  0.5712
  475MPD2    C1 7118   1.751   1.406  10.993  0.1937 -0.3267 -0.1560
  475MPD2    C2 7119   1.706   1.466  10.879  0.1343  0.0572  0.5890
  475MPD2    C3 7120   1.593   1.429  10.814  0.0944 -0.2998  0.1958
  475MPD2    C4 7121   1.525   1.316  10.859  1.3466  0.4083  0.0457
  475MPD2    C5 7122   1.574   1.248  10.971  0.2744  0.0599 -0.1095
  475MPD2     H 7123   1.766   1.551  10.847  1.1615 -0.5730  0.8288
  475MPD2    H1 7124   1.438   1.272  10.812  0.2017  3.2827 -0.5194
  475MPD2    H2 7125   1.714   1.241  11.130  1.4768  1.2596  1.0177
  475MPD2    H3 7126   1.531   1.153  11.000  1.7507 -1.0035 -1.3893
  475MPD2     N 7127   1.549   1.513  10.709 -0.1467  0.3113 -0.1186
  475MPD2    H5 7128   1.616   1.578  10.669  0.5658 -0.7275 -0.6069
  475MPD2    N1 7129   1.860   1.458  11.062  0.1557  0.2293 -0.5328
  475MPD2    H7 7130   1.887   1.554  11.045 -0.2321  0.0964 -1.9096
  476TMC3    C1 7131   2.065   1.482  11.148 -0.2002 -0.1412 -0.6017
  476TMC3    C2 7132   2.112   1.495  11.021  0.2177 -0.5712  0.1544
  476TMC3    C3 7133   2.170   1.614  10.997 -0.3421 -0.3955  0.3470
  476TMC3    C4 7134   2.075   1.577  11.247 -0.1285 -0.4736  0.1656
  476TMC3    C5 7135   2.148   1.685  11.211 -0.2588  0.4876 -0.6727
  476TMC3    C6 7136   2.204   1.707  11.087 -0.3470  0.2020 -0.5156
  476TMC3     C 7137   1.945   1.400  11.152  0.5384  0.8521 -0.0071
  476TMC3     O 7138   1.950   1.283  11.196 -0.4011 -0.1219  1.0680
  476TMC3     H 7139   2.112   1.407  10.957  0.1288 -0.9446  0.6747
  476TMC3    H1 7140   2.037   1.549  11.345 -1.5349  0.0718 -0.2176
  476TMC3    H2 7141   2.247   1.800  11.051  4.0538 -1.6741 -0.0743
  476TMC3    C7 7142   2.176   1.777  11.317 -0.4414 -0.0713  0.3272
  476TMC3    C8 7143   2.134   1.675  10.868  0.2852 -0.3021 -0.6151
  476TMC3    O1 7144   2.159   1.720  11.424  0.5613  0.2350  0.4484
  476TMC3    O2 7145   2.174   1.789  10.846  0.0763 -0.1663  0.1055
  477MPD2     C 7146   4.664   3.134  12.210 -0.0912  1.0071  0.2008
  477MPD2    C1 7147   4.619   3.049  12.117  1.1092  0.0788 -0.0719
  477MPD2    C2 7148   4.660   2.920  12.111 -0.3684  0.3254  0.7236
  477MPD2    C3 7149   0.022   2.871  12.194 -0.0463  0.2694  0.0039
  477MPD2    C4 7150   0.074   2.955  12.288 -0.4360  0.6920 -0.2747
  477MPD2    C5 7151   0.016   3.082  12.301 -0.0663 -0.2647  0.8686
  477MPD2     H 7152   4.615   2.858  12.035  1.7201  1.0756 -1.1387
  477MPD2    H1 7153   0.146   2.914  12.359 -2.1507 -1.8913 -0.0505
  477MPD2    H2 7154   4.642   3.240  12.196  2.1320  1.3716 -0.4950
  477MPD2    H3 7155   0.044   3.141  12.388  0.5649 -1.4979  1.5114
  477MPD2     N 7156   0.068   2.740  12.183 -0.1480 -0.1298  0.3648
  477MPD2    H5 7157   0.030   2.682  12.110  0.7698 -1.2806  0.8099
  477MPD2    N1 7158   4.535   3.110  12.017  0.3025 -0.1470  0.0130
  477MPD2    H7 7159   4.482   3.194  12.036  2.0591  0.7728  0.8066
  478TMC3    C1 7160   4.457   3.163  11.788  0.2934 -0.0830 -0.0828
  478TMC3    C2 7161   4.423   3.290  11.828  0.0679 -0.2477 -0.7216
  478TMC3    C3 7162   4.378   3.375  11.734 -0.5210 -0.5829  0.0989
  478TMC3    C4 7163   4.452   3.120  11.662  0.1947  0.2156  0.1770
  478TMC3    C5 7164   4.411   3.209  11.573  0.3919 -0.7539  1.1484
  478TMC3    C6 7165   4.365   3.330  11.608 -0.3179  0.3409  0.6521
  478TMC3     C 7166   4.516   3.070  11.885  0.6162  0.2611  0.0976
  478TMC3     O 7167   4.568   2.970  11.836  0.2745 -0.3308  0.3159
  478TMC3     H 7168   4.459   3.325  11.925  0.0233  0.5460 -0.9937
  478TMC3    H1 7169   4.469   3.016  11.638  1.1533  0.6286 -0.9930
  478TMC3    H2 7170   4.347   3.404  11.531  1.8941  0.0259 -0.1500
  478TMC3    C7 7171   4.425   3.166  11.434  0.0251 -0.0587  1.0473
  478TMC3    C8 7172   4.338   3.513  11.760 -0.0542 -0.0310  0.5374
  478TMC3    O1 7173   4.502   3.074  11.420 -0.3206  0.0146  0.3644
  478TMC3    O2 7174   4.372   3.592  11.671 -0.1171  0.0179  0.3856
  479MPD2     C 7175   3.307   0.010  15.380  0.0697  1.0864  1.0708
  479MPD2    C1 7176   3.270   0.012  15.516 -0.5576 -0.1520  0.4681
  479MPD2    C2 7177   3.329   0.098  15.606 -1.1192 -0.4635  0.1062
  479MPD2    C3 7178   3.429   0.186  15.563  0.3948 -0.0755  1.0615
  479MPD2    C4 7179   3.459   0.180  15.430  0.4732 -0.6048 -0.3615
  479MPD2    C5 7180   3.401   0.101  15.338 -0.5620 -0.1760  0.3690
  479MPD2     H 7181   3.304   0.087  15.711  2.1173 -0.5424  0.8696
  479MPD2    H1 7182   3.523   0.258  15.389  0.9893 -0.1417  1.3556
  479MPD2    H2 7183   3.272   4.672  15.311  1.5589 -0.2337  1.7502
  479MPD2    H3 7184   3.431   0.112  15.234 -1.1027  0.5474  0.2909
  479MPD2     N 7185   3.499   0.284  15.642 -0.0791  0.0368  0.4811
  479MPD2    H5 7186   3.582   0.328  15.602 -1.3000  1.6061 -0.3103
  479MPD2    N1 7187   3.163   4.662  15.543  0.5016  0.7981  0.1257
  479MPD2    H7 7188   3.127   4.603  15.469 -2.1441  0.1757  1.8913
  480TMC3    C1 7189   3.192   0.213  15.982 -0.5002  0.1879 -0.0148
  480TMC3    C2 7190   3.093   0.233  15.892  0.3225  0.5554  0.0829
  480TMC3    C3 7191   3.128   0.290  15.770 -0.4328  0.6479  0.0610
  480TMC3    C4 7192   3.320   0.257  15.960  0.3574  0.9059 -1.5178
  480TMC3    C5 7193   3.348   0.307  15.832  0.2428 -0.0170  0.3541
  480TMC3    C6 7194   3.251   0.340  15.743 -0.1866 -0.2844 -0.1470
  480TMC3     C 7195   3.180   0.120  16.090 -0.0168  0.8329  0.5181
  480TMC3     O 7196   3.285   0.085  16.138 -0.0328 -0.0487 -0.0214
  480TMC3     H 7197   2.995   0.188  15.908  0.2878  1.0169  1.1181
  480TMC3    H1 7198   3.402   0.235  16.028 -1.3481  1.7643  0.8060
  480TMC3    H2 7199   3.282   0.398  15.656 -1.1145  0.0403 -0.2569
  480TMC3    C7 7200   3.480   0.319  15.778 -0.2703  0.2312  0.1664
  480TMC3    C8 7201   3.033   0.286  15.658  0.0757 -0.2197 -0.0526
  480TMC3    O1 7202   3.576   0.352  15.846  0.3504  0.3081 -1.0868
  480TMC3    O2 7203   2.917   0.259  15.684 -0.4906  0.4128  0.1064
  481MPD2     C 7204   0.573   4.554  13.990 -0.2933  1.1329  0.6647
  481MPD2    C1 7205   0.455   4.484  13.978  0.2019  0.1919 -1.0773
  481MPD2    C2 7206   0.438   4.381  14.066 -0.4093  0.6534 -0.0822
  481MPD2    C3 7207   0.521   4.374  14.180 -0.4224 -0.1534 -1.0627
  481MPD2    C4 7208   0.639   4.447  14.188 -0.0523 -0.1234  0.8721
  481MPD2    C5 7209   0.662   4.540  14.090 -0.1140  0.0380 -0.8114
  481MPD2     H 7210   0.356   4.309  14.060 -0.1973  0.4929 -1.1052
  481MPD2    H1 7211   0.703   4.448  14.275  2.4780 -0.0794 -0.9904
  481MPD2    H2 7212   0.599   4.645  13.936 -1.1138 -0.3903 -2.3178
  481MPD2    H3 7213   0.741   4.613  14.106  0.2230 -1.2428  3.3139
  481MPD2     N 7214   0.491   4.286  14.290 -0.2305 -0.3088  0.6999
  481MPD2    H5 7215   0.556   4.292  14.367 -2.3967  0.3215  2.4791
  481MPD2    N1 7216   0.381   4.505  13.861  0.2007  0.0741  0.4742
  481MPD2    H7 7217   0.420   4.582  13.809  0.5754 -1.0993 -0.9703
  482TMC3    C1 7218   0.219   4.481  13.675 -0.3883  0.4380 -0.5129
  482TMC3    C2 7219   0.152   4.402  13.593 -0.8267 -0.2815 -0.2459
  482TMC3    C3 7220   0.122   4.446  13.469 -0.7657  0.5082 -0.5763
  482TMC3    C4 7221   0.250   4.614  13.642 -0.3983  0.5848 -0.0348
  482TMC3    C5 7222   0.209   4.658  13.525  0.3277 -0.2256  0.0462
  482TMC3    C6 7223   0.149   4.580  13.428  0.2458  0.1033 -0.4276
  482TMC3     C 7224   0.285   4.425  13.795  0.8692  0.6436 -1.0163
  482TMC3     O 7225   0.254   4.308  13.823  0.4299  0.3918 -0.0065
  482TMC3     H 7226   0.133   4.300  13.622 -2.0954  0.0278 -0.0233
  482TMC3    H1 7227   0.304   4.681  13.707 -0.1541  0.0882  0.2685
  482TMC3    H2 7228   0.126   4.607  13.325  1.1673  0.3336 -0.5761
  482TMC3    C7 7229   0.225   0.055  13.492 -0.6331  0.4990  0.1602
  482TMC3    C8 7230   0.070   4.349  13.378  0.7535  0.4451 -0.3777
  482TMC3    O1 7231   0.225   0.127  13.593  0.2717  0.0606 -0.6278
  482TMC3    O2 7232   0.101   4.237  13.411 -0.4086  0.1823 -0.0305
  483TMC3    C1 7233   3.969   3.067   0.212  0.2601  0.2150  0.3037
  483TMC3    C2 7234   4.005   3.196   0.209  0.4853  0.3349  0.0244
  483TMC3    C3 7235   4.062   3.256   0.321  0.2855 -0.1481 -0.1136
  483TMC3    C4 7236   3.985   2.991   0.320 -1.0715  0.3371  0.4892
  483TMC3    C5 7237   4.049   3.048   0.427  0.2003  1.2681 -0.6589
  483TMC3    C6 7238   4.088   3.182   0.435  0.1381 -0.1069 -0.0444
  483TMC3     C 7239   3.889   3.009   0.101  0.3945  0.2665  0.3451
  483TMC3     O 7240   3.838   3.090   0.024 -0.0382 -0.6949  0.0593
  483TMC3     H 7241   3.999   3.257   0.119 -2.1728  0.6559  0.4041
  483TMC3    H1 7242   3.946   2.890   0.331 -1.3734  0.4005 -0.0018
  483TMC3    H2 7243   4.141   3.224   0.520  2.0309 -2.5488 -0.0116
  483TMC3    C7 7244   4.068   2.951   0.540 -0.3104  0.2705 -0.1163
  483TMC3    C8 7245   4.108   3.388   0.306  0.6964  0.3393  0.6209
  483TMC3    O1 7246   4.084   2.833   0.509  0.3656  0.0452  0.1592
  483TMC3    O2 7247   4.037   3.457   0.240 -0.0802 -0.0096 -0.3012
  484MPD2     C 7248   0.578   1.703  12.931  0.0167  0.3319 -0.2280
  484MPD2    C1 7249   0.601   1.602  12.847  0.1323 -0.0120 -0.2943
  484MPD2    C2 7250   0.725   1.583  12.780  0.6147 -0.1000 -0.2112
  484MPD2    C3 7251   0.819   1.687  12.797 -0.5720 -0.0652 -0.1577
  484MPD2    C4 7252   0.798   1.783  12.892 -0.4295  0.1504 -0.2511
  484MPD2    C5 7253   0.675   1.795  12.956 -0.3177  0.0566  0.5383
  484MPD2     H 7254   0.754   1.496  12.721  0.6982  0.2450 -0.6816
  484MPD2    H1 7255   0.875   1.858  12.906 -0.7629  0.5309 -0.4701
  484MPD2    H2 7256   0.485   1.707  12.987  1.3344 -1.0415  2.0453
  484MPD2    H3 7257   0.661   1.877  13.025  1.4995  0.3656  0.5520
  484MPD2     N 7258   0.941   1.688  12.736  0.3158 -0.2102  0.8139
  484MPD2    H5 7259   1.017   1.744  12.774  1.3253 -0.9736 -0.0996
  484MPD2    N1 7260   0.514   1.494  12.834 -0.5421 -0.8772 -0.4740
  484MPD2    H7 7261   0.541   1.419  12.771 -0.7173 -0.9274 -0.4917
  485TMC3    C1 7262   1.101   1.673  12.563 -1.1658  0.1792  0.1695
  485TMC3    C2 7263   1.204   1.700  12.646  0.6763  0.3657 -0.2607
  485TMC3    C3 7264   1.327   1.717  12.592 -0.1941  0.3659 -0.1639
  485TMC3    C4 7265   1.120   1.657  12.427 -0.4984  0.4601 -0.3056
  485TMC3    C5 7266   1.252   1.674  12.375  0.5921 -0.2584 -0.4586
  485TMC3    C6 7267   1.353   1.717  12.461 -0.8131  0.0656  0.0821
  485TMC3     C 7268   0.967   1.627  12.614 -0.3077 -0.3805 -0.2546
  485TMC3     O 7269   0.887   1.567  12.542 -0.2962 -0.5554  0.6077
  485TMC3     H 7270   1.205   1.679  12.752 -0.5943  0.4039 -0.2341
  485TMC3    H1 7271   1.038   1.616  12.369 -0.5715  0.3720 -0.1407
  485TMC3    H2 7272   1.453   1.718  12.419 -1.3865  0.6979 -1.2763
  485TMC3    C7 7273   1.295   1.583  12.268  0.4563 -0.1037 -0.0355
  485TMC3    C8 7274   1.415   1.612  12.641 -0.0261 -0.1964  0.1814
  485TMC3    O1 7275   1.269   1.462  12.284 -0.0159 -0.5109  0.8995
  485TMC3    O2 7276   1.360   1.509  12.679  0.2358  0.5933  0.4638
  486MPD2     C 7277   3.401   0.006  12.736 -0.2504  0.1517 -0.7239
  486MPD2    C1 7278   3.334   0.042  12.846 -0.1051  0.7182 -0.1283
  486MPD2    C2 7279   3.267   0.166  12.847  0.1834 -0.2818  0.2944
  486MPD2    C3 7280   3.272   0.244  12.731  0.7935 -0.4640  0.5524
  486MPD2    C4 7281   3.346   0.207  12.625 -0.6599 -0.2493  0.0255
  486MPD2    C5 7282   3.405   0.083  12.621  0.2044 -0.5355  0.2241
  486MPD2     H 7283   3.211   0.207  12.930  0.2597  1.0396 -0.3080
  486MPD2    H1 7284   3.367   0.267  12.537  1.6637  0.8583  1.3370
  486MPD2    H2 7285   3.460   4.652  12.739  1.4255  1.3103  1.4852
  486MPD2    H3 7286   3.465   0.060  12.534 -0.2150  1.3961 -0.5691
  486MPD2     N 7287   3.205   0.372  12.734  0.1060  0.0161  0.3959
  486MPD2    H5 7288   3.159   0.395  12.821  2.1964 -0.6296  1.6695
  486MPD2    N1 7289   3.332   4.699  12.958 -0.2080 -0.2042  0.6642
  486MPD2    H7 7290   3.395   4.619  12.956  1.7899  1.3927 -0.1990
  487TMC3    C1 7291   3.261   4.603  13.170 -0.0072 -0.1603 -0.2095
  487TMC3    C2 7292   3.277   4.479  13.118  0.5180 -0.2629 -0.5568
  487TMC3    C3 7293   3.237   4.375  13.194 -0.1720  0.6103 -0.4957
  487TMC3    C4 7294   3.209   4.627  13.289 -0.4356  0.1572 -0.7693
  487TMC3    C5 7295   3.188   4.519  13.369 -0.3676  0.0863  0.0707
  487TMC3    C6 7296   3.190   4.394  13.321 -0.5236 -0.7730 -0.2054
  487TMC3     C 7297   3.257   4.713  13.072 -0.2758  0.0477 -0.0770
  487TMC3     O 7298   3.190   0.074  13.109  0.3310 -0.7990 -0.7315
  487TMC3     H 7299   3.315   4.460  13.018  0.0676 -1.7128 -0.4565
  487TMC3    H1 7300   3.205   4.729  13.327  0.8281  0.0726 -0.4105
  487TMC3    H2 7301   3.201   4.320  13.399  0.5370 -0.2930  0.0900
  487TMC3    C7 7302   3.097   4.526  13.483 -0.4443 -0.6847  0.1397
  487TMC3    C8 7303   3.149   4.295  13.116  0.5329 -0.7740 -0.5969
  487TMC3    O1 7304   3.120   4.477  13.592 -0.3515 -0.2925  0.1139
  487TMC3    O2 7305   3.161   4.265  13.000 -0.5030 -0.6323  0.3081
  488MPD2     C 7306   3.247   1.918  16.418 -0.0714 -0.1508  0.0786
  488MPD2    C1 7307   3.343   1.985  16.493  0.2893  0.2410 -0.2269
  488MPD2    C2 7308   3.361   1.951  16.628 -0.0748 -0.2545 -0.0940
  488MPD2    C3 7309   3.293   1.845  16.676  0.3194 -0.7285 -0.4409
  488MPD2    C4 7310   3.203   1.774  16.600 -0.0689  0.3411  0.4653
  488MPD2    C5 7311   3.178   1.817  16.472 -0.0932  0.1571  0.6475
  488MPD2     H 7312   3.427   2.010  16.690  1.3984 -1.8252 -0.1415
  488MPD2    H1 7313   3.146   1.694  16.647  0.1117 -0.3746 -0.5232
  488MPD2    H2 7314   3.226   1.943  16.315  2.4228 -2.2959 -0.9510
  488MPD2    H3 7315   3.100   1.771  16.411  0.0072  0.3622  0.3663
  488MPD2     N 7316   3.322   1.809  16.808 -0.7291  0.4620  0.1042
  488MPD2    H5 7317   3.383   1.867  16.865 -0.3475  2.1103 -1.9700
  488MPD2    N1 7318   3.421   2.088  16.443  0.3355 -0.2069  0.2717
  488MPD2    H7 7319   3.479   2.139  16.510 -0.4674  1.1308 -0.0674
  489TMC3    C1 7320   3.284   1.731  17.021  0.3861  0.2955 -0.1753
  489TMC3    C2 7321   3.280   1.855  17.071  0.5193  0.8101  0.4363
  489TMC3    C3 7322   3.253   1.876  17.203 -0.7848 -0.2407 -0.6263
  489TMC3    C4 7323   3.258   1.626  17.098  0.1780  0.0200 -0.2533
  489TMC3    C5 7324   3.234   1.653  17.229  0.7120  0.8378 -0.0336
  489TMC3    C6 7325   3.240   1.772  17.292  0.1049  0.3757 -0.7796
  489TMC3     C 7326   3.272   1.703  16.877  0.1786  0.3407  0.2033
  489TMC3     O 7327   3.232   1.594  16.842 -0.6557  0.0084  0.3856
  489TMC3     H 7328   3.287   1.945  17.011 -0.9935  0.1157 -0.7516
  489TMC3    H1 7329   3.259   1.525  17.058  1.0286 -0.2243  0.3734
  489TMC3    H2 7330   3.212   1.786  17.396  0.8048 -0.9387 -0.4108
  489TMC3    C7 7331   3.160   1.553  17.300 -0.7989  0.9520 -0.0923
  489TMC3    C8 7332   3.292   1.999  17.270 -0.0736 -0.5807  0.8533
  489TMC3    O1 7333   3.160   1.562  17.422 -0.3554  0.0093  0.0775
  489TMC3    O2 7334   3.261   2.001  17.387  0.3782 -0.0656  0.5418
  490MPD2     C 7335   3.839   1.436  17.653  1.0767  0.2144  0.5387
  490MPD2    C1 7336   3.945   1.345  17.642 -0.5892 -0.4692  0.2916
  490MPD2    C2 7337   4.047   1.359  17.736 -0.2220  0.6672  0.2102
  490MPD2    C3 7338   4.057   1.471   0.068 -0.0702 -0.0396  0.0766
  490MPD2    C4 7339   3.947   1.552   0.088 -0.4743 -0.2930  0.4657
  490MPD2    C5 7340   3.835   1.534   0.004 -0.3187 -0.0721 -0.0233
  490MPD2     H 7341   4.128   1.287  17.730 -0.3186  0.6813 -1.3691
  490MPD2    H1 7342   3.938   1.632   0.160  0.9794 -0.9492  1.3786
  490MPD2    H2 7343   3.749   1.433  17.592 -0.8010  1.8594  3.2188
  490MPD2    H3 7344   3.747   1.595   0.019 -0.7531 -0.2183 -2.0206
  490MPD2     N 7345   4.165   1.495   0.159  0.2893  0.2687 -0.0383
  490MPD2    H5 7346   4.164   1.585   0.206 -1.8052  1.1471 -1.7472
  490MPD2    N1 7347   3.945   1.242  17.547 -0.3285  0.1088 -0.2035
  490MPD2    H7 7348   4.023   1.178  17.546  0.7463  1.3572  3.5559
  491TMC3    C1 7349   3.869   1.132  17.349  0.3810 -0.7805 -0.2146
  491TMC3    C2 7350   3.929   1.017  17.385  0.2949 -0.0359  0.4275
  491TMC3    C3 7351   3.925   0.915  17.288  0.3017  0.0610 -0.2980
  491TMC3    C4 7352   3.814   1.149  17.222 -0.5534 -0.8415 -0.0581
  491TMC3    C5 7353   3.810   1.047  17.125  0.1091  0.0787  0.1599
  491TMC3    C6 7354   3.869   0.933  17.163  0.2535 -0.4418  0.0278
  491TMC3     C 7355   3.865   1.251  17.436  0.5834  0.1999 -0.4836
  491TMC3     O 7356   3.807   1.346  17.396  0.4158 -0.5066  0.4094
  491TMC3     H 7357   3.979   0.989  17.477  2.3834  0.4952 -0.5484
  491TMC3    H1 7358   3.785   1.251  17.198  0.7805 -0.3226  0.5085
  491TMC3    H2 7359   3.848   0.845  17.103  0.6609 -0.2757 -0.3557
  491TMC3    C7 7360   3.750   1.051  16.992 -0.1442 -0.5291 -0.2092
  491TMC3    C8 7361   3.905   0.785  17.349 -0.3660 -0.0121  0.6903
  491TMC3    O1 7362   3.754   0.962  16.912 -0.0433  0.0708 -0.3037
  491TMC3    O2 7363   3.902   0.683  17.288  0.0822  0.8750  0.1542
  492MPD2     C 7364   4.559   2.014  11.071  0.3445  0.3288 -0.0354
  492MPD2    C1 7365   4.429   2.048  11.053  0.1364  0.0389 -0.2495
  492MPD2    C2 7366   4.333   1.998  11.141 -0.0605 -0.4121 -0.4445
  492MPD2    C3 7367   4.379   1.917  11.245  0.4800  0.3350 -0.1550
  492MPD2    C4 7368   4.508   1.880  11.260  0.1063  0.1479 -0.9931
  492MPD2    C5 7369   4.598   1.935  11.174 -0.1052  0.2388 -0.8088
  492MPD2     H 7370   4.230   2.029  11.136  0.3219  0.6208 -2.1129
  492MPD2    H1 7371   4.537   1.796  11.322 -0.2515  0.1224 -0.8594
  492MPD2    H2 7372   4.637   2.055  11.008  2.0640 -1.8356  0.7198
  492MPD2    H3 7373   4.699   1.898  11.184 -0.9533 -2.6989 -3.0901
  492MPD2     N 7374   4.285   1.873  11.344 -0.1841  0.1252  0.9133
  492MPD2    H5 7375   4.331   1.841  11.429  1.5706 -3.1940 -1.2813
  492MPD2    N1 7376   4.402   2.137  10.946 -0.6448  0.2661  0.3667
  492MPD2    H7 7377   4.470   2.150  10.872  0.1746 -0.7902  0.9324
  493TMC3    C1 7378   4.297   2.273  10.783 -0.0150 -0.4560 -0.3986
  493TMC3    C2 7379   4.424   2.315  10.751 -0.2720 -0.0678 -0.2866
  493TMC3    C3 7380   4.427   2.405  10.649  1.2329 -0.4476  0.7131
  493TMC3    C4 7381   4.185   2.303  10.710 -0.1396  0.2875 -0.1189
  493TMC3    C5 7382   4.206   2.367  10.592 -0.2668 -0.2988 -0.1793
  493TMC3    C6 7383   4.323   2.420  10.559 -0.0632 -0.4483  0.5912
  493TMC3     C 7384   4.282   2.193  10.909 -0.3588  0.1167  0.5406
  493TMC3     O 7385   4.174   2.193  10.970 -0.6211  0.7089  0.1181
  493TMC3     H 7386   4.505   2.310  10.821 -0.8567 -1.0766  0.3136
  493TMC3    H1 7387   4.093   2.252  10.738  0.0265 -0.3232 -0.7156
  493TMC3    H2 7388   4.331   2.472  10.465  0.7418 -0.2420  0.7736
  493TMC3    C7 7389   4.090   2.376  10.508 -0.5762 -0.6156  0.5948
  493TMC3    C8 7390   4.557   2.468  10.628 -0.3298  0.1674  0.5860
  493TMC3    O1 7391   3.988   2.324  10.557 -0.0325  0.4523 -0.2086
  493TMC3    O2 7392   4.653   2.431  10.696  0.3602  0.5508  0.8506
  494TMC3    C1 7393   4.666   3.100   0.777  0.1713  0.0317 -0.0794
  494TMC3    C2 7394   4.659   2.960   0.757 -0.0100 -0.2371 -0.1949
  494TMC3    C3 7395   4.693   2.911   0.632 -0.4456  0.1374 -0.0319
  494TMC3    C4 7396   4.705   3.188   0.676 -0.5002  0.7843  0.0016
  494TMC3    C5 7397   0.001   3.134   0.552 -0.9065  0.1079 -0.2456
  494TMC3    C6 7398   4.728   2.995   0.531  0.1777 -0.5860  0.5104
  494TMC3     C 7399   4.621   3.149   0.907  0.0079  0.5232  0.5455
  494TMC3     O 7400   4.589   3.266   0.923  0.4799  0.3946  0.1739
  494TMC3     H 7401   4.619   2.886   0.825  0.5252 -0.7629 -0.4512
  494TMC3    H1 7402   4.727   3.289   0.707  0.1631 -0.0586  2.2736
  494TMC3    H2 7403   4.735   2.956   0.430  2.0352  0.7560  0.1086
  494TMC3    C7 7404   0.019   3.221   0.442 -0.7293  0.7536 -0.0805
  494TMC3    C8 7405   4.730   2.770   0.610 -0.1339 -0.6026 -0.0625
  494TMC3    O1 7406   0.034   3.173   0.331 -0.3444 -0.6042 -0.4221
  494TMC3    O2 7407   4.688   2.696   0.699  0.7875 -0.1006  0.0847
  495TMC3    C1 7408   3.457   0.199  14.852 -0.3113 -0.3972 -0.4585
  495TMC3    C2 7409   3.405   0.257  14.735  0.5118  0.3676  0.1954
  495TMC3    C3 7410   3.347   0.385  14.741  0.1817  0.4214  0.6472
  495TMC3    C4 7411   3.471   0.274  14.963  0.2105  0.1107  0.1426
  495TMC3    C5 7412   3.395   0.387  14.975  0.2944  0.4417  0.2751
  495TMC3    C6 7413   3.342   0.445  14.865  0.0237 -0.1419 -0.0530
  495TMC3     C 7414   3.437   0.059  14.878 -0.2354 -0.8641 -0.4684
  495TMC3     O 7415   3.413   0.022  14.990  0.1553 -0.6145 -0.0056
  495TMC3     H 7416   3.407   0.203  14.641 -2.0109  0.1258  0.2799
  495TMC3    H1 7417   3.505   0.232  15.056  0.5961  0.2208  0.0508
  495TMC3    H2 7418   3.286   0.537  14.876 -3.8554 -2.1501 -3.4767
  495TMC3    C7 7419   3.338   0.408  15.112  0.4390 -0.4294  0.2278
  495TMC3    C8 7420   3.314   0.479  14.637  0.5039 -0.4901  0.0768
  495TMC3    O1 7421   3.417   0.397  15.205  0.2097 -0.4378 -0.3305
  495TMC3    O2 7422   3.354   0.595  14.648 -0.0362 -0.3376 -0.1794
  496MPD2     C 7423   0.687   0.753  15.394 -0.2704  0.4593  0.3672
  496MPD2    C1 7424   0.646   0.625  15.366  0.1013 -0.5620 -0.9364
  496MPD2    C2 7425   0.528   0.577  15.425  0.2924 -0.6752  0.4669
  496MPD2    C3 7426   0.469   0.643  15.522 -0.4944 -0.6374 -0.2267
  496MPD2    C4 7427   0.516   0.764  15.560 -0.0724 -0.5727  0.6748
  496MPD2    C5 7428   0.621   0.822  15.490 -0.2088  0.5140  0.2267
  496MPD2     H 7429   0.481   0.492  15.378  0.1704 -1.2921  1.7182
  496MPD2    H1 7430   0.482   0.811  15.652 -0.8060 -0.6512  0.4391
  496MPD2    H2 7431   0.781   0.795  15.361  0.1112 -1.0769 -0.5079
  496MPD2    H3 7432   0.661   0.916  15.525  2.4653 -0.7665  0.6460
  496MPD2     N 7433   0.349   0.597  15.581  0.5079  0.1664  0.1989
  496MPD2    H5 7434   0.306   0.653  15.654 -3.3847  0.8496 -2.5762
  496MPD2    N1 7435   0.730   0.560  15.280 -0.0611 -0.3477  0.2529
  496MPD2    H7 7436   0.817   0.606  15.257 -0.0170  0.2257  1.5848
  497TMC3    C1 7437   0.198   0.426  15.647 -0.2698 -0.0112  0.1826
  497TMC3    C2 7438   0.136   0.311  15.606  0.2636  0.1559  0.9884
  497TMC3    C3 7439   0.123   0.214  15.701  0.4913 -0.2523  0.6950
  497TMC3    C4 7440   0.231   0.448  15.777 -0.4783 -0.1374  0.0119
  497TMC3    C5 7441   0.215   0.348  15.868  0.2272 -0.3735 -0.0649
  497TMC3    C6 7442   0.168   0.227  15.826 -0.2873 -0.2825 -0.6277
  497TMC3     C 7443   0.279   0.484  15.544  0.3220 -0.7966  0.1411
  497TMC3     O 7444   0.270   0.430  15.438 -0.5779 -0.1286 -0.2856
  497TMC3     H 7445   0.096   0.303  15.505  0.9632  2.7183  0.5192
  497TMC3    H1 7446   0.299   0.528  15.806 -1.2302  0.5275 -0.0437
  497TMC3    H2 7447   0.144   0.142  15.889  0.3314 -0.1310 -0.1894
  497TMC3    C7 7448   0.271   0.350  16.003 -0.1374 -0.0831  0.9685
  497TMC3    C8 7449   0.148   0.080  15.649  0.4514 -0.0971 -0.2451
  497TMC3    O1 7450   0.290   0.239  16.046  0.4880  0.0298 -0.7225
  497TMC3    O2 7451   0.171   4.734  15.731  0.1076 -0.0712  0.0843
  498MPD2     C 7452   1.340   1.990   9.906  0.8665 -0.1522  0.0643
  498MPD2    C1 7453   1.395   1.883   9.974 -0.2298 -0.2780 -0.4704
  498MPD2    C2 7454   1.314   1.769   9.986 -0.0143 -0.6987  0.2634
  498MPD2    C3 7455   1.189   1.761   9.923 -0.4911 -0.3562 -0.0595
  498MPD2    C4 7456   1.141   1.858   9.846 -0.5002 -0.3237 -0.4927
  498MPD2    C5 7457   1.210   1.975   9.846 -0.3272  0.1069 -0.5217
  498MPD2     H 7458   1.346   1.689  10.052 -0.9285 -0.7486  0.6427
  498MPD2    H1 7459   1.055   1.835   9.783 -0.9235  1.2940 -0.4854
  498MPD2    H2 7460   1.379   2.090   9.889 -1.0087  0.4625 -0.6546
  498MPD2    H3 7461   1.169   2.054   9.785 -0.7082  0.5316  0.2856
  498MPD2     N 7462   1.113   1.640   9.945 -0.0053  0.3375 -0.4441
  498MPD2    H5 7463   1.161   1.558   9.980  2.0539  1.9424  0.4052
  498MPD2    N1 7464   1.518   1.885  10.049 -0.1046 -0.1925  0.2376
  498MPD2    H7 7465   1.543   1.803  10.104 -0.6273  1.1421  2.4935
  499TMC3    C1 7466   1.740   1.961  10.074  1.1588  0.1806  0.2719
  499TMC3    C2 7467   1.791   1.831  10.086  0.0639  0.9953 -0.3507
  499TMC3    C3 7468   1.925   1.814  10.108 -0.8377  0.5475 -0.4585
  499TMC3    C4 7469   1.826   2.067  10.080  0.4246  0.6801 -0.1442
  499TMC3    C5 7470   1.960   2.046  10.110  0.5902 -0.6645  0.5918
  499TMC3    C6 7471   2.013   1.919  10.124 -0.4666  0.1673 -0.1745
  499TMC3     C 7472   1.606   1.987  10.029 -0.3064  0.1019 -0.1260
  499TMC3     O 7473   1.591   2.098   9.987 -0.1728 -0.2254  0.1805
  499TMC3     H 7474   1.723   1.749  10.066 -0.5232  1.3416  0.2166
  499TMC3    H1 7475   1.789   2.169  10.066  1.7504  1.4895  2.2658
  499TMC3    H2 7476   2.118   1.904  10.147 -0.4919 -0.3888 -0.4203
  499TMC3    C7 7477   2.041   2.154  10.154  0.3199  0.8759  0.2982
  499TMC3    C8 7478   1.968   1.675  10.138 -0.0369 -0.2371  0.2326
  499TMC3    O1 7479   2.115   2.142  10.254  0.3103 -0.5888  0.2748
  499TMC3    O2 7480   1.894   1.589  10.090 -0.0935  0.1971  0.5595
  500MPD2     C 7481   3.427   3.062  11.061  0.1139  0.5271 -0.0055
  500MPD2    C1 7482   3.475   3.104  10.942  0.3291  0.3999 -0.4745
  500MPD2    C2 7483   3.390   3.112  10.832  0.2537  0.4272 -0.1666
  500MPD2    C3 7484   3.266   3.062  10.842 -0.1114 -0.0670 -0.4377
  500MPD2    C4 7485   3.217   3.021  10.965 -0.0790 -0.5753  0.2935
  500MPD2    C5 7486   3.302   3.015  11.065  0.0852  0.2844  0.5133
  500MPD2     H 7487   3.429   3.128  10.732 -0.4840 -0.0428 -0.5303
  500MPD2    H1 7488   3.112   3.000  10.975 -0.7064  2.7759  0.8595
  500MPD2    H2 7489   3.495   3.058  11.145  1.2268  2.5882 -0.8248
  500MPD2    H3 7490   3.260   2.963  11.151  0.4421 -0.2320  0.3746
  500MPD2     N 7491   3.184   3.056  10.732 -0.0837  0.6250 -0.9482
  500MPD2    H5 7492   3.093   3.017  10.754  0.7405 -0.5892  0.3262
  500MPD2    N1 7493   3.609   3.141  10.924 -0.0391 -0.2934 -0.8819
  500MPD2    H7 7494   3.634   3.182  10.835  0.9951 -1.3429 -1.0725
  501TMC3    C1 7495   3.846   3.108  10.923 -0.0962  0.0062 -0.4729
  501TMC3    C2 7496   3.861   3.197  10.819 -0.1553  0.3713  0.5157
  501TMC3    C3 7497   3.975   3.191  10.744 -0.2341  0.1086 -0.7157
  501TMC3    C4 7498   3.938   3.009  10.941  0.0229  0.6236  0.0957
  501TMC3    C5 7499   4.052   3.013  10.874 -0.3843  0.6099  0.9436
  501TMC3    C6 7500   4.075   3.109  10.776 -0.0429  0.4497  0.3308
  501TMC3     C 7501   3.717   3.080  10.985  0.4192  0.4139 -0.9645
  501TMC3     O 7502   3.712   2.994  11.071 -0.0323 -0.0240  0.0807
  501TMC3     H 7503   3.783   3.268  10.795 -0.2022  0.3909  0.7234
  501TMC3    H1 7504   3.929   2.953  11.034 -0.2483  1.0926  0.3498
  501TMC3    H2 7505   4.163   3.114  10.713 -0.6101 -2.0745 -0.6771
  501TMC3    C7 7506   4.156   2.923  10.903 -0.0036 -0.2132 -0.2731
  501TMC3    C8 7507   4.012   3.313  10.675 -0.3307  0.3084 -0.3571
  501TMC3    O1 7508   4.138   2.873  11.012  0.6072  0.1411 -0.4242
  501TMC3    O2 7509   4.126   3.358  10.686  0.4105 -0.3210 -0.2770
  502TMC3    C1 7510   2.987   1.459  14.947 -0.2290 -0.1183 -0.5904
  502TMC3    C2 7511   2.977   1.578  15.016  0.8579  0.1727  0.3392
  502TMC3    C3 7512   2.855   1.626  15.055 -0.1042 -0.5062 -0.4565
  502TMC3    C4 7513   2.873   1.388  14.923 -0.3475 -0.0348 -0.2350
  502TMC3    C5 7514   2.746   1.428  14.961 -0.4533 -0.3388 -0.1335
  502TMC3    C6 7515   2.743   1.550  15.031 -0.2292  0.1218  0.3093
  502TMC3     C 7516   3.080   1.377  15.013  0.1424  0.5159  0.4502
  502TMC3     O 7517   3.191   1.421  15.025  0.1099  0.6082 -0.2037
  502TMC3     H 7518   3.067   1.628  15.053  0.0942  0.9814  1.1064
  502TMC3    H1 7519   2.877   1.289  14.880 -1.2745 -0.9412  1.7843
  502TMC3    H2 7520   2.647   1.598  15.046  0.1834  0.6644  1.2053
  502TMC3    C7 7521   2.668   1.319  15.020  0.1320 -0.8025 -0.2562
  502TMC3    C8 7522   2.856   1.753  15.119  0.1972 -0.1400  0.8704
  502TMC3    O1 7523   2.735   1.218  15.035  0.1198  0.0469 -0.0174
  502TMC3    O2 7524   2.954   1.821  15.088 -0.1538 -0.3521  0.3130
  503MPD2     C 7525   0.260   1.914  16.881 -0.0837  0.3825  0.3945
  503MPD2    C1 7526   0.317   1.952  17.004  0.1275  0.2474  0.0025
  503MPD2    C2 7527   0.347   1.854  17.091  1.1734  0.0804  0.3608
  503MPD2    C3 7528   0.332   1.722  17.058 -0.1118  0.5619 -0.2877
  503MPD2    C4 7529   0.272   1.684  16.935  0.6689 -0.1135  0.4368
  503MPD2    C5 7530   0.238   1.786  16.842 -0.8987  0.7969  0.1650
  503MPD2     H 7531   0.384   1.882  17.189  1.1998 -0.3354  0.4672
  503MPD2    H1 7532   0.251   1.582  16.906  0.4521  0.2342 -0.6495
  503MPD2    H2 7533   0.228   1.988  16.808  1.0896  0.5195  0.0229
  503MPD2    H3 7534   0.197   1.752  16.747  2.0896 -0.0782 -0.8117
  503MPD2     N 7535   0.383   1.629  17.153 -0.1010  0.3134  0.6409
  503MPD2    H5 7536   0.408   1.660  17.246 -1.3787  3.2850 -0.0198
  503MPD2    N1 7537   0.355   2.087  17.048  0.5858 -0.0323 -0.1472
  503MPD2    H7 7538   0.393   2.086  17.142  0.9948  3.8466 -0.2925
  504TMC3    C1 7539   0.497   1.451  17.224  0.0655 -0.7122  0.0531
  504TMC3    C2 7540   0.446   1.366  17.317 -0.1737  0.3415  0.3020
  504TMC3    C3 7541   0.517   1.247  17.339 -0.6138  0.8529  0.6183
  504TMC3    C4 7542   0.617   1.428  17.163  0.1448 -0.1076  0.2236
  504TMC3    C5 7543   0.687   1.312  17.192 -0.8453 -0.4467 -0.3894
  504TMC3    C6 7544   0.641   1.218  17.281  0.3681  0.4776 -0.4063
  504TMC3     C 7545   0.414   1.500  17.120 -0.6663  0.2159 -0.3063
  504TMC3     O 7546   0.426   1.458  17.008 -0.0283 -0.6269  0.2516
  504TMC3     H 7547   0.347   1.390  17.354 -1.5555  0.2624 -3.3619
  504TMC3    H1 7548   0.652   1.490  17.082  2.3859  0.5290  1.6650
  504TMC3    H2 7549   0.689   1.122  17.292  0.5555  0.4782 -1.2724
  504TMC3    C7 7550   0.816   1.293  17.136  0.0688 -0.4188  0.5490
  504TMC3    C8 7551   0.458   1.150  17.429  0.4480 -0.2580  0.1459
  504TMC3    O1 7552   0.843   1.385  17.058  0.7396 -0.2877  0.2968
  504TMC3    O2 7553   0.336   1.150  17.433 -0.0317  0.3309 -0.4855
  505MPD2     C 7554   0.487   0.881  10.787 -0.3590 -0.2754 -0.1394
  505MPD2    C1 7555   0.502   0.761  10.728  0.5847  0.4263  0.0708
  505MPD2    C2 7556   0.625   0.687  10.742  0.2174 -0.1484  0.5349
  505MPD2    C3 7557   0.733   0.741  10.813 -0.5077  1.1964 -0.7929
  505MPD2    C4 7558   0.712   0.861  10.880  0.0570  0.4451  0.6332
  505MPD2    C5 7559   0.589   0.920  10.867  0.2191  0.6800  0.5279
  505MPD2     H 7560   0.635   0.588  10.697  2.0182 -0.2764  1.2547
  505MPD2    H1 7561   0.785   0.901  10.949  0.7339  2.3515 -1.1976
  505MPD2    H2 7562   0.398   0.943  10.788  0.4635  0.8623  1.2361
  505MPD2    H3 7563   0.567   1.009  10.925  0.3175 -0.0389  1.6718
  505MPD2     N 7564   0.859   0.674  10.811  0.0609 -0.2004 -0.0844
  505MPD2    H5 7565   0.863   0.581  10.772  1.0366  0.7819 -2.3362
  505MPD2    N1 7566   0.399   0.717  10.647 -0.5264 -1.1337 -0.1461
  505MPD2    H7 7567   0.316   0.774  10.637  0.0530 -0.6004 -1.8319
  506TMC3    C1 7568   0.286   0.567  10.495  0.3383  0.5031 -0.7851
  506TMC3    C2 7569   0.248   0.676  10.412 -1.0197 -0.1088 -0.4143
  506TMC3    C3 7570   0.222   0.652  10.280 -0.0077  1.1742 -0.5150
  506TMC3    C4 7571   0.306   0.448  10.433 -0.1779 -0.7055 -0.7312
  506TMC3    C5 7572   0.278   0.429  10.301  0.9590 -0.0117  0.0912
  506TMC3    C6 7573   0.222   0.528  10.219 -0.1675 -0.4354 -0.6701
  506TMC3     C 7574   0.398   0.591  10.586 -0.2350  0.5175 -0.1646
  506TMC3     O 7575   0.475   0.498  10.599  0.0456 -0.2437 -0.0443
  506TMC3     H 7576   0.252   0.782  10.436 -1.8693 -0.2356  0.2870
  506TMC3    H1 7577   0.339   0.365  10.494  0.9224  1.3853  1.5025
  506TMC3    H2 7578   0.216   0.529  10.110  1.5720 -1.7368 -0.7847
  506TMC3    C7 7579   0.396   0.372  10.230  0.3267 -0.1682  0.5214
  506TMC3    C8 7580   0.208   0.761  10.187  0.0277  0.1399  0.2242
  506TMC3    O1 7581   0.391   0.374  10.106  0.4035  0.5844  0.0191
  506TMC3    O2 7582   0.120   0.746  10.103  0.5637  0.7178  0.4706
  507TMC3    C1 7583   1.467   1.538  14.763  0.6538  0.1573  0.3516
  507TMC3    C2 7584   1.389   1.441  14.711 -0.6579  0.7823  0.8521
  507TMC3    C3 7585   1.315   1.482  14.601  1.4244 -0.0362  1.0128
  507TMC3    C4 7586   1.500   1.655  14.698 -0.1015 -0.4131 -0.7880
  507TMC3    C5 7587   1.442   1.682  14.580 -0.0772 -0.3763 -0.0228
  507TMC3    C6 7588   1.347   1.591  14.530  1.5684  0.4468  0.5917
  507TMC3     C 7589   1.437   1.568  14.903  0.2842  0.2799 -0.1639
  507TMC3     O 7590   1.525   1.622  14.970 -0.4621 -0.0832 -0.1701
  507TMC3     H 7591   1.351   1.361  14.774 -2.7015 -0.3377 -1.8105
  507TMC3    H1 7592   1.524   1.741  14.759  0.8081  0.3559 -2.2415
  507TMC3    H2 7593   1.298   1.604  14.434  1.2641 -1.9364  0.4236
  507TMC3    C7 7594   1.377   1.811  14.569  0.2266 -0.2755  0.6673
  507TMC3    C8 7595   1.174   1.460  14.615 -0.2842 -0.4255 -0.6801
  507TMC3    O1 7596   1.263   1.800  14.529 -0.1932  0.2498  0.2111
  507TMC3    O2 7597   1.147   1.369  14.693  0.1192 -0.0351  0.2413
  508MPD2     C 7598   2.195   3.469  15.883 -0.1180 -0.5771  0.2560
  508MPD2    C1 7599   2.313   3.538  15.911  0.0205  0.0308 -0.1009
  508MPD2    C2 7600   2.337   3.657  15.847 -0.1708  0.4328  0.4545
  508MPD2    C3 7601   2.249   3.696  15.749  0.1189 -0.2293 -0.4677
  508MPD2    C4 7602   2.136   3.631  15.717  0.1353  0.3539 -0.1643
  508MPD2    C5 7603   2.106   3.515  15.789 -0.8681  0.1772 -0.0920
  508MPD2     H 7604   2.424   3.718  15.867  0.4190  0.5645 -2.5785
  508MPD2    H1 7605   2.067   3.650  15.635 -0.0640 -0.5663 -0.2150
  508MPD2    H2 7606   2.172   3.379  15.939  1.1059 -1.4289 -0.6003
  508MPD2    H3 7607   2.023   3.450  15.764 -0.3180 -0.0727 -1.2446
  508MPD2     N 7608   2.286   3.813  15.686 -0.6415  0.4290  0.5801
  508MPD2    H5 7609   2.383   3.839  15.680 -0.1372 -1.3962  0.7329
  508MPD2    N1 7610   2.389   3.487  16.023  0.6684 -0.2732  0.3008
  508MPD2    H7 7611   2.350   3.402  16.061 -0.0837  1.0278  2.4209
  509TMC3    C1 7612   2.256   4.190  15.431  0.6820 -0.7223 -0.1130
  509TMC3    C2 7613   2.325   4.263  15.520  0.3171  0.4948  0.1114
  509TMC3    C3 7614   2.369   4.193  15.629  0.1012  0.0608 -0.4857
  509TMC3    C4 7615   2.223   4.060  15.443 -0.7027  0.6270 -0.0575
  509TMC3    C5 7616   2.265   3.997  15.558  0.5582  0.6917  0.5048
  509TMC3    C6 7617   2.345   4.061  15.650  0.0641 -0.0123  0.3812
  509TMC3     C 7618   2.186   4.254  15.324  0.0696  0.0984 -0.0001
  509TMC3     O 7619   2.148   4.182  15.231 -0.2031 -0.1026  0.2379
  509TMC3     H 7620   2.372   4.354  15.484  1.1232  0.4951  1.1604
  509TMC3    H1 7621   2.163   4.004  15.372  1.3817 -1.5759 -0.1004
  509TMC3    H2 7622   2.383   4.014  15.740  0.6186 -2.0167 -0.9008
  509TMC3    C7 7623   2.200   3.879  15.600  0.0491  0.1163 -0.4338
  509TMC3    C8 7624   2.462   4.252  15.727 -0.3468  0.1063 -0.3225
  509TMC3    O1 7625   2.077   3.874  15.585 -0.2538  0.7802 -0.1480
  509TMC3    O2 7626   2.531   4.171  15.791  0.0574  0.1854  0.3838
  510MPD2     C 7627   0.118   0.732  14.645 -0.7570 -0.3918 -0.3243
  510MPD2    C1 7628   0.170   0.621  14.712  0.1226 -0.5117 -0.9910
  510MPD2    C2 7629   0.290   0.577  14.681  1.3115 -0.0095  0.0236
  510MPD2    C3 7630   0.367   0.637  14.583 -0.2582 -0.5111 -0.0512
  510MPD2    C4 7631   0.314   0.737  14.515  0.7338 -0.2581  0.0867
  510MPD2    C5 7632   0.192   0.783  14.543  0.1751  0.5340 -0.8590
  510MPD2     H 7633   0.337   0.502  14.743 -0.0427  1.2279  2.5862
  510MPD2    H1 7634   0.361   0.789  14.432  1.1288  1.9227  1.6869
  510MPD2    H2 7635   0.015   0.762  14.652 -1.0052 -1.3449  0.0797
  510MPD2    H3 7636   0.142   0.852  14.476 -1.7474 -0.4909 -0.4799
  510MPD2     N 7637   0.501   0.590  14.566  0.5748  0.1360 -0.0802
  510MPD2    H5 7638   0.521   0.505  14.618 -0.2629  0.5509  0.9095
  510MPD2    N1 7639   0.107   0.564  14.824 -0.6497  0.0994 -0.3245
  510MPD2    H7 7640   0.137   0.470  14.849  0.0951  0.5733  0.5838
  511TMC3    C1 7641   4.683   0.527  14.992  0.6615  0.1708  0.0147
  511TMC3    C2 7642   4.624   0.592  15.097  0.1413  0.2971  0.7421
  511TMC3    C3 7643   4.522   0.516  15.148 -0.5314  0.3641  0.7052
  511TMC3    C4 7644   4.670   0.393  14.960  0.2014  0.4239 -0.1015
  511TMC3    C5 7645   4.560   0.321  15.007  0.3037  0.4792  0.1352
  511TMC3    C6 7646   4.481   0.388  15.107 -0.4493  0.1816  1.0199
  511TMC3     C 7647   0.012   0.617  14.900  0.4698  0.2272 -0.5064
  511TMC3     O 7648   4.711   0.735  14.904 -0.4824  0.3154  0.3787
  511TMC3     H 7649   4.634   0.696  15.125 -1.0044  0.5846  0.0963
  511TMC3    H1 7650   4.727   0.359  14.874 -0.7055  0.3020 -0.6570
  511TMC3    H2 7651   4.388   0.342  15.139 -1.0515  1.3923  1.0220
  511TMC3    C7 7652   4.547   0.185  14.969 -0.4080 -0.5332 -0.2439
  511TMC3    C8 7653   4.456   0.580  15.258 -0.5077  0.4130  0.3932
  511TMC3    O1 7654   4.622   0.140  14.888  0.1877  0.4106 -0.0541
  511TMC3    O2 7655   4.475   0.701  15.283  0.3482 -0.0657  0.1920
  512TMC3    C1 7656   3.628   0.351  12.768  0.6043 -0.0307  0.0940
  512TMC3    C2 7657   3.613   0.257  12.863 -0.3781  0.5953 -0.5819
  512TMC3    C3 7658   3.686   0.143  12.846 -1.1250  0.7098  0.5219
  512TMC3    C4 7659   3.671   0.318  12.636  0.3736  0.3075  0.6793
  512TMC3    C5 7660   3.713   0.191  12.617 -0.3800 -0.7477  0.2649
  512TMC3    C6 7661   3.731   0.103  12.721 -0.1263  0.6722  0.2254
  512TMC3     C 7662   3.587   0.488  12.798  0.0441  0.3534 -0.4678
  512TMC3     O 7663   3.595   0.529  12.915  0.0682 -0.0176  0.2097
  512TMC3     H 7664   3.588   0.295  12.961 -1.3347 -1.2024 -0.1280
  512TMC3    H1 7665   3.679   0.392  12.558  1.2816 -0.1131  0.3720
  512TMC3    H2 7666   3.802   0.022  12.708 -2.6266 -1.4468 -0.1661
  512TMC3    C7 7667   3.802   0.171  12.499 -0.2726 -0.4891 -0.4742
  512TMC3    C8 7668   3.735   0.066  12.961 -0.1602 -0.5511 -0.1422
  512TMC3    O1 7669   3.861   0.268  12.448 -0.1925 -0.2778 -0.3054
  512TMC3    O2 7670   3.766   4.689  12.935 -0.5493  0.2858  0.8225
  513MPD2     C 7671   0.969   0.354  13.166  0.0829  0.6761 -0.0667
  513MPD2    C1 7672   0.974   0.218  13.134  0.1532 -0.3670  0.8132
  513MPD2    C2 7673   1.016   0.124  13.232 -0.2020 -0.0785 -0.4544
  513MPD2    C3 7674   1.064   0.170  13.350  0.3876  0.2430  0.4575
  513MPD2    C4 7675   1.067   0.308  13.380  0.5735  0.2795 -0.0150
  513MPD2    C5 7676   1.020   0.397  13.290  0.0427 -0.4117  0.2555
  513MPD2     H 7677   1.000   0.020  13.207 -1.4345 -0.0829  0.3581
  513MPD2    H1 7678   1.101   0.340  13.478  0.0697  1.0517 -0.0931
  513MPD2    H2 7679   0.938   0.434  13.100  0.2667 -0.0689 -1.0515
  513MPD2    H3 7680   1.007   0.499  13.325  1.7589  0.1776 -0.7827
  513MPD2     N 7681   1.104   0.075  13.444 -0.7319 -0.0324 -0.4562
  513MPD2    H5 7682   1.075   4.717  13.428  2.0677 -0.8317 -0.8475
  513MPD2    N1 7683   0.912   0.161  13.016  0.7142 -0.0618 -1.0428
  513MPD2    H7 7684   0.912   0.059  13.010 -1.3296 -0.1880  0.8074
  514TMC3    C1 7685   0.833   0.113  12.806  0.1453 -0.4226 -0.3355
  514TMC3    C2 7686   0.907   0.126  12.693  0.9463  0.3481  0.8144
  514TMC3    C3 7687   0.957   0.016  12.641 -0.8777 -0.0746 -0.4801
  514TMC3    C4 7688   0.800   4.732  12.868 -0.3602  0.2114  0.1534
  514TMC3    C5 7689   0.857   4.621  12.816  0.4007 -0.3579  0.5246
  514TMC3    C6 7690   0.940   4.635  12.702 -0.0812  0.0204 -0.1158
  514TMC3     C 7691   0.869   0.218  12.900  0.0949 -0.2241  0.1730
  514TMC3     O 7692   0.865   0.341  12.874 -0.4643  0.4506  0.2822
  514TMC3     H 7693   0.926   0.223  12.650  0.7327 -0.2200 -0.5585
  514TMC3    H1 7694   0.725   4.728  12.946  1.4772 -0.8929  1.8606
  514TMC3    H2 7695   0.992   4.552  12.657 -1.2986 -1.1641  0.6372
  514TMC3    C7 7696   0.923   4.560  12.928 -0.3097 -0.1795  0.4707
  514TMC3    C8 7697   0.948   0.012  12.497  0.4543 -0.8488 -0.0190
  514TMC3    O1 7698   0.934   4.635  13.024  0.2976 -0.4798 -0.3614
  514TMC3    O2 7699   0.880   4.653  12.458  0.2592 -0.3199  0.3462
  515MPD2     C 7700   3.851   1.579  14.499 -0.4046  0.2232  0.6191
  515MPD2    C1 7701   3.776   1.646  14.595 -0.2438 -0.0866  0.3310
  515MPD2    C2 7702   3.830   1.677  14.716  0.2265  0.0562  0.1711
  515MPD2    C3 7703   3.942   1.606  14.764  0.1199 -0.4116  0.5573
  515MPD2    C4 7704   4.004   1.527  14.674 -0.0418 -0.3485  0.1222
  515MPD2    C5 7705   3.973   1.523  14.544 -0.4509  0.3460 -0.0047
  515MPD2     H 7706   3.774   1.752  14.770  0.6167  0.3206  0.2068
  515MPD2    H1 7707   4.095   1.478  14.706 -0.0804 -0.7865 -0.4172
  515MPD2    H2 7708   3.828   1.549  14.398 -1.4401  1.9178  0.3595
  515MPD2    H3 7709   4.026   1.461  14.472  0.5564 -0.4837  1.4567
  515MPD2     N 7710   4.002   1.618  14.889 -0.1961 -0.2757  0.0293
  515MPD2    H5 7711   4.072   1.552  14.922  0.9468  0.6093 -0.6271
  515MPD2    N1 7712   3.649   1.704  14.569 -0.6950 -0.2495  0.1266
  515MPD2    H7 7713   3.601   1.752  14.645 -1.6266 -1.2432  0.1698
  516TMC3    C1 7714   3.457   1.730  14.461  0.2444 -0.4425  0.1844
  516TMC3    C2 7715   3.393   1.797  14.361 -0.9747 -1.4757 -0.7749
  516TMC3    C3 7716   3.258   1.767  14.348 -0.2489  0.0907  0.1147
  516TMC3    C4 7717   3.401   1.653  14.554  0.4335 -0.3337 -0.1321
  516TMC3    C5 7718   3.273   1.626  14.534  0.2970 -0.8321  0.1011
  516TMC3    C6 7719   3.199   1.688  14.436 -0.1974  0.5414 -0.0734
  516TMC3     C 7720   3.601   1.718  14.445 -0.0879  0.2620 -0.2357
  516TMC3     O 7721   3.646   1.692  14.333  0.1541 -0.1799 -0.1831
  516TMC3     H 7722   3.446   1.844  14.279  0.4507 -1.0433  0.3973
  516TMC3    H1 7723   3.452   1.587  14.623 -0.0127 -3.2194 -2.6227
  516TMC3    H2 7724   3.093   1.667  14.442 -0.3432  1.1506 -0.5871
  516TMC3    C7 7725   3.217   1.516  14.612  0.5824 -0.0764 -1.2085
  516TMC3    C8 7726   3.166   1.875  14.322 -0.0571  0.3771  0.7291
  516TMC3    O1 7727   3.276   1.490  14.720  0.1588 -0.8547  0.0816
  516TMC3    O2 7728   3.045   1.860  14.340 -0.6131  0.1102 -0.0062
  517MPD2     C 7729   3.648   3.745  17.379 -0.1545 -0.1152 -0.5499
  517MPD2    C1 7730   3.782   3.717  17.398 -0.2947  0.7799  0.6101
  517MPD2    C2 7731   3.862   3.783  17.492 -0.0475  0.3590 -0.0575
  517MPD2    C3 7732   3.808   3.898  17.554  0.3317 -0.3200 -0.5914
  517MPD2    C4 7733   3.677   3.925  17.535  0.3806 -0.0321  0.5602
  517MPD2    C5 7734   3.599   3.850  17.446  0.6068  0.5753 -0.1655
  517MPD2     H 7735   3.958   3.738  17.513  0.6185  0.3060 -3.1692
  517MPD2    H1 7736   3.643   4.012  17.591  0.3823 -1.1327  2.2541
  517MPD2    H2 7737   3.583   3.683  17.318 -1.0590 -1.9178  2.1975
  517MPD2    H3 7738   3.492   3.868  17.438  0.5790 -0.1831 -1.5032
  517MPD2     N 7739   3.884   3.981  17.645  0.6771  0.2444  0.0581
  517MPD2    H5 7740   3.836   4.043  17.709 -0.5469  0.2064 -0.7982
  517MPD2    N1 7741   3.844   3.600  17.356  0.1230 -0.4354 -0.1971
  517MPD2    H7 7742   3.935   3.566  17.385  0.3982 -1.9485 -2.8643
  518TMC3    C1 7743   3.861   3.408  17.227 -0.6282 -0.5036  0.0592
  518TMC3    C2 7744   3.811   3.280  17.240  0.4224 -0.1718  0.4616
  518TMC3    C3 7745   3.906   3.181  17.247  0.4684  1.0841  0.5374
  518TMC3    C4 7746   3.996   3.430  17.215 -0.6021 -0.8973  0.1035
  518TMC3    C5 7747   4.077   3.323  17.186 -0.6678  0.0783 -0.4065
  518TMC3    C6 7748   4.035   3.195  17.215  0.5995 -0.1967  0.0850
  518TMC3     C 7749   3.773   3.509  17.277  0.6313 -0.0485 -1.0626
  518TMC3     O 7750   3.661   3.504  17.232 -0.5099  0.4679  0.6787
  518TMC3     H 7751   3.707   3.269  17.268  0.4401 -1.0831  0.1704
  518TMC3    H1 7752   4.038   3.528  17.192 -1.4590 -0.2483  1.3251
  518TMC3    H2 7753   4.097   3.107  17.201  0.2006 -0.6964  1.4445
  518TMC3    C7 7754   4.220   3.351  17.191 -0.1704 -0.4409  0.1696
  518TMC3    C8 7755   3.873   3.051  17.315  0.1997 -0.4355  0.1710
  518TMC3    O1 7756   4.251   3.455  17.251 -0.7624  0.2433  0.0684
  518TMC3    O2 7757   3.761   3.001  17.310  0.6220 -0.1688 -0.1901
  519MPD2     C 7758   0.267   1.581  14.752 -0.2226  0.1358 -0.0705
  519MPD2    C1 7759   0.189   1.578  14.638  0.0324 -1.0493 -0.3680
  519MPD2    C2 7760   0.238   1.515  14.521 -0.4893 -0.5218  0.5856
  519MPD2    C3 7761   0.363   1.459  14.515 -0.8385 -0.1639  0.3698
  519MPD2    C4 7762   0.441   1.468  14.626 -0.3385  0.0513 -0.0700
  519MPD2    C5 7763   0.393   1.526  14.745 -0.6717  0.4821 -0.1578
  519MPD2     H 7764   0.176   1.514  14.432 -0.5639  1.5366  0.6245
  519MPD2    H1 7765   0.533   1.412  14.617 -1.4583 -1.9722  1.1489
  519MPD2    H2 7766   0.239   1.623  14.848 -0.8453 -0.9540  0.2244
  519MPD2    H3 7767   0.467   1.520  14.824 -0.5841  1.4841 -0.1693
  519MPD2     N 7768   0.420   1.392  14.405  0.3375  0.7311 -0.3760
  519MPD2    H5 7769   0.519   1.370  14.409 -0.3073 -2.1517 -0.8587
  519MPD2    N1 7770   0.058   1.637  14.636 -0.0310 -0.3798  0.3635
  519MPD2    H7 7771   0.030   1.679  14.724 -0.4263  1.5141 -0.6723
  520TMC3    C1 7772   0.421   1.272  14.189  0.2744 -0.3069  0.3175
  520TMC3    C2 7773   0.358   1.245  14.077 -0.1473  0.4267 -0.1542
  520TMC3    C3 7774   0.414   1.159  13.990 -0.5303  0.6174  0.0212
  520TMC3    C4 7775   0.540   1.211  14.219 -0.1801 -0.3586 -0.3758
  520TMC3    C5 7776   0.599   1.129  14.125 -0.4435  0.1348 -0.2952
  520TMC3    C6 7777   0.536   1.096  14.009 -0.4066  0.4538  0.2059
  520TMC3     C 7778   0.352   1.365  14.287  0.0969 -0.8770  0.0552
  520TMC3     O 7779   0.236   1.396  14.266 -0.3606  0.1431  0.4840
  520TMC3     H 7780   0.266   1.300  14.058  0.2215  0.4327 -1.9152
  520TMC3    H1 7781   0.585   1.209  14.318  0.4299 -0.5068 -0.6544
  520TMC3    H2 7782   0.579   1.033  13.932 -0.2035  0.4858  0.2920
  520TMC3    C7 7783   0.732   1.085  14.152 -0.4562 -0.2496  0.7932
  520TMC3    C8 7784   0.344   1.129  13.864  0.0601  0.5098 -0.0769
  520TMC3    O1 7785   0.763   1.070  14.266 -0.5397  0.0087  0.1980
  520TMC3    O2 7786   0.405   1.072  13.775 -0.5998 -0.2581 -0.4348
  521MPD2     C 7787   1.336   4.299  17.339  0.1089 -0.2390 -0.3837
  521MPD2    C1 7788   1.267   4.235  17.232 -0.9276 -0.5962  0.7308
  521MPD2    C2 7789   1.335   4.157  17.136 -0.3500 -0.9199 -0.5120
  521MPD2    C3 7790   1.468   4.147  17.156  0.3654  1.1449 -0.3306
  521MPD2    C4 7791   1.542   4.213  17.251 -0.2028  0.2472  0.6955
  521MPD2    C5 7792   1.475   4.284  17.351 -0.0172 -0.2906  0.0617
  521MPD2     H 7793   1.283   4.105  17.056  0.5305  0.4188 -1.9496
  521MPD2    H1 7794   1.650   4.209  17.246 -0.4258 -1.5333 -2.8249
  521MPD2    H2 7795   1.287   4.369  17.404  0.3802 -0.9576  0.5990
  521MPD2    H3 7796   1.525   4.340  17.429  2.0251 -0.7516 -0.9255
  521MPD2     N 7797   1.536   4.066  17.065 -0.2886 -0.2021  0.4153
  521MPD2    H5 7798   1.488   4.039  16.980 -0.5127 -1.0499  0.8128
  521MPD2    N1 7799   1.129   4.263  17.217 -0.3574 -0.2167 -0.1960
  521MPD2    H7 7800   1.081   4.307  17.295  1.4504 -2.3145  2.1127
  522TMC3    C1 7801   1.698   3.952  16.961  0.1413 -0.3238 -0.1078
  522TMC3    C2 7802   1.752   3.830  16.975 -0.2958  0.5818  0.0368
  522TMC3    C3 7803   1.837   3.789  16.872 -0.1088  0.1138 -0.1973
  522TMC3    C4 7804   1.715   4.045  16.862 -0.0568 -0.3680 -0.4067
  522TMC3    C5 7805   1.799   4.004  16.765 -0.8639  0.5297 -0.0672
  522TMC3    C6 7806   1.858   3.879  16.768 -0.1066 -0.1393 -0.0425
  522TMC3     C 7807   1.657   4.016  17.089  0.5081  0.1939 -0.2977
  522TMC3     O 7808   1.718   3.999  17.198 -0.3246  0.2323  0.4042
  522TMC3     H 7809   1.726   3.755  17.048 -1.5539  0.6206 -0.3704
  522TMC3    H1 7810   1.692   4.151  16.872 -0.1029 -0.3616 -0.5872
  522TMC3    H2 7811   1.937   3.854  16.699  0.3062 -2.5401  1.2783
  522TMC3    C7 7812   1.806   4.083  16.650  0.7385  0.1540  0.4947
  522TMC3    C8 7813   1.924   3.673  16.899  0.1656  0.3619  1.1308
  522TMC3    O1 7814   1.904   4.079  16.578  0.2684 -0.1171  0.2386
  522TMC3    O2 7815   1.920   3.634  17.014 -0.0368 -0.5509  0.6153
  523MPD2     C 7816   4.072   0.257  10.514  0.5510  0.1412  0.5751
  523MPD2    C1 7817   4.017   0.175  10.418  0.0416 -0.1108  0.7063
  523MPD2    C2 7818   3.910   0.222  10.346 -0.2083 -0.5223  0.5429
  523MPD2    C3 7819   3.841   0.333  10.392  0.3101  0.5841  0.2298
  523MPD2    C4 7820   3.876   0.399  10.505 -0.2798  0.1038  0.4633
  523MPD2    C5 7821   3.998   0.366  10.559 -0.5859  0.3017 -0.2336
  523MPD2     H 7822   3.884   0.170  10.255 -4.0175  0.9960  0.8037
  523MPD2    H1 7823   3.829   0.495  10.525  2.3083  1.2205  1.2539
  523MPD2    H2 7824   4.165   0.238  10.566  1.4014 -1.2027 -1.4428
  523MPD2    H3 7825   4.028   0.434  10.637  0.1805 -0.2900 -0.0090
  523MPD2     N 7826   3.734   0.389  10.326 -0.4258 -0.2257 -0.0150
  523MPD2    H5 7827   3.690   0.465  10.376  2.2152  0.9174  0.6045
  523MPD2    N1 7828   4.102   0.071  10.373 -0.2152 -0.1267 -0.0397
  523MPD2    H7 7829   4.169   0.045  10.445 -0.8110  0.1933  0.6266
  524TMC3    C1 7830   3.567   0.443  10.166 -0.0741  0.4072 -0.3121
  524TMC3    C2 7831   3.589   0.479  10.034  0.0022 -0.2755 -0.2221
  524TMC3    C3 7832   3.496   0.568   9.989  0.0986  0.0140 -0.6586
  524TMC3    C4 7833   3.452   0.457  10.233 -0.0278  0.2347 -0.5113
  524TMC3    C5 7834   3.360   0.541  10.172 -0.1398 -0.4154  0.0622
  524TMC3    C6 7835   3.383   0.600  10.056 -0.1868  0.1209  0.5201
  524TMC3     C 7836   3.677   0.357  10.204  0.0123 -0.2403  0.0651
  524TMC3     O 7837   3.707   0.274  10.120 -0.4777  0.5841  0.9182
  524TMC3     H 7838   3.690   0.486   9.995  0.6318  2.4999  1.8442
  524TMC3    H1 7839   3.436   0.422  10.335  0.2060  0.9301 -0.2352
  524TMC3    H2 7840   3.299   0.640  10.001  0.5545  1.6200  0.4678
  524TMC3    C7 7841   3.224   0.536  10.231  0.7944  0.2414  0.3455
  524TMC3    C8 7842   3.517   0.635   9.859  0.0401 -0.5350 -0.1749
  524TMC3    O1 7843   3.214   0.466  10.325  0.1029  0.3927 -0.1097
  524TMC3    O2 7844   3.440   0.727   9.824 -0.2050  0.6361  0.2155
  525MPD2     C 7845   1.614   1.215  14.545  0.4682  0.0774 -0.1996
  525MPD2    C1 7846   1.745   1.256  14.594 -0.2430  0.1313  0.0789
  525MPD2    C2 7847   1.801   1.374  14.548  0.2931  0.5923 -0.3693
  525MPD2    C3 7848   1.742   1.442  14.441 -1.1083 -0.1415 -0.0605
  525MPD2    C4 7849   1.618   1.398  14.395  0.1863 -0.1716  0.2601
  525MPD2    C5 7850   1.560   1.291  14.448  0.6626 -0.5177 -0.6193
  525MPD2     H 7851   1.884   1.413  14.604  1.0371 -1.8891  0.2619
  525MPD2    H1 7852   1.558   1.454  14.324  0.0527  1.3409  1.5518
  525MPD2    H2 7853   1.556   1.129  14.577  0.7656 -0.2472 -0.5374
  525MPD2    H3 7854   1.456   1.278  14.418 -0.8230 -0.4847  4.4569
  525MPD2     N 7855   1.790   1.571  14.407  0.2027  0.5465 -0.1928
  525MPD2    H5 7856   1.718   1.634  14.375 -2.5436 -2.0050  0.9897
  525MPD2    N1 7857   1.829   1.178  14.682 -0.0038 -0.8787  0.0428
  525MPD2    H7 7858   1.918   1.221  14.701  0.0138 -1.5628  1.5194
  526TMC3    C1 7859   1.872   1.035  14.872 -0.3377  0.1002  0.3822
  526TMC3    C2 7860   1.812   0.958  14.969 -0.4916 -0.5608 -0.5491
  526TMC3    C3 7861   1.892   0.883  15.047 -0.1218  0.2788  0.1263
  526TMC3    C4 7862   2.011   1.031  14.852 -0.1682 -0.4886 -0.1167
  526TMC3    C5 7863   2.087   0.961  14.940 -0.0475 -0.1457 -0.1641
  526TMC3    C6 7864   2.027   0.881  15.026  0.9391  0.0894  0.0700
  526TMC3     C 7865   1.779   1.086  14.766 -0.4231 -0.1658  0.0426
  526TMC3     O 7866   1.666   1.051  14.784 -0.4144  0.5862  0.3022
  526TMC3     H 7867   1.704   0.958  14.976 -0.4907 -0.2126 -0.4993
  526TMC3    H1 7868   2.060   1.089  14.775  0.3202 -0.4433  0.2294
  526TMC3    H2 7869   2.088   0.817  15.088  1.7792  1.3248  0.5141
  526TMC3    C7 7870   2.229   0.959  14.909  0.2390  0.3381 -0.2358
  526TMC3    C8 7871   1.849   0.871  15.189 -0.2943 -1.3986  0.2338
  526TMC3    O1 7872   2.275   1.039  14.830 -0.7122 -0.1480  0.4751
  526TMC3    O2 7873   1.927   0.808  15.257 -0.2843 -0.1202 -0.4277
  527MPD2     C 7874   4.441   3.806   1.192 -0.2015  0.5252 -0.4151
  527MPD2    C1 7875   4.446   3.729   1.081  0.2209  0.3023 -0.8749
  527MPD2    C2 7876   4.529   3.612   1.092  0.1650 -0.7222  0.3020
  527MPD2    C3 7877   4.597   3.584   1.203  0.8808 -0.0202  0.1774
  527MPD2    C4 7878   4.599   3.667   1.313 -0.3505 -0.7501  0.1236
  527MPD2    C5 7879   4.517   3.772   1.305  0.1494  0.4265 -0.9631
  527MPD2     H 7880   4.533   3.534   1.016 -0.8952 -1.4405  0.9972
  527MPD2    H1 7881   4.657   3.647   1.402  0.6446  1.2771 -0.0822
  527MPD2    H2 7882   4.379   3.893   1.207  0.4913  1.0527 -0.6098
  527MPD2    H3 7883   4.525   3.835   1.393 -1.0508 -0.0527 -0.5200
  527MPD2     N 7884   4.673   3.465   1.196  0.5884 -0.1569  0.0157
  527MPD2    H5 7885   4.671   3.413   1.108  0.4015  0.4559 -0.3456
  527MPD2    N1 7886   4.357   3.747   0.975  0.3263 -0.4660 -0.2345
  527MPD2    H7 7887   4.294   3.827   0.981  0.6531 -0.2490  0.3300
  528TMC3    C1 7888   4.248   3.712   0.776 -0.3667 -0.6309 -0.5824
  528TMC3    C2 7889   4.213   3.847   0.792  1.0380 -0.2701 -0.7879
  528TMC3    C3 7890   4.078   3.875   0.765 -0.4960 -0.4455  0.1603
  528TMC3    C4 7891   4.170   3.616   0.718 -0.0351  0.2375  0.6662
  528TMC3    C5 7892   4.038   3.653   0.688  0.2456 -0.8844  0.1189
  528TMC3    C6 7893   3.996   3.784   0.702  0.1825  0.3464  0.0751
  528TMC3     C 7894   4.344   3.658   0.868 -0.1420  0.2404 -0.1308
  528TMC3     O 7895   4.395   3.548   0.837  0.1901 -0.2712 -0.3799
  528TMC3     H 7896   4.286   3.916   0.832 -0.7185  1.5154 -0.6678
  528TMC3    H1 7897   4.201   3.513   0.710 -2.2334 -0.3003 -0.9194
  528TMC3    H2 7898   3.896   3.814   0.672 -0.3821 -0.4888  1.1478
  528TMC3    C7 7899   3.947   3.557   0.632 -0.0370 -0.3112 -0.3485
  528TMC3    C8 7900   4.025   3.960   0.866 -0.3030  0.2557 -0.1475
  528TMC3    O1 7901   3.964   3.446   0.682  0.4676 -0.2245 -1.4492
  528TMC3    O2 7902   4.114   4.004   0.939 -0.4604 -0.1214  0.1691
  529MPD2     C 7903   3.097   2.068   0.897 -0.1224 -0.2080  0.1497
  529MPD2    C1 7904   2.965   2.032   0.909 -0.0340  0.2399  0.0420
  529MPD2    C2 7905   2.891   2.028   0.788 -0.2718 -0.2203 -0.2418
  529MPD2    C3 7906   2.943   2.084   0.666 -0.2024 -0.1358  0.0542
  529MPD2    C4 7907   3.072   2.122   0.667 -0.3709 -0.0217 -0.6943
  529MPD2    C5 7908   3.148   2.101   0.779 -0.1719  0.1948  0.0479
  529MPD2     H 7909   2.786   2.000   0.791 -0.3215 -0.1255 -1.1021
  529MPD2    H1 7910   3.113   2.160   0.575 -1.7333 -1.3103 -1.8401
  529MPD2    H2 7911   3.168   2.067   0.979 -2.2331  2.0690  2.0285
  529MPD2    H3 7912   3.253   2.125   0.778 -0.3353  0.9330  1.0114
  529MPD2     N 7913   2.864   2.097   0.544  0.1993  0.5091  0.5370
  529MPD2    H5 7914   2.908   2.136   0.462 -0.4047  2.2379  1.0283
  529MPD2    N1 7915   2.909   1.993   1.030 -0.6170  0.2222 -0.0468
  529MPD2    H7 7916   2.812   1.962   1.029 -0.7434  0.6335 -0.6120
  530TMC3    C1 7917   2.869   1.966   1.252 -0.1678 -0.4058  0.1497
  530TMC3    C2 7918   2.916   1.922   1.372 -0.8255  0.0190 -0.0531
  530TMC3    C3 7919   2.830   1.844   1.449 -0.8210 -0.3272  0.3037
  530TMC3    C4 7920   2.739   1.961   1.222  0.7281  0.1043  0.0390
  530TMC3    C5 7921   2.658   1.886   1.298 -0.0427 -0.6008 -0.5180
  530TMC3    C6 7922   2.701   1.822   1.412  0.5416 -0.0650  0.1415
  530TMC3     C 7923   2.968   1.997   1.154 -0.5801 -0.0232 -0.3064
  530TMC3     O 7924   3.076   2.035   1.192 -0.6684  0.2611  0.1634
  530TMC3     H 7925   3.020   1.930   1.401 -0.3223 -1.5412 -1.4063
  530TMC3    H1 7926   2.706   1.995   1.124 -0.1830 -1.3679 -0.1576
  530TMC3    H2 7927   2.633   1.750   1.456 -1.2772  1.2805 -0.4856
  530TMC3    C7 7928   2.536   1.844   1.227 -0.5032  0.8746 -0.0425
  530TMC3    C8 7929   2.864   1.796   1.579 -0.3853 -0.1541  0.3186
  530TMC3    O1 7930   2.537   1.864   1.105 -0.2413  0.1455  0.4695
  530TMC3    O2 7931   2.773   1.764   1.657 -0.1204 -0.3133  0.3244
  531MPD2     C 7932   1.043   4.158  13.226 -0.1891  0.0668 -0.8732
  531MPD2    C1 7933   1.052   4.292  13.249  0.1932  0.2776 -0.6511
  531MPD2    C2 7934   1.020   4.381  13.143 -0.3066  0.0774 -0.5352
  531MPD2    C3 7935   0.970   4.337  13.020  0.0852 -0.4772 -1.0119
  531MPD2    C4 7936   0.944   4.199  13.016 -1.1826  0.0587 -0.0861
  531MPD2    C5 7937   0.985   4.108  13.111 -0.9951 -0.0837  0.5955
  531MPD2     H 7938   1.038   4.487  13.158 -0.0965 -0.0391  0.0536
  531MPD2    H1 7939   0.901   4.157  12.926 -1.3865  0.5597 -0.2214
  531MPD2    H2 7940   1.078   4.085  13.299  0.4804 -0.2314 -1.4970
  531MPD2    H3 7941   0.978   4.002  13.093 -1.5357  0.3690 -1.8760
  531MPD2     N 7942   0.926   4.422  12.921 -0.2268  0.4074  0.6288
  531MPD2    H5 7943   0.900   4.381  12.832  0.0493  1.0522  0.2535
  531MPD2    N1 7944   1.081   4.335  13.380  1.0654  0.1915  0.7622
  531MPD2    H7 7945   1.117   4.268  13.447  1.2264 -0.8933 -0.4214
  532TMC3    C1 7946   1.136   4.490  13.541 -0.0435 -0.5442  0.3668
  532TMC3    C2 7947   1.099   4.616  13.574 -0.5123  0.9414 -0.2266
  532TMC3    C3 7948   1.186   4.705  13.623  0.0707 -0.7735  0.0930
  532TMC3    C4 7949   1.265   4.446  13.544 -0.8647  0.6626  0.5368
  532TMC3    C5 7950   1.353   4.543  13.593 -0.3071 -0.0159 -0.1679
  532TMC3    C6 7951   1.314   4.668  13.631 -0.2302 -0.3528 -1.0187
  532TMC3     C 7952   1.065   4.458  13.417 -0.1431 -0.3110  0.0767
  532TMC3     O 7953   0.995   4.548  13.380  0.6212 -0.5374  0.0043
  532TMC3     H 7954   0.994   4.644  13.583 -1.5398 -2.6595 -0.9344
  532TMC3    H1 7955   1.290   4.351  13.500 -1.1149  0.9922 -0.3233
  532TMC3    H2 7956   1.385   0.006  13.662 -0.8986 -0.0242 -0.2991
  532TMC3    C7 7957   1.485   4.508  13.636  0.4781 -0.3602  0.0372
  532TMC3    C8 7958   1.176   0.097  13.558 -0.0632  0.3524  0.1894
  532TMC3    O1 7959   1.564   4.600  13.658  0.4268 -0.3348 -0.5275
  532TMC3    O2 7960   1.240   0.195  13.590  0.5140  0.3759 -0.1975
  533TMC3    C1 7961   1.929   1.758  14.449 -0.3962  0.2494 -0.1054
  533TMC3    C2 7962   2.058   1.803  14.441  0.0209 -0.0697  0.4751
  533TMC3    C3 7963   2.080   1.931  14.492 -0.7878 -0.4209 -0.6203
  533TMC3    C4 7964   1.823   1.829  14.503  0.5816 -0.0747  0.8067
  533TMC3    C5 7965   1.848   1.955  14.553  0.0437 -0.2167  0.1915
  533TMC3    C6 7966   1.973   2.011  14.532 -0.2720  0.2054  0.2952
  533TMC3     C 7967   1.920   1.609  14.442  0.4964 -0.9607  0.7450
  533TMC3     O 7968   2.019   1.543  14.473  0.2361  0.0171 -0.2448
  533TMC3     H 7969   2.135   1.732  14.412 -0.7539 -0.4626 -0.6339
  533TMC3    H1 7970   1.723   1.787  14.516 -1.2944  3.6660 -1.7083
  533TMC3    H2 7971   1.986   2.112  14.570  1.4310  1.4894 -3.6708
  533TMC3    C7 7972   1.807   1.957  14.690 -0.2177  0.5293 -0.1289
  533TMC3    C8 7973   2.210   1.988  14.520 -0.6344  0.2217  0.0519
  533TMC3    O1 7974   1.713   1.883  14.720  0.2854  0.4331  0.1986
  533TMC3    O2 7975   2.221   2.076  14.607 -0.3188 -0.0189  0.0568
  534MPD2     C 7976   0.216   2.538   1.935  0.5818 -0.1547 -0.1859
  534MPD2    C1 7977   0.161   2.636   1.855  0.8490 -0.2754  1.5110
  534MPD2    C2 7978   0.036   2.621   1.801 -0.2895  0.6944 -0.4000
  534MPD2    C3 7979   4.696   2.512   1.819 -0.3710 -0.2994 -0.1840
  534MPD2    C4 7980   0.014   2.406   1.896 -0.5695 -0.4213 -0.0615
  534MPD2    C5 7981   0.138   2.425   1.948 -0.4801 -0.6061 -0.3024
  534MPD2     H 7982   4.728   2.704   1.748 -0.7771 -0.4959 -1.8500
  534MPD2    H1 7983   4.691   2.317   1.910  1.5882 -1.5265  2.2034
  534MPD2    H2 7984   0.306   2.543   1.996  0.5968  2.3803 -0.4273
  534MPD2    H3 7985   0.175   2.351   2.019 -2.6889 -2.0833 -0.7127
  534MPD2     N 7986   4.561   2.500   1.777 -0.4527  0.6739 -0.8059
  534MPD2    H5 7987   4.516   2.409   1.785  1.1420 -0.3950 -3.6996
  534MPD2    N1 7988   0.228   2.759   1.829 -0.6185 -0.4166 -0.5009
  534MPD2    H7 7989   0.173   2.831   1.783 -0.6878  0.6547  1.2364
  535TMC3    C1 7990   4.362   2.565   1.643  0.5890 -0.4832 -0.1703
  535TMC3    C2 7991   4.296   2.448   1.675  0.3237  0.2966 -0.1686
  535TMC3    C3 7992   4.191   2.412   1.604 -0.1161  0.3837  0.2057
  535TMC3    C4 7993   4.331   2.639   1.532  0.4621  0.4710 -0.3349
  535TMC3    C5 7994   4.257   2.570   1.438 -0.0771 -0.2277 -0.0230
  535TMC3    C6 7995   4.178   2.462   1.474  0.3651  0.6676 -0.1905
  535TMC3     C 7996   4.491   2.602   1.709  0.0672 -0.6292 -0.1597
  535TMC3     O 7997   4.526   2.716   1.693  0.7271 -0.5182 -0.4690
  535TMC3     H 7998   4.305   2.406   1.774  1.4763 -0.4911 -0.6001
  535TMC3    H1 7999   4.404   2.714   1.501  0.5379  0.6693  0.3146
  535TMC3    H2 8000   4.121   2.408   1.398  0.2828  1.7704 -0.9119
  535TMC3    C7 8001   4.266   2.614   1.298  0.4126  0.6774 -0.1156
  535TMC3    C8 8002   4.139   2.280   1.606 -0.4145 -0.5660 -0.1784
  535TMC3    O1 8003   4.258   2.521   1.217 -0.2216  0.1029 -0.1794
  535TMC3    O2 8004   4.018   2.269   1.599  0.0386 -0.4522  0.0709
  536MPD2     C 8005   2.891   1.186  16.341  0.0705  0.3414  0.1402
  536MPD2    C1 8006   2.896   1.052  16.319 -0.4605  0.2682 -0.2353
  536MPD2    C2 8007   2.854   1.003  16.190  0.0806 -0.6145  0.0996
  536MPD2    C3 8008   2.822   1.092  16.086  0.6267 -0.5656  0.2723
  536MPD2    C4 8009   2.819   1.226  16.117  0.4457  0.0748  0.2639
  536MPD2    C5 8010   2.851   1.266  16.241 -0.8067 -0.2589 -0.2463
  536MPD2     H 8011   2.848   0.897  16.172  1.4898 -0.3573 -1.8167
  536MPD2    H1 8012   2.791   1.304  16.048  0.3931 -0.5210 -0.3904
  536MPD2    H2 8013   2.923   1.219  16.439 -0.8513  1.7534 -0.0326
  536MPD2    H3 8014   2.826   1.369  16.262 -3.5104 -0.7755 -0.9290
  536MPD2     N 8015   2.790   1.057  15.955 -0.8041  0.1433 -0.3869
  536MPD2    H5 8016   2.774   1.134  15.890  4.2159  0.2925 -1.4230
  536MPD2    N1 8017   2.948   0.966  16.425  0.5150 -0.0009  0.0760
  536MPD2    H7 8018   3.000   1.009  16.501  1.9010  0.2895 -1.0176
  537TMC3    C1 8019   3.037   0.769  16.514 -0.3855 -0.2105 -0.3028
  537TMC3    C2 8020   3.134   0.848  16.565  0.2247  0.3875  0.4357
  537TMC3    C3 8021   3.204   0.792  16.667 -0.0365 -0.5776 -0.1680
  537TMC3    C4 8022   3.006   0.647  16.567  0.3170  0.4089  0.3937
  537TMC3    C5 8023   3.079   0.599  16.675 -0.3806 -0.3930 -0.1219
  537TMC3    C6 8024   3.176   0.672  16.729  0.6598 -0.4492 -0.9365
  537TMC3     C 8025   2.945   0.832  16.419  0.9817  0.0210 -0.1597
  537TMC3     O 8026   2.861   0.760  16.371 -0.2039  0.1315 -0.5969
  537TMC3     H 8027   3.157   0.947  16.529  1.2338 -0.4232 -1.1856
  537TMC3    H1 8028   2.916   0.598  16.533  1.8062 -1.9562 -0.1379
  537TMC3    H2 8029   3.231   0.643  16.818 -2.3301 -0.8384  0.7856
  537TMC3    C7 8030   3.023   0.497  16.754  0.2424 -0.2023 -0.1310
  537TMC3    C8 8031   3.313   0.870  16.731  0.0928 -0.1177 -0.2266
  537TMC3    O1 8032   2.900   0.498  16.743 -0.7329 -0.8093  0.1188
  537TMC3    O2 8033   3.382   0.815  16.813  0.2745  0.3910  0.0296
  538TMC3    C1 8034   0.119   4.425  11.060  0.2798 -0.1520  0.1842
  538TMC3    C2 8035   0.216   4.419  10.971  0.4653 -0.0269  0.2193
  538TMC3    C3 8036   0.193   4.485  10.855  1.0006 -0.0109  0.4687
  538TMC3    C4 8037   0.010   4.510  11.035 -0.5438 -0.3659 -0.1259
  538TMC3    C5 8038   4.729   4.576  10.914 -0.2867 -0.2791  0.3411
  538TMC3    C6 8039   0.089   4.576  10.819  0.5419 -0.6451 -0.4377
  538TMC3     C 8040   0.079   4.295  11.105 -0.2729 -0.2536 -0.2353
  538TMC3     O 8041   0.160   4.204  11.130 -0.0712 -0.1812  0.2855
  538TMC3     H 8042   0.291   4.340  10.971  0.6696  0.1651 -0.4757
  538TMC3    H1 8043   4.667   4.513  11.107 -1.8535 -0.1239 -1.6181
  538TMC3    H2 8044   0.070   4.617  10.721 -1.6222  1.1073  0.7026
  538TMC3    C7 8045   4.591   4.623  10.891 -0.1527 -0.0897 -0.3598
  538TMC3    C8 8046   0.251   4.423  10.733 -1.1377  0.6699  0.2308
  538TMC3    O1 8047   4.502   4.553  10.940 -0.4539 -0.0942  0.1951
  538TMC3    O2 8048   0.288   4.305  10.736 -0.2118 -0.3256 -0.1489
  539MPD2     C 8049   4.039   3.607  11.945 -1.1579  0.6786 -0.1676
  539MPD2    C1 8050   4.150   3.631  11.867  0.0309 -0.9548 -0.6747
  539MPD2    C2 8051   4.167   3.760  11.818  0.0764 -0.1523 -0.3274
  539MPD2    C3 8052   4.077   3.860  11.847 -0.5196  0.1457  1.0872
  539MPD2    C4 8053   3.973   3.835  11.934 -0.6147  0.1481 -0.0723
  539MPD2    C5 8054   3.958   3.708  11.977 -0.7529 -0.9094 -0.1100
  539MPD2     H 8055   4.257   3.777  11.759 -0.2724  0.9038 -0.5659
  539MPD2    H1 8056   3.901   3.913  11.959  0.1649  1.0176 -0.5400
  539MPD2    H2 8057   4.020   3.513  11.995  1.4320  0.1524 -0.1345
  539MPD2    H3 8058   3.867   3.690  12.033 -1.1818  0.7226 -0.2760
  539MPD2     N 8059   4.084   3.991  11.793  0.7404 -0.1280  0.0179
  539MPD2    H5 8060   4.010   4.054  11.820  1.3124  1.4683 -2.1065
  539MPD2    N1 8061   4.240   3.523  11.850  0.6393 -0.1821  0.3748
  539MPD2    H7 8062   4.215   3.436  11.897 -1.1934 -0.2534 -0.7375
  540TMC3    C1 8063   4.134   4.185  11.675  0.9630  0.8276 -0.6464
  540TMC3    C2 8064   4.105   4.237  11.547  0.8360 -0.1285 -0.3218
  540TMC3    C3 8065   4.067   4.368  11.534 -0.3540  0.0288 -0.0133
  540TMC3    C4 8066   4.100   4.263  11.787  0.7090 -0.2052  0.0863
  540TMC3    C5 8067   4.056   4.391  11.767 -0.6151  0.5959 -0.1687
  540TMC3    C6 8068   4.040   4.450  11.645  0.1409  0.3289  0.4749
  540TMC3     C 8069   4.171   4.045  11.701  0.7828  0.7972 -1.0919
  540TMC3     O 8070   4.265   3.998  11.639  0.0901  0.6009 -0.4835
  540TMC3     H 8071   4.134   4.173  11.464  1.6837  0.1861 -0.2721
  540TMC3    H1 8072   4.108   4.220  11.886  1.8378 -0.8802 -0.2946
  540TMC3    H2 8073   4.007   4.552  11.640 -0.1891  0.1721 -0.4289
  540TMC3    C7 8074   3.962   4.424  11.870 -0.3219  1.1116 -0.0981
  540TMC3    C8 8075   4.069   4.427  11.404 -0.0888  0.5062 -0.3009
  540TMC3    O1 8076   3.929   4.332  11.939 -0.0517 -0.2527 -0.5473
  540TMC3    O2 8077   4.112   4.537  11.386  0.3666 -0.0553  0.2460
  541MPD2     C 8078   2.096   0.082  13.338 -0.2260  0.9421 -0.1265
  541MPD2    C1 8079   2.189   4.737  13.275 -0.1105 -0.4186  0.4004
  541MPD2    C2 8080   2.246   0.043  13.152 -0.4581  0.2052 -0.3228
  541MPD2    C3 8081   2.196   0.162  13.095 -0.2721  0.8056  0.3827
  541MPD2    C4 8082   2.087   0.228  13.154  0.3858  0.5338 -0.6083
  541MPD2    C5 8083   2.042   0.192  13.276 -0.3351  0.2222  0.2187
  541MPD2     H 8084   2.313   4.714  13.099  0.1456 -0.6856  1.5695
  541MPD2    H1 8085   2.032   0.310  13.109  1.5879  2.4699  1.4380
  541MPD2    H2 8086   2.055   0.064  13.437  2.0003 -1.9442  0.2914
  541MPD2    H3 8087   1.959   0.243  13.323 -0.7110 -0.0517 -0.1430
  541MPD2     N 8088   2.219   0.208  12.963  0.3340 -0.2632 -0.7217
  541MPD2    H5 8089   2.155   0.275  12.922  0.1956 -0.3954 -0.7221
  541MPD2    N1 8090   2.238   4.611  13.328 -0.0839  0.2601 -0.4827
  541MPD2    H7 8091   2.318   4.572  13.279  0.0252 -1.3579  1.0079
  542TMC3    C1 8092   2.311   0.170  12.753  0.3282  0.0655 -0.0211
  542TMC3    C2 8093   2.414   0.226  12.688  0.2338  0.3880  0.3112
  542TMC3    C3 8094   2.404   0.251  12.557 -1.2826  0.2009 -0.0239
  542TMC3    C4 8095   2.194   0.132  12.691 -0.4581  0.1409  0.1786
  542TMC3    C5 8096   2.187   0.167  12.556 -0.7929 -0.0133  0.2324
  542TMC3    C6 8097   2.291   0.219  12.487 -0.1648  0.1067 -0.1626
  542TMC3     C 8098   2.327   0.162  12.896  0.5639  0.2682 -0.9377
  542TMC3     O 8099   2.432   0.111  12.934  0.5586  0.5264  0.3042
  542TMC3     H 8100   2.498   0.263  12.746  0.2222 -1.8442  1.7398
  542TMC3    H1 8101   2.108   0.092  12.743 -1.3522  0.9231 -0.6804
  542TMC3    H2 8102   2.290   0.223  12.378 -1.9656  0.1863 -0.1517
  542TMC3    C7 8103   2.056   0.155  12.484 -0.6222  0.6962 -0.3001
  542TMC3    C8 8104   2.516   0.310  12.482  0.3752 -0.6986  0.1147
  542TMC3    O1 8105   2.054   0.123  12.364  0.4489 -0.1790 -0.1065
  542TMC3    O2 8106   2.482   0.381  12.390 -0.1939  0.3398 -0.2161
  543TMC3    C1 8107   2.107   1.078  17.387 -0.0170  0.0111  1.2763
  543TMC3    C2 8108   2.163   0.960  17.409  0.0128  0.4840 -0.5158
  543TMC3    C3 8109   2.122   0.884  17.511  0.6594  0.0771 -1.1306
  543TMC3    C4 8110   1.998   1.122  17.459 -0.1559  0.4545 -0.6099
  543TMC3    C5 8111   1.961   1.041  17.561  0.5013  0.5757  0.7022
  543TMC3    C6 8112   2.016   0.919  17.595 -0.3424 -0.2834 -0.2582
  543TMC3     C 8113   2.163   1.168  17.285 -0.5551  0.3428 -0.4299
  543TMC3     O 8114   2.251   1.123  17.210  0.3919 -0.4213 -0.1433
  543TMC3     H 8115   2.257   0.937  17.361 -0.5305 -0.1538 -1.2659
  543TMC3    H1 8116   1.925   1.191  17.418 -1.7475 -1.4908 -1.0325
  543TMC3    H2 8117   1.965   0.854  17.666 -1.7885 -1.4053 -2.3345
  543TMC3    C7 8118   1.828   1.062  17.621  0.2713  0.0766  0.1621
  543TMC3    C8 8119   2.190   0.752  17.522  0.1118 -0.2958 -0.2245
  543TMC3    O1 8120   1.763   0.974  17.677  0.5804 -0.1560 -0.4070
  543TMC3    O2 8121   2.266   0.719  17.435 -0.0309 -0.0891  0.2413
  544MPD2     C 8122   2.316   0.309  17.739  0.1196  0.5413  0.4702
  544MPD2    C1 8123   2.309   0.340  17.603  0.3889 -0.6534  0.0873
  544MPD2    C2 8124   2.261   0.467  17.569 -0.3587 -0.6154  0.3851
  544MPD2    C3 8125   2.201   0.551  17.663  0.2577 -0.4948 -1.2562
  544MPD2    C4 8126   2.184   0.509   0.040 -0.2633  0.2748 -0.0131
  544MPD2    C5 8127   2.253   0.397   0.078 -0.3218 -1.5879  0.2190
  544MPD2     H 8128   2.254   0.505  17.467 -0.6479 -0.0387  0.6211
  544MPD2    H1 8129   2.132   0.554   0.124  2.2514  0.5332  1.4208
  544MPD2    H2 8130   2.359   0.220   0.036 -1.2620 -0.9645 -1.1510
  544MPD2    H3 8131   2.253   0.377   0.185 -0.3008 -0.8400  0.3580
  544MPD2     N 8132   2.161   0.681  17.638 -0.4138  0.1030  0.0673
  544MPD2    H5 8133   2.112   0.726  17.715 -2.3736 -0.2858 -0.9664
  544MPD2    N1 8134   2.353   0.243  17.515  0.3236  0.2002 -0.2207
  544MPD2    H7 8135   2.374   0.154  17.558  1.2265  0.0436 -1.0122
  545TMC3    C1 8136   2.414   0.155  17.303 -0.7512  0.1238 -0.1399
  545TMC3    C2 8137   2.359   0.106  17.183 -0.5435  0.0122 -0.2679
  545TMC3    C3 8138   2.401   4.727  17.122  0.5091 -1.5660 -0.9367
  545TMC3    C4 8139   2.502   0.077  17.364  0.0081 -0.1425  0.0360
  545TMC3    C5 8140   2.545   4.699  17.302  0.8343 -0.1869  0.3484
  545TMC3    C6 8141   2.488   4.647  17.190 -0.2905  0.5179 -0.5655
  545TMC3     C 8142   2.341   0.255  17.378 -0.0532 -0.2098  0.0096
  545TMC3     O 8143   2.270   0.328  17.310  0.3420 -0.2351  0.1067
  545TMC3     H 8144   2.266   0.154  17.152 -0.6630 -0.4106 -0.5583
  545TMC3    H1 8145   2.552   0.116  17.451  0.9357 -0.2499 -0.4504
  545TMC3    H2 8146   2.527   4.552  17.157  1.9109  1.8422 -1.7121
  545TMC3    C7 8147   2.651   4.631  17.360 -0.8852  0.5710  0.9726
  545TMC3    C8 8148   2.313   4.683  17.011  0.2361  0.6835 -0.3936
  545TMC3    O1 8149   2.703   4.551  17.280  0.2689 -0.3729  0.5250
  545TMC3    O2 8150   2.243   0.037  16.969  0.3997  0.2482 -0.7057
  546MPD2     C 8151   3.497   1.627  17.613 -0.1761  0.4679  0.1753
  546MPD2    C1 8152   3.519   1.608  17.480 -1.0001 -0.0841 -0.7146
  546MPD2    C2 8153   3.564   1.713  17.403  0.4140  0.4220 -0.3257
  546MPD2    C3 8154   3.600   1.837  17.466  0.0211  0.0959 -0.3595
  546MPD2    C4 8155   3.581   1.849  17.597 -0.2097  0.0713  0.5195
  546MPD2    C5 8156   3.537   1.740  17.672  0.0098  0.0742  1.1224
  546MPD2     H 8157   3.563   1.701  17.295  0.5271  1.4853 -0.4460
  546MPD2    H1 8158   3.607   1.940  17.649  1.3768 -1.0687  1.6948
  546MPD2    H2 8159   3.463   1.548  17.679 -0.6447 -1.4469 -2.3595
  546MPD2    H3 8160   3.520   1.757   0.029 -0.0418 -0.2267  1.1629
  546MPD2     N 8161   3.657   1.949  17.405  0.2320  0.5281  0.6770
  546MPD2    H5 8162   3.676   2.029  17.464  2.1300  1.3117 -0.9926
  546MPD2    N1 8163   3.481   1.479  17.432  0.2934 -0.9256 -0.3792
  546MPD2    H7 8164   3.439   1.416  17.500 -0.2254 -2.9808 -2.5603
  547TMC3    C1 8165   3.380   1.316  17.294  0.4185  0.4518  0.5677
  547TMC3    C2 8166   3.347   1.268  17.169 -0.2036  0.1745 -0.2447
  547TMC3    C3 8167   3.266   1.157  17.166 -0.0306 -1.1233  0.4953
  547TMC3    C4 8168   3.334   1.262  17.412 -0.4094  0.0691  0.6190
  547TMC3    C5 8169   3.254   1.151  17.405  0.5903  0.2450 -0.0525
  547TMC3    C6 8170   3.227   1.099  17.282 -0.0313  0.2733  0.0502
  547TMC3     C 8171   3.472   1.436  17.303  0.3084  0.4374  0.1634
  547TMC3     O 8172   3.516   1.486  17.202  0.3236 -0.1943 -0.1804
  547TMC3     H 8173   3.372   1.314  17.074  0.7285 -1.2907 -0.7038
  547TMC3    H1 8174   3.347   1.301  17.513 -0.8527  1.2320  0.2243
  547TMC3    H2 8175   3.152   1.021  17.279 -0.2701  0.5436 -1.0231
  547TMC3    C7 8176   3.186   1.105  17.522  0.8533 -0.0404 -0.5842
  547TMC3    C8 8177   3.170   1.146  17.056  0.2061 -0.4004  0.5586
  547TMC3    O1 8178   3.167   1.185  17.612 -0.4603  0.4652  0.4043
  547TMC3    O2 8179   3.155   1.245  16.985 -0.5118 -0.1306  0.2713
  548MPD2     C 8180   3.204   1.855  13.240 -0.0501 -0.5110 -0.7194
  548MPD2    C1 8181   3.155   1.766  13.143  0.1044  0.1375 -0.9119
  548MPD2    C2 8182   3.220   1.746  13.026  0.4892 -0.5834  0.4752
  548MPD2    C3 8183   3.338   1.809  13.000  0.4179 -0.6343  0.2267
  548MPD2    C4 8184   3.392   1.894  13.096  0.3531 -0.0910 -0.4218
  548MPD2    C5 8185   3.327   1.922  13.213 -0.7398  0.3887 -0.3829
  548MPD2     H 8186   3.174   1.700  12.939 -0.4358 -3.3503  2.4246
  548MPD2    H1 8187   3.485   1.945  13.074  0.7874  0.6506  3.1089
  548MPD2    H2 8188   3.157   1.880  13.334 -3.4592 -1.6267 -2.1551
  548MPD2    H3 8189   3.368   2.003  13.272 -0.2415  1.7054 -2.5369
  548MPD2     N 8190   3.397   1.788  12.873  0.5444  0.6558 -0.2554
  548MPD2    H5 8191   3.344   1.736  12.804  0.0297  1.7896 -0.7103
  548MPD2    N1 8192   3.032   1.709  13.169 -0.4020 -0.1586 -1.2831
  548MPD2    H7 8193   2.992   1.750  13.253 -2.0843  1.3623 -2.8304
  549TMC3    C1 8194   2.856   1.572  13.166 -0.3981 -0.2631  0.6785
  549TMC3    C2 8195   2.762   1.672  13.150 -0.0808 -0.8001  0.1191
  549TMC3    C3 8196   2.635   1.639  13.122 -0.4673 -0.0848 -0.6746
  549TMC3    C4 8197   2.824   1.439  13.141  0.3249 -0.3249 -0.0901
  549TMC3    C5 8198   2.688   1.418  13.116 -0.3154  0.1083 -0.2110
  549TMC3    C6 8199   2.592   1.513  13.115 -0.0951  0.1525  0.4268
  549TMC3     C 8200   2.972   1.605  13.101  0.4959  0.1477 -0.2401
  549TMC3     O 8201   3.011   1.526  13.013 -0.1194  0.0078 -0.3468
  549TMC3     H 8202   2.791   1.776  13.152  0.4509 -0.9964  2.0442
  549TMC3    H1 8203   2.899   1.360  13.140  0.3253 -0.3553  1.5415
  549TMC3    H2 8204   2.487   1.496  13.094 -0.4235  0.9109  1.4776
  549TMC3    C7 8205   2.640   1.275  13.132  0.2172  0.1442 -0.1581
  549TMC3    C8 8206   2.540   1.751  13.082 -0.0730 -0.6372 -0.1162
  549TMC3    O1 8207   2.524   1.260  13.146  0.4472  0.3272  0.2040
  549TMC3    O2 8208   2.437   1.715  13.026  0.1147  0.1145 -0.5111
  550TMC3    C1 8209   1.710   4.521  12.447  0.8720  0.4513 -0.2944
  550TMC3    C2 8210   1.590   4.534  12.521 -0.5337  1.0323  0.5748
  550TMC3    C3 8211   1.475   4.560  12.456  0.5142 -0.2427  0.4813
  550TMC3    C4 8212   1.705   4.514  12.308  0.2905  0.0575 -0.1943
  550TMC3    C5 8213   1.584   4.539  12.246 -0.4329  0.0416 -1.4293
  550TMC3    C6 8214   1.471   4.570  12.321 -0.0879 -0.6824  0.1485
  550TMC3     C 8215   1.828   4.482  12.523 -0.0847 -0.9588  0.6005
  550TMC3     O 8216   1.811   4.444  12.637  0.0284 -0.1648  0.0166
  550TMC3     H 8217   1.589   4.536  12.630  1.9919 -1.4554  0.6377
  550TMC3    H1 8218   1.794   4.496  12.248  0.9800  2.5861  0.0593
  550TMC3    H2 8219   1.378   4.598  12.274 -1.0247 -1.0562  1.7483
  550TMC3    C7 8220   1.587   4.606  12.117 -0.5228 -0.1866  0.1511
  550TMC3    C8 8221   1.368   4.621  12.533 -0.3837  0.0823 -0.3196
  550TMC3    O1 8222   1.475   4.618  12.061 -0.3624 -0.5396  0.0302
  550TMC3    O2 8223   1.282   4.684  12.473  0.0507  0.0279  0.4231
  551TMC3    C1 8224   3.904   2.413  13.517 -0.5030  0.6366  0.5849
  551TMC3    C2 8225   3.992   2.320  13.475  0.1857  0.1694  0.2513
  551TMC3    C3 8226   4.088   2.291  13.566 -0.0134 -0.0192 -0.2025
  551TMC3    C4 8227   3.901   2.471  13.641 -1.1853 -0.5122 -0.3753
  551TMC3    C5 8228   3.993   2.423  13.733 -0.3248 -0.8629 -0.1027
  551TMC3    C6 8229   4.094   2.341  13.697  0.0522  0.1246 -0.3612
  551TMC3     C 8230   3.809   2.452  13.424 -0.1541 -0.2228  0.3090
  551TMC3     O 8231   3.776   2.375  13.338  0.8903 -0.3413 -0.1448
  551TMC3     H 8232   3.991   2.280  13.374  0.3932  1.0190 -0.0843
  551TMC3    H1 8233   3.823   2.538  13.673  0.5225  2.1076 -1.7357
  551TMC3    H2 8234   4.179   2.315  13.759 -0.1161  0.2159 -0.0950
  551TMC3    C7 8235   3.996   2.492  13.864  0.0121 -0.9168  0.1868
  551TMC3    C8 8236   4.212   2.244  13.514 -0.0566 -0.0808  0.0954
  551TMC3    O1 8237   4.061   2.440  13.954  0.0179 -0.1563 -0.1475
  551TMC3    O2 8238   4.239   2.124  13.502  0.3887 -0.6581 -0.2456
  552MPD2     C 8239   1.527   4.378  14.004 -0.1148  0.2292 -0.0125
  552MPD2    C1 8240   1.447   4.301  14.089  1.2617  0.0517 -0.7236
  552MPD2    C2 8241   1.487   4.252  14.205  0.1298 -0.6673 -0.0987
  552MPD2    C3 8242   1.602   4.302  14.260  0.9073 -0.1262  0.1411
  552MPD2    C4 8243   1.681   4.393  14.184 -0.2454 -0.1319  0.1869
  552MPD2    C5 8244   1.650   4.420  14.052  0.5329 -0.2138  0.1961
  552MPD2     H 8245   1.425   4.191  14.270  0.3267  0.1772  0.8896
  552MPD2    H1 8246   1.777   4.425  14.222  0.9254 -3.1732 -0.1847
  552MPD2    H2 8247   1.502   4.390  13.899  1.0268  2.8883  0.0250
  552MPD2    H3 8248   1.706   4.493  13.994 -0.6871  0.3755 -0.2301
  552MPD2     N 8249   1.656   4.275  14.389 -0.1476 -0.1487  0.0237
  552MPD2    H5 8250   1.737   4.331  14.413  0.2068  0.4962 -2.7232
  552MPD2    N1 8251   1.318   4.265  14.052 -0.3687  0.4459  0.7252
  552MPD2    H7 8252   1.277   4.181  14.091  0.4777 -0.8009 -1.0250
  553TMC3    C1 8253   1.114   4.254  13.939  0.1371  0.3540  0.3320
  553TMC3    C2 8254   1.071   4.255  13.809  0.3832 -1.0915  0.5402
  553TMC3    C3 8255   1.011   4.139  13.761  1.3292 -0.9167 -0.4174
  553TMC3    C4 8256   1.087   4.152  14.025  0.0546 -0.0736  0.3571
  553TMC3    C5 8257   1.029   4.040  13.977  0.6458 -0.2881 -0.2087
  553TMC3    C6 8258   0.979   4.034  13.849 -0.1238  0.4644 -0.3412
  553TMC3     C 8259   1.237   4.329  13.958  0.8987 -0.7723 -0.7421
  553TMC3     O 8260   1.245   4.440  13.898  0.2777  0.7745  0.2801
  553TMC3     H 8261   1.099   4.342  13.751 -1.3659 -1.5187 -0.9590
  553TMC3    H1 8262   1.104   4.158  14.131 -1.3571  1.9793  0.4526
  553TMC3    H2 8263   0.942   3.943  13.803 -0.8318 -0.4113  1.9346
  553TMC3    C7 8264   1.027   3.917  14.072 -0.2801 -0.5969 -0.2098
  553TMC3    C8 8265   1.053   4.096  13.633 -0.5871 -0.0388 -0.0220
  553TMC3    O1 8266   0.914   3.872  14.083 -0.1853 -0.0921  0.0679
  553TMC3    O2 8267   1.154   4.148  13.587 -0.1605 -0.5255  0.3781
  554TMC3    C1 8268   3.426   3.890  11.828  0.3162  0.4056 -0.4971
  554TMC3    C2 8269   3.338   3.869  11.724  0.1976  0.0902  0.6519
  554TMC3    C3 8270   3.316   3.974  11.639  0.9752 -0.0648  0.1385
  554TMC3    C4 8271   3.479   4.013  11.848  0.6044 -0.7023  0.7936
  554TMC3    C5 8272   3.450   4.110  11.753  0.5684  0.0909 -0.0273
  554TMC3    C6 8273   3.365   4.097  11.645  0.1674 -0.0779  0.4506
  554TMC3     C 8274   3.496   3.774  11.886 -0.3561 -0.0889  0.0908
  554TMC3     O 8275   3.611   3.793  11.921 -0.2450  0.6632  0.3226
  554TMC3     H 8276   3.317   3.770  11.686 -0.2122 -0.2118  1.6752
  554TMC3    H1 8277   3.562   4.024  11.917  0.8338  0.6918  0.3165
  554TMC3    H2 8278   3.331   4.172  11.575 -2.6423 -1.1383  0.6782
  554TMC3    C7 8279   3.538   4.227  11.744 -0.0969 -0.5629  0.4830
  554TMC3    C8 8280   3.240   3.941  11.518  0.5043  0.1833 -0.2061
  554TMC3    O1 8281   3.611   4.255  11.843 -0.5710 -0.4090 -0.0252
  554TMC3    O2 8282   3.293   3.983  11.414 -0.5864 -0.3179  0.2378
  555TMC3    C1 8283   2.363   3.397  15.458  0.4638 -0.3892 -0.5778
  555TMC3    C2 8284   2.462   3.430  15.545 -0.3737  0.0821  0.7185
  555TMC3    C3 8285   2.521   3.328  15.614 -0.1807 -0.1853  0.6898
  555TMC3    C4 8286   2.338   3.264  15.431  0.4165 -0.8038  0.1216
  555TMC3    C5 8287   2.401   3.171  15.504  0.0563 -0.8763 -0.4504
  555TMC3    C6 8288   2.495   3.194  15.595  0.2854 -0.0171 -0.7245
  555TMC3     C 8289   2.322   3.504  15.369  0.6139 -0.4069  0.5510
  555TMC3     O 8290   2.390   3.609  15.374 -0.3063 -0.6664 -0.1044
  555TMC3     H 8291   2.485   3.531  15.576  0.1855  0.6459 -1.5654
  555TMC3    H1 8292   2.269   3.235  15.352  0.8323  0.4163 -0.6864
  555TMC3    H2 8293   2.538   3.113  15.653 -0.6889  0.8042  1.1317
  555TMC3    C7 8294   2.391   3.034  15.464 -0.6530  0.1764  0.4566
  555TMC3    C8 8295   2.607   3.373  15.723 -0.7042  0.2896  0.6913
  555TMC3    O1 8296   2.398   2.940  15.547  0.4338 -0.5651 -0.4093
  555TMC3    O2 8297   2.696   3.449  15.686 -0.6991 -0.5434 -0.2567
  556MPD2     C 8298   4.594   0.725  10.534 -0.2849  0.0093  0.1351
  556MPD2    C1 8299   4.647   0.608  10.583  0.2401  0.3163  0.8696
  556MPD2    C2 8300   4.671   0.499  10.498 -0.6087 -0.5679 -0.5499
  556MPD2    C3 8301   4.635   0.510  10.363  0.5945 -0.2928  1.2096
  556MPD2    C4 8302   4.574   0.626  10.315  0.3654 -0.1784 -0.4231
  556MPD2    C5 8303   4.548   0.731  10.403 -0.1420  0.5663 -0.5863
  556MPD2     H 8304   4.708   0.405  10.537 -0.2625  0.7718  2.3963
  556MPD2    H1 8305   4.546   0.641  10.212  0.4445  0.2559 -0.3821
  556MPD2    H2 8306   4.593   0.815  10.595  0.4328 -2.5917  4.0189
  556MPD2    H3 8307   4.504   0.819  10.359 -0.7563  1.4865  1.8489
  556MPD2     N 8308   4.667   0.399  10.284 -0.1041  0.4682 -0.1333
  556MPD2    H5 8309   4.706   0.320  10.333 -0.0749  0.6107  0.0721
  556MPD2    N1 8310   4.696   0.606  10.722 -0.2769 -0.2060  0.3654
  556MPD2    H7 8311   4.674   0.685  10.781 -0.6119 -1.6898  2.2180
  557TMC3    C1 8312   4.707   0.279  10.085 -0.1244 -0.2823  0.6859
  557TMC3    C2 8313   4.679   0.246   9.955 -0.3957  0.5118 -0.6692
  557TMC3    C3 8314   4.734   0.139   9.907 -0.1112  0.0906  0.2518
  557TMC3    C4 8315   0.067   0.215  10.149  0.3500  0.2640  0.8225
  557TMC3    C5 8316   0.117   0.104  10.098  0.3920  0.6460  0.5686
  557TMC3    C6 8317   0.075   0.055   9.979 -0.1005  0.3577 -0.4421
  557TMC3     C 8318   4.646   0.395  10.150  0.2842  0.5474  0.3133
  557TMC3     O 8319   4.588   0.466  10.072 -0.1602  0.3098 -0.1181
  557TMC3     H 8320   4.608   0.307   9.900  0.8229  0.0630 -2.7561
  557TMC3    H1 8321   0.097   0.235  10.251 -0.0975 -0.0962  1.0237
  557TMC3    H2 8322   0.111   4.698   9.940  0.5990 -0.0371  1.1513
  557TMC3    C7 8323   0.195   0.028  10.191 -0.1727 -0.4549  0.5975
  557TMC3    C8 8324   4.691   0.097   9.772 -0.2797  0.6097  0.4703
  557TMC3    O1 8325   0.278   0.085  10.258 -0.1693 -0.3648 -0.2724
  557TMC3    O2 8326   4.654   0.188   9.696  0.1594 -0.7277 -0.2086
  558TMC3    C1 8327   3.110   3.079  10.510  0.5320  0.1605  0.0541
  558TMC3    C2 8328   3.011   3.003  10.560  0.8218  0.1412 -0.0133
  558TMC3    C3 8329   2.880   3.025  10.523  0.4577  0.4869 -0.4715
  558TMC3    C4 8330   3.088   3.187  10.425 -0.6077 -0.2795 -0.0161
  558TMC3    C5 8331   2.957   3.216  10.404  0.3360 -0.6066  0.4953
  558TMC3    C6 8332   2.853   3.136  10.442 -0.9543 -0.0520  0.3961
  558TMC3     C 8333   3.215   3.094  10.604  0.2283  0.2451 -0.2711
  558TMC3     O 8334   3.303   3.172  10.567 -0.2097  0.9626  0.3818
  558TMC3     H 8335   3.037   2.916  10.620 -0.2551 -0.1643  0.0070
  558TMC3    H1 8336   3.162   3.252  10.381 -2.0854  1.7896  0.5416
  558TMC3    H2 8337   2.752   3.176  10.438 -1.1568 -0.8016 -2.3342
  558TMC3    C7 8338   2.931   3.297  10.290  0.2646 -0.4880 -0.7653
  558TMC3    C8 8339   2.794   2.981  10.634  0.3034 -0.2051  0.6036
  558TMC3    O1 8340   3.013   3.385  10.267  0.1522  0.5303  0.2203
  558TMC3    O2 8341   2.852   2.947  10.738 -0.0430  0.4731 -0.3073
  559MPD2     C 8342   2.981   3.466  10.607  0.0600  0.4404 -0.1676
  559MPD2    C1 8343   2.915   3.412  10.713 -0.6824  0.6209  0.4358
  559MPD2    C2 8344   2.989   3.375  10.827  0.4508  0.2616  0.6171
  559MPD2    C3 8345   3.125   3.407  10.831  0.2791 -0.5500 -0.4104
  559MPD2    C4 8346   3.191   3.460  10.717  0.4849 -0.2061 -0.9385
  559MPD2    C5 8347   3.120   3.490  10.601 -0.2031 -0.4501 -0.3939
  559MPD2     H 8348   2.945   3.329  10.915  1.4331 -0.7747  0.5616
  559MPD2    H1 8349   3.299   3.468  10.725  0.2168  0.5681  1.6915
  559MPD2    H2 8350   2.930   3.473  10.512 -1.2290 -0.0231  0.4907
  559MPD2    H3 8351   3.167   3.535  10.514 -0.6765  0.5607 -0.1261
  559MPD2     N 8352   3.190   3.377  10.955  0.0783  0.7332 -0.3926
  559MPD2    H5 8353   3.136   3.341  11.033  0.8845  1.5125  0.5261
  559MPD2    N1 8354   2.772   3.390  10.701 -0.0822 -0.8448 -0.0590
  559MPD2    H7 8355   2.717   3.422  10.622 -1.8495  0.1057  1.5666
  560TMC3    C1 8356   3.325   3.420  11.134 -0.5898 -0.3657  0.0419
  560TMC3    C2 8357   3.251   3.333  11.209  0.0129  0.8951  0.4504
  560TMC3    C3 8358   3.259   3.336  11.346  0.2655 -0.3329  0.5566
  560TMC3    C4 8359   3.393   3.522  11.188 -0.0281 -0.0883  0.1131
  560TMC3    C5 8360   3.388   3.530  11.324  0.2927 -0.7707  0.1914
  560TMC3    C6 8361   3.320   3.444  11.404  0.0094 -0.4101  0.5095
  560TMC3     C 8362   3.313   3.423  10.990  0.2791  0.3413  0.0790
  560TMC3     O 8363   3.396   3.496  10.938  0.2063 -0.3924  0.4409
  560TMC3     H 8364   3.211   3.246  11.158  3.0561 -1.5326  2.1657
  560TMC3    H1 8365   3.459   3.585  11.129 -3.5833  2.5742 -1.0296
  560TMC3    H2 8366   3.345   3.450  11.509  2.2272  1.9769 -0.1529
  560TMC3    C7 8367   3.466   3.629  11.398 -0.0453  0.0703 -0.2973
  560TMC3    C8 8368   3.271   3.209  11.405 -0.3033  0.8301  0.6282
  560TMC3    O1 8369   3.441   3.640  11.519 -0.0513  0.4589  0.4286
  560TMC3    O2 8370   3.373   3.191  11.463 -0.1802 -0.3877  0.2290
  561TMC3    C1 8371   0.928   2.259  11.157  0.4594  0.2348 -0.3248
  561TMC3    C2 8372   0.816   2.205  11.213 -0.2046 -0.4329  0.3967
  561TMC3    C3 8373   0.758   2.270  11.323 -0.0336  0.3307 -0.3662
  561TMC3    C4 8374   0.975   2.380  11.189 -0.3095 -0.1945  0.6758
  561TMC3    C5 8375   0.905   2.440  11.288 -0.2700  0.0631 -0.9080
  561TMC3    C6 8376   0.799   2.394  11.364 -0.0046 -0.1697  0.3914
  561TMC3     C 8377   1.003   2.176  11.069 -0.4602  0.2704  0.1718
  561TMC3     O 8378   0.978   2.054  11.061 -0.0789  0.2990 -0.1818
  561TMC3     H 8379   0.778   2.107  11.189  0.6673  0.0381 -2.8947
  561TMC3    H1 8380   1.071   2.422  11.159 -0.2456  0.3948  1.6719
  561TMC3    H2 8381   0.745   2.464  11.427 -1.7576 -2.8325  1.8333
  561TMC3    C7 8382   0.964   2.562  11.339 -0.7642  0.1991 -0.2560
  561TMC3    C8 8383   0.627   2.232  11.365  0.4380 -0.3908  0.1097
  561TMC3    O1 8384   0.964   2.579  11.461  0.1576 -0.5130  0.2771
  561TMC3    O2 8385   0.560   2.159  11.285 -0.3713 -0.9231 -0.3812
  562TMC3    C1 8386   1.725   3.332  16.694 -0.0873 -0.0006  0.1980
  562TMC3    C2 8387   1.731   3.456  16.646 -0.6963  0.8380 -0.2240
  562TMC3    C3 8388   1.743   3.476  16.514 -0.5793  0.5177 -0.3548
  562TMC3    C4 8389   1.753   3.228  16.610 -0.4324 -0.1749 -0.0985
  562TMC3    C5 8390   1.767   3.247  16.476 -0.2731 -0.5189 -0.2821
  562TMC3    C6 8391   1.754   3.373  16.428  0.0193 -1.0871  0.3213
  562TMC3     C 8392   1.704   3.310  16.841  0.5336 -0.9619 -1.2351
  562TMC3     O 8393   1.648   3.405  16.901  0.2093 -0.2173 -0.1322
  562TMC3     H 8394   1.717   3.547  16.703 -0.9010  1.3911 -1.1512
  562TMC3    H1 8395   1.737   3.126  16.644 -0.7192 -0.0475  0.1484
  562TMC3    H2 8396   1.752   3.401  16.323 -1.2991 -1.5627  0.2237
  562TMC3    C7 8397   1.763   3.142  16.384 -0.4094 -0.5520 -0.2256
  562TMC3    C8 8398   1.785   3.607  16.472 -0.0111  0.2187 -0.6257
  562TMC3    O1 8399   1.728   3.172  16.272 -0.0639 -0.0622  0.1099
  562TMC3    O2 8400   1.861   3.670  16.549  0.5963  0.8274 -0.7407
  563MPD2     C 8401   4.387   0.086  15.625 -0.1448  0.6775  0.3391
  563MPD2    C1 8402   4.435   0.080  15.749  0.2194 -0.0576 -0.5552
  563MPD2    C2 8403   4.533   4.733  15.794  0.7823  0.1277 -0.1249
  563MPD2    C3 8404   4.566   4.627  15.713  0.1918 -0.4836  0.2596
  563MPD2    C4 8405   4.498   4.609  15.593  0.2945  0.7171 -0.0356
  563MPD2    C5 8406   4.427   4.715  15.551 -0.0487 -0.0859  0.2494
  563MPD2     H 8407   4.591   0.012  15.884 -1.4223  3.6362  0.6145
  563MPD2    H1 8408   4.527   4.541  15.514 -0.2189 -0.8639  1.1319
  563MPD2    H2 8409   4.313   0.159  15.595 -0.9095 -0.3107 -0.1821
  563MPD2    H3 8410   4.379   4.714  15.453  0.9712  1.7103 -0.2720
  563MPD2     N 8411   4.671   4.536  15.755 -0.4004 -0.0003 -0.4225
  563MPD2    H5 8412   4.711   4.564  15.844  0.3462 -3.7600  0.4262
  563MPD2    N1 8413   4.373   0.166  15.848 -0.2911  0.5471 -0.1695
  563MPD2    H7 8414   4.284   0.208  15.825 -0.2428  1.0335  0.5264
  564TMC3    C1 8415   4.324   0.161  16.073  0.2411  0.0392 -0.0088
  564TMC3    C2 8416   4.190   0.131  16.040  0.4811 -0.0402 -0.0023
  564TMC3    C3 8417   4.111   0.080  16.142  0.1177  0.0618  0.4474
  564TMC3    C4 8418   4.388   0.131  16.188 -0.2613 -0.4925  0.2116
  564TMC3    C5 8419   4.305   0.086  16.286  0.1329  0.1316 -0.0255
  564TMC3    C6 8420   4.173   0.062  16.261 -0.0387  0.0714 -0.0560
  564TMC3     C 8421   4.423   0.187  15.971  0.6592 -0.7773  0.8798
  564TMC3     O 8422   4.538   0.213  16.003 -0.4615  0.1030 -0.3596
  564TMC3     H 8423   4.148   0.152  15.943  2.0737 -2.0089 -1.1101
  564TMC3    H1 8424   4.494   0.148  16.206  0.1240 -0.2257 -2.4186
  564TMC3    H2 8425   4.109   0.042  16.346 -3.5701  0.0821 -2.7326
  564TMC3    C7 8426   4.369   0.003  16.378  0.6177 -0.2745 -0.4886
  564TMC3    C8 8427   4.047   4.691  16.104  0.2324 -0.2025 -0.8161
  564TMC3    O1 8428   4.490   0.021  16.401 -0.0629  0.6157  0.6393
  564TMC3    O2 8429   4.065   4.596  16.177  0.0162  0.3710 -0.5659
  565TMC3    C1 8430   4.607   2.118   9.935 -0.0660 -0.5456 -0.4000
  565TMC3    C2 8431   4.645   2.050  10.048 -0.2319  0.3893  0.4874
  565TMC3    C3 8432   4.568   1.943  10.077  0.1864  0.4183  0.0620
  565TMC3    C4 8433   4.516   2.076   9.842  0.1211  0.3578 -0.8704
  565TMC3    C5 8434   4.445   1.966   9.876  0.4029 -0.6263  0.1281
  565TMC3    C6 8435   4.475   1.893   9.991 -0.3413  0.7303  0.5196
  565TMC3     C 8436   4.689   2.237   9.908 -0.0683  0.4695 -0.2510
  565TMC3     O 8437   4.629   2.333   9.866  0.2806  0.4468  0.8336
  565TMC3     H 8438   4.723   2.083  10.116 -0.2034 -1.3050  1.2666
  565TMC3    H1 8439   4.490   2.148   9.765 -1.2248  0.7725 -0.0187
  565TMC3    H2 8440   4.405   1.819  10.029 -1.1867  1.1712 -0.1693
  565TMC3    C7 8441   4.342   1.922   9.781  0.4148 -0.5157 -0.6719
  565TMC3    C8 8442   4.599   1.860  10.194  0.2269  0.4670 -0.3000
  565TMC3    O1 8443   4.335   1.982   9.673 -0.1829 -0.0430  0.2270
  565TMC3    O2 8444   4.714   1.870  10.230 -0.3993 -0.6895 -0.1700
  566MPD2     C 8445   1.674   3.233  13.919 -0.5085 -0.3796 -0.1908
  566MPD2    C1 8446   1.783   3.301  13.852  0.2506  0.4725 -0.0742
  566MPD2    C2 8447   1.783   3.311  13.715 -0.3930 -0.2620  0.0512
  566MPD2    C3 8448   1.678   3.259  13.643  0.2893  0.3851 -0.2845
  566MPD2    C4 8449   1.570   3.199  13.706 -0.1362  0.2623  0.2676
  566MPD2    C5 8450   1.568   3.181  13.842 -0.1828  0.5687  0.1159
  566MPD2     H 8451   1.869   3.354  13.666 -0.8562 -1.1729 -1.5591
  566MPD2    H1 8452   1.489   3.148  13.654  1.2097 -0.6868 -0.8817
  566MPD2    H2 8453   1.674   3.205  14.024  2.1435 -1.8385 -0.5821
  566MPD2    H3 8454   1.491   3.125  13.894  0.0778  0.5991  0.5339
  566MPD2     N 8455   1.687   3.258  13.501  0.1589  0.2498 -0.3880
  566MPD2    H5 8456   1.619   3.212  13.441 -0.2626 -0.2402  0.4655
  566MPD2    N1 8457   1.887   3.354  13.931  0.1736 -0.2051  0.1474
  566MPD2    H7 8458   1.898   3.321  14.027  1.0545 -0.7175 -0.1292
  567TMC3    C1 8459   2.099   3.459  13.950 -1.0627  0.0364  0.4118
  567TMC3    C2 8460   2.211   3.460  13.872  0.2975 -0.7809  0.3143
  567TMC3    C3 8461   2.331   3.453  13.936  0.1047 -0.8868  0.2855
  567TMC3    C4 8462   2.099   3.459  14.085  0.1387 -0.3593  0.2533
  567TMC3    C5 8463   2.224   3.458  14.141 -0.6229 -0.3355 -0.5525
  567TMC3    C6 8464   2.336   3.470  14.071  0.6527 -0.1479 -0.3658
  567TMC3     C 8465   1.976   3.447  13.886  0.1499  0.9634  0.6337
  567TMC3     O 8466   1.960   3.527  13.795  0.0031  0.2069  0.9941
  567TMC3     H 8467   2.200   3.448  13.765 -0.8971 -1.7968  0.5537
  567TMC3    H1 8468   2.006   3.467  14.141 -0.6396 -0.7168 -1.0157
  567TMC3    H2 8469   2.435   3.469  14.116  0.4960 -1.2220 -0.0326
  567TMC3    C7 8470   2.236   3.517  14.281  0.2646 -0.7451  0.0908
  567TMC3    C8 8471   2.450   3.478  13.853 -0.4280 -0.3233 -0.4635
  567TMC3    O1 8472   2.340   3.581  14.300 -0.6732 -0.0159  0.1278
  567TMC3    O2 8473   2.415   3.512  13.739  0.1669 -0.2818  0.1530
  568MPD2     C 8474   4.517   3.394  16.038 -0.2502 -0.2471 -0.3354
  568MPD2    C1 8475   4.476   3.458  16.153  0.3689  0.2446  0.1552
  568MPD2    C2 8476   4.361   3.533  16.154  0.3331  0.1816  0.2410
  568MPD2    C3 8477   4.295   3.549  16.034  0.0330 -0.5467  0.0020
  568MPD2    C4 8478   4.328   3.473  15.922  0.2457  0.6345 -0.3165
  568MPD2    C5 8479   4.445   3.401  15.924 -0.3966 -0.0962  0.0416
  568MPD2     H 8480   4.315   3.580  16.241  0.0309 -1.4490  0.9490
  568MPD2    H1 8481   4.275   3.484  15.828  1.5538 -0.5763 -1.1976
  568MPD2    H2 8482   4.609   3.336  16.037  1.1239  1.9805 -2.9725
  568MPD2    H3 8483   4.471   3.352  15.831 -0.5943 -0.9220  0.4276
  568MPD2     N 8484   4.181   3.632  16.036 -0.1688 -0.9400 -0.3141
  568MPD2    H5 8485   4.155   3.670  16.126  2.2042  0.1708 -0.0979
  568MPD2    N1 8486   4.563   3.438  16.267 -0.1214  0.4147  0.4904
  568MPD2    H7 8487   4.634   3.366  16.257  0.7777  1.7221 -2.2800
  569TMC3    C1 8488   3.997   3.752  15.961  0.2950  0.5826  0.2307
  569TMC3    C2 8489   3.970   3.765  16.096 -0.0213  0.7312  0.2146
  569TMC3    C3 8490   3.920   3.881  16.140 -0.3681  0.2310 -0.2462
  569TMC3    C4 8491   3.985   3.860  15.873 -0.0237 -0.0870 -0.0122
  569TMC3    C5 8492   3.955   3.979  15.932  0.4244 -0.0292  0.1226
  569TMC3    C6 8493   3.924   3.992  16.064 -0.0060 -0.6153 -0.4035
  569TMC3     C 8494   4.098   3.653  15.924  0.4506 -0.0186 -0.4346
  569TMC3     O 8495   4.108   3.633  15.799 -0.1928  0.5811  0.0996
  569TMC3     H 8496   3.973   3.673  16.154  1.1104  0.8328  0.3288
  569TMC3    H1 8497   4.002   3.856  15.766  1.9194  3.4182  0.1608
  569TMC3    H2 8498   3.871   4.078  16.104  0.4519 -1.3402  1.7411
  569TMC3    C7 8499   3.927   4.088  15.845 -0.3708 -0.3512  0.2774
  569TMC3    C8 8500   3.900   3.892  16.282  0.3286 -0.1132 -0.0004
  569TMC3    O1 8501   3.914   4.065  15.728 -0.2800 -0.2629 -0.4725
  569TMC3    O2 8502   3.849   3.795  16.333  0.1874  0.2020  0.7774
  570TMC3    C1 8503   3.502   2.248  16.290 -0.5586 -0.4559  0.1221
  570TMC3    C2 8504   3.572   2.263  16.172  0.4566 -0.4217  0.1817
  570TMC3    C3 8505   3.600   2.390  16.139  0.0534  0.5095  0.1507
  570TMC3    C4 8506   3.486   2.342  16.383  0.2552  0.1164  0.3938
  570TMC3    C5 8507   3.528   2.470  16.351  0.7174 -0.4818 -0.6963
  570TMC3    C6 8508   3.573   2.495  16.226  0.2203  0.0929  0.3624
  570TMC3     C 8509   3.445   2.116  16.310  0.0058 -0.7096 -1.0702
  570TMC3     O 8510   3.439   2.041  16.216 -0.1991 -0.5219 -0.5640
  570TMC3     H 8511   3.570   2.178  16.104 -1.1368 -0.9700  0.9202
  570TMC3    H1 8512   3.441   2.322  16.480  1.5447 -1.1255  0.7230
  570TMC3    H2 8513   3.607   2.595  16.202 -0.7724  0.6425  1.2431
  570TMC3    C7 8514   3.532   2.578  16.447  0.2318  0.4147 -0.1632
  570TMC3    C8 8515   3.647   2.416  16.008 -0.0751 -0.0766  0.6668
  570TMC3    O1 8516   3.517   2.547  16.565 -0.0129  0.3100  0.0268
  570TMC3    O2 8517   3.661   2.537  15.983 -0.3149 -0.2423 -0.5181
  571MPD2     C 8518   1.777   4.018   1.062 -0.2515 -0.5917 -0.3164
  571MPD2    C1 8519   1.650   4.026   1.005 -0.2148 -0.3928 -0.3700
  571MPD2    C2 8520   1.623   4.121   0.912  0.2649  0.6482 -0.1803
  571MPD2    C3 8521   1.727   4.204   0.869  1.4757  0.4519  0.3910
  571MPD2    C4 8522   1.849   4.202   0.934  0.0198  0.0403 -0.3144
  571MPD2    C5 8523   1.875   4.106   1.023  0.4319  0.3830 -0.2473
  571MPD2     H 8524   1.523   4.129   0.870  0.1128 -1.2372 -0.1616
  571MPD2    H1 8525   1.935   4.261   0.904 -2.0262  2.0124 -2.2786
  571MPD2    H2 8526   1.793   3.938   1.133 -2.4644 -1.4458 -0.7710
  571MPD2    H3 8527   1.972   4.093   1.069 -1.1195 -0.1653  2.8736
  571MPD2     N 8528   1.707   4.304   0.767  0.0237 -0.2966 -0.0689
  571MPD2    H5 8529   1.790   4.361   0.754  2.0846 -2.9048  1.3856
  571MPD2    N1 8530   1.553   3.942   1.068  0.4641  0.1076  0.1934
  571MPD2    H7 8531   1.576   3.907   1.160  1.3576  0.1963  0.0008
  572TMC3    C1 8532   1.607   4.438   0.602  0.1751 -0.1541 -0.4705
  572TMC3    C2 8533   1.484   4.486   0.568 -0.2053 -0.2760 -0.8466
  572TMC3    C3 8534   1.485   4.586   0.474  0.3709  0.7895 -0.0664
  572TMC3    C4 8535   1.728   4.500   0.568  0.0355 -0.3464 -0.6161
  572TMC3    C5 8536   1.721   4.609   0.486  0.3244  0.2250 -0.1431
  572TMC3    C6 8537   1.603   4.646   0.436 -0.2411 -0.3526 -0.2820
  572TMC3     C 8538   1.597   4.320   0.686 -0.5523  0.1571 -0.7804
  572TMC3     O 8539   1.492   4.257   0.681  0.3086  0.0524 -0.4710
  572TMC3     H 8540   1.394   4.427   0.582  0.7120 -2.2294 -3.1668
  572TMC3    H1 8541   1.823   4.478   0.614  0.7296 -0.5643 -2.1639
  572TMC3    H2 8542   1.597   4.726   0.364 -0.4672 -0.1202 -0.0052
  572TMC3    C7 8543   1.840   4.647   0.412 -0.2304 -0.1209  0.5096
  572TMC3    C8 8544   1.373   4.589   0.387 -0.8261 -0.1068 -0.1089
  572TMC3    O1 8545   1.929   4.567   0.399  0.2667  0.3305 -0.3861
  572TMC3    O2 8546   1.397   4.624   0.273  0.3608  0.1854 -0.1799
  573MPD2     C 8547   2.350   4.575   0.869 -0.6929 -0.3077 -0.7260
  573MPD2    C1 8548   2.387   4.707   0.875 -0.8792 -0.4644 -0.4321
  573MPD2    C2 8549   2.505   0.001   0.815  0.0771 -0.3293  1.1854
  573MPD2    C3 8550   2.573   4.655   0.732 -0.0534 -0.0972  0.3326
  573MPD2    C4 8551   2.532   4.525   0.728  1.0482 -0.4494 -0.9928
  573MPD2    C5 8552   2.418   4.486   0.798 -0.0049  0.1241 -0.1011
  573MPD2     H 8553   2.537   0.104   0.824  0.4688 -0.2981 -0.4558
  573MPD2    H1 8554   2.580   4.449   0.667 -0.2829 -0.6816 -1.7492
  573MPD2    H2 8555   2.249   4.552   0.901 -1.5106 -0.1321 -3.2069
  573MPD2    H3 8556   2.374   4.388   0.780  0.9405 -0.2195 -0.5688
  573MPD2     N 8557   2.684   4.677   0.654 -0.1000  0.3898  0.4261
  573MPD2    H5 8558   2.708   4.592   0.605  1.3604  1.0225  0.0420
  573MPD2    N1 8559   2.301   0.059   0.952  0.5165 -0.1884  0.0252
  573MPD2    H7 8560   2.223   0.013   0.998 -0.3826  1.6214  0.3168
  574TMC3    C1 8561   2.870   0.040   0.565  0.2291 -0.5062 -0.0779
  574TMC3    C2 8562   2.865   4.718   0.444 -0.3473 -0.2182 -0.5968
  574TMC3    C3 8563   2.979   4.709   0.371 -0.1065  0.2571 -0.3511
  574TMC3    C4 8564   2.986   0.093   0.614 -0.1770 -0.5396  0.1140
  574TMC3    C5 8565   3.096   0.081   0.537 -0.2039  0.3071 -0.2325
  574TMC3    C6 8566   3.100   0.018   0.419 -0.3982 -0.5541  0.0053
  574TMC3     C 8567   2.760   0.053   0.653 -0.3348  0.1669 -0.4817
  574TMC3     O 8568   2.749   0.162   0.706 -0.2155  0.3289  0.2968
  574TMC3     H 8569   2.771   4.687   0.400 -0.2247 -0.2980 -0.8007
  574TMC3    H1 8570   2.993   0.150   0.706  0.4649 -0.5687  0.0821
  574TMC3    H2 8571   3.192   0.008   0.362 -1.2564 -3.4248 -0.9146
  574TMC3    C7 8572   3.208   0.176   0.556 -0.2631  0.1152  0.4075
  574TMC3    C8 8573   2.992   4.650   0.240  0.1401  0.3145 -0.3776
  574TMC3    O1 8574   3.315   0.136   0.509 -0.3809  0.4826  0.1793
  574TMC3    O2 8575   3.104   4.630   0.200 -0.4705 -0.0423  0.7423
  575TMC3    C1 8576   0.446   1.482  10.681  0.5116  0.3141 -0.0498
  575TMC3    C2 8577   0.413   1.388  10.775 -0.3564 -0.2926 -0.4885
  575TMC3    C3 8578   0.301   1.319  10.750 -0.3116  0.0798  0.7211
  575TMC3    C4 8579   0.359   1.524  10.583  0.5071 -0.0880  0.6352
  575TMC3    C5 8580   0.238   1.455  10.582  0.0282 -0.0827 -0.1058
  575TMC3    C6 8581   0.205   1.353  10.662 -0.0411  0.4430 -0.8744
  575TMC3     C 8582   0.547   1.583  10.719  0.0414  0.6319  0.1951
  575TMC3     O 8583   0.588   1.570  10.834  0.6698 -0.7632  0.4405
  575TMC3     H 8584   0.494   1.358  10.841  0.9381  0.2014 -1.8563
  575TMC3    H1 8585   0.385   1.604  10.514  1.7236 -0.6491  0.4374
  575TMC3    H2 8586   0.112   1.299  10.659  2.0660 -3.3669  2.4966
  575TMC3    C7 8587   0.143   1.508  10.493  0.4219 -0.4770 -0.7057
  575TMC3    C8 8588   0.274   1.212  10.834  0.1179  0.3025  0.2866
  575TMC3    O1 8589   0.181   1.565  10.386  0.2826 -0.2481 -0.4605
  575TMC3    O2 8590   0.240   1.105  10.789 -0.3002 -0.0717  0.6249
  576MPD2     C 8591   0.242   2.063  12.696 -0.6676  0.3803 -0.3223
  576MPD2    C1 8592   0.142   2.159  12.670  0.4522  0.1554  0.4951
  576MPD2    C2 8593   0.044   2.176  12.761  0.7785  0.3852 -0.1336
  576MPD2    C3 8594   0.045   2.109  12.881  0.5528 -0.2804 -0.2867
  576MPD2    C4 8595   0.147   2.028  12.912  0.1237 -1.0405 -0.0213
  576MPD2    C5 8596   0.240   2.001  12.819 -0.2997  0.5248  0.1647
  576MPD2     H 8597   4.707   2.254  12.746 -1.8357 -1.9074  1.0208
  576MPD2    H1 8598   0.157   1.973  13.005  0.4799  0.0039  0.5615
  576MPD2    H2 8599   0.322   2.037  12.627 -0.3412  0.3876  0.0530
  576MPD2    H3 8600   0.329   1.947  12.852 -0.8597 -0.5213 -0.0512
  576MPD2     N 8601   4.680   2.128  12.977  0.8662 -0.1230  0.0052
  576MPD2    H5 8602   4.611   2.192  12.939 -0.0325 -0.9526  0.2381
  576MPD2    N1 8603   0.135   2.241  12.553  0.9137 -0.3128 -0.3094
  576MPD2    H7 8604   0.047   2.290  12.546  1.2582  0.2081 -0.9856
  577TMC3    C1 8605   0.182   2.312  12.334  0.0209 -0.4616  0.4127
  577TMC3    C2 8606   0.236   2.266  12.216  0.0966  0.2590 -0.0609
  577TMC3    C3 8607   0.248   2.356  12.112  0.5570  0.0613  0.8741
  577TMC3    C4 8608   0.154   2.449  12.351 -0.0917 -0.4371  0.0448
  577TMC3    C5 8609   0.157   2.529  12.243  0.7752  0.7897 -0.1909
  577TMC3    C6 8610   0.199   2.483  12.121 -0.8937 -0.6441  0.2310
  577TMC3     C 8611   0.229   2.243  12.448 -0.2423 -0.6703 -0.2491
  577TMC3     O 8612   0.329   2.176  12.434 -0.1234  0.0923  0.2560
  577TMC3     H 8613   0.283   2.169  12.204 -1.0819 -0.0851 -1.8351
  577TMC3    H1 8614   0.115   2.482  12.447 -1.0784 -2.6292  0.3969
  577TMC3    H2 8615   0.198   2.548  12.034 -0.7966  2.3692  2.4816
  577TMC3    C7 8616   0.154   2.670  12.270 -0.4313  0.2892  0.5428
  577TMC3    C8 8617   0.225   2.295  11.987  0.4477  0.6885 -0.4321
  577TMC3    O1 8618   0.201   2.704  12.378  0.0217  0.5013  0.1147
  577TMC3    O2 8619   0.166   2.187  11.986 -0.5091  0.4358 -0.1624
  578MPD2     C 8620   3.539   2.327   0.782 -0.9886 -0.2636 -0.2192
  578MPD2    C1 8621   3.558   2.201   0.724 -1.0089 -0.5460  0.1936
  578MPD2    C2 8622   3.565   2.089   0.801  0.9276 -0.3012 -0.1644
  578MPD2    C3 8623   3.552   2.098   0.940 -0.1856 -0.0744  0.0885
  578MPD2    C4 8624   3.539   2.220   0.998  0.3047 -0.4553 -0.5872
  578MPD2    C5 8625   3.530   2.334   0.920 -0.4140 -0.3577  0.3879
  578MPD2     H 8626   3.588   1.993   0.757 -0.5357 -0.3863 -0.7118
  578MPD2    H1 8627   3.548   2.240   1.104  0.2904  0.5229 -0.7694
  578MPD2    H2 8628   3.532   2.413   0.717  0.0058 -0.6407 -0.8275
  578MPD2    H3 8629   3.523   2.426   0.976 -1.4945 -0.4313  0.3853
  578MPD2     N 8630   3.579   1.974   1.006 -0.5747  0.2449  0.1635
  578MPD2    H5 8631   3.599   1.890   0.953 -1.3080  0.7762 -0.9472
  578MPD2    N1 8632   3.583   2.205   0.584  0.6360  0.1808  0.3861
  578MPD2    H7 8633   3.574   2.302   0.554  1.5379 -1.5414 -5.4415
  579TMC3    C1 8634   3.616   1.824   1.187 -0.0550  0.4984 -0.6504
  579TMC3    C2 8635   3.720   1.824   1.274 -0.9021  0.2906 -0.2550
  579TMC3    C3 8636   3.803   1.715   1.265  0.3926 -0.6198 -0.1221
  579TMC3    C4 8637   3.570   1.713   1.112  0.3614  0.7234 -0.4600
  579TMC3    C5 8638   3.651   1.597   1.120  0.1966  0.2055 -0.2562
  579TMC3    C6 8639   3.765   1.592   1.202  0.1124  0.3280 -0.3263
  579TMC3     C 8640   3.573   1.954   1.137 -0.4898  0.1202 -0.4805
  579TMC3     O 8641   3.549   2.037   1.220  0.2566 -0.3705  0.9262
  579TMC3     H 8642   3.748   1.918   1.318  1.2989 -0.3496 -0.2728
  579TMC3    H1 8643   3.494   1.726   1.036  0.8968 -1.9013 -1.4568
  579TMC3    H2 8644   3.831   1.507   1.189 -2.6928 -1.7857 -0.5124
  579TMC3    C7 8645   3.652   1.521   1.001  0.1919  0.0405 -0.0225
  579TMC3    C8 8646   3.931   1.715   1.341 -0.1496  0.3691 -0.2077
  579TMC3    O1 8647   3.758   1.486   0.959 -0.1671  0.3608  0.2139
  579TMC3    O2 8648   4.013   1.625   1.317 -0.5284 -0.0982 -0.6644
  580TMC3    C1 8649   2.563   1.742  12.682 -0.2044  0.4449 -0.3128
  580TMC3    C2 8650   2.671   1.810  12.732 -0.5242 -0.4162 -0.1095
  580TMC3    C3 8651   2.785   1.739  12.756  0.1844 -0.3507 -0.0789
  580TMC3    C4 8652   2.565   1.603  12.673 -0.3953 -0.3073 -0.6532
  580TMC3    C5 8653   2.683   1.540  12.692 -1.0815  0.0153 -0.1956
  580TMC3    C6 8654   2.794   1.605  12.737  0.3589  0.5183  0.1269
  580TMC3     C 8655   2.484   1.808  12.583 -0.4169 -0.1050 -0.2116
  580TMC3     O 8656   2.549   1.891  12.516 -0.2633 -0.1381 -0.1961
  580TMC3     H 8657   2.676   1.917  12.743 -1.6112 -0.4638  0.8241
  580TMC3    H1 8658   2.480   1.555  12.626 -1.2304  1.0832 -0.5571
  580TMC3    H2 8659   2.896   1.570  12.747  0.1109 -0.6732 -1.3938
  580TMC3    C7 8660   2.710   1.400  12.658 -0.6175 -0.6966  0.0501
  580TMC3    C8 8661   2.900   1.822  12.718  0.0147 -0.2838 -0.3552
  580TMC3    O1 8662   2.794   1.354  12.728  0.3084 -0.1498  0.1698
  580TMC3    O2 8663   3.005   1.815  12.780  0.0822  0.6265 -0.5594
  581MPD2     C 8664   0.407   1.112  14.608 -0.0250 -0.5779  0.2878
  581MPD2    C1 8665   0.455   1.165  14.725 -0.6340 -0.6149 -0.1085
  581MPD2    C2 8666   0.359   1.219  14.809 -0.4631  0.1339  0.2332
  581MPD2    C3 8667   0.228   1.230  14.770 -0.2065 -0.6310 -0.6890
  581MPD2    C4 8668   0.198   1.177  14.645  0.4713 -0.2011 -0.3108
  581MPD2    C5 8669   0.283   1.121  14.565  0.4068 -0.0591 -0.3085
  581MPD2     H 8670   0.382   1.230  14.914  1.1271  2.9337 -0.4076
  581MPD2    H1 8671   0.098   1.197  14.607  0.9599  1.4197 -0.7218
  581MPD2    H2 8672   0.487   1.071  14.548 -0.2284  0.3247 -0.6067
  581MPD2    H3 8673   0.251   1.091  14.466 -0.6617  1.0998 -0.3021
  581MPD2     N 8674   0.136   1.293  14.853  0.1816 -0.1873  0.4627
  581MPD2    H5 8675   0.156   1.338  14.941  2.6019  0.6523 -0.5299
  581MPD2    N1 8676   0.590   1.142  14.760 -0.2894 -0.2789  0.1134
  581MPD2    H7 8677   0.632   1.068  14.706  0.5803 -0.2799  0.7838
  582TMC3    C1 8678   0.773   1.113  14.900  0.0195  0.1368  0.1907
  582TMC3    C2 8679   0.830   1.147  15.021 -0.3842  0.2565  0.1759
  582TMC3    C3 8680   0.886   1.046  15.093  0.8187  0.0167  0.4802
  582TMC3    C4 8681   0.791   0.990  14.840 -0.5124  0.2115  0.2287
  582TMC3    C5 8682   0.839   0.896  14.915 -0.1301 -0.7962 -0.4127
  582TMC3    C6 8683   0.888   0.924  15.037  0.1046  0.0113  0.2524
  582TMC3     C 8684   0.654   1.191  14.871  0.5373  0.8149  0.2528
  582TMC3     O 8685   0.619   1.282  14.946  0.1823  0.2834 -0.4857
  582TMC3     H 8686   0.816   1.247  15.059  0.2524  0.6123 -0.5287
  582TMC3    H1 8687   0.738   0.953  14.753 -0.9504 -0.0135  0.5925
  582TMC3    H2 8688   0.927   0.835  15.084  0.0861 -0.0716  0.1121
  582TMC3    C7 8689   0.736   0.787  14.935  0.2509 -0.4978  0.3946
  582TMC3    C8 8690   0.875   1.060  15.237 -0.3345  0.4974 -0.1774
  582TMC3    O1 8691   0.713   0.724  14.832 -0.1813  0.0542 -0.2303
  582TMC3    O2 8692   0.785   1.129  15.284  0.0027  0.2459  0.2464
  583MPD2     C 8693   0.709   2.906  17.060 -0.1973 -0.5792 -0.5321
  583MPD2    C1 8694   0.633   2.997  16.990 -0.4462 -0.3164  0.4408
  583MPD2    C2 8695   0.546   3.081  17.058  0.4435  0.0602 -0.0367
  583MPD2    C3 8696   0.528   3.067  17.194  1.0875  0.2065  0.7216
  583MPD2    C4 8697   0.608   2.980  17.263 -0.2824  0.3135  0.0949
  583MPD2    C5 8698   0.702   2.901  17.197  0.2900 -0.0783  0.4142
  583MPD2     H 8699   0.482   3.148  17.003  1.1122  2.5065  2.1894
  583MPD2    H1 8700   0.600   2.980  17.371 -2.6292  1.4449 -0.0919
  583MPD2    H2 8701   0.780   2.838  17.013  3.0570  2.2318  0.3516
  583MPD2    H3 8702   0.757   2.826  17.252 -0.0878  1.2142  2.5487
  583MPD2     N 8703   0.434   3.154  17.255 -0.0583  0.9071  0.2851
  583MPD2    H5 8704   0.392   3.219  17.190  0.1046  1.6194  0.8897
  583MPD2    N1 8705   0.642   3.007  16.851  0.0628 -0.1399  0.0477
  583MPD2    H7 8706   0.574   3.075  16.817  1.3071 -0.2068 -2.5405
  584TMC3    C1 8707   0.301   3.274  17.402 -0.0570 -0.6822 -0.2308
  584TMC3    C2 8708   0.329   3.390  17.335 -0.0498  0.3895  0.5869
  584TMC3    C3 8709   0.282   3.504  17.385 -0.2471  0.9972  0.1207
  584TMC3    C4 8710   0.218   3.268  17.510  0.0509 -0.2419 -0.2096
  584TMC3    C5 8711   0.167   3.386  17.549  0.1967 -0.4655 -0.2867
  584TMC3    C6 8712   0.193   3.505  17.488 -0.3561 -1.1700  0.1448
  584TMC3     C 8713   0.383   3.158  17.380 -0.3314 -0.1435 -0.7912
  584TMC3     O 8714   0.401   3.083  17.476 -0.6761  0.0227 -0.4237
  584TMC3     H 8715   0.403   3.394  17.256  0.6545 -0.7435  1.1879
  584TMC3    H1 8716   0.187   3.172  17.549 -0.9618 -0.9256 -2.6659
  584TMC3    H2 8717   0.133   3.591  17.516 -0.9076 -0.8908 -1.8834
  584TMC3    C7 8718   0.094   3.389  17.678 -0.0576 -0.8302 -0.2654
  584TMC3    C8 8719   0.302   3.633  17.304 -0.0539 -0.2736  0.2659
  584TMC3    O1 8720   0.065   3.279  17.724  0.1546 -0.2515  0.1264
  584TMC3    O2 8721   0.266   3.740  17.354 -0.1895 -0.5639 -0.2330
  585MPD2     C 8722   4.257   2.082   0.739 -0.1052 -0.0005  0.6855
  585MPD2    C1 8723   4.306   2.129   0.618 -0.9001 -0.1504 -0.6148
  585MPD2    C2 8724   4.358   2.033   0.539 -0.6462  0.1813  0.3954
  585MPD2    C3 8725   4.344   1.896   0.569  0.5483 -0.4350  0.4994
  585MPD2    C4 8726   4.299   1.854   0.693  0.1188  0.1547 -0.4660
  585MPD2    C5 8727   4.259   1.954   0.776 -0.4952  0.5103  0.4574
  585MPD2     H 8728   4.376   2.060   0.435  2.1029  1.6002  1.2265
  585MPD2    H1 8729   4.315   1.753   0.729  1.3260 -0.1458 -1.8644
  585MPD2    H2 8730   4.230   2.155   0.815  0.1040  2.0424 -1.2129
  585MPD2    H3 8731   4.230   1.925   0.877  3.7224  0.2335  1.6113
  585MPD2     N 8732   4.380   1.792   0.477 -0.2980  0.0774 -0.2154
  585MPD2    H5 8733   4.339   1.702   0.499  3.2222 -0.6647  3.4091
  585MPD2    N1 8734   4.304   2.267   0.596 -0.2515  0.0841 -0.7053
  585MPD2    H7 8735   4.273   2.334   0.666 -0.8872 -0.9221 -0.0279
  586TMC3    C1 8736   4.478   1.680   0.296  0.7487  0.3368  0.2764
  586TMC3    C2 8737   4.589   1.660   0.221 -0.2145  0.4023 -0.4935
  586TMC3    C3 8738   4.607   1.534   0.178 -0.7824 -0.0786  0.1153
  586TMC3    C4 8739   4.372   1.594   0.294  0.3234 -0.5139 -0.5933
  586TMC3    C5 8740   4.387   1.474   0.230 -0.1521 -0.4583 -0.7408
  586TMC3    C6 8741   4.507   1.437   0.187 -0.4697 -0.8660 -0.6582
  586TMC3     C 8742   4.470   1.803   0.371  0.5357  0.1942 -0.2675
  586TMC3     O 8743   4.542   1.899   0.346  0.6314  0.0356 -0.4085
  586TMC3     H 8744   4.669   1.732   0.222 -0.3821  0.5590  0.6443
  586TMC3    H1 8745   4.280   1.623   0.344  2.0319  1.5673  1.2939
  586TMC3    H2 8746   4.519   1.352   0.121 -0.9597  0.3764 -2.3588
  586TMC3    C7 8747   4.282   1.416   0.159  0.6310 -0.3697 -0.5021
  586TMC3    C8 8748   4.695   1.515   0.062 -0.5594 -0.3215  0.7399
  586TMC3    O1 8749   4.300   1.306   0.109  0.4804 -0.0871  0.0870
  586TMC3    O2 8750   4.714   1.397   0.027 -0.5374 -0.0252 -0.1175
  587TMC3    C1 8751   1.841   0.774  16.078  0.0676  0.8087 -0.5889
  587TMC3    C2 8752   1.944   0.867  16.093 -0.0809  1.4386  0.4667
  587TMC3    C3 8753   2.050   0.822  16.176 -0.7972 -0.1124  0.3916
  587TMC3    C4 8754   1.842   0.656  16.152 -0.1635  0.0397 -0.3983
  587TMC3    C5 8755   1.946   0.623  16.230 -0.1902  0.1093  0.3399
  587TMC3    C6 8756   2.055   0.697  16.240 -0.0881 -0.4745 -0.0821
  587TMC3     C 8757   1.740   0.802  15.980 -0.3143 -0.4233 -0.7832
  587TMC3     O 8758   1.781   0.859  15.878 -0.1993  0.7355  0.1008
  587TMC3     H 8759   1.949   0.958  16.035  1.7422 -0.2267 -2.0034
  587TMC3    H1 8760   1.763   0.583  16.138 -0.4396  0.4835 -1.1408
  587TMC3    H2 8761   2.137   0.672  16.307  0.5777 -1.0909 -1.1252
  587TMC3    C7 8762   1.936   0.491  16.292  0.0158  0.0117  0.7934
  587TMC3    C8 8763   2.116   0.917  16.256 -0.6023  0.1603  0.0751
  587TMC3    O1 8764   1.863   0.408  16.239 -0.2729  0.1429  0.2998
  587TMC3    O2 8765   2.226   0.892  16.301 -0.0664  0.1919  0.0614
  588TMC3    C1 8766   4.138   4.228   9.686 -0.4205 -0.5842 -0.3330
  588TMC3    C2 8767   4.127   4.091   9.676  0.0059 -0.7314 -0.0414
  588TMC3    C3 8768   4.231   4.017   9.731 -0.0574 -0.0958  0.1363
  588TMC3    C4 8769   4.243   4.286   9.750 -0.6056 -0.7669 -0.6214
  588TMC3    C5 8770   4.336   4.206   9.811 -0.6092  0.5428 -0.3387
  588TMC3    C6 8771   4.335   4.073   9.801  0.0812 -0.2800 -0.1444
  588TMC3     C 8772   4.023   4.312   9.643 -0.4230 -0.1834 -0.3764
  588TMC3     O 8773   3.950   4.275   9.554  0.4949  0.1209 -0.0415
  588TMC3     H 8774   4.041   4.053   9.622 -1.8293 -0.2416  2.5939
  588TMC3    H1 8775   4.254   4.394   9.746 -0.0120 -0.7642  1.2017
  588TMC3    H2 8776   4.419   4.020   9.844 -0.9527 -2.9655 -1.3992
  588TMC3    C7 8777   4.434   4.256   9.900  0.1587 -0.2254  0.7907
  588TMC3    C8 8778   4.227   3.872   9.710 -0.4374 -0.2311 -0.5011
  588TMC3    O1 8779   4.474   4.186   9.990 -0.0596  0.5355 -0.3080
  588TMC3    O2 8780   4.152   3.838   9.620  0.0480 -0.1109 -0.0378
  589TMC3    C1 8781   3.931   0.711   1.134  0.8193  0.4310  0.7554
  589TMC3    C2 8782   4.022   0.769   1.218  0.3678  0.0930  0.2721
  589TMC3    C3 8783   4.136   0.697   1.243 -0.7220 -0.3961  0.0707
  589TMC3    C4 8784   3.948   0.585   1.078 -0.6407 -0.5101  0.4956
  589TMC3    C5 8785   4.054   0.516   1.113 -0.3727 -0.5791  0.1980
  589TMC3    C6 8786   4.152   0.569   1.198  0.6142 -0.6098  0.5631
  589TMC3     C 8787   3.804   0.772   1.102 -0.1621 -0.5073  0.4270
  589TMC3     O 8788   3.756   0.737   0.994 -0.6008  0.3017  0.3128
  589TMC3     H 8789   4.011   0.871   1.254  1.5868  0.0373  0.7906
  589TMC3    H1 8790   3.874   0.529   1.022  0.5206 -2.0478  0.4711
  589TMC3    H2 8791   4.221   0.502   1.247  0.5911 -1.9476 -1.2417
  589TMC3    C7 8792   4.048   0.373   1.093  0.2995 -0.1465  0.4386
  589TMC3    C8 8793   4.237   0.782   1.306 -0.4250 -0.0731  0.6461
  589TMC3    O1 8794   3.939   0.334   1.055 -0.9102  0.2924  0.2685
  589TMC3    O2 8795   4.195   0.877   1.368  0.0438  0.1497 -0.2190
  590MPD2     C 8796   2.992   3.471  16.748  0.0753 -0.2713 -0.3382
  590MPD2    C1 8797   2.964   3.533  16.624 -0.1757  0.1914  0.3341
  590MPD2    C2 8798   3.021   3.655  16.597  0.3846  0.5450 -0.3819
  590MPD2    C3 8799   3.104   3.716  16.688  0.2274  0.4495 -0.4404
  590MPD2    C4 8800   3.140   3.648  16.800  0.5356 -0.0322 -0.0822
  590MPD2    C5 8801   3.089   3.525  16.828 -0.3881  0.6191 -0.3739
  590MPD2     H 8802   3.008   3.701  16.500 -2.5433  1.4372  0.4468
  590MPD2    H1 8803   3.216   3.691  16.865  1.1311  0.2317 -0.9653
  590MPD2    H2 8804   2.955   3.374  16.779 -0.4975  0.3248  0.8122
  590MPD2    H3 8805   3.112   3.474  16.921  0.4896 -0.0446 -0.9590
  590MPD2     N 8806   3.148   3.841  16.644  0.3078  0.4234 -0.8495
  590MPD2    H5 8807   3.127   3.862  16.547 -0.5249  1.5414 -0.4392
  590MPD2    N1 8808   2.871   3.467  16.539  0.2047 -0.1416  0.4898
  590MPD2    H7 8809   2.828   3.382  16.573  1.1999 -1.6295 -1.9498
  591TMC3    C1 8810   3.259   4.031  16.618 -0.9067 -0.1426  0.2913
  591TMC3    C2 8811   3.292   3.981  16.495 -0.1522 -0.4538 -0.2441
  591TMC3    C3 8812   3.314   4.072  16.395  0.0394  0.2086 -0.1430
  591TMC3    C4 8813   3.232   4.165  16.639 -1.3176 -0.8165 -0.0822
  591TMC3    C5 8814   3.247   4.251  16.535 -0.0533  0.0229 -0.0875
  591TMC3    C6 8815   3.289   4.210  16.412 -0.3111  0.2370  0.6829
  591TMC3     C 8816   3.222   3.937  16.716  0.1977 -0.3586  0.0564
  591TMC3     O 8817   3.239   3.963  16.834  0.6120  0.3073 -0.1432
  591TMC3     H 8818   3.319   3.877  16.482 -0.7710 -0.6304 -0.0926
  591TMC3    H1 8819   3.187   4.198  16.732 -0.2515 -0.3829  0.2867
  591TMC3    H2 8820   3.316   4.274  16.330 -0.3679  1.3087  1.4924
  591TMC3    C7 8821   3.158   4.368  16.533  0.0196 -0.0260  0.5717
  591TMC3    C8 8822   3.379   4.027  16.276 -0.3409  0.3288 -0.5872
  591TMC3    O1 8823   3.099   4.388  16.637  0.1097  0.0299  0.2175
  591TMC3    O2 8824   3.409   3.907  16.285 -0.1072 -0.2367 -0.3934
  592MPD2     C 8825   3.256   1.730  11.394  0.2328  0.1026  1.0983
  592MPD2    C1 8826   3.244   1.743  11.533  0.5698 -0.3545 -0.6978
  592MPD2    C2 8827   3.192   1.639  11.602 -0.0468 -0.5638  0.0080
  592MPD2    C3 8828   3.151   1.525  11.544  0.1048 -0.6520 -1.1288
  592MPD2    C4 8829   3.152   1.512  11.407  0.3841  0.1500  0.2810
  592MPD2    C5 8830   3.209   1.608  11.337  0.9046 -0.7124  0.3436
  592MPD2     H 8831   3.185   1.648  11.709  0.0968  2.3652 -0.2492
  592MPD2    H1 8832   3.118   1.426  11.350  4.8615 -1.4028 -0.0587
  592MPD2    H2 8833   3.296   1.801  11.323 -2.9770  1.9200  1.1341
  592MPD2    H3 8834   3.196   1.598  11.230 -0.9058  0.8703  0.4364
  592MPD2     N 8835   3.096   1.431  11.635  0.6206  0.3598 -0.0044
  592MPD2    H5 8836   3.084   1.463  11.731  1.5724  0.7050  0.0033
  592MPD2    N1 8837   3.293   1.854  11.592 -0.0608  0.0700  0.0678
  592MPD2    H7 8838   3.336   1.925  11.534 -2.3532  1.3783 -0.0078
  593TMC3    C1 8839   3.423   1.981  11.755  0.3879 -0.0846 -0.1246
  593TMC3    C2 8840   3.431   2.007  11.888 -0.2385  0.4829 -0.2412
  593TMC3    C3 8841   3.532   2.098  11.929  0.8990  0.2225  0.0904
  593TMC3    C4 8842   3.513   2.023  11.662 -0.1296  0.3208  0.5056
  593TMC3    C5 8843   3.619   2.103  11.707  0.5272  0.1956 -0.3953
  593TMC3    C6 8844   3.618   2.149  11.834 -0.6529  0.6631  0.5986
  593TMC3     C 8845   3.331   1.866  11.728 -0.1332  0.2687 -0.2502
  593TMC3     O 8846   3.309   1.789  11.818 -0.4053  0.0485 -0.4885
  593TMC3     H 8847   3.373   1.957  11.964  0.8976  0.6458  0.7383
  593TMC3    H1 8848   3.533   1.965  11.573  1.4353 -0.2555  1.2412
  593TMC3    H2 8849   3.680   2.237  11.850 -0.4787  0.6031  0.2743
  593TMC3    C7 8850   3.720   2.158  11.623  0.2876 -0.2134 -0.1726
  593TMC3    C8 8851   3.543   2.132  12.075  0.3257  0.0102 -0.9576
  593TMC3    O1 8852   3.832   2.172  11.673 -0.4614 -0.7057 -0.3426
  593TMC3    O2 8853   3.439   2.121  12.137 -0.0830 -0.6682  0.6121
  594MPD2     C 8854   2.057   4.641  14.526  0.3801  0.0117 -0.0582
  594MPD2    C1 8855   2.078   4.556  14.630 -0.0066 -0.4414 -0.3892
  594MPD2    C2 8856   2.179   4.586  14.717  0.1692 -0.0372 -0.0590
  594MPD2    C3 8857   2.280   4.679  14.687  0.4049 -0.5965  0.2486
  594MPD2    C4 8858   2.263   0.020  14.578 -0.1534 -0.1185  0.0687
  594MPD2    C5 8859   2.154   4.733  14.501  0.2212  0.0221  0.2451
  594MPD2     H 8860   2.190   4.539  14.814 -1.0357 -0.4174 -0.1119
  594MPD2    H1 8861   2.331   0.094  14.537 -1.1051  0.5167 -0.3643
  594MPD2    H2 8862   1.990   4.616  14.444  0.3238  0.1494 -0.0555
  594MPD2    H3 8863   2.139   0.056  14.413 -2.9371 -1.6626 -0.3542
  594MPD2     N 8864   2.389   4.697  14.774 -0.0874  0.2404  0.5258
  594MPD2    H5 8865   2.388   4.631  14.851 -1.4696 -0.6907 -0.2883
  594MPD2    N1 8866   1.991   4.452  14.652  0.6357 -0.5340  0.1681
  594MPD2    H7 8867   1.909   4.436  14.595  0.8058 -0.2249 -0.1627
  595TMC3    C1 8868   2.784   0.161  14.895 -0.5267  0.0179  0.1531
  595TMC3    C2 8869   2.701   0.071  14.838  0.4080  0.0098  0.0708
  595TMC3    C3 8870   2.568   0.070  14.872 -0.8346  0.1963  0.3716
  595TMC3    C4 8871   2.748   0.261  14.973 -0.4582 -0.0380  0.5060
  595TMC3    C5 8872   2.611   0.262  15.004 -0.0955 -0.6772  0.0884
  595TMC3    C6 8873   2.527   0.167  14.960 -0.0207 -0.0985  0.7104
  595TMC3     C 8874   2.912   0.172  14.831  1.0867 -0.0310  0.2179
  595TMC3     O 8875   2.991   0.242  14.893 -0.0341 -0.2323 -0.4695
  595TMC3     H 8876   2.723   4.734  14.762  0.1180 -0.6596  0.6472
  595TMC3    H1 8877   2.814   0.342  15.000 -0.0303 -1.5637  4.0475
  595TMC3    H2 8878   2.422   0.185  14.980 -0.6441 -0.0280 -2.5593
  595TMC3    C7 8879   2.558   0.394  15.016 -0.0794  0.0755 -0.9317
  595TMC3    C8 8880   2.483   0.058  14.761 -0.0927  0.3578 -0.3514
  595TMC3    O1 8881   2.457   0.403  15.081  0.0160  0.7800 -0.3114
  595TMC3    O2 8882   2.485   0.153  14.686  0.4462 -1.0001 -0.2649
  596MPD2     C 8883   1.486   2.961  16.984  0.0127 -0.1904 -0.6026
  596MPD2    C1 8884   1.441   3.063  16.903  0.8051 -1.0725 -0.4691
  596MPD2    C2 8885   1.456   3.044  16.766  0.3811 -0.1269 -0.1692
  596MPD2    C3 8886   1.497   2.925  16.711  0.6697 -0.6341  0.6282
  596MPD2    C4 8887   1.533   2.822  16.795  0.4367  1.1547 -0.2053
  596MPD2    C5 8888   1.536   2.839  16.930 -0.1285 -0.4236  0.2792
  596MPD2     H 8889   1.432   3.123  16.696 -2.1707 -1.4067 -0.7433
  596MPD2    H1 8890   1.566   2.727  16.753 -2.0088  0.6798 -1.0112
  596MPD2    H2 8891   1.475   2.973  17.091  0.9897  3.1678 -0.9096
  596MPD2    H3 8892   1.567   2.762  16.999  0.7897  0.1808  0.5356
  596MPD2     N 8893   1.498   2.899  16.578 -0.2774  0.2941  0.5512
  596MPD2    H5 8894   1.536   2.811  16.546  1.6433  0.8933  1.1545
  596MPD2    N1 8895   1.376   3.182  16.956 -0.5015  0.3737 -0.8995
  596MPD2    H7 8896   1.346   3.259  16.897 -1.6927  0.2714 -0.4149
  597TMC3    C1 8897   1.270   3.315  17.099 -0.1567  0.3622  0.5760
  597TMC3    C2 8898   1.295   3.418  17.016  0.2762 -0.2020 -0.4570
  597TMC3    C3 8899   1.204   3.522  17.015  0.3201 -0.0797  0.5305
  597TMC3    C4 8900   1.159   3.308  17.167 -0.7665  0.2604 -0.0220
  597TMC3    C5 8901   1.063   3.401  17.143 -0.5470  0.0530  0.6180
  597TMC3    C6 8902   1.082   3.521  17.075  0.2039  0.1899 -0.0265
  597TMC3     C 8903   1.343   3.195  17.089 -0.0562 -0.5937 -0.1395
  597TMC3     O 8904   1.330   3.117  17.184 -0.8266  0.6740  0.1940
  597TMC3     H 8905   1.398   3.431  16.983 -0.2473  4.3015 -0.3813
  597TMC3    H1 8906   1.140   3.223  17.231 -3.1420  0.7435 -0.0511
  597TMC3    H2 8907   1.010   3.595  17.043  1.5221  2.0724  1.3710
  597TMC3    C7 8908   0.950   3.400  17.233 -0.0868  0.1414 -0.1169
  597TMC3    C8 8909   1.241   3.655  16.966 -0.6385 -0.0073  0.3334
  597TMC3    O1 8910   0.899   3.291  17.253  0.1502 -0.3020  0.4256
  597TMC3    O2 8911   1.179   3.746  17.017 -0.0603  1.0719 -0.6269
  598TMC3    C1 8912   4.164   4.274  15.537  0.0956  0.0583  0.1824
  598TMC3    C2 8913   4.127   4.172  15.463  0.2206  0.1210 -0.3512
  598TMC3    C3 8914   4.052   4.190  15.351 -0.8482 -0.1865  0.3913
  598TMC3    C4 8915   4.146   4.404  15.490 -0.7599 -0.2193 -0.1380
  598TMC3    C5 8916   4.076   4.423  15.374  0.4387 -0.2715 -0.4060
  598TMC3    C6 8917   4.025   4.320  15.302  0.6778 -1.8629 -0.8151
  598TMC3     C 8918   4.235   4.247  15.660 -0.0399 -0.4667  0.3922
  598TMC3     O 8919   4.264   4.134  15.690 -0.2399  0.4467 -0.2206
  598TMC3     H 8920   4.127   4.071  15.503  0.1740 -1.0920 -3.3851
  598TMC3    H1 8921   4.199   4.489  15.531  0.3858 -1.8559  1.7599
  598TMC3    H2 8922   3.996   4.343  15.200  2.0420  0.1628 -0.7533
  598TMC3    C7 8923   4.140   4.526  15.298  0.0490 -0.6091 -0.5329
  598TMC3    C8 8924   3.994   4.073  15.287 -0.4243  0.2799  0.3780
  598TMC3    O1 8925   4.147   4.644  15.339 -0.0327  0.4308 -0.6147
  598TMC3    O2 8926   3.967   3.980  15.365 -0.3106  0.0228  0.2218
  599MPD2     C 8927   4.484   1.765  15.640  0.1343 -0.2781 -0.2161
  599MPD2    C1 8928   4.416   1.649  15.686  0.5377  0.4935  0.0637
  599MPD2    C2 8929   4.305   1.666  15.761 -0.1611 -0.5195 -0.7767
  599MPD2    C3 8930   4.252   1.785  15.807 -0.3318 -0.2885 -0.1241
  599MPD2    C4 8931   4.318   1.902  15.768 -0.2713  0.1933  0.3605
  599MPD2    C5 8932   4.428   1.887  15.682 -0.0746 -0.3445 -0.3898
  599MPD2     H 8933   4.259   1.574  15.795 -1.2882 -1.0765 -3.8330
  599MPD2    H1 8934   4.276   1.999  15.792 -1.0225  0.6564 -2.7605
  599MPD2    H2 8935   4.576   1.765  15.582  0.3165  3.3900  0.0487
  599MPD2    H3 8936   4.479   1.981  15.664  0.1482 -0.7020 -1.6633
  599MPD2     N 8937   4.131   1.797  15.884  0.3865 -0.3924 -0.6284
  599MPD2    H5 8938   4.099   1.893  15.893 -1.6735 -0.9400 -2.1140
  599MPD2    N1 8939   4.469   1.524  15.657  0.2217 -0.4102 -0.3977
  599MPD2    H7 8940   4.560   1.525  15.611  0.6832  0.7979  0.5529
  600TMC3    C1 8941   3.947   1.742  16.029 -0.1366  0.2633 -1.0014
  600TMC3    C2 8942   3.845   1.650  16.055 -0.2162 -0.1436 -0.2991
  600TMC3    C3 8943   3.739   1.691  16.130 -0.2475  0.4824  0.4314
  600TMC3    C4 8944   3.940   1.873  16.082  0.1592  0.5893 -0.0988
  600TMC3    C5 8945   3.826   1.903  16.162 -0.1734 -0.2673 -0.4577
  600TMC3    C6 8946   3.727   1.816  16.184  0.5198 -0.4824 -0.0133
  600TMC3     C 8947   4.058   1.693  15.937  0.0748 -0.3212 -0.2214
  600TMC3     O 8948   4.060   1.573  15.922 -0.4366  0.0094 -0.3396
  600TMC3     H 8949   3.842   1.550  16.013 -1.9141  0.3513 -1.3468
  600TMC3    H1 8950   4.028   1.936  16.082 -0.1182  0.9627 -3.1856
  600TMC3    H2 8951   3.636   1.848  16.235 -0.2648  1.4174 -2.6028
  600TMC3    C7 8952   3.827   2.024  16.246  0.6177 -0.1418 -0.2886
  600TMC3    C8 8953   3.629   1.598  16.133  1.0944  0.1993  0.0269
  600TMC3    O1 8954   3.772   2.017  16.353  0.4430  0.0504  0.0506
  600TMC3    O2 8955   3.653   1.479  16.125 -0.8857 -0.0378  0.1440
  601MPD2     C 8956   2.003   0.108  17.730 -0.4391  0.1445  0.1630
  601MPD2    C1 8957   1.875   0.149   0.015  0.4392  0.7594  0.8058
  601MPD2    C2 8958   1.820   0.111   0.134  0.0408 -0.0290  0.0669
  601MPD2    C3 8959   1.892   0.037   0.225 -0.3966 -0.0748  1.1356
  601MPD2    C4 8960   2.020   0.001   0.194 -0.1507 -0.1481 -0.1871
  601MPD2    C5 8961   2.075   0.041   0.076  0.4875  0.2453 -0.6557
  601MPD2     H 8962   1.721   0.146   0.160  0.4969  1.8953 -0.8057
  601MPD2    H1 8963   2.078   4.678   0.262  0.8335  0.4047 -0.5321
  601MPD2    H2 8964   2.042   0.124  17.630  2.2060 -1.0929  1.0125
  601MPD2    H3 8965   2.172   4.737   0.051  1.2296  1.1968  0.7277
  601MPD2     N 8966   1.822   0.010   0.334 -0.4373  0.3990 -0.0344
  601MPD2    H5 8967   1.747   0.072   0.363 -2.8095 -1.4935 -2.1354
  601MPD2    N1 8968   1.791   0.220  17.679 -0.2732 -0.5689 -0.6022
  601MPD2    H7 8969   1.706   0.255  17.720 -0.2405  0.3051 -1.2764
  602TMC3    C1 8970   1.701   0.315  17.485  0.5101  0.4365 -0.4301
  602TMC3    C2 8971   1.625   0.405  17.560 -0.1773  1.0280 -0.1621
  602TMC3    C3 8972   1.545   0.488  17.484 -0.1209  0.2193 -0.4543
  602TMC3    C4 8973   1.674   0.298  17.345  0.4299  0.9050 -0.6621
  602TMC3    C5 8974   1.582   0.374  17.280  0.3656  0.2384 -0.3933
  602TMC3    C6 8975   1.514   0.467  17.354  0.0025 -0.9568 -0.5129
  602TMC3     C 8976   1.815   0.243  17.543  0.3755  0.0783  0.5856
  602TMC3     O 8977   1.902   0.208  17.463 -0.3755  0.0788 -0.7110
  602TMC3     H 8978   1.638   0.420  17.666  1.2583 -0.2245 -0.1709
  602TMC3    H1 8979   1.713   0.216  17.285 -0.4267  1.0159 -1.3755
  602TMC3    H2 8980   1.448   0.537  17.305  1.1256  1.4770  1.4509
  602TMC3    C7 8981   1.518   0.326  17.156  0.2067  0.0603 -1.1213
  602TMC3    C8 8982   1.475   0.593  17.556  1.2915 -0.6126 -0.3347
  602TMC3    O1 8983   1.578   0.275  17.061  0.0018  0.8457  0.7637
  602TMC3    O2 8984   1.528   0.650  17.649  0.7291 -0.4231  0.0401
  603TMC3    C1 8985   4.684   1.101  11.041  0.3076 -0.1302  0.6843
  603TMC3    C2 8986   4.705   1.104  11.174 -0.1268 -0.2356 -0.0123
  603TMC3    C3 8987   4.713   1.228  11.240  0.3176  0.0753 -0.5268
  603TMC3    C4 8988   4.687   1.212  10.972  0.1728  0.0866 -0.3432
  603TMC3    C5 8989   4.710   1.331  11.038 -0.2143 -0.5030 -1.0372
  603TMC3    C6 8990   4.717   1.342  11.172  0.3391  0.0326 -0.8412
  603TMC3     C 8991   4.590   0.999  10.991 -0.4013  0.0115  0.1095
  603TMC3     O 8992   4.614   0.889  11.043  0.1699 -0.4504 -0.3810
  603TMC3     H 8993   4.698   1.014  11.234  1.5129 -0.6376 -0.4419
  603TMC3    H1 8994   4.680   1.214  10.864  2.4022 -1.0656 -0.5022
  603TMC3    H2 8995   0.011   1.436  11.217 -0.8235  0.7218 -1.4665
  603TMC3    C7 8996   4.676   1.448  10.953  0.4845  0.5832  0.1931
  603TMC3    C8 8997   4.690   1.221  11.380 -0.1491 -0.5388  0.1364
  603TMC3    O1 8998   4.730   1.448  10.840  0.4416  0.0245  0.1994
  603TMC3    O2 8999   4.705   1.112  11.429 -0.0458  0.4325  0.2491
  604MPD2     C 9000   0.668   4.191  16.567 -0.0198 -0.4099 -0.6054
  604MPD2    C1 9001   0.548   4.124  16.527  0.1390 -0.4349  0.1477
  604MPD2    C2 9002   0.543   4.063  16.401 -0.3899  0.0063 -0.0493
  604MPD2    C3 9003   0.654   4.067  16.324 -0.6418  0.1207 -0.3654
  604MPD2    C4 9004   0.764   4.142  16.359  0.2519  0.1956 -0.2809
  604MPD2    C5 9005   0.772   4.194  16.481  0.0429  0.4926  0.5398
  604MPD2     H 9006   0.453   4.020  16.359 -0.7323  0.9519 -0.2883
  604MPD2    H1 9007   0.846   4.158  16.289  1.3668  1.2234  1.2579
  604MPD2    H2 9008   0.666   4.257  16.653 -3.4525  0.5951 -1.4446
  604MPD2    H3 9009   0.860   4.256  16.497  0.3943  0.7174 -2.4053
  604MPD2     N 9010   0.643   4.002  16.199  0.2141 -0.0579  0.0426
  604MPD2    H5 9011   0.546   3.973  16.191  0.8690 -2.5413  1.0099
  604MPD2    N1 9012   0.449   4.147  16.624 -0.2921 -0.0559  0.2177
  604MPD2    H7 9013   0.478   4.199  16.706 -1.8113  0.7420  0.2448
  605TMC3    C1 9014   0.235   4.148  16.709  0.5512 -0.1826 -0.7986
  605TMC3    C2 9015   0.276   4.207  16.822 -0.2543  0.0609  0.2146
  605TMC3    C3 9016   0.240   4.332  16.869 -0.1187 -0.4352  0.1959
  605TMC3    C4 9017   0.133   4.201  16.649 -0.0237 -0.9507  0.3309
  605TMC3    C5 9018   0.107   4.334  16.678  0.7272  0.4432  0.2748
  605TMC3    C6 9019   0.175   4.407  16.778  0.6189  0.6900  0.1030
  605TMC3     C 9020   0.327   4.091  16.611 -0.7750  0.0910  0.2798
  605TMC3     O 9021   0.275   4.012  16.533 -0.2214 -0.0069  0.2591
  605TMC3     H 9022   0.342   4.149  16.886  2.8541  0.5005 -2.6057
  605TMC3    H1 9023   0.083   4.139  16.576 -0.4614 -2.6169  2.0227
  605TMC3    H2 9024   0.155   4.512  16.799 -2.3831  0.0972  0.2891
  605TMC3    C7 9025   4.718   4.401  16.642  0.2113 -0.0134 -0.4195
  605TMC3    C8 9026   0.352   4.401  16.930 -0.5276  0.5326  0.3423
  605TMC3    O1 9027   4.711   4.526  16.647  0.2393  0.0950 -0.1603
  605TMC3    O2 9028   0.390   4.362  17.040  0.4086 -0.1661  0.0160
  606TMC3    C1 9029   1.527   2.180   0.104 -0.3197  0.0928  0.0141
  606TMC3    C2 9030   1.652   2.139   0.136  0.3860 -0.8638  0.8628
  606TMC3    C3 9031   1.673   2.001   0.153 -0.0719 -0.7614 -0.5085
  606TMC3    C4 9032   1.429   2.085   0.079  0.5514 -0.2873  0.2107
  606TMC3    C5 9033   1.454   1.952   0.088  0.6313  0.1273 -0.9149
  606TMC3    C6 9034   1.580   1.907   0.126 -0.0855  0.9762 -0.4007
  606TMC3     C 9035   1.498   2.323   0.083  0.4515  0.4100 -0.5803
  606TMC3     O 9036   1.586   2.397   0.122 -0.3655 -0.4409  0.2559
  606TMC3     H 9037   1.730   2.212   0.153  0.0346  0.0232 -1.3563
  606TMC3    H1 9038   1.327   2.115   0.060 -0.8380 -4.6618  0.8316
  606TMC3    H2 9039   1.593   1.800   0.141 -2.0821  0.7956  0.1106
  606TMC3    C7 9040   1.349   1.846   0.074 -0.0018  0.3068 -0.0024
  606TMC3    C8 9041   1.811   1.963   0.180 -0.1439 -0.3139  0.8256
  606TMC3    O1 9042   1.369   1.735   0.127  0.1474  0.0774  0.2597
  606TMC3    O2 9043   1.898   2.047   0.151  0.4208 -0.2360 -0.0956
  607MPD2     C 9044   3.527   1.592  11.616 -0.1256 -0.4143  0.3784
  607MPD2    C1 9045   3.618   1.625  11.716  0.5722  0.1894 -0.4510
  607MPD2    C2 9046   3.624   1.564  11.838 -0.0172 -0.2036 -0.3610
  607MPD2    C3 9047   3.532   1.467  11.866 -0.3617 -0.2745 -0.6015
  607MPD2    C4 9048   3.443   1.418  11.771 -1.1189 -0.0513  0.5652
  607MPD2    C5 9049   3.455   1.476  11.646 -0.0884 -0.1326  0.1674
  607MPD2     H 9050   3.697   1.603  11.907  1.2906 -0.5308 -1.5605
  607MPD2    H1 9051   3.364   1.345  11.784 -0.7980 -0.2375  1.4452
  607MPD2    H2 9052   3.525   1.628  11.514  0.9456 -1.6657 -0.0779
  607MPD2    H3 9053   3.405   1.427  11.563 -3.0291  2.8209  0.1798
  607MPD2     N 9054   3.523   1.425  11.997  0.1067  0.0474  0.3608
  607MPD2    H5 9055   3.586   1.478  12.057  1.5481 -2.1935  0.7994
  607MPD2    N1 9056   3.716   1.724  11.686  0.1581  0.4025  0.1391
  607MPD2    H7 9057   3.783   1.733  11.762  1.7690  0.0246 -1.2394
  608TMC3    C1 9058   3.868   1.853  11.579 -0.2825 -0.2272  0.0202
  608TMC3    C2 9059   3.933   1.820  11.696  0.4808  0.8878  0.1309
  608TMC3    C3 9060   4.071   1.802  11.699  0.2521 -0.2296  0.1968
  608TMC3    C4 9061   3.937   1.863  11.461  0.3389  0.0577  0.1386
  608TMC3    C5 9062   4.070   1.851  11.463 -0.0883  0.5992 -0.5421
  608TMC3    C6 9063   4.133   1.822  11.579  0.8632 -0.6857 -0.5439
  608TMC3     C 9064   3.739   1.789  11.570  0.2752 -0.1863 -0.0922
  608TMC3     O 9065   3.699   1.774  11.455  0.5807 -0.1890  0.1411
  608TMC3     H 9066   3.883   1.840  11.790 -1.9329  1.0651 -1.1986
  608TMC3    H1 9067   3.871   1.907  11.386  0.1482 -0.6933 -0.1378
  608TMC3    H2 9068   4.240   1.800  11.582  1.1513  0.9648  1.4132
  608TMC3    C7 9069   4.151   1.865  11.337  0.6653 -0.2560 -0.4453
  608TMC3    C8 9070   4.120   1.686  11.770 -0.0923  0.2628  0.0669
  608TMC3    O1 9071   4.086   1.861  11.231  0.0620  0.0736 -0.2348
  608TMC3    O2 9072   4.204   1.618  11.717 -0.5075 -0.5725  0.3726
  609TMC3    C1 9073   2.547   0.499   9.635  0.4796 -0.5405 -0.5333
  609TMC3    C2 9074   2.569   0.614   9.567 -0.8092 -0.1158 -0.3480
  609TMC3    C3 9075   2.706   0.640   9.524  0.6433 -0.5041 -0.0321
  609TMC3    C4 9076   2.644   0.410   9.660 -0.1157 -0.5345 -0.1831
  609TMC3    C5 9077   2.771   0.436   9.617  0.2555 -0.6623  0.1962
  609TMC3    C6 9078   2.799   0.544   9.541  0.2886  0.4197 -0.5252
  609TMC3     C 9079   2.409   0.462   9.664  0.1970 -0.6747 -0.0237
  609TMC3     O 9080   2.379   0.346   9.682 -0.5397 -0.1492 -0.1585
  609TMC3     H 9081   2.494   0.684   9.534 -2.2831 -1.5148  0.0102
  609TMC3    H1 9082   2.618   0.318   9.712 -1.9771  2.1590  3.5754
  609TMC3    H2 9083   2.898   0.566   9.503 -0.0288  0.4412 -1.3404
  609TMC3    C7 9084   2.870   0.346   9.655 -1.3066  0.0740  0.1953
  609TMC3    C8 9085   2.734   0.773   9.472  0.4615  0.4692 -0.8368
  609TMC3    O1 9086   2.831   0.248   9.722  0.1500 -0.6623  0.5796
  609TMC3    O2 9087   2.638   0.848   9.468 -0.6020  1.1173  0.1376
  610TMC3    C1 9088   4.243   1.240  12.401 -0.1880 -0.5457 -0.4527
  610TMC3    C2 9089   4.293   1.361  12.344 -0.0723 -0.2762 -0.7364
  610TMC3    C3 9090   4.428   1.378  12.330  0.1538  0.1881  0.4734
  610TMC3    C4 9091   4.326   1.143  12.440 -0.3950 -0.2529 -0.0521
  610TMC3    C5 9092   4.462   1.173  12.426 -0.0714  0.1217  0.0055
  610TMC3    C6 9093   4.516   1.291  12.388  0.2273 -0.3196  0.1166
  610TMC3     C 9094   4.115   1.250  12.477  0.0089  0.3248 -0.4167
  610TMC3     O 9095   4.074   1.357  12.508 -0.0152 -0.8375  0.1931
  610TMC3     H 9096   4.227   1.438  12.305  0.4841  1.0117  0.8629
  610TMC3    H1 9097   4.293   1.049  12.483  0.0068 -0.3478  0.0465
  610TMC3    H2 9098   4.621   1.307  12.366 -0.0007  1.9450  0.6683
  610TMC3    C7 9099   4.547   1.072  12.489  0.3947  0.0722  0.0647
  610TMC3    C8 9100   4.488   1.509  12.300 -0.2023  0.1856  0.8240
  610TMC3    O1 9101   4.497   0.963  12.507 -0.3901  0.2035 -0.0286
  610TMC3    O2 9102   4.583   1.546  12.365 -0.2607 -0.0505 -0.5541
  611MPD2     C 9103   3.308   1.223  10.996 -0.7179 -0.0932 -0.5004
  611MPD2    C1 9104   3.414   1.213  10.905 -0.1601  0.2094 -0.2059
  611MPD2    C2 9105   3.515   1.300  10.914  0.8724  0.2525  0.4305
  611MPD2    C3 9106   3.510   1.405  11.006  0.4248  0.2183  0.0109
  611MPD2    C4 9107   3.408   1.413  11.101 -0.4664  0.3326 -0.8866
  611MPD2    C5 9108   3.317   1.313  11.096  1.2096  0.1735 -0.0366
  611MPD2     H 9109   3.592   1.285  10.839 -0.8969  1.3049 -1.5810
  611MPD2    H1 9110   3.403   1.494  11.173  1.0595 -2.7809  2.7108
  611MPD2    H2 9111   3.221   1.158  10.985 -1.8009  1.4629 -1.1086
  611MPD2    H3 9112   3.236   1.325  11.168  0.6076 -1.8994 -0.3740
  611MPD2     N 9113   3.611   1.506  11.008 -0.3884  0.2003  0.0335
  611MPD2    H5 9114   3.608   1.568  11.088 -0.7675 -1.0357  0.9854
  611MPD2    N1 9115   3.407   1.112  10.804  0.2954 -0.2747 -0.2941
  611MPD2    H7 9116   3.318   1.064  10.799 -0.0920  0.4466 -0.2935
  612TMC3    C1 9117   3.769   1.646  10.945  0.2190 -0.0221  0.3819
  612TMC3    C2 9118   3.901   1.681  10.916  0.0239 -0.0196 -0.2673
  612TMC3    C3 9119   3.938   1.809  10.913  0.3298 -0.2733 -0.2933
  612TMC3    C4 9120   3.674   1.754  10.941 -0.8344  0.2858 -0.5183
  612TMC3    C5 9121   3.721   1.885  10.929 -0.8870 -0.2641  0.0186
  612TMC3    C6 9122   3.854   1.916  10.924  0.8342 -0.3576 -0.1522
  612TMC3     C 9123   3.721   1.512  10.923 -0.6702 -0.0720  0.1134
  612TMC3     O 9124   3.757   1.441  10.830 -0.3889 -0.3070 -0.2524
  612TMC3     H 9125   3.966   1.598  10.893  0.5064  0.2820  0.0116
  612TMC3    H1 9126   3.567   1.734  10.949 -0.6043 -0.7130  0.0451
  612TMC3    H2 9127   3.894   2.013  10.896  3.3507 -1.0497  1.1168
  612TMC3    C7 9128   3.618   1.983  10.891 -0.3004 -0.8713 -0.5869
  612TMC3    C8 9129   4.074   1.851  10.874 -0.3457 -0.6559  0.1715
  612TMC3    O1 9130   3.504   1.967  10.928 -0.1665 -0.1262 -0.3845
  612TMC3    O2 9131   4.083   1.920  10.776 -0.5195  0.1732 -0.2205
  613MPD2     C 9132   2.870   2.564  16.976  1.1436  0.9455 -0.1261
  613MPD2    C1 9133   2.800   2.656  16.900 -0.0603  0.4116 -0.1363
  613MPD2    C2 9134   2.665   2.645  16.875 -0.5623  0.2710  0.0765
  613MPD2    C3 9135   2.594   2.537  16.925 -0.7927 -0.3805  0.3396
  613MPD2    C4 9136   2.665   2.444  16.999  0.8580  0.7084  0.3392
  613MPD2    C5 9137   2.801   2.457  17.027 -0.0014  0.3406 -0.3096
  613MPD2     H 9138   2.613   2.723  16.821 -0.8276 -1.2175 -1.8074
  613MPD2    H1 9139   2.614   2.360  17.046  0.9374 -0.2146 -1.2157
  613MPD2    H2 9140   2.973   2.579  17.007  1.6218  0.1351 -1.2852
  613MPD2    H3 9141   2.852   2.385  17.090 -0.4449  1.5506  1.4352
  613MPD2     N 9142   2.457   2.506  16.894  0.3020 -0.1969  0.2900
  613MPD2    H5 9143   2.416   2.428  16.944 -0.9840  1.1666  1.3722
  613MPD2    N1 9144   2.881   2.759  16.839  0.3938  0.1546 -0.0151
  613MPD2    H7 9145   2.982   2.753  16.848  0.2830 -0.4310  0.8319
  614TMC3    C1 9146   2.906   2.877  16.646 -0.7094 -0.1818 -0.6665
  614TMC3    C2 9147   2.937   2.756  16.587  0.3415  0.0014  0.1953
  614TMC3    C3 9148   2.892   2.737  16.459  0.0561 -0.9074  0.8564
  614TMC3    C4 9149   2.863   2.979  16.571 -0.3576  0.8594 -0.3601
  614TMC3    C5 9150   2.838   2.964  16.436  0.4041  0.6446  0.2974
  614TMC3    C6 9151   2.846   2.841  16.374  0.1062  0.2280 -0.2378
  614TMC3     C 9152   2.829   2.863  16.767  0.5316 -0.0210  0.0607
  614TMC3     O 9153   2.719   2.915  16.777 -0.0084  0.3405  0.2646
  614TMC3     H 9154   2.985   2.674  16.638 -0.1391  1.7437  3.4341
  614TMC3    H1 9155   2.847   3.074  16.621  0.5874  0.8140  0.0421
  614TMC3    H2 9156   2.811   2.822  16.273 -0.6880 -1.1956  0.3058
  614TMC3    C7 9157   2.861   3.082  16.360 -0.0611 -0.7889 -0.9551
  614TMC3    C8 9158   2.842   2.601  16.429  0.5032  0.0906  0.4536
  614TMC3    O1 9159   2.922   3.172  16.416  0.5604 -0.2695 -0.5530
  614TMC3    O2 9160   2.824   2.539  16.534  0.1540 -0.6767  0.7582
  615MPD2     C 9161   2.138   4.453  15.800 -0.0203  0.4097 -0.1610
  615MPD2    C1 9162   2.067   4.530  15.712 -0.0701 -0.4791  0.1956
  615MPD2    C2 9163   1.975   4.469  15.632  0.2375 -0.3102 -0.3432
  615MPD2    C3 9164   1.945   4.336  15.635  0.5947  0.3741  0.2797
  615MPD2    C4 9165   2.010   4.256  15.722 -1.1005  0.7560  0.1971
  615MPD2    C5 9166   2.108   4.317  15.805 -0.3988 -0.9406  0.2198
  615MPD2     H 9167   1.934   4.537  15.558 -1.6658  0.1296  1.1376
  615MPD2    H1 9168   2.001   4.148  15.726 -1.8123  0.7980 -0.3989
  615MPD2    H2 9169   2.208   4.492  15.873 -1.8583  3.4771 -0.0318
  615MPD2    H3 9170   2.160   4.254  15.876  0.5866 -2.7996 -2.1856
  615MPD2     N 9171   1.863   4.291  15.531  0.0273 -0.4231 -0.2008
  615MPD2    H5 9172   1.832   4.357  15.461  0.5992  0.5075  0.4175
  615MPD2    N1 9173   2.074   4.672  15.716  0.2621  0.3209 -0.2335
  615MPD2    H7 9174   2.021   4.720  15.643  0.2737 -0.9320 -1.0617
  616TMC3    C1 9175   2.077   0.143  15.800 -0.2820 -0.6525  0.5279
  616TMC3    C2 9176   2.142   0.246  15.855  0.1027 -0.3818  0.4689
  616TMC3    C3 9177   2.080   0.367  15.875 -0.2396 -0.0007  0.1775
  616TMC3    C4 9178   1.937   0.160  15.783  0.9640  0.6068 -0.0236
  616TMC3    C5 9179   1.879   0.287  15.798  0.0569 -0.4274 -0.3405
  616TMC3    C6 9180   1.949   0.394  15.842  0.3148  1.0343 -0.4841
  616TMC3     C 9181   2.140   0.010  15.806 -0.1247 -0.2901  0.2875
  616TMC3     O 9182   2.214   4.720  15.898  0.4838  0.1298  0.2426
  616TMC3     H 9183   2.249   0.246  15.876  0.8045  0.6924 -3.0826
  616TMC3    H1 9184   1.874   0.077  15.754  0.7674  0.4006  1.0002
  616TMC3    H2 9185   1.902   0.488  15.869 -1.4185 -0.6794  2.4540
  616TMC3    C7 9186   1.741   0.314  15.767 -0.1292 -0.4013 -0.9084
  616TMC3    C8 9187   2.149   0.487  15.934 -0.0050 -0.2129 -0.2883
  616TMC3    O1 9188   1.676   0.217  15.738 -0.0091  0.3800 -0.2437
  616TMC3    O2 9189   2.105   0.598  15.905 -0.2204 -0.3587 -0.6649
  617MPD2     C 9190   4.584   2.497  13.785  0.8246  0.1249  0.5510
  617MPD2    C1 9191   4.620   2.405  13.882 -0.2716  0.7342 -0.2738
  617MPD2    C2 9192   4.537   2.350  13.978  0.0501 -0.5508 -0.0936
  617MPD2    C3 9193   4.407   2.402  13.982 -0.2760 -0.3423 -0.0800
  617MPD2    C4 9194   4.369   2.485  13.874 -0.1970  0.2944  0.2990
  617MPD2    C5 9195   4.453   2.540  13.783 -0.3419 -0.0562  0.7198
  617MPD2     H 9196   4.564   2.288  14.062 -2.1810 -0.6449  0.5542
  617MPD2    H1 9197   4.268   2.524  13.878 -0.4097 -0.1041 -1.0485
  617MPD2    H2 9198   4.661   2.544  13.724 -1.3152  1.1264 -1.3792
  617MPD2    H3 9199   4.419   2.619  13.717 -0.9268  0.6331  1.8377
  617MPD2     N 9200   4.306   2.378  14.077 -0.0476  0.0433  0.2706
  617MPD2    H5 9201   4.209   2.398  14.056 -0.8929 -2.1318  2.0474
  617MPD2    N1 9202   0.023   2.380  13.896  0.3715 -0.1099  0.1952
  617MPD2    H7 9203   0.095   2.437  13.852  0.5466 -0.3083  0.2268
  618TMC3    C1 9204   0.227   2.272  13.974  0.7502  0.0158 -0.1956
  618TMC3    C2 9205   0.287   2.154  13.993 -0.2325 -0.0554 -0.1980
  618TMC3    C3 9206   0.419   2.155  14.014 -0.0717  0.2248 -1.0334
  618TMC3    C4 9207   0.289   2.395  13.986  0.7209  0.5619  0.4213
  618TMC3    C5 9208   0.430   2.393  14.009 -0.1366  0.4539  0.1163
  618TMC3    C6 9209   0.493   2.269  14.028 -0.5590 -1.0631  0.5893
  618TMC3     C 9210   0.081   2.265  13.947 -0.4157  0.3673  0.7815
  618TMC3     O 9211   0.026   2.159  13.968  0.4295  0.6182  0.8578
  618TMC3     H 9212   0.228   2.064  13.989 -0.5572  0.2090 -1.5471
  618TMC3    H1 9213   0.242   2.490  13.964 -2.2125 -0.9335  0.1655
  618TMC3    H2 9214   0.600   2.270  14.045 -0.4422  0.8080 -0.1474
  618TMC3    C7 9215   0.510   2.516  13.983 -0.0412 -0.3685 -0.4567
  618TMC3    C8 9216   0.495   2.032  14.006  0.2812  0.2628  0.3961
  618TMC3    O1 9217   0.465   2.615  14.040  0.2064 -0.3738 -0.3313
  618TMC3    O2 9218   0.427   1.938  13.965 -0.1205  0.4776  0.2966
  619MPD2     C 9219   1.286   3.531  14.109 -0.4200  0.0166  0.6378
  619MPD2    C1 9220   1.269   3.566  13.979 -0.0575  0.3057  0.0183
  619MPD2    C2 9221   1.148   3.570  13.920 -0.6904  0.6615  0.5800
  619MPD2    C3 9222   1.033   3.548  13.993  0.0247  0.1443  0.4689
  619MPD2    C4 9223   1.043   3.519  14.123  0.1109  0.0511 -0.3752
  619MPD2    C5 9224   1.169   3.506  14.183  0.5251 -0.3131  0.4567
  619MPD2     H 9225   1.140   3.587  13.813 -2.2057  0.6175  0.6832
  619MPD2    H1 9226   0.955   3.501  14.184 -0.2112 -0.3646 -0.9643
  619MPD2    H2 9227   1.384   3.504  14.149 -0.1764  0.2594  0.2036
  619MPD2    H3 9228   1.179   3.464  14.283  0.2513 -0.7761  0.2921
  619MPD2     N 9229   0.905   3.578  13.931 -0.9020 -0.7384 -0.7788
  619MPD2    H5 9230   0.816   3.561  13.977  0.0944 -0.9312  1.0846
  619MPD2    N1 9231   1.374   3.573  13.889  0.8734 -0.0301 -0.5025
  619MPD2    H7 9232   1.346   3.583  13.792  2.6133  0.5555 -0.9387
  620TMC3    C1 9233   1.585   3.605  13.785 -0.0579  0.0304  0.3747
  620TMC3    C2 9234   1.519   3.607  13.668  0.1635  0.1557  1.0626
  620TMC3    C3 9235   1.565   3.686  13.569  0.4864  0.1464 -0.7642
  620TMC3    C4 9236   1.700   3.675  13.801  0.7666  0.2430  0.4217
  620TMC3    C5 9237   1.759   3.746  13.701 -0.4635  0.0163  0.2503
  620TMC3    C6 9238   1.686   3.749  13.582 -0.4888  0.4957 -0.0392
  620TMC3     C 9239   1.508   3.577  13.914 -0.1847  0.5875 -0.1921
  620TMC3     O 9240   1.573   3.583  14.014 -0.5649  0.0929 -0.2704
  620TMC3     H 9241   1.426   3.554  13.654  0.2102  0.2535  0.3452
  620TMC3    H1 9242   1.751   3.678  13.896  0.6479 -0.0171  0.4943
  620TMC3    H2 9243   1.735   3.799  13.499 -2.5119  0.6823 -1.1022
  620TMC3    C7 9244   1.818   3.873  13.735 -0.5687  0.8966 -0.0839
  620TMC3    C8 9245   1.461   3.771  13.524 -0.1158 -0.3341 -0.3063
  620TMC3    O1 9246   1.930   3.889  13.779  0.1999  0.2203 -0.1226
  620TMC3    O2 9247   1.471   3.893  13.558  0.3064  0.3594 -0.6367
  621MPD2     C 9248   1.931   3.716  10.582  0.0636 -0.0468  0.0870
  621MPD2    C1 9249   1.943   3.729  10.447 -0.4483 -0.4108  0.8717
  621MPD2    C2 9250   1.971   3.850  10.399 -0.5453  0.6331  0.0049
  621MPD2    C3 9251   1.990   3.965  10.473 -0.0609  0.2291 -0.4155
  621MPD2    C4 9252   1.978   3.948  10.609  0.4497  0.1072  0.7103
  621MPD2    C5 9253   1.949   3.825  10.660 -0.1417  0.3983 -0.2787
  621MPD2     H 9254   1.968   3.853  10.290  0.6272  0.1312 -0.0404
  621MPD2    H1 9255   1.985   4.032  10.677 -1.2628  2.4274 -1.9796
  621MPD2    H2 9256   1.900   3.621  10.625 -2.1830  0.8144  0.3963
  621MPD2    H3 9257   1.934   3.820  10.768  0.4250  1.0396 -0.1670
  621MPD2     N 9258   2.024   4.088  10.408  0.4398 -0.1041  0.3485
  621MPD2    H5 9259   2.052   4.090  10.311  3.2164 -1.6875  1.1225
  621MPD2    N1 9260   1.908   3.629  10.351  0.0936  0.1581  0.8434
  621MPD2    H7 9261   1.891   3.663  10.257 -1.2990  1.0055  1.3888
  622TMC3    C1 9262   1.770   3.429  10.297  0.6054 -0.3843 -0.3368
  622TMC3    C2 9263   1.727   3.309  10.354 -0.0920  0.1789 -0.1114
  622TMC3    C3 9264   1.605   3.263  10.322  0.1164  0.7112  0.1306
  622TMC3    C4 9265   1.692   3.502  10.214 -0.0062  0.0487 -0.0781
  622TMC3    C5 9266   1.566   3.454  10.191 -0.8860 -0.3896  0.2462
  622TMC3    C6 9267   1.526   3.335  10.238  0.1582  0.2801 -0.1938
  622TMC3     C 9268   1.872   3.500  10.379 -0.2465 -0.0273 -0.1043
  622TMC3     O 9269   1.884   3.445  10.485  0.0106  0.3229 -0.0368
  622TMC3     H 9270   1.778   3.248  10.427  0.2744  1.1345  0.4274
  622TMC3    H1 9271   1.719   3.604  10.188 -0.1375 -0.0947 -0.7770
  622TMC3    H2 9272   1.431   3.293  10.207  1.7131 -2.7991 -0.7885
  622TMC3    C7 9273   1.458   3.545  10.166  0.8923  0.2955  0.0514
  622TMC3    C8 9274   1.561   3.152  10.403  0.3023  1.1243  0.3793
  622TMC3    O1 9275   1.348   3.502  10.190 -0.6177  0.4691  0.2223
  622TMC3    O2 9276   1.621   3.044  10.389 -0.0631  0.2178  0.7078
  623MPD2     C 9277   0.709   4.221  15.714 -0.2842  0.1368 -0.4266
  623MPD2    C1 9278   0.626   4.277  15.807 -0.7396  0.1567  0.1142
  623MPD2    C2 9279   0.681   4.328  15.920 -0.2289 -0.2361 -0.2851
  623MPD2    C3 9280   0.811   4.331  15.948 -0.0542 -0.2709  0.3962
  623MPD2    C4 9281   0.895   4.278  15.852  0.1236 -0.6552  0.0024
  623MPD2    C5 9282   0.844   4.220  15.735 -0.6680  0.5544  0.6899
  623MPD2     H 9283   0.619   4.377  15.993  3.2360  0.2457  2.3156
  623MPD2    H1 9284   1.002   4.264  15.863  0.3949 -0.2619 -2.1342
  623MPD2    H2 9285   0.674   4.178  15.620  1.0116 -0.5204 -0.6037
  623MPD2    H3 9286   0.902   4.159  15.667 -2.4396 -0.5558  0.1732
  623MPD2     N 9287   0.863   4.404  16.066 -0.0444  0.6995 -0.8029
  623MPD2    H5 9288   0.794   4.441  16.131  0.8210 -0.5551  0.8459
  623MPD2    N1 9289   0.483   4.279  15.793  0.2445  0.2128  0.4570
  623MPD2    H7 9290   0.440   4.326  15.871 -0.8807  0.8697 -0.5658
  624TMC3    C1 9291   1.155   4.484  16.407 -0.0202 -0.3259 -0.3415
  624TMC3    C2 9292   1.059   4.531  16.490  0.0611 -0.7554  0.3704
  624TMC3    C3 9293   0.935   4.566  16.427  0.1220  0.0450  0.7102
  624TMC3    C4 9294   1.138   4.464  16.279  0.2666 -0.3572  0.5477
  624TMC3    C5 9295   1.018   4.500  16.223 -0.7134 -0.7867 -0.0433
  624TMC3    C6 9296   0.917   4.555  16.296  0.2694  0.0976 -0.2815
  624TMC3     C 9297   1.276   4.422  16.465 -0.4115  0.1048  0.4455
  624TMC3     O 9298   1.267   4.395  16.587  0.0490 -0.0562 -0.5191
  624TMC3     H 9299   1.074   4.507  16.594  0.0778  2.2778  1.0755
  624TMC3    H1 9300   1.215   4.413  16.221 -1.7232 -2.3012 -0.4291
  624TMC3    H2 9301   0.820   4.575  16.252 -0.2684  0.2093  0.9533
  624TMC3    C7 9302   0.994   4.428  16.100  0.0558 -0.6004 -0.2878
  624TMC3    C8 9303   0.821   4.581  16.509  0.5698  0.3675 -0.3538
  624TMC3    O1 9304   1.091   4.432  16.029  0.0588  0.1558 -0.3520
  624TMC3    O2 9305   0.714   4.589  16.448  0.7920  0.7304 -0.1018
  625MPD2     C 9306   1.165   0.287   0.465  0.4987 -0.0768 -0.4277
  625MPD2    C1 9307   1.201   0.409   0.522 -0.0692 -0.2534  0.7438
  625MPD2    C2 9308   1.323   0.432   0.590 -0.5589 -0.3785  0.4815
  625MPD2    C3 9309   1.426   0.333   0.568  0.5648 -0.3733  0.0616
  625MPD2    C4 9310   1.386   0.214   0.505 -0.0039  0.0315 -0.2405
  625MPD2    C5 9311   1.259   0.192   0.457  0.0995  0.0965 -0.0337
  625MPD2     H 9312   1.345   0.532   0.626 -1.3093 -0.0486  0.0246
  625MPD2    H1 9313   1.460   0.136   0.490 -0.3069 -0.3268  0.1207
  625MPD2    H2 9314   1.062   0.266   0.436  0.3216 -2.2649  1.7465
  625MPD2    H3 9315   1.235   0.090   0.427 -3.0859  0.4352  1.3020
  625MPD2     N 9316   1.559   0.351   0.622  0.6290 -0.2794 -0.1026
  625MPD2    H5 9317   1.582   0.424   0.689 -0.8630 -0.1043  0.2059
  625MPD2    N1 9318   1.114   0.520   0.519 -0.1484  0.0042 -0.2067
  625MPD2    H7 9319   1.131   0.596   0.584 -1.5370  0.7617 -0.7214
  626TMC3    C1 9320   0.944   0.658   0.435 -0.5687  0.3514  0.4176
  626TMC3    C2 9321   0.871   0.699   0.326  0.5817  0.1176  0.2311
  626TMC3    C3 9322   0.789   0.808   0.342 -0.3240 -0.5504 -0.4992
  626TMC3    C4 9323   0.945   0.727   0.559  0.1695  0.4476  0.7386
  626TMC3    C5 9324   0.857   0.833   0.571 -0.3574  0.1409 -0.1873
  626TMC3    C6 9325   0.793   0.881   0.457  0.9236  0.1169 -0.1870
  626TMC3     C 9326   1.014   0.532   0.425  0.7166 -0.1431 -0.2282
  626TMC3     O 9327   0.999   0.457   0.328 -0.1383  0.8433 -0.4938
  626TMC3     H 9328   0.881   0.661   0.225 -1.2511 -1.1258  0.5184
  626TMC3    H1 9329   0.979   0.694   0.657 -0.7909 -0.9350  0.6104
  626TMC3    H2 9330   0.737   0.974   0.461  2.0057  0.8095 -1.2290
  626TMC3    C7 9331   0.824   0.885   0.701  0.1667 -0.7904 -0.0529
  626TMC3    C8 9332   0.725   0.872   0.226 -0.2876  0.6859  0.5104
  626TMC3    O1 9333   0.912   0.895   0.784 -0.6686  0.2986 -0.0949
  626TMC3    O2 9334   0.737   0.990   0.222 -0.8585  0.7437 -0.3180
  627MPD2     C 9335   4.036   1.234  14.900 -0.8162 -1.6006 -0.0048
  627MPD2    C1 9336   4.134   1.167  14.967 -0.4406 -0.1150  1.0093
  627MPD2    C2 9337   4.110   1.043  15.016 -0.6652 -0.4652  0.1485
  627MPD2    C3 9338   3.981   0.992  15.020 -0.6691  0.0117 -0.4413
  627MPD2    C4 9339   3.881   1.067  14.967  0.5078  0.3403 -0.0749
  627MPD2    C5 9340   3.909   1.192  14.922  0.3560 -0.2896  0.4381
  627MPD2     H 9341   4.193   0.993  15.065 -1.2175 -0.7960  0.7473
  627MPD2    H1 9342   3.779   1.029  14.958 -0.5931  3.1505  0.6961
  627MPD2    H2 9343   4.040   1.334  14.858  3.0381 -1.4200  0.7941
  627MPD2    H3 9344   3.827   1.250  14.881 -1.0469 -2.6479 -0.0477
  627MPD2     N 9345   3.966   0.853  15.064 -0.0804  0.1314  0.1898
  627MPD2    H5 9346   4.047   0.803  15.097 -0.0650  0.9661  1.4028
  627MPD2    N1 9347   4.260   1.222  14.980 -0.2493 -0.2547  0.3604
  627MPD2    H7 9348   4.328   1.156  15.016  0.1426 -0.7253 -1.2475
  628TMC3    C1 9349   4.441   1.378  15.001  1.2357  0.0635  0.1156
  628TMC3    C2 9350   4.527   1.288  14.956 -0.4533 -0.1495 -0.0595
  628TMC3    C3 9351   4.654   1.329  14.928  0.0092  0.0077  0.7231
  628TMC3    C4 9352   4.466   1.508  15.012 -1.5794 -0.5086  0.3101
  628TMC3    C5 9353   4.592   1.555  14.986 -0.8583  1.5372 -1.3507
  628TMC3    C6 9354   4.693   1.463  14.945 -0.0775  0.3434 -0.3842
  628TMC3     C 9355   4.301   1.360  14.969 -0.5590  0.0282 -0.1635
  628TMC3     O 9356   4.244   1.464  14.945  0.1437 -0.4237 -0.2871
  628TMC3     H 9357   4.509   1.183  14.935  2.1624 -0.9138  1.5691
  628TMC3    H1 9358   4.400   1.576  15.064  1.7340  0.7850  2.8671
  628TMC3    H2 9359   0.035   1.505  14.885  0.1472 -0.3836 -0.5957
  628TMC3    C7 9360   4.618   1.691  14.955  0.3394 -0.9541 -0.2865
  628TMC3    C8 9361   0.006   1.244  14.848 -0.2163  0.4291 -0.6957
  628TMC3    O1 9362   4.730   1.724  14.925  0.4804  0.3191 -0.7158
  628TMC3    O2 9363   4.695   1.154  14.786  0.3924 -0.2079 -0.0160
  629MPD2     C 9364   2.534   0.735  16.169  0.5024 -0.6703  0.7494
  629MPD2    C1 9365   2.551   0.600  16.193 -0.5854 -0.4371 -0.0507
  629MPD2    C2 9366   2.455   0.519  16.142  0.3373  0.0400  0.4034
  629MPD2    C3 9367   2.346   0.555  16.068  0.3727  0.7532 -1.5272
  629MPD2    C4 9368   2.335   0.692  16.046 -0.4781  0.1949  0.5618
  629MPD2    C5 9369   2.429   0.783  16.094  0.6747  0.3321  0.6446
  629MPD2     H 9370   2.468   0.413  16.164  1.0072  0.2797  1.2058
  629MPD2    H1 9371   2.252   0.741  15.995  0.3044 -0.5001 -1.3743
  629MPD2    H2 9372   2.599   0.814  16.205  1.7033 -0.3169 -2.1871
  629MPD2    H3 9373   2.415   0.890  16.086 -0.5261  0.1596  0.4267
  629MPD2     N 9374   2.254   0.458  16.018  0.0932 -0.3851 -0.1412
  629MPD2    H5 9375   2.262   0.362  16.052 -0.3547 -0.6333 -0.7375
  629MPD2    N1 9376   2.673   0.555  16.255  0.2558 -0.8757  0.0250
  629MPD2    H7 9377   2.742   0.627  16.276 -0.1487  0.1862 -2.2744
  630TMC3    C1 9378   2.841   0.409  16.326  0.2971 -0.6696 -0.0866
  630TMC3    C2 9379   2.941   0.487  16.255  0.0008  0.4631 -0.0698
  630TMC3    C3 9380   3.070   0.446  16.270 -0.1939  1.0949 -0.3648
  630TMC3    C4 9381   2.873   0.308  16.411  0.4094  0.2470 -0.1886
  630TMC3    C5 9382   3.005   0.281  16.435  0.2454 -0.1939 -0.2604
  630TMC3    C6 9383   3.100   0.350  16.370  0.0125 -0.2677 -0.0772
  630TMC3     C 9384   2.702   0.426  16.291 -0.0784  0.1675 -0.3732
  630TMC3     O 9385   2.625   0.332  16.303 -0.2173  0.1669  0.2809
  630TMC3     H 9386   2.903   0.554  16.179 -0.8240 -1.8037 -1.6456
  630TMC3    H1 9387   2.800   0.234  16.440  0.0278  0.3512 -0.8873
  630TMC3    H2 9388   3.205   0.328  16.387 -0.2089 -0.4918  0.9964
  630TMC3    C7 9389   3.048   0.187  16.545  0.1952  0.6331  0.1583
  630TMC3    C8 9390   3.180   0.537  16.240 -0.0630 -0.6007 -0.4344
  630TMC3    O1 9391   3.171   0.178  16.553  0.0524 -0.1659 -0.4011
  630TMC3    O2 9392   3.290   0.517  16.286  0.1804  0.9983 -0.0660
  631MPD2     C 9393   0.981   4.607  15.578  0.1003  0.4139  0.2994
  631MPD2    C1 9394   1.057   4.665  15.476  0.2983  0.0921 -0.4572
  631MPD2    C2 9395   1.180   4.604  15.440  0.1365  0.1385  0.1766
  631MPD2    C3 9396   1.221   4.490  15.506  0.4882 -0.4282 -0.2683
  631MPD2    C4 9397   1.153   4.449  15.621 -0.8516 -0.2942  0.4992
  631MPD2    C5 9398   1.032   4.504  15.659 -0.3107  0.0135 -0.0694
  631MPD2     H 9399   1.240   4.629  15.353 -1.6444  1.6588 -0.6048
  631MPD2    H1 9400   1.193   4.374  15.689 -1.1630 -1.1516 -0.2570
  631MPD2    H2 9401   0.891   4.656  15.614 -0.7213 -0.6406 -0.3217
  631MPD2    H3 9402   0.987   4.479  15.755  0.2231 -0.5816  0.0236
  631MPD2     N 9403   1.339   4.432  15.461  0.1606 -0.4140 -0.0505
  631MPD2    H5 9404   1.389   4.485  15.389  0.7504 -1.8020 -0.6528
  631MPD2    N1 9405   0.995   0.029  15.391  0.1511 -1.1936 -0.7535
  631MPD2    H7 9406   0.897   0.051  15.407  0.7279  0.5949  0.2896
  632TMC3    C1 9407   0.979   0.184  15.217 -0.2180  0.7052  0.2746
  632TMC3    C2 9408   0.864   0.246  15.253  0.0518  0.5019 -0.4053
  632TMC3    C3 9409   0.824   0.356  15.181 -0.0567 -0.1461 -0.4542
  632TMC3    C4 9410   1.047   0.226  15.107 -0.8359 -0.4737  0.1836
  632TMC3    C5 9411   1.015   0.346  15.048  0.0874 -0.1168  0.1421
  632TMC3    C6 9412   0.904   0.415  15.088 -0.0211  0.3493  0.8122
  632TMC3     C 9413   1.060   0.111  15.307 -0.4130  0.0965 -0.7469
  632TMC3     O 9414   1.180   0.116  15.280  0.1462  0.1451  0.2916
  632TMC3     H 9415   0.803   0.226  15.341 -1.6198  0.2438 -1.6247
  632TMC3    H1 9416   1.122   0.161  15.064 -1.2056 -0.2217 -0.8555
  632TMC3    H2 9417   0.857   0.483  15.018  1.6039  1.2632  0.5865
  632TMC3    C7 9418   1.100   0.411  14.954  0.0402 -0.3135  0.0644
  632TMC3    C8 9419   0.708   0.430  15.230 -0.3740 -0.0273  0.2045
  632TMC3    O1 9420   1.053   0.497  14.883  0.1793  0.0870  0.1575
  632TMC3    O2 9421   0.611   0.356  15.253 -0.3244 -0.1500  0.8529
  633MPD2     C 9422   0.951   2.679  17.344  0.2550 -0.1609 -0.6148
  633MPD2    C1 9423   0.959   2.630  17.219  0.0293  0.7398 -0.2032
  633MPD2    C2 9424   0.916   2.503  17.189  0.2958  0.2811 -0.1695
  633MPD2    C3 9425   0.838   2.428  17.273 -1.0480 -0.4356 -0.1119
  633MPD2    C4 9426   0.815   2.488  17.396 -0.3387 -0.7796  0.2176
  633MPD2    C5 9427   0.867   2.608  17.426 -0.2269 -1.2106 -0.0895
  633MPD2     H 9428   0.930   2.464  17.089 -0.7051  0.4319 -0.3630
  633MPD2    H1 9429   0.747   2.447  17.469 -0.2725  1.0753  1.3076
  633MPD2    H2 9430   0.977   2.781  17.371  2.2466 -0.5491 -1.1023
  633MPD2    H3 9431   0.833   2.653  17.519  0.0556 -1.1405 -0.0195
  633MPD2     N 9432   0.794   2.295  17.237 -0.8765 -0.0127 -0.3360
  633MPD2    H5 9433   0.830   2.266  17.147 -0.3240  2.7141 -0.9919
  633MPD2    N1 9434   1.028   2.707  17.122 -0.0302 -0.2479  0.2647
  633MPD2    H7 9435   1.046   2.667  17.031 -2.3666 -0.9969  0.1199
  634TMC3    C1 9436   1.102   2.912  17.009  0.1553 -0.1189  0.9325
  634TMC3    C2 9437   1.155   2.825  16.918  0.3136 -0.3336 -0.0771
  634TMC3    C3 9438   1.179   2.874  16.790 -0.0410  0.2770  0.2213
  634TMC3    C4 9439   1.043   3.036  16.976  1.0033  0.0799  0.1355
  634TMC3    C5 9440   1.062   3.077  16.850  0.3697  0.9042  0.2209
  634TMC3    C6 9441   1.125   2.999  16.756 -0.0584 -0.5540  0.4994
  634TMC3     C 9442   1.051   2.847  17.130 -0.3255  0.0478 -0.6224
  634TMC3     O 9443   1.007   2.931  17.202  0.0448  0.0253 -0.2862
  634TMC3     H 9444   1.206   2.734  16.945 -0.7390 -0.3468  1.8161
  634TMC3    H1 9445   1.012   3.103  17.054 -0.1890  0.7661 -0.9236
  634TMC3    H2 9446   1.153   3.043  16.661 -1.6225  1.3250  0.9227
  634TMC3    C7 9447   0.992   3.192  16.801  0.3972  0.6879  0.2716
  634TMC3    C8 9448   1.196   2.776  16.683  0.5323  0.2557  0.3909
  634TMC3    O1 9449   1.028   3.237  16.692  0.4210  0.4956 -0.0725
  634TMC3    O2 9450   1.220   2.664  16.726 -0.4525 -0.6256  0.3164
  635TMC3    C1 9451   1.356   3.817   1.091 -0.3134 -0.1187 -0.0553
  635TMC3    C2 9452   1.376   3.799   1.226 -0.4532  0.1245 -0.6018
  635TMC3    C3 9453   1.299   3.715   1.300  0.4126  0.2199 -0.0638
  635TMC3    C4 9454   1.246   3.761   1.029  0.8769 -0.2261 -0.6400
  635TMC3    C5 9455   1.171   3.671   1.109  0.0623 -0.5674  0.4364
  635TMC3    C6 9456   1.201   3.642   1.240  0.1767  0.0759 -0.4505
  635TMC3     C 9457   1.432   3.913   1.009  0.5568 -0.2771  0.1901
  635TMC3     O 9458   1.390   3.935   0.898 -0.1658 -0.2828  0.0761
  635TMC3     H 9459   1.456   3.846   1.283  0.6531 -0.3497 -1.7677
  635TMC3    H1 9460   1.219   3.772   0.925 -0.2769 -2.4945 -0.5722
  635TMC3    H2 9461   1.160   3.551   1.280  0.0059  1.1948  1.9138
  635TMC3    C7 9462   1.040   3.636   1.052  0.7673 -0.4160 -0.4076
  635TMC3    C8 9463   1.348   3.682   1.431 -0.3471 -0.6214 -0.2575
  635TMC3    O1 9464   1.030   3.612   0.930 -0.5860 -0.2937  0.4264
  635TMC3    O2 9465   1.467   3.706   1.459 -0.2988  0.0418 -0.0652
  636MPD2     C 9466   1.845   2.881  16.234 -0.2392  0.0191 -0.3835
  636MPD2    C1 9467   1.838   2.903  16.371 -0.3410 -0.2507  0.0308
  636MPD2    C2 9468   1.882   2.804  16.461 -0.2306  0.6433 -0.3358
  636MPD2    C3 9469   1.944   2.687  16.405  0.1599  0.2568 -0.1631
  636MPD2    C4 9470   1.949   2.670  16.266 -0.0623  0.6780 -0.3070
  636MPD2    C5 9471   1.896   2.766  16.183 -0.1908  0.2095 -0.3083
  636MPD2     H 9472   1.858   2.819  16.566 -0.6716 -0.3722 -0.2948
  636MPD2    H1 9473   2.010   2.598  16.213  0.7586  1.5315 -0.5192
  636MPD2    H2 9474   1.800   2.952  16.165 -0.8718 -1.3958 -1.4461
  636MPD2    H3 9475   1.888   2.752  16.076  2.0648 -0.6208 -0.3620
  636MPD2     N 9476   2.005   2.592  16.494 -0.6310 -0.3615  0.3581
  636MPD2    H5 9477   2.006   2.622  16.591  1.6507  0.6668  0.0177
  636MPD2    N1 9478   1.803   3.023  16.436  0.1398  0.0601  0.0178
  636MPD2    H7 9479   1.823   3.022  16.535 -0.2186 -1.7224  0.0596
  637TMC3    C1 9480   2.154   2.425  16.568  0.0541 -0.0628 -0.6709
  637TMC3    C2 9481   2.187   2.509  16.668 -0.0313  0.4536 -0.4389
  637TMC3    C3 9482   2.290   2.459  16.744 -0.0586 -0.0690  0.6348
  637TMC3    C4 9483   2.211   2.311  16.535 -0.1623 -0.2345 -0.6380
  637TMC3    C5 9484   2.306   2.259  16.613 -0.5565 -0.0683  0.2732
  637TMC3    C6 9485   2.343   2.336  16.717 -0.6614  0.2334 -0.1336
  637TMC3     C 9486   2.072   2.477  16.459 -0.0323  0.3284 -0.2199
  637TMC3     O 9487   2.073   2.412  16.351 -0.2875  0.5280 -0.9726
  637TMC3     H 9488   2.160   2.614  16.665 -1.4136  0.1120 -0.0213
  637TMC3    H1 9489   2.177   2.242  16.459 -2.2119  0.1517 -0.0550
  637TMC3    H2 9490   2.439   2.310  16.761  0.0697 -0.9686 -2.3767
  637TMC3    C7 9491   2.427   2.258  16.525  0.1657 -0.2557  0.0124
  637TMC3    C8 9492   2.390   2.561  16.789  0.5462 -1.1074 -0.0487
  637TMC3    O1 9493   2.539   2.251  16.571 -0.3318 -0.3817  0.0481
  637TMC3    O2 9494   2.402   2.667  16.727  0.7236 -0.6994  0.1188
  638MPD2     C 9495   1.925   2.125  14.998  0.4149 -0.2137 -0.2506
  638MPD2    C1 9496   1.865   2.027  14.920 -0.0852 -0.6198 -0.7413
  638MPD2    C2 9497   1.824   1.902  14.979  0.6166  0.0855 -0.4097
  638MPD2    C3 9498   1.836   1.886  15.116 -0.3965 -0.2191 -0.6085
  638MPD2    C4 9499   1.872   1.998  15.194 -0.7369  0.5465  0.1341
  638MPD2    C5 9500   1.917   2.114  15.132 -0.3067  0.2038  0.3271
  638MPD2     H 9501   1.801   1.812  14.923 -0.8718  0.7556 -0.8834
  638MPD2    H1 9502   1.890   1.984  15.300 -0.2258  0.3288  0.0171
  638MPD2    H2 9503   1.972   2.216  14.964  1.0469  0.0754  1.4035
  638MPD2    H3 9504   1.954   2.196  15.191  1.6545 -0.9303  0.6639
  638MPD2     N 9505   1.829   1.751  15.168  0.2338 -0.1179  0.3311
  638MPD2    H5 9506   1.821   1.674  15.103  0.3698 -0.1555  0.3586
  638MPD2    N1 9507   1.878   2.035  14.777 -0.7553  0.2922  0.7294
  638MPD2    H7 9508   1.946   2.101  14.740 -0.3733 -0.9378 -0.7470
  639TMC3    C1 9509   1.826   1.580  15.315  0.7968  0.0311  0.2380
  639TMC3    C2 9510   1.721   1.516  15.257 -0.1327 -0.3308  0.0461
  639TMC3    C3 9511   1.704   1.380  15.287  0.1697 -0.3274 -0.4805
  639TMC3    C4 9512   1.925   1.511  15.377  0.0396  0.0929  0.6402
  639TMC3    C5 9513   1.908   1.375  15.391 -0.3320  0.5015  0.4574
  639TMC3    C6 9514   1.794   1.309  15.359 -0.4680  0.0685  0.4486
  639TMC3     C 9515   1.842   1.719  15.304 -1.0710  0.8536  0.3694
  639TMC3     O 9516   1.867   1.786  15.403  0.5669 -0.2217  0.2089
  639TMC3     H 9517   1.643   1.571  15.205 -1.2405  0.3473  2.4325
  639TMC3    H1 9518   2.015   1.562  15.408  1.0886 -1.4478  0.1283
  639TMC3    H2 9519   1.781   1.201  15.365  0.2804  0.0904  2.4008
  639TMC3    C7 9520   2.027   1.286  15.399 -0.0422  0.0481  0.4208
  639TMC3    C8 9521   1.645   1.304  15.182 -0.1440 -0.1047  0.1267
  639TMC3    O1 9522   2.002   1.180  15.457 -0.3698  0.5943  0.2960
  639TMC3    O2 9523   1.720   1.246  15.105  0.1984 -0.3541  0.1577
  640MPD2     C 9524   1.924   0.713  10.476 -0.1044  0.2686  0.5397
  640MPD2    C1 9525   1.941   0.728  10.340  0.1971 -0.4586 -1.0853
  640MPD2    C2 9526   1.870   0.836  10.283 -0.8439 -0.1278 -0.3367
  640MPD2    C3 9527   1.773   0.909  10.355 -0.3175 -0.4441 -0.3325
  640MPD2    C4 9528   1.755   0.881  10.487  0.3265  0.2688  0.2336
  640MPD2    C5 9529   1.827   0.782  10.553  0.2360 -0.1928  0.2895
  640MPD2     H 9530   1.892   0.873  10.184 -1.1055  0.3496 -0.2168
  640MPD2    H1 9531   1.688   0.939  10.549  0.7224 -0.2290  1.1327
  640MPD2    H2 9532   1.991   0.643  10.524 -0.6747 -0.9984 -0.5358
  640MPD2    H3 9533   1.830   0.767  10.660 -2.4588 -0.4214  0.3470
  640MPD2     N 9534   1.714   1.026  10.301  0.1495 -0.0105 -0.2451
  640MPD2    H5 9535   1.669   1.090  10.365  0.5348  0.9587 -0.9396
  640MPD2    N1 9536   2.062   0.669  10.280  0.2672  0.6226 -0.0224
  640MPD2    H7 9537   2.119   0.618  10.347  1.2082 -2.3753 -3.1418
  641TMC3    C1 9538   2.222   0.613  10.112  0.3306  0.3591 -0.1861
  641TMC3    C2 9539   2.275   0.503  10.179  0.0999 -0.8366  0.1185
  641TMC3    C3 9540   2.378   0.432  10.127  0.2952  0.3999  0.3739
  641TMC3    C4 9541   2.285   0.674  10.006  0.1262  0.6201 -0.7881
  641TMC3    C5 9542   2.408   0.615   9.973 -0.5327 -0.1298  0.0434
  641TMC3    C6 9543   2.450   0.496  10.030  0.3377 -0.0590 -0.3981
  641TMC3     C 9544   2.093   0.671  10.149  0.0519  0.1609  0.2055
  641TMC3     O 9545   2.033   0.718  10.053 -0.1095  0.1059  0.3724
  641TMC3     H 9546   2.215   0.458  10.257  2.0971 -3.7082 -0.0063
  641TMC3    H1 9547   2.257   0.776   9.983  0.3167  1.4073  2.3790
  641TMC3    H2 9548   2.538   0.448   9.987  1.1066  0.8323  0.1916
  641TMC3    C7 9549   2.504   0.712   9.911 -0.0998  0.3893  0.2073
  641TMC3    C8 9550   2.434   0.333  10.212 -0.6473 -0.2503  1.0624
  641TMC3    O1 9551   2.459   0.820   9.866  0.6356 -0.4963 -0.0630
  641TMC3    O2 9552   2.490   0.237  10.166  0.5435 -0.6847  0.6196
  642TMC3    C1 9553   3.539   1.819  12.685  0.8241 -0.0035  0.6305
  642TMC3    C2 9554   3.667   1.834  12.631 -0.1715  0.2518 -0.5474
  642TMC3    C3 9555   3.672   1.852  12.498 -0.1368 -0.4006 -0.0488
  642TMC3    C4 9556   3.427   1.796  12.605 -0.1027 -0.7499  0.0892
  642TMC3    C5 9557   3.445   1.802  12.473  0.8590 -0.2320  0.8001
  642TMC3    C6 9558   3.563   1.833  12.411  0.4193 -0.0295  0.2413
  642TMC3     C 9559   3.515   1.845  12.829 -0.0903 -0.5093 -0.3798
  642TMC3     O 9560   3.607   1.903  12.890 -0.8724 -0.2253  0.3708
  642TMC3     H 9561   3.740   1.884  12.694  0.3316  0.5372 -1.3601
  642TMC3    H1 9562   3.325   1.789  12.643  0.2245 -0.6356  0.9882
  642TMC3    H2 9563   3.575   1.843  12.304 -0.7142  1.7276  0.2700
  642TMC3    C7 9564   3.347   1.737  12.385 -0.1392  0.5621 -0.6286
  642TMC3    C8 9565   3.799   1.873  12.433  0.6139 -0.3675  1.2916
  642TMC3    O1 9566   3.351   1.754  12.264 -0.1650  0.0134  0.4102
  642TMC3    O2 9567   3.799   1.897  12.312  0.1463 -0.0237  0.2147
  643TMC3    C1 9568   2.709   0.985   0.561  0.1045  0.2474  0.2498
  643TMC3    C2 9569   2.628   1.086   0.522 -0.5707 -0.3842 -0.1769
  643TMC3    C3 9570   2.612   1.122   0.394 -0.4264  0.0625 -0.7160
  643TMC3    C4 9571   2.763   0.905   0.463 -0.4944 -0.4053  0.8346
  643TMC3    C5 9572   2.743   0.942   0.333  0.4846 -0.0678 -0.1393
  643TMC3    C6 9573   2.683   1.058   0.297 -0.4697  0.0432 -0.1083
  643TMC3     C 9574   2.786   1.002   0.684 -0.6357  0.5522  0.2966
  643TMC3     O 9575   2.735   1.071   0.769  0.2657  0.0687 -0.5242
  643TMC3     H 9576   2.585   1.161   0.587 -1.3335 -0.3787 -0.6844
  643TMC3    H1 9577   2.812   0.813   0.496 -1.5884 -0.7355  1.5286
  643TMC3    H2 9578   2.656   1.073   0.193  0.8653  0.5910 -0.3708
  643TMC3    C7 9579   2.781   0.854   0.227  0.2750  0.3200 -0.2259
  643TMC3    C8 9580   2.521   1.228   0.356 -0.0419 -0.2403  0.3174
  643TMC3    O1 9581   2.791   0.736   0.252 -0.0141 -0.3473 -0.4907
  643TMC3    O2 9582   2.444   1.271   0.441 -0.3394 -0.5322  0.3173
  644MPD2     C 9583   2.052   1.025   9.876 -0.7175 -0.4591 -0.4964
  644MPD2    C1 9584   2.106   1.151   9.909  0.1855 -0.4819  0.2811
  644MPD2    C2 9585   2.035   1.264   9.898  0.8273 -0.8315  0.6318
  644MPD2    C3 9586   1.904   1.267   9.853 -1.2222 -0.1584  1.2667
  644MPD2    C4 9587   1.847   1.144   9.819 -0.3130 -0.4784  0.2696
  644MPD2    C5 9588   1.920   1.030   9.830 -0.1122  0.7064  0.1256
  644MPD2     H 9589   2.075   1.364   9.915  0.7578 -0.6353 -0.3477
  644MPD2    H1 9590   1.744   1.137   9.787 -0.1206  1.0047 -0.6729
  644MPD2    H2 9591   2.104   0.930   9.873 -1.7798 -1.0249 -1.0156
  644MPD2    H3 9592   1.860   0.941   9.816  1.3001 -0.1627 -0.3926
  644MPD2     N 9593   1.834   1.390   9.847  0.7417  0.5660 -0.1558
  644MPD2    H5 9594   1.880   1.468   9.892 -1.3197  0.7832  1.5844
  644MPD2    N1 9595   2.240   1.165   9.938 -0.4733 -0.8594  0.2715
  644MPD2    H7 9596   2.297   1.081   9.930  1.4629  0.6210 -1.1761
  645TMC3    C1 9597   1.679   1.556   9.787  0.1380 -0.3968  1.1625
  645TMC3    C2 9598   1.763   1.659   9.811  0.1314 -0.4746 -0.5695
  645TMC3    C3 9599   1.735   1.780   9.754 -0.1205  0.2202  0.9872
  645TMC3    C4 9600   1.564   1.582   9.723 -0.2883  0.1215 -0.3997
  645TMC3    C5 9601   1.540   1.702   9.660 -0.3706 -0.0274  0.4433
  645TMC3    C6 9602   1.616   1.810   9.689  0.2357  0.0460 -0.0258
  645TMC3     C 9603   1.709   1.412   9.798  0.0133 -0.0808  0.2913
  645TMC3     O 9604   1.624   1.337   9.755  0.6114 -0.0726 -0.2393
  645TMC3     H 9605   1.857   1.639   9.862  0.6826  2.9204 -0.2896
  645TMC3    H1 9606   1.491   1.505   9.697 -0.6097  0.5680 -0.8163
  645TMC3    H2 9607   1.604   1.905   9.638 -0.4196  0.2836  0.5813
  645TMC3    C7 9608   1.415   1.733   9.582 -0.0612  0.4840 -0.2184
  645TMC3    C8 9609   1.838   1.884   9.743  0.3659  0.2457  0.6581
  645TMC3    O1 9610   1.341   1.642   9.553 -0.1303 -0.2425  0.2260
  645TMC3    O2 9611   1.806   1.986   9.688  0.0499  0.1898  0.6321
  646MPD2     C 9612   2.109   0.609  14.785  0.0671 -0.0623  0.6456
  646MPD2    C1 9613   2.004   0.575  14.866 -0.1590  0.6067  0.1857
  646MPD2    C2 9614   1.877   0.618  14.837 -0.2517  0.3095  0.2294
  646MPD2    C3 9615   1.855   0.692  14.724  0.5140 -0.0606 -0.5357
  646MPD2    C4 9616   1.965   0.739  14.651  0.1382 -0.1623  0.0589
  646MPD2    C5 9617   2.094   0.700  14.684 -0.6810  0.1303  0.3463
  646MPD2     H 9618   1.793   0.592  14.899 -0.5414  1.6407  0.3858
  646MPD2    H1 9619   1.957   0.821  14.580 -2.7194 -0.5054  0.0030
  646MPD2    H2 9620   2.210   0.573  14.798  1.0504  2.4588  0.0409
  646MPD2    H3 9621   2.186   0.738  14.640  1.2292 -3.4062  1.2680
  646MPD2     N 9622   1.725   0.717  14.683  0.3340  0.6278 -0.4506
  646MPD2    H5 9623   1.655   0.678  14.746  2.1728  2.1227  2.5494
  646MPD2    N1 9624   2.046   0.490  14.973 -0.1166  0.1734 -0.3657
  646MPD2    H7 9625   2.143   0.458  14.973  0.3454  1.6370  2.7909
  647TMC3    C1 9626   2.031   0.368  15.175  0.8302 -0.1653 -0.4209
  647TMC3    C2 9627   1.954   0.331  15.286 -0.3356  0.3754 -0.4477
  647TMC3    C3 9628   2.014   0.283  15.395 -0.0484  0.1019 -0.1197
  647TMC3    C4 9629   2.166   0.375  15.189 -0.0613  0.1385 -0.6553
  647TMC3    C5 9630   2.223   0.332  15.310 -0.2165  1.5048  0.2518
  647TMC3    C6 9631   2.151   0.289  15.414 -0.0761  0.1401  0.6161
  647TMC3     C 9632   1.962   0.436  15.069 -0.4515 -0.3268 -0.2162
  647TMC3     O 9633   1.841   0.448  15.087 -0.5890  0.7528 -0.1877
  647TMC3     H 9634   1.846   0.337  15.291 -0.4982 -2.4444 -0.3417
  647TMC3    H1 9635   2.235   0.389  15.107  1.1274  2.0443  0.6634
  647TMC3    H2 9636   2.205   0.252  15.501 -2.0148 -1.5655  1.1002
  647TMC3    C7 9637   2.343   0.254  15.306  0.6157  0.4205  0.5009
  647TMC3    C8 9638   1.981   0.149  15.413 -0.2314  0.5236  0.3423
  647TMC3    O1 9639   2.431   0.284  15.388 -0.0382  0.1374 -0.0229
  647TMC3    O2 9640   2.026   0.095  15.509  0.6963  0.1703  0.1543
  648TMC3    C1 9641   1.434   2.910  16.350 -0.5111 -0.6437 -0.3337
  648TMC3    C2 9642   1.522   2.806  16.322  0.2046 -0.7831  0.0636
  648TMC3    C3 9643   1.507   2.750  16.195  0.1280 -0.3736 -0.4642
  648TMC3    C4 9644   1.352   2.968  16.254  0.1499 -0.4471 -0.5043
  648TMC3    C5 9645   1.338   2.906  16.131  0.3312  0.3773  0.0603
  648TMC3    C6 9646   1.425   2.800  16.095 -0.7020  0.6001 -0.6711
  648TMC3     C 9647   1.445   2.981  16.481 -0.2948 -0.1100 -0.0571
  648TMC3     O 9648   1.388   3.091  16.486 -0.6991 -0.4334  0.2697
  648TMC3     H 9649   1.602   2.774  16.388 -1.7110 -2.9083  1.3699
  648TMC3    H1 9650   1.287   3.050  16.281  1.1611  0.5975 -1.2647
  648TMC3    H2 9651   1.420   2.753  15.997 -0.7980 -0.1602 -0.3008
  648TMC3    C7 9652   1.259   2.963  16.022 -0.1798 -0.1239 -0.6742
  648TMC3    C8 9653   1.574   2.622  16.176  0.0501  0.0758 -0.1677
  648TMC3    O1 9654   1.313   2.939  15.913 -0.2127  0.4499  0.8725
  648TMC3    O2 9655   1.573   2.557  16.282 -0.0259 -0.1097 -0.0986
  649TMC3    C1 9656   0.420   4.079  12.326  1.0507 -0.3395 -0.3042
  649TMC3    C2 9657   0.539   4.137  12.336  0.3844 -0.0350  0.1049
  649TMC3    C3 9658   0.608   4.140  12.453 -0.2067 -0.9779  0.5850
  649TMC3    C4 9659   0.364   4.021  12.439  0.2371  0.1756  0.1241
  649TMC3    C5 9660   0.424   4.039  12.564  0.2585  0.4473  0.3674
  649TMC3    C6 9661   0.553   4.099  12.571 -0.1412 -0.2346 -0.4662
  649TMC3     C 9662   0.322   4.124  12.215  0.4444 -0.3338  0.1644
  649TMC3     O 9663   0.214   4.150  12.272 -0.2340  0.0222  0.6616
  649TMC3     H 9664   0.570   4.193  12.248 -0.6053 -0.6404 -0.6309
  649TMC3    H1 9665   0.263   3.983  12.433 -0.4282  1.9394  0.0493
  649TMC3    H2 9666   0.597   4.129  12.665 -2.2071 -1.5889  0.9192
  649TMC3    C7 9667   0.368   3.971  12.682 -0.1607  0.9403  0.3351
  649TMC3    C8 9668   0.750   4.190  12.440 -0.3146 -0.1039 -0.4429
  649TMC3    O1 9669   0.253   3.938  12.662 -0.0986 -0.6093  0.2367
  649TMC3    O2 9670   0.788   4.242  12.337 -0.4796  0.1664  0.0347
  650TMC3    C1 9671   3.133   0.589  12.662  0.2401 -0.3559  0.4822
  650TMC3    C2 9672   3.133   0.639  12.792  0.2255  0.0559  0.0799
  650TMC3    C3 9673   3.083   0.767  12.810 -0.1411  0.1197  0.1627
  650TMC3    C4 9674   3.093   0.663  12.554  0.6252  0.4019 -0.9344
  650TMC3    C5 9675   3.038   0.789  12.585 -0.6430 -0.2165  0.4444
  650TMC3    C6 9676   3.035   0.843  12.707  0.0449  0.0146 -0.5613
  650TMC3     C 9677   3.198   0.463  12.627 -0.3940  0.7371  0.1046
  650TMC3     O 9678   3.245   0.449  12.511  0.4384 -0.1583  0.1061
  650TMC3     H 9679   3.173   0.580  12.874  0.0909  0.6502  0.5696
  650TMC3    H1 9680   3.078   0.615  12.458 -0.0308 -2.5615  0.6194
  650TMC3    H2 9681   2.987   0.937  12.732 -1.4636 -1.6248  2.7354
  650TMC3    C7 9682   2.949   0.837  12.478 -0.8715  0.4028 -0.8602
  650TMC3    C8 9683   3.035   0.801  12.939  0.1317 -0.4553 -0.4077
  650TMC3    O1 9684   2.911   0.764  12.389  0.1496  0.1101  0.0403
  650TMC3    O2 9685   3.098   0.882  13.012 -0.1805  0.1321 -0.4782
  651MPD2     C 9686   1.810   2.946  10.857  0.0798 -0.0416  0.2451
  651MPD2    C1 9687   1.795   3.069  10.793 -0.3072 -0.3397 -0.4013
  651MPD2    C2 9688   1.908   3.150  10.779 -0.1009  0.0506 -0.1661
  651MPD2    C3 9689   2.027   3.119  10.848  0.0319 -0.4129 -0.6883
  651MPD2    C4 9690   2.034   3.003  10.913 -0.2911 -0.1901  0.6486
  651MPD2    C5 9691   1.932   2.912  10.914 -0.2025 -0.2670  0.3635
  651MPD2     H 9692   1.890   3.239  10.719 -0.3398 -0.3089 -0.6327
  651MPD2    H1 9693   2.134   2.971  10.942 -0.0047 -0.8069 -1.0561
  651MPD2    H2 9694   1.731   2.872  10.855 -0.5143  0.5744  0.6850
  651MPD2    H3 9695   1.951   2.818  10.965 -0.6984  0.0962  1.2094
  651MPD2     N 9696   2.143   3.202  10.832  0.2938 -0.2098 -0.5640
  651MPD2    H5 9697   2.141   3.272  10.759  0.1215 -1.4242 -1.7052
  651MPD2    N1 9698   1.667   3.116  10.745 -0.5274 -0.4569 -0.4646
  651MPD2    H7 9699   1.669   3.211  10.708  0.3668 -0.3636 -0.1818
  652TMC3    C1 9700   2.559   3.356  10.774  0.0138  0.1493 -0.3176
  652TMC3    C2 9701   2.476   3.259  10.823 -0.2699  0.2677  0.4598
  652TMC3    C3 9702   2.353   3.301  10.860 -0.2144  1.1366  0.7494
  652TMC3    C4 9703   2.521   3.490  10.769 -0.4909 -0.0545 -0.0265
  652TMC3    C5 9704   2.396   3.525  10.809  0.0767 -0.0272  0.8997
  652TMC3    C6 9705   2.301   3.425  10.841  1.0250  0.4193  0.2668
  652TMC3     C 9706   2.697   3.330  10.798 -0.2850  0.0240 -0.1438
  652TMC3     O 9707   2.732   3.257  10.894 -0.7849  0.0831 -0.0785
  652TMC3     H 9708   2.507   3.159  10.851  0.1049  0.0021 -0.9123
  652TMC3    H1 9709   2.588   3.563  10.727 -1.1648  0.0504 -0.9311
  652TMC3    H2 9710   2.204   3.455  10.879  0.0727 -4.0979  1.3710
  652TMC3    C7 9711   2.367   3.665  10.821 -0.9244  0.0107 -0.0705
  652TMC3    C8 9712   2.263   3.190  10.900 -0.1804 -0.2655 -0.8709
  652TMC3    O1 9713   2.253   3.699  10.805 -0.0172 -0.2169 -0.2665
  652TMC3    O2 9714   2.290   3.113  10.993  0.4120 -0.2269  0.0030
  653MPD2     C 9715   0.628   2.720   0.024 -0.1979 -0.2917 -0.2435
  653MPD2    C1 9716   0.552   2.809  17.690 -0.8529  0.1176 -0.5926
  653MPD2    C2 9717   0.491   2.768  17.576 -0.3885  0.8456 -0.3003
  653MPD2    C3 9718   0.511   2.636  17.535 -0.2672 -0.5189  0.1758
  653MPD2    C4 9719   0.576   2.548  17.623  0.3590  0.2302 -0.0853
  653MPD2    C5 9720   0.632   2.590  17.733 -0.0763 -0.3705  0.6033
  653MPD2     H 9721   0.425   2.834  17.520  0.0622  0.4833 -1.2448
  653MPD2    H1 9722   0.589   2.444  17.595  2.5622 -0.1998  2.5382
  653MPD2    H2 9723   0.675   2.758   0.114 -1.1773 -1.3026  0.6965
  653MPD2    H3 9724   0.691   2.518   0.041  0.4456 -0.8710 -0.5685
  653MPD2     N 9725   0.462   2.590  17.407  0.7305 -0.4542  0.5241
  653MPD2    H5 9726   0.428   2.666  17.349 -1.1611 -1.3028  0.5215
  653MPD2    N1 9727   0.518   2.943  17.729 -0.0231  0.2383  0.1285
  653MPD2    H7 9728   0.461   2.993  17.661 -0.2954 -2.1376 -1.3740
  654TMC3    C1 9729   0.419   2.455  17.217 -0.4964 -0.5424 -0.1752
  654TMC3    C2 9730   0.424   2.569  17.142 -0.3761 -0.0496 -0.0863
  654TMC3    C3 9731   0.428   2.554  17.010 -0.3040 -1.0609  0.6605
  654TMC3    C4 9732   0.403   2.340  17.162 -0.5396  0.2392 -0.1277
  654TMC3    C5 9733   0.404   2.326  17.029 -0.2765  0.0121 -0.1620
  654TMC3    C6 9734   0.425   2.434  16.950 -0.7069 -0.0820 -0.1236
  654TMC3     C 9735   0.439   2.458  17.365 -0.4372  0.1207  0.2718
  654TMC3     O 9736   0.416   2.356  17.428 -0.2221 -0.0885  0.1739
  654TMC3     H 9737   0.431   2.665  17.191 -2.3544 -0.6893  1.4712
  654TMC3    H1 9738   0.376   2.251  17.219  0.4638 -0.1293 -0.2250
  654TMC3    H2 9739   0.430   2.413  16.844 -1.7407  1.0622 -0.4035
  654TMC3    C7 9740   0.370   2.196  16.963 -0.0379 -0.5111  0.4747
  654TMC3    C8 9741   0.396   2.673  16.936  0.0955  0.6008 -0.0214
  654TMC3    O1 9742   0.347   2.193  16.840  0.7952 -0.2223 -0.2335
  654TMC3    O2 9743   0.394   2.787  16.985 -0.5281  0.5391 -0.2001
  655MPD2     C 9744   1.940   3.035  15.778  0.3777 -0.6472 -0.8038
  655MPD2    C1 9745   1.929   3.146  15.699 -0.3232 -0.1948 -0.7494
  655MPD2    C2 9746   1.955   3.147  15.567 -0.8118  0.2417  0.8178
  655MPD2    C3 9747   2.007   3.034  15.501  1.1257  0.3862  0.5129
  655MPD2    C4 9748   2.025   2.920  15.578  0.5390 -0.1307 -0.9196
  655MPD2    C5 9749   1.999   2.929  15.716 -0.1468  0.0899  0.5408
  655MPD2     H 9750   1.924   3.234  15.510 -0.5870 -1.1075 -1.3665
  655MPD2    H1 9751   2.063   2.825  15.541 -1.5719 -1.5524  0.5790
  655MPD2    H2 9752   1.915   3.032  15.883  1.7793  0.5479 -0.4377
  655MPD2    H3 9753   2.016   2.842  15.778 -0.1304 -0.0110  0.3948
  655MPD2     N 9754   2.020   3.022  15.358  0.4574  0.3709  0.3003
  655MPD2    H5 9755   2.036   2.933  15.312  3.2362  1.3446 -0.6087
  655MPD2    N1 9756   1.867   3.264  15.751 -0.5965 -0.7415 -0.3577
  655MPD2    H7 9757   1.860   3.348  15.693  0.0525  0.2646  1.0201
  656TMC3    C1 9758   1.704   3.374  15.884 -0.4503 -0.4617  0.0177
  656TMC3    C2 9759   1.653   3.407  16.004  0.2198 -0.5286 -0.1451
  656TMC3    C3 9760   1.518   3.427  16.021  0.8717 -0.1857 -0.7540
  656TMC3    C4 9761   1.617   3.387  15.774  0.4355 -0.0901  0.1940
  656TMC3    C5 9762   1.488   3.427  15.793 -0.8442  0.0303  0.1358
  656TMC3    C6 9763   1.432   3.437  15.914  0.1980  0.6716 -0.1941
  656TMC3     C 9764   1.799   3.270  15.875  0.4995  0.3748  1.5310
  656TMC3     O 9765   1.824   3.205  15.976 -0.3675  0.0717  0.4536
  656TMC3     H 9766   1.715   3.392  16.092  0.4692 -0.0963 -0.2479
  656TMC3    H1 9767   1.641   3.352  15.674  0.8354 -0.6871  0.4940
  656TMC3    H2 9768   1.327   3.456  15.933  0.9750  1.2148  3.5083
  656TMC3    C7 9769   1.410   3.458  15.674  0.5883  0.2301 -0.6261
  656TMC3    C8 9770   1.469   3.449  16.154  0.3240 -0.2481 -0.0290
  656TMC3    O1 9771   1.456   3.417  15.566 -0.3816  0.1993 -0.2299
  656TMC3    O2 9772   1.538   3.497  16.240 -0.3303  0.5203  0.1949
  657TMC3    C1 9773   0.956   2.271  15.159  0.0058  0.4228 -0.7100
  657TMC3    C2 9774   0.912   2.251  15.287 -0.4184 -0.2695 -0.3788
  657TMC3    C3 9775   0.794   2.310  15.331 -0.8752  0.3053 -0.1258
  657TMC3    C4 9776   0.883   2.348  15.073  0.9520 -0.4198 -0.2283
  657TMC3    C5 9777   0.773   2.417  15.126 -0.4854  0.1871  0.0117
  657TMC3    C6 9778   0.734   2.403  15.257 -0.1928  0.1396  0.3571
  657TMC3     C 9779   1.062   2.188  15.092 -0.1917 -0.6781 -0.6937
  657TMC3     O 9780   1.050   2.161  14.971  0.1160 -0.2938  0.4737
  657TMC3     H 9781   0.957   2.170  15.344  2.4672  0.6704 -1.3183
  657TMC3    H1 9782   0.914   2.375  14.973 -0.5415  1.3341 -0.2104
  657TMC3    H2 9783   0.648   2.457  15.296 -1.5885 -2.2418  0.5786
  657TMC3    C7 9784   0.690   2.492  15.031 -0.9774 -0.7851  0.4594
  657TMC3    C8 9785   0.754   2.301  15.470 -0.4097  0.5848  0.6941
  657TMC3    O1 9786   0.739   2.511  14.918 -0.5096 -0.5633  0.0040
  657TMC3    O2 9787   0.640   2.329  15.500  0.1037 -0.6093  0.1608
  658MPD2     C 9788   2.195   3.504  14.781 -0.5544 -0.0407  0.0319
  658MPD2    C1 9789   2.102   3.411  14.724 -0.2679  0.1190 -1.3786
  658MPD2    C2 9790   2.078   3.400  14.591  0.1054  0.2341 -1.0114
  658MPD2    C3 9791   2.151   3.482  14.507 -0.1758  0.4683 -0.0655
  658MPD2    C4 9792   2.230   3.582  14.560 -0.5957  0.8142  0.3522
  658MPD2    C5 9793   2.249   3.592  14.697  0.2125 -0.4421  0.2298
  658MPD2     H 9794   2.012   3.325  14.548 -2.4469  2.5743 -1.1872
  658MPD2    H1 9795   2.277   3.658  14.499  1.3837  0.2274  1.1338
  658MPD2    H2 9796   2.211   3.507  14.888 -0.9651 -0.8491  0.1136
  658MPD2    H3 9797   2.309   3.671  14.741  0.7144  0.2915 -1.8033
  658MPD2     N 9798   2.140   3.464  14.368 -0.1751 -0.1659  0.0086
  658MPD2    H5 9799   2.066   3.404  14.332 -0.8377  1.2476 -1.0097
  658MPD2    N1 9800   2.047   3.324  14.823  0.2519  0.7062 -0.4549
  658MPD2    H7 9801   2.075   3.342  14.919  2.0964  2.6594 -1.3590
  659TMC3    C1 9802   1.907   3.168  14.930  0.4335 -0.4411 -0.1489
  659TMC3    C2 9803   1.992   3.167  15.041 -0.2924  0.1394 -0.8857
  659TMC3    C3 9804   1.957   3.085  15.144  0.5379  0.5049  0.3337
  659TMC3    C4 9805   1.790   3.091  14.928 -0.2358 -0.0452 -0.5687
  659TMC3    C5 9806   1.761   3.003  15.031 -0.1913 -0.1255 -0.0719
  659TMC3    C6 9807   1.852   2.996  15.140  0.0149 -0.0150  0.7176
  659TMC3     C 9808   1.943   3.239  14.806 -0.3237  0.6457 -0.9365
  659TMC3     O 9809   1.875   3.227  14.708  0.6783 -0.0889 -0.0375
  659TMC3     H 9810   2.078   3.232  15.053  0.3739 -0.6981 -1.1515
  659TMC3    H1 9811   1.729   3.086  14.839 -0.0616  0.5057 -0.7191
  659TMC3    H2 9812   1.839   2.927  15.222  1.7353 -1.4484 -0.2121
  659TMC3    C7 9813   1.636   2.932  15.050  0.5427  0.4897  0.5221
  659TMC3    C8 9814   2.003   3.130  15.273  0.0338 -0.1081  0.2033
  659TMC3    O1 9815   1.631   2.871  15.154 -0.0194 -0.3732 -0.4035
  659TMC3    O2 9816   2.013   3.253  15.291 -0.4867 -0.1479 -0.2159
  660MPD2     C 9817   4.705   1.762  12.758  0.1761  0.4783 -0.5411
  660MPD2    C1 9818   4.578   1.820  12.772 -0.4779 -0.1567 -0.7295
  660MPD2    C2 9819   4.497   1.764  12.872  1.0496 -0.0035  0.5745
  660MPD2    C3 9820   4.529   1.656  12.951  0.3020  0.1126  0.1075
  660MPD2    C4 9821   4.660   1.613  12.942 -0.0078  0.3096 -0.1245
  660MPD2    C5 9822   0.005   1.668  12.850 -0.1830 -0.6113 -0.1596
  660MPD2     H 9823   4.395   1.802  12.878  1.5464  1.3235  0.5865
  660MPD2    H1 9824   4.694   1.533  13.006 -1.6455 -0.4856 -0.2518
  660MPD2    H2 9825   0.039   1.809  12.692 -1.3980  2.5550 -0.7589
  660MPD2    H3 9826   0.108   1.634  12.853  0.5527  1.7670  1.3757
  660MPD2     N 9827   4.449   1.587  13.043 -0.1540  0.7061  0.1981
  660MPD2    H5 9828   4.503   1.520  13.097 -1.0373  0.0925  0.3282
  660MPD2    N1 9829   4.532   1.927  12.691 -0.0699 -0.0819  0.5814
  660MPD2    H7 9830   4.595   1.931  12.612  0.3239 -1.9789  0.7989
  661TMC3    C1 9831   4.405   2.115  12.613  0.1094  0.1315 -0.1321
  661TMC3    C2 9832   4.477   2.128  12.491  0.5546  0.1157  0.2981
  661TMC3    C3 9833   4.413   2.202  12.387  0.5850 -0.0051  0.3900
  661TMC3    C4 9834   4.278   2.171  12.636  0.0863  0.1946 -0.4493
  661TMC3    C5 9835   4.223   2.237  12.529 -0.1745  0.2650 -0.4816
  661TMC3    C6 9836   4.284   2.261  12.405 -0.5035  0.3747 -0.9523
  661TMC3     C 9837   4.432   2.016  12.719  0.5979 -0.6549  0.0871
  661TMC3     O 9838   4.365   2.029  12.819  0.4818  0.2602  0.6010
  661TMC3     H 9839   4.562   2.062  12.476 -1.4820 -2.4238  0.0560
  661TMC3    H1 9840   4.212   2.140  12.717 -1.1832  0.9641 -1.1971
  661TMC3    H2 9841   4.243   2.328  12.330  0.0394  1.5872 -0.1633
  661TMC3    C7 9842   4.081   2.260  12.537  0.2713  0.0172 -0.5782
  661TMC3    C8 9843   4.487   2.234  12.265  0.2199 -0.2739  0.5663
  661TMC3    O1 9844   4.030   2.252  12.650 -0.0108  0.1601 -0.2559
  661TMC3    O2 9845   4.585   2.305  12.269 -0.1960  0.6854 -0.4581
  662MPD2     C 9846   0.086   1.673  17.344  0.0280  0.3367  0.0563
  662MPD2    C1 9847   0.044   1.549  17.389  0.2842 -0.0379 -0.0761
  662MPD2    C2 9848   0.003   1.529  17.515  0.4542 -0.5828 -0.2378
  662MPD2    C3 9849   0.019   1.636  17.604  0.1664  0.4664  0.9021
  662MPD2    C4 9850   0.043   1.762  17.553 -0.3073  0.0889  0.1164
  662MPD2    C5 9851   0.083   1.780  17.428  0.4678  0.3687  0.5207
  662MPD2     H 9852   4.691   1.440  17.550 -0.2227  0.8710  2.5291
  662MPD2    H1 9853   0.055   1.844  17.623 -2.6195  1.0021 -0.5670
  662MPD2    H2 9854   0.116   1.688  17.241 -1.2697 -1.8537 -0.6368
  662MPD2    H3 9855   0.094   1.881  17.390  2.1054  0.5469  1.4781
  662MPD2     N 9856   4.718   1.632  17.745 -0.2665  0.5012 -0.3559
  662MPD2    H5 9857   4.703   1.724   0.036  0.4005 -0.0093  1.0990
  662MPD2    N1 9858   0.045   1.438  17.308  0.3585 -0.0051  0.1063
  662MPD2    H7 9859   0.027   1.351  17.356  1.0385 -0.0485  0.2692
  663TMC3    C1 9860   0.081   1.302  17.121 -0.1574  0.0631 -0.6578
  663TMC3    C2 9861   0.140   1.211  17.204  0.0104 -0.1229 -0.7170
  663TMC3    C3 9862   0.217   1.111  17.148  0.8394  0.2553 -0.2174
  663TMC3    C4 9863   0.091   1.290  16.982  0.1699 -0.6837 -0.9504
  663TMC3    C5 9864   0.166   1.186  16.937 -0.3243 -0.3274 -1.0165
  663TMC3    C6 9865   0.245   1.110  17.014  0.0246 -0.4704  0.0188
  663TMC3     C 9866   0.056   1.437  17.169  0.1943  0.2465  0.1427
  663TMC3     O 9867   0.029   1.526  17.089  0.4783  0.3611 -0.5727
  663TMC3     H 9868   0.138   1.215  17.312 -1.9556 -3.5130 -0.6300
  663TMC3    H1 9869   0.046   1.361  16.913 -1.5445 -0.6959  0.1539
  663TMC3    H2 9870   0.304   1.035  16.961 -1.0570 -0.3625 -1.3325
  663TMC3    C7 9871   0.089   1.102  16.853 -0.3353 -0.3982  0.0863
  663TMC3    C8 9872   0.178   0.975  17.190  0.4400 -0.2863 -0.5500
  663TMC3    O1 9873   0.006   1.163  16.785 -0.2371 -0.1202  0.7267
  663TMC3    O2 9874   0.228   0.886  17.123 -0.1450  0.1205 -0.5377
  664MPD2     C 9875   3.278   4.228  17.528 -0.0881  0.3346  0.1698
  664MPD2    C1 9876   3.297   4.360  17.549 -0.4078 -0.0777 -0.0854
  664MPD2    C2 9877   3.273   4.413  17.676  0.7742 -0.3929 -0.2106
  664MPD2    C3 9878   3.254   4.334   0.038  0.2581 -0.0407 -0.2417
  664MPD2    C4 9879   3.221   4.204   0.008 -0.3201 -0.2204 -0.4856
  664MPD2    C5 9880   3.236   4.153  17.632  0.5916 -0.9101  0.3509
  664MPD2     H 9881   3.266   4.521  17.678  2.1662 -0.3075 -0.0537
  664MPD2    H1 9882   3.203   4.133   0.088  0.9923 -1.4700 -1.2913
  664MPD2    H2 9883   3.295   4.175  17.435 -0.5742  0.7776 -0.1748
  664MPD2    H3 9884   3.222   4.045  17.625 -1.7861 -0.5177 -0.8065
  664MPD2     N 9885   3.239   4.391   0.167 -0.0169  0.2164 -0.1822
  664MPD2    H5 9886   3.230   4.492   0.174  0.9878  0.3754 -1.1804
  664MPD2    N1 9887   3.309   4.446  17.436  0.1820 -0.0004  0.9716
  664MPD2    H7 9888   3.281   4.543  17.451 -1.5488 -0.5627  1.2981
  665TMC3    C1 9889   3.189   4.412   0.398  0.8484 -0.1507 -0.0965
  665TMC3    C2 9890   3.095   4.388   0.488  0.2906 -0.5636  0.0967
  665TMC3    C3 9891   3.112   4.443   0.612  0.2679 -0.1359 -0.3494
  665TMC3    C4 9892   3.295   4.491   0.424 -0.1963 -0.3270 -0.2441
  665TMC3    C5 9893   3.306   4.552   0.543 -0.4421 -0.4923  0.6207
  665TMC3    C6 9894   3.217   4.526   0.639 -0.2325  0.4622  0.3608
  665TMC3     C 9895   3.199   4.329   0.286  0.1087 -0.0047  0.3333
  665TMC3     O 9896   3.152   4.216   0.297 -0.0295 -0.2711 -0.0337
  665TMC3     H 9897   3.004   4.334   0.461  0.0283  0.2764 -0.7066
  665TMC3    H1 9898   3.365   4.516   0.345  0.1148 -0.0407  0.1260
  665TMC3    H2 9899   3.225   4.581   0.732 -0.3586 -1.4759  1.5142
  665TMC3    C7 9900   3.444   4.574   0.585  0.2122  0.6894  0.5007
  665TMC3    C8 9901   3.014   4.435   0.712  0.0391  0.6513  0.1913
  665TMC3    O1 9902   3.539   4.507   0.539 -0.0859 -0.2494  0.0721
  665TMC3    O2 9903   3.003   4.540   0.775 -0.4149 -0.1038  0.6225
  666TMC3    C1 9904   2.048   4.321  10.382 -0.7125 -0.9118 -0.4760
  666TMC3    C2 9905   2.177   4.311  10.339  0.2169 -0.1373 -0.3281
  666TMC3    C3 9906   2.242   4.429  10.316  0.0853  0.0980  0.5641
  666TMC3    C4 9907   1.982   4.436  10.384 -0.0554 -0.4500  0.2162
  666TMC3    C5 9908   2.049   4.553  10.346  0.2091 -0.0430 -0.3345
  666TMC3    C6 9909   2.179   4.552  10.318  0.0804  0.4140 -0.1628
  666TMC3     C 9910   1.994   4.208  10.462  0.2142 -0.2237  0.2118
  666TMC3     O 9911   1.929   4.229  10.564  0.3516 -0.0784 -0.3086
  666TMC3     H 9912   2.232   4.218  10.350  0.6636 -0.0484 -1.6992
  666TMC3    H1 9913   1.880   4.440  10.423  0.8823 -1.7774  2.8032
  666TMC3    H2 9914   2.236   4.644  10.315  2.1431 -0.8952 -0.9457
  666TMC3    C7 9915   1.971   4.675  10.350  0.3957  0.3120  0.1071
  666TMC3    C8 9916   2.389   4.431  10.312  0.4528 -0.2117 -0.7113
  666TMC3    O1 9917   1.850   4.676  10.387  0.2476  0.1723 -0.1970
  666TMC3    O2 9918   2.438   4.328  10.351 -0.1838  0.0705 -0.2777
  667MPD2     C 9919   3.619   4.312  14.684  0.2370  0.0814  0.2338
  667MPD2    C1 9920   3.600   4.310  14.815 -0.0127  0.3911 -0.8259
  667MPD2    C2 9921   3.521   4.210  14.871 -0.2477  0.4654 -0.6840
  667MPD2    C3 9922   3.483   4.101  14.795  0.2300  0.0133  0.0063
  667MPD2    C4 9923   3.520   4.100  14.666  0.6061  0.6634  0.2880
  667MPD2    C5 9924   3.590   4.203  14.611 -0.1100 -0.2940  0.0269
  667MPD2     H 9925   3.502   4.215  14.977 -0.7867  0.1295 -0.7671
  667MPD2    H1 9926   3.500   4.009  14.610  1.1179  1.2889 -0.9075
  667MPD2    H2 9927   3.662   4.396  14.630 -0.7370 -0.0623 -0.7724
  667MPD2    H3 9928   3.612   4.206  14.505  0.8284  0.1594  0.2368
  667MPD2     N 9929   3.409   3.992  14.854  0.8711  0.9586 -0.1202
  667MPD2    H5 9930   3.368   3.928  14.787 -2.9400  2.6462  0.6185
  667MPD2    N1 9931   3.626   4.408  14.906  0.0349 -0.0669  0.0957
  667MPD2    H7 9932   3.596   4.396  15.002 -2.6751 -0.8351 -0.8433
  668TMC3    C1 9933   3.745   4.614  14.989  0.0094  0.0951 -0.7206
  668TMC3    C2 9934   3.856   4.693  14.977  1.3762 -0.0656  0.5894
  668TMC3    C3 9935   3.922   4.738  15.093  0.6193  0.0374 -0.5129
  668TMC3    C4 9936   3.687   4.593  15.111 -0.9608 -0.1583  0.1823
  668TMC3    C5 9937   3.743   4.656  15.216  0.1252  0.3145  0.2756
  668TMC3    C6 9938   3.862   4.721  15.212  0.0166 -0.2674 -0.1735
  668TMC3     C 9939   3.716   4.516  14.883  0.0049 -0.2828 -0.5726
  668TMC3     O 9940   3.785   4.535  14.787 -0.2796 -0.1427 -0.1140
  668TMC3     H 9941   3.900   4.701  14.878 -1.4583 -1.7401 -0.7951
  668TMC3    H1 9942   3.584   4.560  15.117 -1.4283  1.0821 -1.0783
  668TMC3    H2 9943   3.902   0.033  15.300  2.6013 -1.6872 -0.5244
  668TMC3    C7 9944   3.698   4.631  15.352 -0.6047 -0.2127  0.2913
  668TMC3    C8 9945   4.028   0.095  15.086 -0.2142  0.6002  0.5980
  668TMC3    O1 9946   3.746   4.702  15.444 -0.0494  0.6725  0.4231
  668TMC3    O2 9947   4.023   0.168  15.184  0.4136 -0.3089  0.2465
  669TMC3    C1 9948   1.744   4.129  14.830 -0.0278  0.1822  0.7339
  669TMC3    C2 9949   1.664   4.125  14.719 -0.0982  0.3400  0.0386
  669TMC3    C3 9950   1.709   4.181  14.603 -0.8848  0.3863 -0.4368
  669TMC3    C4 9951   1.860   4.194  14.832 -0.7109  0.2423 -0.7191
  669TMC3    C5 9952   1.904   4.256  14.721  0.2750 -0.6580  0.7567
  669TMC3    C6 9953   1.832   4.244  14.602  0.0393  0.2388  0.1420
  669TMC3     C 9954   1.698   4.053  14.948 -1.0448 -0.0050  0.2696
  669TMC3     O 9955   1.582   4.012  14.952 -0.0368  0.3134  0.1822
  669TMC3     H 9956   1.562   4.088  14.722 -0.4978  1.3426 -0.9068
  669TMC3    H1 9957   1.912   4.209  14.926 -1.8507 -0.3535  0.0185
  669TMC3    H2 9958   1.880   4.266  14.507 -1.5160 -1.9609 -1.1604
  669TMC3    C7 9959   2.013   4.348  14.735  0.2499  0.0714 -0.2140
  669TMC3    C8 9960   1.619   4.178  14.484  0.2313 -0.1597 -0.7932
  669TMC3    O1 9961   2.103   4.327  14.815 -0.6855 -0.0810  0.2432
  669TMC3    O2 9962   1.540   4.086  14.464  0.3877 -0.4388 -0.1141
  670MPD2     C 9963   4.408   1.941  13.787 -0.0438  0.2673  0.3448
  670MPD2    C1 9964   4.532   1.937  13.841 -0.5090  0.3303 -0.2499
  670MPD2    C2 9965   4.549   1.890  13.970  0.9146 -0.3254  0.4992
  670MPD2    C3 9966   4.441   1.867  14.053 -0.0849  0.2219  0.7678
  670MPD2    C4 9967   4.317   1.873  13.997  0.0486 -0.9647  0.6715
  670MPD2    C5 9968   4.306   1.905  13.863 -0.3559  1.2802 -0.4672
  670MPD2     H 9969   4.651   1.878  14.003  1.6131  0.1117 -1.4885
  670MPD2    H1 9970   4.229   1.867  14.060 -0.6607 -1.2502 -0.3463
  670MPD2    H2 9971   4.389   1.956  13.681 -1.5238  0.0540  0.5751
  670MPD2    H3 9972   4.207   1.920  13.821 -0.9021  0.8740  0.6649
  670MPD2     N 9973   4.458   1.842  14.186  0.0495  0.2831  0.1693
  670MPD2    H5 9974   4.551   1.843  14.226  1.3854  2.0808 -2.9069
  670MPD2    N1 9975   4.642   1.952  13.762 -0.4623  0.0505  0.2233
  670MPD2    H7 9976   4.731   1.984  13.798 -0.8807 -0.1831  1.4848
  671TMC3    C1 9977   4.409   1.763  14.412 -0.3964  0.4867 -0.5494
  671TMC3    C2 9978   4.537   1.785  14.459 -0.3217  0.0562  0.3031
  671TMC3    C3 9979   4.586   1.708  14.559 -0.3889  0.2392 -0.9531
  671TMC3    C4 9980   4.323   1.687  14.486 -0.2201 -0.0660 -0.3833
  671TMC3    C5 9981   4.375   1.605  14.584 -0.1216 -0.7332 -0.8162
  671TMC3    C6 9982   4.506   1.615  14.620  0.0033 -0.2779  0.4358
  671TMC3     C 9983   4.369   1.788  14.275 -0.8775  0.1915  0.0707
  671TMC3     O 9984   4.259   1.743  14.251  0.2349 -0.2742 -0.1087
  671TMC3     H 9985   4.607   1.839  14.397 -0.3250  0.8491  0.9909
  671TMC3    H1 9986   4.217   1.683  14.462 -0.2559 -1.7643  0.0904
  671TMC3    H2 9987   4.552   1.543  14.686  1.1298 -1.2185 -1.4006
  671TMC3    C7 9988   4.337   1.464  14.579  0.1151  0.3900  0.2518
  671TMC3    C8 9989   4.717   1.653  14.526  0.4530 -0.4443 -0.2433
  671TMC3    O1 9990   4.390   1.387  14.660  0.3403  0.4677 -0.2700
  671TMC3    O2 9991   0.003   1.648  14.406  0.2829  0.0746 -0.5643
  672MPD2     C 9992   4.450   2.181   1.150 -0.1998 -0.4769  0.2360
  672MPD2    C1 9993   4.566   2.118   1.145  0.1570  0.2952  0.2902
  672MPD2    C2 9994   4.652   2.123   1.256 -0.1510  0.4587  0.8213
  672MPD2    C3 9995   4.623   2.184   1.373 -0.0713  0.3907 -0.3043
  672MPD2    C4 9996   4.492   2.228   1.383 -0.0474  0.1268 -0.2319
  672MPD2    C5 9997   4.407   2.229   1.274  0.0366  0.0501  0.1534
  672MPD2     H 9998   0.015   2.084   1.250 -0.6846 -0.6942 -0.5873
  672MPD2    H1 9999   4.466   2.275   1.476  1.1751  2.3938 -1.0439
  672MPD2    H210000   4.372   2.172   1.075  0.6309 -0.5654 -0.6221
  672MPD2    H310001   4.308   2.270   1.290  0.5999  0.9936  1.1469
  672MPD2     N10002   4.714   2.212   1.478  0.4535 -0.4437  0.5731
  672MPD2    H510003   4.683   2.282   1.545 -1.3764  1.5032 -2.2357
  672MPD2    N110004   4.615   2.056   1.025  0.0105 -0.0797 -0.2958
  672MPD2    H710005   4.700   2.004   1.042  0.0116 -0.7972 -2.5270
  673TMC3    C110006   4.649   2.007   0.800  0.0641 -0.1749  0.1394
  673TMC3    C210007   4.711   1.888   0.829  0.0037  0.4085 -0.1538
  673TMC3    C310008   0.075   1.847   0.742  0.1064  0.3064  0.0657
  673TMC3    C410009   4.684   2.085   0.698 -0.1942 -0.2209 -0.2970
  673TMC3    C510010   0.040   2.041   0.609 -0.0770 -0.0792 -0.9964
  673TMC3    C610011   0.109   1.924   0.631 -0.6890 -0.2985 -0.0161
  673TMC3     C10012   4.570   2.077   0.895  0.1902 -0.1370  0.9654
  673TMC3     O10013   4.491   2.171   0.867  0.6657  0.0301 -0.2112
  673TMC3     H10014   4.678   1.826   0.911 -0.3671 -0.2253 -0.7859
  673TMC3    H110015   4.626   2.175   0.684  0.1899 -0.1057 -1.1878
  673TMC3    H210016   0.198   1.902   0.574  0.2412  0.6504  1.0808
  673TMC3    C710017   0.109   2.137   0.526 -0.8057 -0.5695 -0.4805
  673TMC3    C810018   0.178   1.753   0.783 -0.3240  0.3988 -0.1956
  673TMC3    O110019   0.203   2.093   0.463  0.1503  0.4149  0.9347
  673TMC3    O210020   0.180   1.730   0.904  0.0156 -0.0950  0.3988
  674MPD2     C10021   0.187   2.551  17.678 -0.1531 -0.1078  0.1956
  674MPD2    C110022   0.156   2.436  17.744 -0.8573 -0.1496  0.6439
  674MPD2    C210023   0.049   2.440   0.083 -0.0141  0.3144 -1.0100
  674MPD2    C310024   4.719   2.558   0.104  0.2709  1.3695  0.1101
  674MPD2    C410025   0.017   2.672   0.020 -0.2235 -0.0745  0.0695
  674MPD2    C510026   0.118   2.667  17.683 -0.6246 -0.0961  0.2159
  674MPD2     H10027   0.024   2.354   0.143  0.0982 -0.7888 -2.5640
  674MPD2    H110028   4.694   2.761   0.037 -0.9176 -0.4609 -0.3836
  674MPD2    H210029   0.275   2.550  17.615 -0.5154  0.5755 -0.3212
  674MPD2    H310030   0.152   2.753  17.626  1.7628 -1.0478  0.2220
  674MPD2     N10031   4.627   2.562   0.209 -0.0586 -0.1064 -0.7557
  674MPD2    H510032   4.620   2.472   0.255  3.3694 -0.1738 -0.3950
  674MPD2    N110033   0.236   2.326  17.716  0.1116  0.1986  0.5805
  674MPD2    H710034   0.319   2.347  17.661 -0.1981  2.1830  0.8689
  675TMC3    C110035   0.333   2.116  17.730 -0.0554 -0.8253 -0.1648
  675TMC3    C210036   0.312   1.979  17.723 -0.0285  0.1818  0.1657
  675TMC3    C310037   0.415   1.897  17.717  0.3788  0.4108 -0.3120
  675TMC3    C410038   0.462   2.169  17.727  0.4918  0.7503 -0.8376
  675TMC3    C510039   0.568   2.084  17.705 -0.0527  0.2676  0.0279
  675TMC3    C610040   0.542   1.950  17.706  0.0277  0.5964 -0.4900
  675TMC3     C10041   0.212   2.195  17.747  0.2169 -0.9254 -0.6836
  675TMC3     O10042   0.107   2.139   0.040 -0.7050 -0.2835  0.4530
  675TMC3     H10043   0.215   1.930  17.719  0.8703 -1.3274 -2.4653
  675TMC3    H110044   0.473   2.276  17.737  0.5550  0.6015  0.6954
  675TMC3    H210045   0.626   1.884  17.686  0.3906  0.5660  1.1074
  675TMC3    C710046   0.692   2.125   0.012 -0.6960  0.4009  0.2109
  675TMC3    C810047   0.412   1.751  17.740 -0.0448  0.2177  0.1303
  675TMC3    O110048   0.701   2.247   0.021 -0.0287  0.2931  0.2668
  675TMC3    O210049   0.494   1.686  17.678  0.5558  0.5439  0.2986
  676MPD2     C10050   2.805   1.102  11.194 -0.0783  0.4715 -0.5242
  676MPD2    C110051   2.724   1.010  11.255 -0.0194  0.0333  0.2098
  676MPD2    C210052   2.728   0.882  11.207  0.1767 -0.2728 -0.1430
  676MPD2    C310053   2.823   0.835  11.118  0.4626  0.4392 -0.0677
  676MPD2    C410054   2.913   0.925  11.072  0.3218 -0.5441  0.1668
  676MPD2    C510055   2.899   1.062  11.112 -0.3650  0.6488 -0.5743
  676MPD2     H10056   2.666   0.811  11.260 -0.9601  0.9696  0.1887
  676MPD2    H110057   2.982   0.899  10.992 -0.6407 -1.1948 -0.4532
  676MPD2    H210058   2.804   1.207  11.220 -0.0902 -0.0951  1.7552
  676MPD2    H310059   2.966   1.128  11.059  1.0555 -1.3082 -1.2268
  676MPD2     N10060   2.846   0.698  11.083  0.2312  0.0416 -0.8554
  676MPD2    H510061   2.931   0.674  11.033 -1.3029 -2.3115 -2.3571
  676MPD2    N110062   2.640   1.043  11.362  0.3350  0.3239 -0.3082
  676MPD2    H710063   2.573   0.970  11.386  1.9002 -0.6721  1.0600
  677TMC3    C110064   2.522   1.186  11.518  0.3639  0.2252  0.3328
  677TMC3    C210065   2.413   1.103  11.532  0.9614 -0.3095  0.0964
  677TMC3    C310066   2.345   1.110  11.643  0.0339 -0.2362 -0.1056
  677TMC3    C410067   2.549   1.277  11.616 -0.5830 -0.4381 -0.1533
  677TMC3    C510068   2.483   1.268  11.733  0.1298  0.2865  0.1392
  677TMC3    C610069   2.372   1.192  11.741  0.3297 -0.8628 -0.4260
  677TMC3     C10070   2.628   1.172  11.418 -0.2484 -0.3374  0.0822
  677TMC3     O10071   2.682   1.279  11.389  0.7118 -0.0290  0.4241
  677TMC3     H10072   2.377   1.034  11.456 -0.5700 -1.5196  1.9194
  677TMC3    H110073   2.653   1.308  11.614 -0.8646  0.5246  0.3373
  677TMC3    H210074   2.313   1.194  11.832 -1.3003  0.6059 -1.5046
  677TMC3    C710075   2.543   1.303  11.860 -0.0908  0.4750  1.1646
  677TMC3    C810076   2.238   1.013  11.658  0.0832 -0.9118  0.2243
  677TMC3    O110077   2.519   1.236  11.958  0.3006  0.3768 -0.4236
  677TMC3    O210078   2.161   0.993  11.563 -0.5777  0.1510  0.0432
  678MPD2     C10079   4.729   0.935   1.392  0.5183 -0.0278 -0.1350
  678MPD2    C110080   4.723   0.823   1.309 -0.0496 -0.3332  0.0999
  678MPD2    C210081   4.601   0.760   1.286  0.8421  0.5897 -0.5704
  678MPD2    C310082   4.484   0.805   1.342 -0.1054  0.2775 -0.3565
  678MPD2    C410083   4.486   0.906   1.438  0.5141 -0.2633 -0.1250
  678MPD2    C510084   4.609   0.971   1.455 -0.1659 -0.2750 -0.1001
  678MPD2     H10085   4.595   0.681   1.212  0.4564 -1.5948  1.7902
  678MPD2    H110086   4.396   0.941   1.489  0.1753 -1.7552  0.2904
  678MPD2    H210087   0.083   0.987   1.418  1.1842 -0.6715 -1.2212
  678MPD2    H310088   4.615   1.046   1.533  0.6279 -0.3259 -0.1113
  678MPD2     N10089   4.367   0.738   1.294 -0.2178 -0.7701  0.4340
  678MPD2    H510090   4.381   0.665   1.226 -0.7010  0.0012 -0.4996
  678MPD2    N110091   0.089   0.772   1.227 -0.2547  0.2561 -0.5878
  678MPD2    H710092   0.065   0.698   1.163 -0.3989 -0.4220  0.2545
  679TMC3    C110093   0.472   0.684   0.987  0.0364  0.4264  0.0109
  679TMC3    C210094   0.412   0.712   1.107  0.0592 -0.4060  0.4511
  679TMC3    C310095   0.279   0.766   1.104  0.0529  0.4933 -0.2664
  679TMC3    C410096   0.419   0.734   0.871 -0.2392  0.6332  0.7378
  679TMC3    C510097   0.298   0.797   0.874  0.0723 -0.0491 -0.6371
  679TMC3    C610098   0.231   0.812   0.987  0.1422  0.2691  0.1640
  679TMC3     C10099   0.507   0.548   0.963 -0.8023 -0.5836 -0.0251
  679TMC3     O10100   0.461   0.508   0.857  0.1112  0.2448 -0.1990
  679TMC3     H10101   0.454   0.683   1.203  1.2230 -1.8861 -0.5003
  679TMC3    H110102   0.468   0.718   0.775 -0.8421 -0.3957  0.5966
  679TMC3    H210103   0.126   0.834   0.996 -0.0484 -1.2816  1.8674
  679TMC3    C710104   0.213   0.759   0.760  0.4273  0.0861 -0.3302
  679TMC3    C810105   0.218   0.817   1.223  1.2284  0.4148  0.1797
  679TMC3    O110106   0.115   0.820   0.731 -0.3624 -0.5354  0.5568
  679TMC3    O210107   0.283   0.881   1.303 -0.0546  0.3261  0.5204
  680MPD2     C10108   4.403   4.191  13.102 -0.3446 -0.1722  0.9578
  680MPD2    C110109   4.511   4.119  13.147  0.0587 -0.2074  0.1800
  680MPD2    C210110   4.613   4.189  13.208 -0.0616  0.2757 -0.2490
  680MPD2    C310111   4.622   4.328  13.211  0.2168  0.2525  0.1321
  680MPD2    C410112   4.536   4.396  13.134  0.2127  0.6185  1.0914
  680MPD2    C510113   4.427   4.329  13.093  0.3070  0.1875 -0.3088
  680MPD2     H10114   4.698   4.136  13.249  1.2266  0.2033 -3.0602
  680MPD2    H110115   4.524   4.504  13.137 -0.8672  0.5721 -1.2413
  680MPD2    H210116   4.318   4.135  13.065  1.2664 -1.8366 -0.2479
  680MPD2    H310117   4.342   4.383  13.053 -0.2891  0.9513  1.9980
  680MPD2     N10118   4.719   4.404  13.282  0.8499 -0.1872 -0.1899
  680MPD2    H510119   4.700   4.503  13.289  3.9468  0.5053 -1.2618
  680MPD2    N110120   4.523   3.978  13.159  0.0376 -0.4974 -1.0592
  680MPD2    H710121   4.603   3.939  13.207 -0.7023 -0.4992  0.1591
  681TMC3    C110122   4.487   3.749  13.097 -0.0238  0.3434  1.1995
  681TMC3    C210123   4.405   3.647  13.130 -0.3884 -0.1303 -0.1845
  681TMC3    C310124   4.467   3.535  13.172  0.2653  0.5379 -0.4708
  681TMC3    C410125   4.620   3.740  13.098 -0.5306  0.1662  0.4682
  681TMC3    C510126   4.678   3.626  13.149  0.9544 -0.5555 -0.2019
  681TMC3    C610127   4.602   3.522  13.186  0.6937 -0.4930  0.3131
  681TMC3     C10128   4.436   3.890  13.101  0.1563 -0.4675  0.2996
  681TMC3     O10129   4.318   3.915  13.075  0.1990  0.2227 -0.0354
  681TMC3     H10130   4.298   3.652  13.148 -0.1995 -1.2544  1.2201
  681TMC3    H110131   4.682   3.827  13.078  1.0437 -1.2440 -0.7389
  681TMC3    H210132   4.660   3.435  13.218  4.3687  1.2636 -1.6519
  681TMC3    C710133   0.085   3.605  13.140 -0.0138 -0.0651 -0.3968
  681TMC3    C810134   4.383   3.432  13.225  0.2135 -0.9042  0.6799
  681TMC3    O110135   0.138   3.537  13.228  0.1483 -0.1584 -0.4807
  681TMC3    O210136   4.290   3.397  13.159  0.2751  0.4637  0.4976
  682MPD2     C10137   1.621   0.852  11.003 -0.4814  0.3912  0.2348
  682MPD2    C110138   1.677   0.729  10.966  0.1617  0.8637  0.1952
  682MPD2    C210139   1.772   0.665  11.044 -0.2888 -0.5847  1.2050
  682MPD2    C310140   1.804   0.726  11.167 -0.5444  0.2939 -0.2544
  682MPD2    C410141   1.739   0.838  11.207  0.8171 -0.7916 -0.1452
  682MPD2    C510142   1.658   0.908  11.122  0.4753 -0.0148  0.5024
  682MPD2     H10143   1.811   0.569  11.011  2.0354  0.5407  0.6433
  682MPD2    H110144   1.727   0.878  11.307  0.3197 -2.1630  0.3482
  682MPD2    H210145   1.550   0.908  10.943 -0.5147  0.4092  0.2916
  682MPD2    H310146   1.610   1.000  11.154  0.0324 -0.4958  1.2012
  682MPD2     N10147   1.879   0.655  11.266  0.2291  0.5677  0.6272
  682MPD2    H510148   1.865   0.687  11.361  1.3368  1.2951  0.5430
  682MPD2    N110149   1.632   0.656  10.848 -0.2687  0.2882 -0.1076
  682MPD2    H710150   1.677   0.566  10.838 -1.6024 -0.4783  0.9020
  683TMC3    C110151   2.022   0.467  11.594  0.2206  0.7042  0.7932
  683TMC3    C210152   2.143   0.404  11.582  0.3257  0.3820 -0.9426
  683TMC3    C310153   2.183   0.365  11.456 -0.4853 -0.2871 -0.2467
  683TMC3    C410154   1.948   0.500  11.484 -0.0209  0.4641  0.0846
  683TMC3    C510155   2.002   0.477  11.363  0.8383  0.3567  0.0043
  683TMC3    C610156   2.113   0.402  11.351  0.1691 -0.0447  0.1553
  683TMC3     C10157   1.989   0.532  11.719  0.8971 -0.8487  0.5542
  683TMC3     O10158   1.928   0.641  11.710  0.4083  0.1762  0.3104
  683TMC3     H10159   2.208   0.407  11.668  0.2778 -0.6374 -0.8666
  683TMC3    H110160   1.857   0.557  11.497  1.3197  2.5103  0.4715
  683TMC3    H210161   2.150   0.389  11.249  2.8881  2.5032  0.8019
  683TMC3    C710162   1.941   0.534  11.237  0.4594  0.4035  0.1343
  683TMC3    C810163   2.318   0.317  11.438  0.8929 -0.0064  0.8286
  683TMC3    O110164   1.960   0.467  11.135  0.2055 -0.1812 -0.2892
  683TMC3    O210165   2.352   0.281  11.326  0.3965 -0.0962  0.3220
  684MPD2     C10166   0.250   4.410  16.375  0.3541  0.4316 -0.1742
  684MPD2    C110167   0.152   4.456  16.296  0.1062  0.1054 -0.4355
  684MPD2    C210168   0.108   4.592  16.314 -0.9084  0.0666 -0.3244
  684MPD2    C310169   0.168   4.672  16.406 -0.5448  0.4635  0.2616
  684MPD2    C410170   0.272   4.617  16.488 -0.7248 -0.2917  0.1483
  684MPD2    C510171   0.312   4.487  16.472  0.4721 -0.1539  0.3831
  684MPD2     H10172   0.031   4.637  16.252 -1.4493  0.2768  0.5075
  684MPD2    H110173   0.315   4.679  16.566  1.9697 -2.5255  0.4319
  684MPD2    H210174   0.294   4.313  16.355  0.1320  0.1764  0.5909
  684MPD2    H310175   0.399   4.455  16.527  0.3479 -2.0906 -0.5260
  684MPD2     N10176   0.135   0.068  16.430 -0.3255 -0.0130 -0.2626
  684MPD2    H510177   0.170   0.123  16.508  1.7336 -0.6613 -0.7335
  684MPD2    N110178   0.111   4.392  16.173  0.3935 -0.8311 -0.1009
  684MPD2    H710179   0.048   4.446  16.115 -0.6596 -2.0003 -0.0351
  685TMC3    C110180   0.161   4.285  15.975 -0.5966 -0.4708  0.2485
  685TMC3    C210181   0.065   4.354  15.902  0.3523 -0.3132 -0.1538
  685TMC3    C310182   0.076   4.349  15.762  0.5626  0.0731 -0.2119
  685TMC3    C410183   0.261   4.219  15.912 -0.2485 -0.1848  0.4479
  685TMC3    C510184   0.267   4.219  15.773  0.2221 -0.1583  0.4232
  685TMC3    C610185   0.176   4.278  15.696 -0.0386  0.2511 -0.2638
  685TMC3     C10186   0.179   4.285  16.116 -0.1879  0.0843 -0.3336
  685TMC3     O10187   0.253   4.207  16.172 -0.3247 -0.4311 -0.4489
  685TMC3     H10188   4.723   4.413  15.946  0.0875 -0.9837  0.2646
  685TMC3    H110189   0.333   4.154  15.960  0.5951  0.3194 -0.1390
  685TMC3    H210190   0.185   4.261  15.589  0.6508 -0.1477 -0.1397
  685TMC3    C710191   0.395   4.206  15.717 -0.2001  0.3588 -0.4514
  685TMC3    C810192   4.720   4.431  15.682  0.0365  0.4963  0.8025
  685TMC3    O110193   0.412   4.141  15.618 -0.0341 -0.1332 -0.5405
  685TMC3    O210194   4.710   4.412  15.560 -0.6879  0.0561 -0.2867
  686MPD2     C10195   1.636   0.136  15.369  0.7302 -0.2369  0.4096
  686MPD2    C110196   1.653   0.014  15.424 -0.6942 -0.2229  0.3474
  686MPD2    C210197   1.660   4.643  15.336  0.2716  0.7057 -0.5146
  686MPD2    C310198   1.639   4.654  15.199  0.5504 -0.5719 -0.0407
  686MPD2    C410199   1.615   0.040  15.155 -0.3626  0.0827  0.5813
  686MPD2    C510200   1.618   0.150  15.235  0.1929  0.4486 -0.1053
  686MPD2     H10201   1.700   4.553  15.380  0.2253  0.8436 -0.1904
  686MPD2    H110202   1.613   0.050  15.047 -1.8260  0.5675  0.6489
  686MPD2    H210203   1.628   0.221  15.435  2.8277 -0.0696  0.4655
  686MPD2    H310204   1.610   0.248  15.192  0.4591  0.1996 -0.7157
  686MPD2     N10205   1.656   4.550  15.109  0.3788 -0.1489  0.0376
  686MPD2    H510206   1.654   4.575  15.011 -1.5100  1.5123  0.4939
  686MPD2    N110207   1.651   4.736  15.565 -0.0320  0.2096  0.1200
  686MPD2    H710208   1.625   0.076  15.625  0.2282  0.5190 -0.1661
  687TMC3    C110209   1.653   4.348  15.259  0.3929 -0.1034 -0.8087
  687TMC3    C210210   1.527   4.351  15.310  0.3754  0.5642 -0.1880
  687TMC3    C310211   1.495   4.274  15.421  0.3441  0.1280  0.1208
  687TMC3    C410212   1.743   4.256  15.317 -0.4840 -0.3006  0.1655
  687TMC3    C510213   1.703   4.169  15.420  0.2106  0.1596 -0.0454
  687TMC3    C610214   1.582   4.188  15.476 -0.0842 -0.4220 -0.0739
  687TMC3     C10215   1.674   4.411  15.128 -0.0722 -0.1504  0.5448
  687TMC3     O10216   1.720   4.331  15.051 -0.1658  0.7211 -0.0500
  687TMC3     H10217   1.449   4.404  15.257  1.7324 -0.3691 -3.1186
  687TMC3    H110218   1.832   4.223  15.264  0.7176  2.7563  0.3127
  687TMC3    H210219   1.560   4.124  15.560  1.4476 -0.3145  0.4158
  687TMC3    C710220   1.812   4.165  15.519  1.0749 -0.3890  0.0570
  687TMC3    C810221   1.393   4.313  15.506 -0.6653 -0.4926  0.5337
  687TMC3    O110222   1.803   4.082  15.610  0.4055  0.0807 -0.3203
  687TMC3    O210223   1.358   4.226  15.584 -0.1156  0.3065  0.0985
  688MPD2     C10224   0.598   3.651  17.512 -0.0897 -0.0334  0.8818
  688MPD2    C110225   0.644   3.519  17.523 -0.5612  0.5580  0.2851
  688MPD2    C210226   0.747   3.475  17.441  0.1365 -0.1072  0.2664
  688MPD2    C310227   0.799   3.556  17.344  0.5548 -0.7590  0.1954
  688MPD2    C410228   0.748   3.687  17.331 -1.1824  0.8048  0.1935
  688MPD2    C510229   0.656   3.734  17.418 -0.6427  0.1325  0.0740
  688MPD2     H10230   0.791   3.376  17.457  2.9034  0.8667 -1.2483
  688MPD2    H110231   0.802   3.753  17.265 -0.3073  0.6945  0.7899
  688MPD2    H210232   0.518   3.689  17.574 -0.7843  1.4200 -0.9259
  688MPD2    H310233   0.627   3.838  17.417 -1.1520 -0.0171 -0.6512
  688MPD2     N10234   0.913   3.526  17.267 -0.2377 -0.1995  0.3656
  688MPD2    H510235   0.950   3.607  17.218 -1.8303  0.5817  0.4783
  688MPD2    N110236   0.587   3.435  17.617 -0.3776 -0.5524 -0.2425
  688MPD2    H710237   0.635   3.347  17.636  0.1710 -0.7388 -2.4883
  689TMC3    C110238   0.459   3.356   0.051 -0.1910 -0.5345 -0.0971
  689TMC3    C210239   0.404   3.394   0.179 -0.4142  0.1428  0.4270
  689TMC3    C310240   0.381   3.290   0.267 -0.6107 -0.3411 -0.0595
  689TMC3    C410241   0.484   3.226   0.008 -0.1936 -0.4037 -0.9199
  689TMC3    C510242   0.470   3.133   0.110 -0.4261  0.7728  0.1495
  689TMC3    C610243   0.435   3.170   0.238 -0.0255  0.1401  0.0767
  689TMC3     C10244   0.496   3.469  17.717  0.1347  0.2222 -0.3729
  689TMC3     O10245   0.448   3.578  17.743  0.1387  0.0045  0.3444
  689TMC3     H10246   0.376   3.497   0.197  2.3654  0.8883  0.4586
  689TMC3    H110247   0.531   3.191  17.666  2.1270  0.6629 -0.1209
  689TMC3    H210248   0.426   3.092   0.313 -1.1570 -0.0379 -0.2306
  689TMC3    C710249   0.533   3.004   0.105  0.5406 -0.4654  0.4957
  689TMC3    C810250   0.389   3.322   0.406  0.6104  0.5591  0.7078
  689TMC3    O110251   0.584   2.953   0.204 -0.3486 -0.3608  0.3153
  689TMC3    O210252   0.422   3.239   0.486 -0.0432  0.4506  0.1536
  690MPD2     C10253   3.172   0.653  15.751 -0.7717 -0.1705 -0.1520
  690MPD2    C110254   3.062   0.659  15.669  0.7815 -0.4714  0.0056
  690MPD2    C210255   3.083   0.674  15.532 -0.3077  0.1659 -0.3590
  690MPD2    C310256   3.204   0.726  15.494 -0.3171  0.0061  0.2958
  690MPD2    C410257   3.308   0.734  15.583 -0.6169  0.3003  0.0741
  690MPD2    C510258   3.298   0.697  15.712  0.1591 -0.7569  0.1931
  690MPD2     H10259   2.998   0.659  15.466 -0.6342  1.6548 -0.2677
  690MPD2    H110260   3.400   0.773  15.539 -0.0902 -1.5288 -0.4537
  690MPD2    H210261   3.173   0.654  15.859 -0.3500 -0.1678 -0.1585
  690MPD2    H310262   3.379   0.713  15.782  0.7002 -0.3337 -0.5387
  690MPD2     N10263   3.224   0.743  15.354 -0.1013 -0.1234  0.2348
  690MPD2    H510264   3.141   0.738  15.295 -0.0892  0.0743  0.2008
  690MPD2    N110265   2.936   0.605  15.710 -0.1042  0.0212 -0.5271
  690MPD2    H710266   2.863   0.587  15.642 -1.9599 -1.4460  1.8166
  691TMC3    C110267   2.779   0.513  15.860 -0.1810 -0.2190  0.0806
  691TMC3    C210268   2.668   0.559  15.802 -0.0176 -0.3486 -0.1969
  691TMC3    C310269   2.562   0.471  15.803 -0.0384 -0.1388 -0.2043
  691TMC3    C410270   2.780   0.396  15.930 -0.1667 -0.8483 -0.4998
  691TMC3    C510271   2.671   0.311  15.925  0.0378 -0.1224 -0.7081
  691TMC3    C610272   2.557   0.349  15.855 -0.1506 -0.9127 -0.0521
  691TMC3     C10273   2.909   0.571  15.840 -0.7207  0.0157  0.1788
  691TMC3     O10274   2.971   0.584  15.947  0.0588  0.4069  0.2345
  691TMC3     H10275   2.671   0.654  15.750 -1.3918 -0.6515 -0.8544
  691TMC3    H110276   2.869   0.362  15.981 -3.8469 -3.7832  3.8926
  691TMC3    H210277   2.467   0.288  15.857 -0.1800 -0.7376  3.5879
  691TMC3    C710278   2.695   0.171  15.956 -0.5725  0.3236  0.4637
  691TMC3    C810279   2.459   0.498  15.706 -0.2347 -0.0645  0.2541
  691TMC3    O110280   2.788   0.149  16.031  0.5431  0.3653 -0.7614
  691TMC3    O210281   2.404   0.408  15.651  0.4941  0.0562 -0.2416
  692TMC3    C110282   4.493   1.304  15.693 -0.0088 -0.0732  0.4373
  692TMC3    C210283   4.626   1.340  15.717  0.4974 -0.2941  0.6485
  692TMC3    C310284   4.725   1.247  15.707  0.5075  0.8710 -0.3736
  692TMC3    C410285   4.450   1.180  15.651 -0.5145  0.0548  0.2964
  692TMC3    C510286   4.549   1.090  15.658  0.3706  0.3112 -0.2596
  692TMC3    C610287   4.680   1.113  15.691 -0.1037 -0.9323  0.1173
  692TMC3     C10288   4.400   1.408  15.671 -0.0743 -0.5324 -0.7508
  692TMC3     O10289   4.281   1.382  15.669  0.2564 -0.5129  0.4315
  692TMC3     H10290   4.633   1.413  15.797 -2.7179  0.2045  0.4983
  692TMC3    H110291   4.351   1.153  15.614 -1.3521  1.1147  1.7330
  692TMC3    H210292   0.020   1.038  15.698  1.4646  0.7625  0.9714
  692TMC3    C710293   4.515   0.947  15.653 -0.1903  0.1689  0.4115
  692TMC3    C810294   0.093   1.271  15.804  0.3207 -0.1245  0.8518
  692TMC3    O110295   4.426   0.917  15.572 -0.3835  0.0764 -0.0981
  692TMC3    O210296   0.128   1.181  15.881  0.2787  0.5885  0.2259
  693MPD2     C10297   4.238   0.247  10.870  0.1649  0.5796  0.3774
  693MPD2    C110298   4.231   0.111  10.838  0.6345 -0.0046  0.4706
  693MPD2    C210299   4.350   0.037  10.826  0.7600 -0.7202 -0.0930
  693MPD2    C310300   4.469   0.090  10.858 -0.0529 -1.4459  0.9720
  693MPD2    C410301   4.479   0.226  10.866 -0.3714 -0.0210  0.0274
  693MPD2    C510302   4.362   0.302  10.858 -1.0814 -0.4288  0.1408
  693MPD2     H10303   4.333   4.676  10.784 -1.6027  0.0837 -1.0138
  693MPD2    H110304   4.579   0.266  10.875 -0.9215  1.5348 -0.6346
  693MPD2    H210305   4.154   0.316  10.873 -1.7918 -1.6322 -2.9447
  693MPD2    H310306   4.360   0.410  10.857 -0.3395 -0.4284 -0.6871
  693MPD2     N10307   4.593   0.019  10.858  0.4601 -0.0248  0.1540
  693MPD2    H510308   4.679   0.071  10.874  1.7520 -2.0375 -0.2703
  693MPD2    N110309   4.098   0.050  10.833 -0.5379 -0.5451  0.0255
  693MPD2    H710310   4.023   0.114  10.858 -0.7712 -0.7322 -0.2042
  694TMC3    C110311   3.937   4.627  10.854  0.3726 -0.9085 -0.8412
  694TMC3    C210312   3.867   4.523  10.797  0.6644  0.4048  0.3905
  694TMC3    C310313   3.789   4.446  10.878  0.1518 -0.0793 -0.7963
  694TMC3    C410314   3.920   4.656  10.987  0.7233 -0.1763 -0.0369
  694TMC3    C510315   3.836   4.584  11.063  0.3711  0.3278 -0.1457
  694TMC3    C610316   3.774   4.469  11.010  0.3154 -0.0292 -0.2469
  694TMC3     C10317   4.063   4.660  10.791  0.2878 -0.4121  0.3331
  694TMC3     O10318   4.122   4.578  10.731  0.0670 -0.1955 -0.0394
  694TMC3     H10319   3.892   4.503  10.693  1.7426 -0.0043  0.7363
  694TMC3    H110320   3.964   0.003  11.039  0.7364  0.8902 -1.7841
  694TMC3    H210321   3.709   4.407  11.071 -1.1662 -0.2245 -2.0327
  694TMC3    C710322   3.827   4.610  11.202 -0.6063 -0.5522  0.2440
  694TMC3    C810323   3.747   4.313  10.820 -0.2230 -0.6536 -0.1172
  694TMC3    O110324   3.862   4.720  11.236  0.4884 -0.5393 -0.7528
  694TMC3    O210325   3.670   4.249  10.887 -0.3077 -0.0713 -0.0657
  695MPD2     C10326   0.172   1.183  13.628 -0.0600 -0.3478  0.0646
  695MPD2    C110327   0.124   1.194  13.757  0.3063  0.3675  0.2575
  695MPD2    C210328   4.732   1.234  13.769  0.4670  0.1869  0.3846
  695MPD2    C310329   4.657   1.265  13.660  0.2367 -0.6033 -0.6079
  695MPD2    C410330   4.702   1.272  13.536  0.1070 -0.3208  0.4385
  695MPD2    C510331   0.093   1.226  13.521 -0.0832  0.0588 -0.3992
  695MPD2     H10332   4.696   1.234  13.871 -2.9231  0.5292 -0.8241
  695MPD2    H110333   4.633   1.290  13.454  0.3207  1.1419  0.5758
  695MPD2    H210334   0.277   1.172  13.605 -0.1235 -1.6937  0.4220
  695MPD2    H310335   0.131   1.236  13.420 -1.5720  0.2589 -0.9470
  695MPD2     N10336   4.523   1.306  13.687 -0.3124 -0.1623 -1.2129
  695MPD2    H510337   4.487   1.302  13.782 -2.6216  0.1536 -2.0918
  695MPD2    N110338   0.206   1.165  13.869 -0.2649 -0.1109 -0.2169
  695MPD2    H710339   0.165   1.194  13.957  1.6418  3.2572 -0.4454
  696TMC3    C110340   4.292   1.342  13.654 -0.0439 -0.0225 -0.3872
  696TMC3    C210341   4.270   1.291  13.779  0.6227  0.6356  0.4531
  696TMC3    C310342   4.147   1.319  13.840 -0.4663  0.2020  0.3087
  696TMC3    C410343   4.207   1.428  13.596  0.8848 -0.6909 -0.2614
  696TMC3    C510344   4.087   1.456  13.661 -0.3311  0.6083 -1.8104
  696TMC3    C610345   4.055   1.399  13.780 -0.3537  0.3182 -0.1117
  696TMC3     C10346   4.424   1.338  13.600 -0.0935  0.3101  0.3620
  696TMC3     O10347   4.441   1.369  13.485 -0.1145  0.3825 -0.1103
  696TMC3     H10348   4.339   1.228  13.834 -0.5001 -1.5996 -0.6470
  696TMC3    H110349   4.239   1.480  13.507  1.2952 -1.6407 -0.6654
  696TMC3    H210350   3.964   1.413  13.837 -1.0190  2.6558 -1.7592
  696TMC3    C710351   4.034   1.586  13.642  0.1394 -0.5167  0.9412
  696TMC3    C810352   4.160   1.336  13.983  0.6315  0.6092  0.3135
  696TMC3    O110353   4.056   1.631  13.530  0.4298 -0.0403 -0.0916
  696TMC3    O210354   4.129   1.448  14.021  0.0004  0.6081  0.2598
  697MPD2     C10355   4.197   3.328  15.497 -0.8101 -0.0167 -0.4993
  697MPD2    C110356   4.124   3.288  15.381  0.1168 -0.4414  0.3800
  697MPD2    C210357   4.114   3.373  15.274 -0.6434 -0.3025  0.0983
  697MPD2    C310358   4.171   3.494  15.277  0.4809  0.5151  0.2451
  697MPD2    C410359   4.248   3.534  15.387 -0.2352  0.2225  0.4137
  697MPD2    C510360   4.254   3.454  15.495 -0.7376  0.5083  0.3876
  697MPD2     H10361   4.075   3.336  15.180 -0.6127 -2.3405  0.8905
  697MPD2    H110362   4.307   3.625  15.396 -0.4428  0.6104 -2.1618
  697MPD2    H210363   4.213   3.266  15.585 -2.0630  0.8906  0.3586
  697MPD2    H310364   4.303   3.488  15.586  1.2902 -0.7947 -0.2357
  697MPD2     N10365   4.161   3.569  15.157 -0.1139 -0.1863 -0.5117
  697MPD2    H510366   4.112   3.532  15.076 -0.7977 -2.2926  0.8625
  697MPD2    N110367   4.069   3.164  15.368  0.0899  0.4112  0.6640
  697MPD2    H710368   4.020   3.147  15.281  0.8819 -0.6550  0.4308
  698TMC3    C110369   4.200   3.736  15.004 -0.1725 -0.1733 -0.1333
  698TMC3    C210370   4.216   3.869  14.990 -0.1187 -0.9156 -0.4837
  698TMC3    C310371   4.149   3.918  14.887 -0.5294  0.1651 -0.5205
  698TMC3    C410372   4.117   3.651  14.927  0.2096  0.8343  0.3390
  698TMC3    C510373   4.058   3.714  14.821 -0.4597 -0.3742  0.6419
  698TMC3    C610374   4.064   3.844  14.810 -0.0632 -0.1416  0.0731
  698TMC3     C10375   4.212   3.693  15.142 -0.7253 -0.1142 -0.1770
  698TMC3     O10376   4.263   3.778  15.218  0.1393 -0.1168 -0.3065
  698TMC3     H10377   4.252   3.939  15.065 -2.3611 -0.1279 -0.1493
  698TMC3    H110378   4.116   3.543  14.928  1.4829  0.7924 -2.5372
  698TMC3    H210379   4.013   3.886  14.723  1.4197  1.0807 -0.2155
  698TMC3    C710380   3.990   3.639  14.720 -0.7756  0.2397  0.4347
  698TMC3    C810381   4.187   4.047  14.839 -0.0675 -0.2461  0.0647
  698TMC3    O110382   3.991   3.697  14.614 -0.4934 -0.0255 -0.3276
  698TMC3    O210383   4.104   4.111  14.775 -0.8239  0.6383  0.2811
  699TMC3    C110384   4.241   1.525  13.156  0.1243 -0.7316 -0.5985
  699TMC3    C210385   4.315   1.415  13.209  0.0954 -0.5413 -0.0760
  699TMC3    C310386   4.241   1.315  13.270  0.8973  0.1944  0.7536
  699TMC3    C410387   4.102   1.537  13.176  0.1561 -0.0356 -0.4278
  699TMC3    C510388   4.046   1.443  13.256 -0.2374 -0.5115 -0.0059
  699TMC3    C610389   4.112   1.328  13.297 -0.1572  0.2386 -0.1003
  699TMC3     C10390   4.308   1.608  13.058  0.2685 -0.2510  0.1566
  699TMC3     O10391   4.240   1.683  12.995  0.3260 -0.5301 -0.2731
  699TMC3     H10392   4.423   1.406  13.199  0.4591  1.2820  2.2658
  699TMC3    H110393   4.046   1.619  13.132 -0.2420 -0.4687 -0.7258
  699TMC3    H210394   4.055   1.252  13.351  0.6359  0.7798  1.5008
  699TMC3    C710395   3.903   1.446  13.285 -1.2983 -0.1659 -0.1419
  699TMC3    C810396   4.293   1.182  13.297 -0.7309 -0.3560 -0.6640
  699TMC3    O110397   3.849   1.339  13.310 -0.1989 -0.0400  0.9086
  699TMC3    O210398   4.214   1.097  13.340 -0.0069 -0.1015  0.1715
  700TMC3    C110399   3.873   3.862  17.053  0.8273  0.2168 -0.2933
  700TMC3    C210400   3.974   3.774  17.039 -0.8187  0.4171  0.3856
  700TMC3    C310401   4.080   3.790  17.115 -0.5114  0.0070  0.5763
  700TMC3    C410402   3.869   3.966  17.144  0.2303  0.0855 -1.1912
  700TMC3    C510403   3.985   3.984  17.216  0.7054  0.1537  0.0475
  700TMC3    C610404   4.093   3.897  17.206  0.2910 -0.0159 -0.6152
  700TMC3     C10405   3.801   3.885  16.932  0.3917 -0.3678  0.2407
  700TMC3     O10406   3.782   3.794  16.856 -0.2229  0.0005 -0.1109
  700TMC3     H10407   3.965   3.684  16.980  3.3150 -0.1476  0.6265
  700TMC3    H110408   3.771   4.008  17.165  0.5713  0.3482 -0.1533
  700TMC3    H210409   4.180   3.926  17.263 -0.0756 -1.3039  0.5825
  700TMC3    C710410   3.997   4.090  17.318  0.2695  0.0148 -0.6367
  700TMC3    C810411   4.196   3.710  17.078  0.1473 -0.6107 -0.4704
  700TMC3    O110412   4.103   4.138  17.349 -0.0398  0.9585 -0.1842
  700TMC3    O210413   4.184   3.637  16.981  0.9643 -0.4251  0.0933
  701TMC3    C110414   3.337   2.485  15.784 -0.4020  0.4519 -0.0477
  701TMC3    C210415   3.331   2.409  15.670  0.7663 -0.2825 -0.5284
  701TMC3    C310416   3.402   2.455  15.564  0.5475  0.6953 -0.3390
  701TMC3    C410417   3.415   2.590  15.792 -0.1123 -0.4917  0.9518
  701TMC3    C510418   3.482   2.630  15.685  0.8163 -0.7265 -0.3516
  701TMC3    C610419   3.473   2.573  15.563 -0.0516  0.7502 -0.1813
  701TMC3     C10420   3.263   2.449  15.904  0.1027 -0.1132 -0.5940
  701TMC3     O10421   3.303   2.494  16.012 -0.0899  0.4391 -0.2319
  701TMC3     H10422   3.292   2.309  15.667  0.8756 -0.3356 -0.2647
  701TMC3    H110423   3.417   2.651  15.882  0.9054 -0.2629  0.7766
  701TMC3    H210424   3.522   2.612  15.475  0.6933  1.8742  0.7388
  701TMC3    C710425   3.561   2.757  15.690  0.4348  0.0156  0.0225
  701TMC3    C810426   3.405   2.369  15.451 -0.4982 -0.8751  0.3583
  701TMC3    O110427   3.557   2.825  15.589 -0.0007 -0.6547 -0.5877
  701TMC3    O210428   3.403   2.245  15.465 -0.3421 -0.4690  0.3765
  702MPD2     C10429   3.307   0.241  10.764 -0.7066  0.0512 -0.4200
  702MPD2    C110430   3.264   0.352  10.834 -0.4012 -0.2960  0.8177
  702MPD2    C210431   3.319   0.471  10.795  0.1651 -0.6026  0.0641
  702MPD2    C310432   3.410   0.482  10.690 -0.0716  0.3143 -0.2540
  702MPD2    C410433   3.445   0.373  10.624 -0.7113 -0.1167 -0.3611
  702MPD2    C510434   3.397   0.249  10.669 -0.3821 -0.0838  0.2836
  702MPD2     H10435   3.285   0.566  10.835 -0.2008 -0.8342  0.3005
  702MPD2    H110436   3.510   0.366  10.537 -0.1746 -0.6034  0.0812
  702MPD2    H210437   3.264   0.143  10.783 -1.9278  0.6982  0.1133
  702MPD2    H310438   3.418   0.163  10.607 -3.5976 -1.7137  1.4987
  702MPD2     N10439   3.445   0.615  10.659  0.2639 -0.1069  0.1104
  702MPD2    H510440   3.408   0.688  10.720  0.7376  0.2685 -0.0463
  702MPD2    N110441   3.147   0.363  10.906 -0.2725  0.2449  0.5309
  702MPD2    H710442   3.130   0.457  10.941 -0.8710  0.6868 -0.9290
  703TMC3    C110443   3.484   0.783  10.511 -0.0927 -0.5735 -0.1723
  703TMC3    C210444   3.352   0.784  10.480 -0.2082 -0.1655  0.0596
  703TMC3    C310445   3.271   0.883  10.518 -0.3412  0.4121  0.4282
  703TMC3    C410446   3.535   0.882  10.589  0.3988 -0.2157 -0.8645
  703TMC3    C510447   3.457   0.987  10.619  0.2272 -0.2584  0.1568
  703TMC3    C610448   3.321   0.992  10.587  0.2271 -0.2545 -0.6976
  703TMC3     C10449   3.531   0.658  10.555 -0.1714  0.3478  0.5676
  703TMC3     O10450   3.589   0.593  10.471 -0.5932 -0.0694  0.4391
  703TMC3     H10451   3.303   0.701  10.431  1.1416 -0.2836 -1.0672
  703TMC3    H110452   3.639   0.879  10.621  0.3516 -0.9298 -0.7908
  703TMC3    H210453   3.263   1.079  10.616  1.6562  0.7405 -0.8002
  703TMC3    C710454   3.511   1.067  10.726 -0.1060 -0.1938  0.9744
  703TMC3    C810455   3.146   0.845  10.577  0.0335 -0.3394 -0.6059
  703TMC3    O110456   3.634   1.082  10.740  0.0562 -0.0154  0.2217
  703TMC3    O210457   3.092   0.935  10.642 -0.1540  0.4288 -0.0412
  704TMC3    C110458   0.326   3.294  12.467 -0.5280  0.4133  0.0311
  704TMC3    C210459   0.457   3.295  12.421 -0.0108  0.1237 -0.0358
  704TMC3    C310460   0.539   3.216  12.495  0.0193 -0.2706 -1.0894
  704TMC3    C410461   0.275   3.200  12.560 -0.1379  0.4912  1.0619
  704TMC3    C510462   0.371   3.116  12.619  0.7246  0.3280 -0.2737
  704TMC3    C610463   0.502   3.126  12.584 -0.5299  0.1570  0.2421
  704TMC3     C10464   0.235   3.374  12.393 -0.2134 -0.5603 -0.6406
  704TMC3     O10465   0.127   3.383  12.448 -0.5405  0.3327 -0.2338
  704TMC3     H10466   0.500   3.365  12.350 -2.6319  1.6711 -0.1069
  704TMC3    H110467   0.172   3.206  12.592 -0.4841 -0.9398  0.2247
  704TMC3    H210468   0.575   3.064  12.635  0.1573  0.4617 -0.3736
  704TMC3    C710469   0.339   2.975  12.619 -0.4703  0.0215  0.0587
  704TMC3    C810470   0.677   3.204  12.460 -0.9827 -0.1407  0.3700
  704TMC3    O110471   0.408   2.893  12.566 -0.3276 -0.4016  0.7452
  704TMC3    O210472   0.704   3.232  12.347 -0.2028 -0.0398  0.2180
  705MPD2     C10473   0.103   0.951  16.261  0.5023  0.8947 -0.4846
  705MPD2    C110474   0.165   1.071  16.290 -0.0551  0.0025 -0.0858
  705MPD2    C210475   0.100   1.169  16.359  0.2175  0.2114  0.2330
  705MPD2    C310476   4.705   1.156  16.397  0.0689 -0.1448 -0.3719
  705MPD2    C410477   4.644   1.036  16.369 -0.5567  0.7789 -0.1917
  705MPD2    C510478   4.708   0.943  16.297 -0.7645  0.0440 -0.0396
  705MPD2     H10479   0.156   1.260  16.378  1.1172 -0.2093 -0.4373
  705MPD2    H110480   4.544   1.012  16.403 -1.1630  1.7070 -1.3070
  705MPD2    H210481   0.152   0.866  16.216  0.4775 -0.6932  2.5348
  705MPD2    H310482   4.649   0.854  16.281 -1.5030  0.1516  2.1320
  705MPD2     N10483   4.615   1.261  16.438 -0.2632 -0.0078  0.0228
  705MPD2    H510484   4.517   1.236  16.446 -0.9760  2.6133 -0.8437
  705MPD2    N110485   0.305   1.091  16.255 -0.2630  0.1439  0.5609
  705MPD2    H710486   0.349   1.176  16.289  1.4155 -0.7944  0.7297
  706TMC3    C110487   0.638   1.045  15.937 -1.3549 -0.1180  0.8126
  706TMC3    C210488   0.650   1.175  15.928 -0.3210  0.4854 -0.1427
  706TMC3    C310489   0.599   1.252  16.022  0.2004  0.3319 -0.9775
  706TMC3    C410490   0.572   0.982  16.039 -0.3016  0.3155 -0.0378
  706TMC3    C510491   0.502   1.066  16.123 -0.2816  0.1267  0.2787
  706TMC3    C610492   0.525   1.201  16.126  0.0506  0.1120 -0.3655
  706TMC3     C10493   0.741   0.960  15.877 -0.4955 -0.4198  0.2167
  706TMC3     O10494   0.779   0.856  15.931  0.4476  0.4287 -0.3162
  706TMC3     H10495   0.697   1.221  15.841 -0.3159 -2.1462 -1.5220
  706TMC3    H110496   0.569   0.875  16.057  0.1688  0.4748  0.9761
  706TMC3    H210497   0.473   1.261  16.199  1.7438  0.5572  0.4736
  706TMC3    C710498   0.379   1.011  16.178  0.4796  0.0959  0.3892
  706TMC3    C810499   0.584   1.387  15.996  1.0011  0.6435  0.4009
  706TMC3    O110500   0.352   0.904  16.133 -0.4989 -0.2230 -0.8637
  706TMC3    O210501   0.562   1.418  15.880 -0.1921  0.4960 -0.4232
  707TMC3    C110502   1.488   4.396   1.100  0.3003 -0.6730 -0.4981
  707TMC3    C210503   1.600   4.348   1.165  0.1150  0.0576  0.2019
  707TMC3    C310504   1.578   4.288   1.290 -0.0825 -0.3314  0.2225
  707TMC3    C410505   1.364   4.378   1.150  0.7081  0.0965 -0.2004
  707TMC3    C510506   1.345   4.309   1.267 -0.3996  0.2161  0.1596
  707TMC3    C610507   1.455   4.272   1.344 -0.1924 -0.8200 -0.5585
  707TMC3     C10508   1.523   4.512   1.022 -0.3112 -0.3773 -0.3729
  707TMC3     O10509   1.641   4.519   0.987 -0.0055 -0.0970  0.1817
  707TMC3     H10510   1.698   4.372   1.127  0.5136 -0.2213  1.0371
  707TMC3    H110511   1.277   4.411   1.094  1.2659 -0.0704 -1.1683
  707TMC3    H210512   1.444   4.220   1.438  1.3881  0.1863  0.1742
  707TMC3    C710513   1.231   4.217   1.266 -0.3267  0.6355 -0.5106
  707TMC3    C810514   1.684   4.233   1.368  0.5747  0.2277  0.2195
  707TMC3    O110515   1.187   4.190   1.375 -0.6236 -0.2148 -0.0079
  707TMC3    O210516   1.663   4.132   1.429  0.4439 -0.5763  0.0029
  708MPD2     C10517   2.872   4.022  14.355 -0.2202 -0.1968  0.5605
  708MPD2    C110518   2.903   4.132  14.430  0.1048  0.1014  0.6254
  708MPD2    C210519   2.906   4.121  14.567 -0.0109 -0.1118 -0.5589
  708MPD2    C310520   2.857   4.008  14.631 -0.2650  0.3911 -0.1015
  708MPD2    C410521   2.807   3.905  14.555 -0.5702 -0.8107 -0.1378
  708MPD2    C510522   2.823   3.911  14.420  0.7409 -0.0230  0.2884
  708MPD2     H10523   2.955   4.197  14.627 -0.9668  1.4814 -1.8274
  708MPD2    H110524   2.778   3.812  14.604 -0.5683  0.0923  1.5590
  708MPD2    H210525   2.860   4.025  14.247  4.5523  0.4198  0.0599
  708MPD2    H310526   2.789   3.830  14.358  0.0748  1.5217 -1.3763
  708MPD2     N10527   2.845   4.006  14.768 -0.9193 -0.1099  0.4175
  708MPD2    H510528   2.778   3.943  14.811 -1.7195 -0.1693 -0.9049
  708MPD2    N110529   2.924   4.254  14.372 -0.1808 -0.0839 -0.5290
  708MPD2    H710530   2.933   4.332  14.436  1.1703 -1.7802  1.3141
  709TMC3    C110531   2.858   4.423  14.224  0.3131 -1.2024 -0.1880
  709TMC3    C210532   2.801   4.434  14.099 -0.4228 -0.2151  0.0805
  709TMC3    C310533   2.688   4.512  14.085  0.6287  0.1893 -0.0139
  709TMC3    C410534   2.827   4.501  14.331 -0.1041  0.3987  0.1504
  709TMC3    C510535   2.715   4.580  14.310  0.9406 -0.1876  0.6256
  709TMC3    C610536   2.646   4.585  14.191  0.4395 -0.1431 -0.3208
  709TMC3     C10537   2.901   4.288  14.242 -0.0833 -0.4234 -0.1148
  709TMC3     O10538   2.895   4.213  14.147  0.2805 -0.4952 -0.1998
  709TMC3     H10539   2.848   4.378  14.020  0.1354 -1.3108  1.1897
  709TMC3    H110540   2.890   4.502  14.419 -0.7521  2.8544  0.5964
  709TMC3    H210541   2.558   4.649  14.186 -0.0396 -0.7441  0.5936
  709TMC3    C710542   2.651   4.603  14.438  0.8077 -0.0847 -0.9547
  709TMC3    C810543   2.631   4.538  13.949  0.2609 -0.1800  0.6752
  709TMC3    O110544   2.736   4.628  14.522 -0.0539  0.2785 -0.1561
  709TMC3    O210545   2.520   4.591  13.936  0.1229 -0.1222  0.1811
  710TMC3    C110546   4.316   0.823   0.200 -0.0228 -0.1456  0.2432
  710TMC3    C210547   4.367   0.790   0.082  0.0043  0.3121  0.0946
  710TMC3    C310548   4.443   0.675   0.078  0.6966 -0.2030 -0.8623
  710TMC3    C410549   4.351   0.762   0.314  0.2616  0.0689  0.3860
  710TMC3    C510550   4.431   0.654   0.312 -0.5928 -0.1805  0.5094
  710TMC3    C610551   4.473   0.605   0.193  0.2092 -0.1881 -0.2890
  710TMC3     C10552   4.210   0.927   0.201  0.4134  0.7396  0.5470
  710TMC3     O10553   4.156   0.954   0.092  0.3710  0.3060 -0.0404
  710TMC3     H10554   4.354   0.835  17.733  1.2246  1.6963  0.5644
  710TMC3    H110555   4.314   0.797   0.409  0.4264  0.5469  0.2766
  710TMC3    H210556   4.547   0.527   0.177 -0.4967 -1.3004  1.8809
  710TMC3    C710557   4.536   0.651   0.413  0.3105 -0.3292  0.3713
  710TMC3    C810558   4.525   0.636  17.714 -0.7120 -0.1791 -0.1726
  710TMC3    O110559   4.572   0.763   0.453 -0.7873  0.3884 -0.4590
  710TMC3    O210560   4.542   0.516  17.705  0.0289  0.6615  0.1454
  711TMC3    C110561   4.086   1.750  15.067 -0.3829  0.1933  0.2105
  711TMC3    C210562   4.139   1.873  15.091  0.6120 -0.3421 -0.0686
  711TMC3    C310563   4.239   1.872  15.186 -0.9765  0.3935  0.1186
  711TMC3    C410564   4.098   1.643  15.143 -0.8452 -0.0389  0.4698
  711TMC3    C510565   4.179   1.666  15.255  1.0442 -0.5511  0.5745
  711TMC3    C610566   4.259   1.767  15.273  0.1040  0.2770  0.1241
  711TMC3     C10567   3.994   1.736  14.957 -0.2025  1.2650 -0.7194
  711TMC3     O10568   3.941   1.842  14.924 -0.4412 -0.4197  0.1893
  711TMC3     H10569   4.122   1.961  15.029  3.1944  2.9193  3.7963
  711TMC3    H110570   4.045   1.552  15.117 -3.7591  2.4734 -2.3371
  711TMC3    H210571   4.330   1.774  15.355 -0.6519  0.6836  0.7604
  711TMC3    C710572   4.221   1.546  15.311 -0.2042  0.2031  0.8445
  711TMC3    C810573   4.289   1.994  15.229  0.2666 -0.1574 -0.8583
  711TMC3    O110574   4.343   1.550  15.345 -0.1118  0.1765  0.3488
  711TMC3    O210575   4.205   2.090  15.221  0.1930  0.3396 -0.2992
  712MPD2     C10576   0.846   2.956  13.493  0.2986  0.5230  0.3572
  712MPD2    C110577   0.729   2.979  13.556  0.0508 -0.0363 -0.0248
  712MPD2    C210578   0.678   3.107  13.571  0.6268 -0.4359  0.5360
  712MPD2    C310579   0.753   3.214  13.538  0.0938  0.2836 -0.0863
  712MPD2    C410580   0.884   3.194  13.490 -0.0293 -0.1917  0.5625
  712MPD2    C510581   0.922   3.066  13.459  0.1092 -0.0206 -0.5269
  712MPD2     H10582   0.581   3.106  13.621  0.1643  0.2978 -0.3457
  712MPD2    H110583   0.937   3.283  13.458  2.1726 -2.5398 -2.2962
  712MPD2    H210584   0.902   2.864  13.499 -0.5257  0.0740  1.0440
  712MPD2    H310585   1.020   3.047  13.415  0.1769  0.6955 -0.6869
  712MPD2     N10586   0.719   3.352  13.557 -0.0981 -0.2361 -0.1295
  712MPD2    H510587   0.788   3.426  13.551 -0.9345  0.6108  0.6807
  712MPD2    N110588   0.649   2.870  13.615 -0.1119  0.1032  1.4130
  712MPD2    H710589   0.560   2.889  13.660 -1.3407  0.3564 -1.1422
  713TMC3    C110590   0.599   3.520  13.638 -0.1290 -0.1084  0.1911
  713TMC3    C210591   0.688   3.524  13.749  0.2783  0.2254 -0.2838
  713TMC3    C310592   0.743   3.649  13.774  0.2666  0.1064 -0.0480
  713TMC3    C410593   0.588   3.633  13.552 -0.4152 -0.4030  0.3700
  713TMC3    C510594   0.632   3.754  13.601 -0.2930  0.7456  0.6401
  713TMC3    C610595   0.718   3.760  13.703 -0.6368 -0.3482 -0.3002
  713TMC3     C10596   0.589   3.385  13.585  1.0289  0.6119 -0.4680
  713TMC3     O10597   0.503   3.313  13.640 -0.2576 -0.0616  0.1181
  713TMC3     H10598   0.694   3.433  13.808 -0.9171  0.5527  0.3460
  713TMC3    H110599   0.527   3.628  13.462  1.0529 -0.5919 -0.6287
  713TMC3    H210600   0.760   3.855  13.732 -0.6713 -0.0810 -1.1296
  713TMC3    C710601   0.627   3.876  13.527  0.4947  0.1251  0.5956
  713TMC3    C810602   0.887   3.646  13.814  0.0007 -0.8592  0.0584
  713TMC3    O110603   0.705   3.972  13.547  0.1430 -1.1642  0.8187
  713TMC3    O210604   0.965   3.708  13.743  0.2034  0.2543  0.7397
  714MPD2     C10605   3.233   1.601   1.874 -0.2974 -0.0804 -0.2214
  714MPD2    C110606   3.267   1.592   1.744  0.3042  1.1238 -0.6039
  714MPD2    C210607   3.183   1.644   1.649  0.2385 -0.5442 -0.5919
  714MPD2    C310608   3.068   1.702   1.688  0.6553  0.6373 -0.2103
  714MPD2    C410609   3.032   1.703   1.823 -0.8165 -0.5470 -0.0661
  714MPD2    C510610   3.117   1.661   1.915  0.0724 -0.1662 -0.1373
  714MPD2     H10611   3.215   1.662   1.548 -2.6391  1.2846 -1.1598
  714MPD2    H110612   2.937   1.739   1.861 -2.1654 -3.1540 -0.8948
  714MPD2    H210613   3.307   1.583   1.951  0.0856  2.1873 -0.0768
  714MPD2    H310614   3.092   1.668   2.020 -0.6078 -1.9577 -0.1710
  714MPD2     N10615   2.995   1.764   1.582  0.0165 -0.0035 -0.2795
  714MPD2    H510616   3.043   1.770   1.494  3.2909  0.5576  1.5452
  714MPD2    N110617   3.399   1.550   1.707  0.1168  0.1616  1.0125
  714MPD2    H710618   3.462   1.536   1.786 -0.5113  1.4332  1.7442
  715TMC3    C110619   3.576   1.489   1.563  0.5467  0.4486 -0.0683
  715TMC3    C210620   3.613   1.418   1.453 -0.3730  0.5453  0.1929
  715TMC3    C310621   3.742   1.374   1.441 -0.3465  0.5613 -0.1256
  715TMC3    C410622   3.661   1.551   1.648  0.1699  0.6463 -0.2854
  715TMC3    C510623   3.792   1.509   1.630  0.0377  0.1922 -0.0097
  715TMC3    C610624   3.832   1.417   1.533  0.6440 -0.1981  0.1483
  715TMC3     C10625   3.433   1.504   1.581 -0.2922 -0.6945 -0.2975
  715TMC3     O10626   3.356   1.467   1.492  0.3713  0.5250  0.2285
  715TMC3     H10627   3.537   1.381   1.384  0.3914 -0.5965 -0.0442
  715TMC3    H110628   3.624   1.615   1.726 -0.3074  0.2063 -0.1540
  715TMC3    H210629   3.921   1.356   1.547  0.5654  0.0936  1.9231
  715TMC3    C710630   3.894   1.591   1.682  0.1209  0.0247  0.5158
  715TMC3    C810631   3.774   1.281   1.336 -0.1735 -0.5031 -0.1993
  715TMC3    O110632   4.004   1.547   1.649  0.1758  0.2256  0.5105
  715TMC3    O210633   3.685   1.243   1.258  0.0934 -0.2550 -0.8888
  716MPD2     C10634   2.450   0.263  10.564 -0.2655 -0.2599 -0.2702
  716MPD2    C110635   2.497   0.275  10.437 -0.1839  0.3517  0.9584
  716MPD2    C210636   2.627   0.229  10.413  0.1344 -0.8960  0.0716
  716MPD2    C310637   2.706   0.175  10.512 -0.0188  0.1529  0.0710
  716MPD2    C410638   2.653   0.163  10.638 -0.6394 -0.2325  0.4206
  716MPD2    C510639   2.523   0.208  10.666  0.2928  0.4350 -0.0747
  716MPD2     H10640   2.668   0.246  10.314 -1.8947  1.7550 -0.2921
  716MPD2    H110641   2.721   0.119  10.709 -2.0405 -1.1456  1.1889
  716MPD2    H210642   2.344   0.282  10.575  0.2620  0.8774  2.8529
  716MPD2    H310643   2.478   0.195  10.763 -2.3421 -0.1802 -1.3680
  716MPD2     N10644   2.834   0.141  10.476  0.5826  0.1351 -0.3628
  716MPD2    H510645   2.852   0.148  10.376  0.4232  0.1722 -0.3889
  716MPD2    N110646   2.417   0.349  10.346 -0.6785 -0.2906 -0.1199
  716MPD2    H710647   2.364   0.427  10.381 -0.2785 -0.4623  0.8614
  717TMC3    C110648   3.070   0.105  10.467 -0.2249 -0.1243 -0.4820
  717TMC3    C210649   3.050   0.170  10.344  0.4881  1.0911  0.0024
  717TMC3    C310650   3.138   0.129  10.244  0.6016 -0.8103 -0.5157
  717TMC3    C410651   3.173   0.011  10.489  0.2628 -0.9537 -0.0859
  717TMC3    C510652   3.261   4.732  10.385  0.2281  0.4064 -0.3736
  717TMC3    C610653   3.247   0.050  10.262  0.0882  0.5438  0.3323
  717TMC3     C10654   2.946   0.104  10.548 -0.1359 -0.3657  0.5682
  717TMC3     O10655   2.949   0.054  10.656 -0.5628 -0.5383 -0.3250
  717TMC3     H10656   2.985   0.253  10.322  2.6144  2.2908 -1.8141
  717TMC3    H110657   3.185   4.702  10.586  0.2796 -0.4907  0.1363
  717TMC3    H210658   3.304   0.010  10.179 -1.2007  0.5870 -0.5697
  717TMC3    C710659   3.341   4.616  10.408  0.5314 -0.2054  0.4634
  717TMC3    C810660   3.108   0.182  10.109  0.5377 -0.7003  0.1388
  717TMC3    O110661   3.284   4.531  10.478 -0.2181  0.8185  0.5611
  717TMC3    O210662   3.002   0.247  10.095 -0.4178  0.4414 -0.4101
  718MPD2     C10663   2.519   3.497  12.870  0.4587 -0.6961 -0.0979
  718MPD2    C110664   2.440   3.515  12.755  0.8284 -0.4930 -0.4125
  718MPD2    C210665   2.330   3.428  12.742 -0.4122  0.2619  0.0593
  718MPD2    C310666   2.295   3.328  12.829 -0.6271  0.2026 -0.2749
  718MPD2    C410667   2.374   3.312  12.943  0.4131  0.0571 -0.0274
  718MPD2    C510668   2.479   3.401  12.968  0.0855 -0.3454 -0.2241
  718MPD2     H10669   2.261   3.442  12.659 -0.3495 -2.2312 -0.3858
  718MPD2    H110670   2.350   3.236  13.017  2.1377 -0.9363 -0.4975
  718MPD2    H210671   2.592   3.574  12.893 -1.0900  1.0154 -0.8885
  718MPD2    H310672   2.543   3.391  13.055  1.3293  0.3484 -1.0479
  718MPD2     N10673   2.194   3.247  12.785 -0.8342 -0.0439 -0.2165
  718MPD2    H510674   2.153   3.287  12.701 -1.2073  2.9741  1.3929
  718MPD2    N110675   2.474   3.616  12.664  0.2796  0.2153  0.0418
  718MPD2    H710676   2.542   3.687  12.690 -0.2698  0.9626 -0.5680
  719TMC3    C110677   2.442   3.741  12.462 -0.2630 -0.1240  0.2717
  719TMC3    C210678   2.391   3.719  12.338 -0.1738  0.3230 -0.0929
  719TMC3    C310679   2.310   3.800  12.273  0.1104 -0.8114  1.0521
  719TMC3    C410680   2.422   3.860  12.523  0.3399 -0.1695 -0.5447
  719TMC3    C510681   2.367   3.959  12.443 -0.0631  0.1952 -0.4293
  719TMC3    C610682   2.296   3.926  12.326  1.1622 -0.3848 -0.3372
  719TMC3     C10683   2.415   3.619  12.541  0.7026  0.1592  0.6968
  719TMC3     O10684   2.350   3.535  12.473  0.5339  0.0397  0.1961
  719TMC3     H10685   2.428   3.634  12.282  0.5041  1.4084 -1.2934
  719TMC3    H110686   2.468   3.886  12.618 -0.9489  1.5372 -0.3702
  719TMC3    H210687   2.244   3.999  12.266 -0.2089 -1.1058 -0.0528
  719TMC3    C710688   2.436   4.084  12.436  0.3298 -0.4407 -0.1905
  719TMC3    C810689   2.188   3.741  12.226 -0.7704 -0.0387  0.2197
  719TMC3    O110690   2.467   4.122  12.325  0.6393  0.1091  0.2092
  719TMC3    O210691   2.102   3.825  12.203 -0.1892 -0.5579 -0.3827
  720MPD2     C10692   0.893   0.030  13.821 -0.4815  0.2073  0.5037
  720MPD2    C110693   0.929   0.153  13.765  0.0126  0.1461  0.4440
  720MPD2    C210694   1.025   0.224  13.837  0.3608  0.1122 -0.0951
  720MPD2    C310695   1.084   0.170  13.952 -0.4471 -0.8147  0.1284
  720MPD2    C410696   1.035   0.045  13.998  0.6247  0.3662  0.2790
  720MPD2    C510697   0.947   4.714  13.930 -0.5755 -0.1485  0.4297
  720MPD2     H10698   1.057   0.319  13.794 -0.0193  0.8522  1.2536
  720MPD2    H110699   1.066   4.726  14.084 -1.6827 -1.1779  0.0867
  720MPD2    H210700   0.825   4.698  13.773 -0.1092  1.0671 -1.2947
  720MPD2    H310701   0.922   4.616  13.970  0.4090 -0.5999 -0.0743
  720MPD2     N10702   1.194   0.243  14.010  0.4982 -0.0164 -0.2453
  720MPD2    H510703   1.234   0.317  13.952 -2.0850  1.4898 -0.0893
  720MPD2    N110704   0.858   0.214  13.658 -0.0937  0.2550 -0.3209
  720MPD2    H710705   0.879   0.307  13.625 -0.8714  0.6614  0.3362
  721TMC3    C110706   1.351   0.325  14.165  0.4232 -0.2584 -0.4148
  721TMC3    C210707   1.374   0.360  14.292  0.9223  0.1276 -0.6207
  721TMC3    C310708   1.492   0.430  14.319  0.1404 -1.0049 -0.4955
  721TMC3    C410709   1.452   0.328  14.075 -0.3508 -0.5278 -0.0358
  721TMC3    C510710   1.571   0.371  14.108 -0.1150 -0.8451  0.5464
  721TMC3    C610711   1.590   0.438  14.225 -0.0536  0.7325  0.4730
  721TMC3     C10712   1.238   0.236  14.135 -0.1697 -0.4825  0.1759
  721TMC3     O10713   1.192   0.162  14.228  0.0633 -0.5235  0.2128
  721TMC3     H10714   1.291   0.346  14.361  0.7361 -2.4643 -1.3452
  721TMC3    H110715   1.432   0.306  13.971 -0.3138 -0.4390 -0.0622
  721TMC3    H210716   1.687   0.485  14.236 -0.2506  1.1375  0.4824
  721TMC3    C710717   1.683   0.343  14.018  0.2938  1.1512 -0.0486
  721TMC3    C810718   1.544   0.447  14.459 -0.5806 -0.5146  0.0601
  721TMC3    O110719   1.781   0.413  14.043 -0.0086  0.1945  0.2510
  721TMC3    O210720   1.666   0.469  14.468 -0.1514 -0.5794  0.1409
  722MPD2     C10721   4.439   3.777  12.693  0.3960  0.0735  0.1037
  722MPD2    C110722   4.439   3.908  12.649  0.9261 -0.3705  0.3835
  722MPD2    C210723   4.328   3.955  12.572 -0.3419  0.2563 -0.3009
  722MPD2    C310724   4.215   3.875  12.544 -0.2480  0.1089 -0.2212
  722MPD2    C410725   4.205   3.754  12.607  0.3710  0.3472 -0.2445
  722MPD2    C510726   4.316   3.707  12.681 -0.3468  0.6403  0.0952
  722MPD2     H10727   4.337   4.054  12.529  1.3422  0.1312 -0.2416
  722MPD2    H110728   4.117   3.691  12.600  2.3810 -2.7066  1.8597
  722MPD2    H210729   4.513   3.739  12.763 -0.6890 -1.3249  0.4847
  722MPD2    H310730   4.307   3.614  12.737 -2.7310  0.0131 -1.3310
  722MPD2     N10731   4.116   3.929  12.459 -0.1006 -0.6791 -0.4732
  722MPD2    H510732   4.132   4.026  12.435 -1.5658  0.2204  2.1060
  722MPD2    N110733   4.527   4.009  12.702  0.5870 -0.1827  0.0796
  722MPD2    H710734   4.524   4.101  12.661  0.2749  0.1532  0.8472
  723TMC3    C110735   3.954   3.954  12.301 -0.1848 -0.0196  0.3357
  723TMC3    C210736   3.815   3.952  12.291  0.1242 -0.4484 -0.5171
  723TMC3    C310737   3.753   4.062  12.251 -0.5366  0.0708 -0.5277
  723TMC3    C410738   4.025   4.067  12.257  0.1190 -0.1495 -0.0594
  723TMC3    C510739   3.962   4.170  12.205 -0.5268 -0.0473  0.2009
  723TMC3    C610740   3.825   4.171  12.210  0.2261  0.7550  0.0999
  723TMC3     C10741   4.015   3.869  12.392  0.0731  0.2388  0.2611
  723TMC3     O10742   3.968   3.760  12.420 -0.5538 -0.1930 -0.4234
  723TMC3     H10743   3.769   3.872  12.347 -2.0172  0.7646 -0.5639
  723TMC3    H110744   4.133   4.065  12.261  0.2089  0.2523 -2.3770
  723TMC3    H210745   3.769   4.252  12.164  2.3328  0.5353 -2.8990
  723TMC3    C710746   4.035   4.291  12.227  0.0495  0.1178 -0.6594
  723TMC3    C810747   3.615   4.047  12.201 -0.0458  0.9039  0.5206
  723TMC3    O110748   4.158   4.294  12.226  0.0994 -0.0472  0.2684
  723TMC3    O210749   3.562   4.134  12.136 -0.8402  0.0195  0.3049
  724TMC3    C110750   4.703   2.480  10.211  0.0835  0.4978  0.0239
  724TMC3    C210751   4.656   2.536  10.095  0.2589  0.3071  0.0104
  724TMC3    C310752   4.726   2.632  10.029  0.5648  0.8854 -0.3834
  724TMC3    C410753   0.084   2.516  10.255 -0.4428 -0.4970 -0.3842
  724TMC3    C510754   0.160   2.601  10.185  0.1685  0.5289  0.0464
  724TMC3    C610755   0.116   2.665  10.072  0.0748 -0.4989 -0.2751
  724TMC3     C10756   4.645   2.358  10.256  0.7584  0.1909 -0.4866
  724TMC3     O10757   4.727   2.296  10.323 -0.1701 -0.0309 -0.3241
  724TMC3     H10758   4.567   2.501  10.043  0.2594 -1.8151  1.4774
  724TMC3    H110759   0.132   2.460  10.335  0.2882  1.3868  0.4766
  724TMC3    H210760   0.174   2.742  10.023  1.4234 -0.8452  0.7972
  724TMC3    C710761   0.292   2.643  10.226  0.0001 -0.0918  0.5747
  724TMC3    C810762   4.653   2.727   9.950  0.7317 -0.2864 -0.0238
  724TMC3    O110763   0.334   2.743  10.171 -0.6451  0.2355  0.1801
  724TMC3    O210764   4.560   2.685   9.882 -0.1433  0.1980 -0.1074
  725TMC3    C110765   1.089   0.677  12.814  0.0001 -0.4354  0.3840
  725TMC3    C210766   1.041   0.736  12.697  0.5307  0.1864 -0.4774
  725TMC3    C310767   1.038   0.659  12.582  0.8195 -0.3707  0.1773
  725TMC3    C410768   1.132   0.550  12.819 -0.0982  0.1795 -0.9218
  725TMC3    C510769   1.130   0.485  12.700 -0.1946 -0.1358  0.5581
  725TMC3    C610770   1.077   0.531  12.583 -0.3331 -0.2393 -0.1689
  725TMC3     C10771   1.081   0.750  12.941 -0.5225  0.2946 -1.1504
  725TMC3     O10772   1.060   0.683  13.044 -0.0708 -0.4364  0.2631
  725TMC3     H10773   1.000   0.836  12.693  2.1720  0.9386  1.8005
  725TMC3    H110774   1.175   0.510  12.910 -2.1654 -0.6788 -0.3067
  725TMC3    H210775   1.074   0.486  12.484 -1.1043 -1.4973  0.4237
  725TMC3    C710776   1.180   0.345  12.691  0.2761  0.2569  0.5316
  725TMC3    C810777   0.933   0.689  12.491 -0.3454 -0.0806  0.4002
  725TMC3    O110778   1.174   0.294  12.583  0.2257 -0.0912 -0.1637
  725TMC3    O210779   0.854   0.599  12.468  0.0294  0.0629  0.4955
  726MPD2     C10780   4.044   2.637  10.773 -0.1044 -0.5008  0.3662
  726MPD2    C110781   3.949   2.701  10.697  0.2446  0.1959  0.0396
  726MPD2    C210782   3.821   2.717  10.744 -0.4399  0.2293 -0.4691
  726MPD2    C310783   3.786   2.661  10.865  0.0447 -0.2436 -0.7413
  726MPD2    C410784   3.877   2.581  10.938  0.1529 -0.4082 -0.1624
  726MPD2    C510785   4.007   2.567  10.890  0.6986 -0.5111 -0.0465
  726MPD2     H10786   3.752   2.783  10.693 -1.0502 -0.4228 -0.4849
  726MPD2    H110787   3.841   2.526  11.023 -1.0530  0.1275 -0.3349
  726MPD2    H210788   4.149   2.634  10.746 -0.3673  0.4363 -0.7842
  726MPD2    H310789   4.073   2.498  10.941  1.1289 -0.2984 -0.3163
  726MPD2     N10790   3.650   2.657  10.907 -0.0514 -0.5338  0.0892
  726MPD2    H510791   3.634   2.613  10.997  1.8440  1.7424  1.5266
  726MPD2    N110792   3.983   2.767  10.577  0.5880  0.0261  0.0632
  726MPD2    H710793   3.909   2.822  10.535  0.7063 -0.2592 -0.5270
  727TMC3    C110794   4.125   2.893  10.446  0.3580  0.0271  0.0632
  727TMC3    C210795   4.230   2.981  10.474  0.4390  0.4165 -0.3072
  727TMC3    C310796   4.230   3.107  10.427 -0.3342 -0.3993  0.2725
  727TMC3    C410797   4.011   2.940  10.386  0.0744  0.1712  0.0874
  727TMC3    C510798   4.007   3.070  10.349  0.7057  0.3817  0.6572
  727TMC3    C610799   4.114   3.155  10.369 -0.1270 -0.3340 -0.0173
  727TMC3     C10800   4.115   2.778  10.531  0.8408 -0.8319 -0.4184
  727TMC3     O10801   4.221   2.733  10.571 -0.0152 -0.1015  0.0195
  727TMC3     H10802   4.315   2.940  10.527  1.0289  1.6718 -0.3015
  727TMC3    H110803   3.932   2.868  10.369  0.2029  0.5913 -2.3606
  727TMC3    H210804   4.095   3.259  10.345 -0.1763 -1.1212 -3.3664
  727TMC3    C710805   3.908   3.107  10.245  0.0534 -0.2774  0.3726
  727TMC3    C810806   4.321   3.206  10.499  0.5219 -0.0545 -0.1498
  727TMC3    O110807   3.918   3.221  10.206 -0.2682 -0.1554  0.3017
  727TMC3    O210808   4.365   3.154  10.600 -0.5226  0.1499  0.0902
  728TMC3    C110809   3.333   0.774  15.152  0.5631  0.5134 -0.3284
  728TMC3    C210810   3.452   0.753  15.081  0.3955  0.2599  0.1037
  728TMC3    C310811   3.458   0.805  14.955  0.1691 -0.2989  0.1059
  728TMC3    C410812   3.219   0.832  15.098 -0.3666  0.0353  0.0801
  728TMC3    C510813   3.226   0.871  14.962 -0.3843 -0.5227  0.0521
  728TMC3    C610814   3.345   0.864  14.897  0.1119 -0.3476  0.6036
  728TMC3     C10815   3.344   0.762  15.292 -0.3478 -0.3533  0.2135
  728TMC3     O10816   3.463   0.753  15.327 -0.1228  0.5868  0.4971
  728TMC3     H10817   3.541   0.715  15.130  0.7172 -0.1240 -0.7750
  728TMC3    H110818   3.125   0.845  15.150  1.3515  2.1812  2.6482
  728TMC3    H210819   3.343   0.889  14.791 -1.8949 -0.4023  0.6326
  728TMC3    C710820   3.109   0.936  14.903  0.0684  0.1671 -0.1584
  728TMC3    C810821   3.566   0.773  14.873  0.3969 -0.5353 -0.1326
  728TMC3    O110822   2.997   0.890  14.928  0.1818 -0.4359  0.4587
  728TMC3    O210823   3.642   0.677  14.904 -0.0902 -0.7956 -0.0561
  729MPD2     C10824   0.801   1.566  16.566 -0.1369  0.1380  0.2983
  729MPD2    C110825   0.855   1.692  16.588  0.7669 -0.2870  0.1642
  729MPD2    C210826   0.813   1.759  16.703  0.1844  0.2060 -0.0845
  729MPD2    C310827   0.720   1.712  16.795  0.3319 -0.2660 -0.0374
  729MPD2    C410828   0.675   1.584  16.778  0.2379  0.0444 -0.9016
  729MPD2    C510829   0.710   1.519  16.660  0.1506 -0.1694  0.8424
  729MPD2     H10830   0.854   1.857  16.724  0.8286 -0.4746  1.8006
  729MPD2    H110831   0.617   1.527  16.850  0.1627 -1.3542 -2.0772
  729MPD2    H210832   0.824   1.496  16.487  2.4662 -0.0551  1.2378
  729MPD2    H310833   0.665   1.422  16.641  2.6634 -1.4322  1.3918
  729MPD2     N10834   0.678   1.775  16.912 -0.9382 -0.4055  0.0493
  729MPD2    H510835   0.618   1.721  16.974  0.9391 -0.0900  2.1125
  729MPD2    N110836   0.952   1.745  16.505  0.0281  0.6643  0.1464
  729MPD2    H710837   1.021   1.685  16.461 -1.1348 -0.8367  0.3586
  730TMC3    C110838   0.705   1.929  17.090  0.3073  0.0510 -0.0069
  730TMC3    C210839   0.694   1.822  17.182  0.0226 -0.4987  0.7990
  730TMC3    C310840   0.675   1.859  17.312  0.0588  0.6802 -0.7217
  730TMC3    C410841   0.714   2.057  17.132 -0.0137 -0.6191 -0.1392
  730TMC3    C510842   0.694   2.082  17.268 -1.4487 -0.1382  0.5512
  730TMC3    C610843   0.661   1.985  17.358 -0.5270 -0.2345  0.0370
  730TMC3     C10844   0.722   1.903  16.951  1.0667 -0.0921 -0.5585
  730TMC3     O10845   0.773   1.989  16.883 -0.1857 -0.0657  0.2740
  730TMC3     H10846   0.690   1.720  17.144  1.7789  0.2765 -1.5402
  730TMC3    H110847   0.732   2.139  17.063  0.4642 -0.6723 -0.0733
  730TMC3    H210848   0.656   2.009  17.464  0.5068 -0.1484  0.0614
  730TMC3    C710849   0.722   2.212  17.320  0.0257  0.2235  0.6495
  730TMC3    C810850   0.745   1.777  17.411  0.7268 -0.1028 -0.0756
  730TMC3    O110851   0.690   2.239  17.434 -0.1881 -0.1287 -0.0573
  730TMC3    O210852   0.718   1.659  17.409 -0.1491  0.1957 -0.3843
  731MPD2     C10853   0.847   0.233  12.053 -0.3911 -0.1473  0.6478
  731MPD2    C110854   0.946   0.308  12.112  0.1775 -0.5305  0.1304
  731MPD2    C210855   0.975   0.277  12.248 -0.1637  0.3440  0.0804
  731MPD2    C310856   0.924   0.168  12.315  0.0042  0.5116 -0.1233
  731MPD2    C410857   0.825   0.097  12.246 -0.2844  0.0444 -0.4072
  731MPD2    C510858   0.782   0.134  12.126 -0.6770 -0.2561 -0.0011
  731MPD2     H10859   1.047   0.344  12.293  0.1887  0.8478 -1.2446
  731MPD2    H110860   0.768   0.019  12.295 -0.4547  1.3296  1.4028
  731MPD2    H210861   0.805   0.269  11.960 -0.5632  1.1210  1.2168
  731MPD2    H310862   0.697   0.077  12.089 -0.1025  0.0315 -1.7599
  731MPD2     N10863   0.970   0.136  12.443  0.5145 -0.4209 -0.3882
  731MPD2    H510864   1.038   0.194  12.490  1.6070 -1.4060 -0.7396
  731MPD2    N110865   1.006   0.404  12.029  0.2411 -0.3144  0.1766
  731MPD2    H710866   0.975   0.406  11.932  1.3297  1.1603 -0.1443
  732TMC3    C110867   1.189   0.515  11.927  1.4094  0.3238 -0.2038
  732TMC3    C210868   1.115   0.526  11.811 -0.0490 -0.7509 -0.1315
  732TMC3    C310869   1.180   0.537  11.688 -0.2353 -0.4149 -0.0220
  732TMC3    C410870   1.328   0.501  11.927  0.3843 -0.1068  0.4806
  732TMC3    C510871   1.385   0.511  11.802  0.4241  0.1052  0.0912
  732TMC3    C610872   1.316   0.535  11.683  0.0000  0.5100  0.1865
  732TMC3     C10873   1.125   0.475  12.060  0.1478  0.5030  0.2924
  732TMC3     O10874   1.189   0.496  12.162  0.3601  0.3644  0.1289
  732TMC3     H10875   1.016   0.570  11.813  0.5500  0.5358  1.0466
  732TMC3    H110876   1.392   0.520  12.013  0.1681  1.5730  0.2711
  732TMC3    H210877   1.370   0.526  11.589 -2.7190 -1.9972 -1.1335
  732TMC3    C710878   1.509   0.434  11.790 -0.0809 -0.0725 -0.4442
  732TMC3    C810879   1.113   0.485  11.572  0.0687  0.0471 -0.0918
  732TMC3    O110880   1.579   0.461  11.691  0.2712  0.1576  0.6437
  732TMC3    O210881   1.186   0.467  11.477  0.3806 -0.6147 -0.2667
  733TMC3    C110882   1.863   2.920  12.747 -0.3049  0.2992 -0.0544
  733TMC3    C210883   1.959   2.980  12.826  0.4719  0.5104 -0.7884
  733TMC3    C310884   2.048   3.058  12.761  0.2277 -0.4047 -0.5850
  733TMC3    C410885   1.853   2.949  12.613  0.4467  0.2023 -0.4174
  733TMC3    C510886   1.948   3.030  12.553 -0.4366  0.7784  0.0072
  733TMC3    C610887   2.047   3.081  12.629  0.4614 -0.3269 -0.3537
  733TMC3     C10888   1.732   2.886  12.811 -0.0399  0.3121  0.2944
  733TMC3     O10889   1.715   2.925  12.925 -0.4843 -0.4446  0.5064
  733TMC3     H10890   1.958   2.977  12.934  2.0955 -2.4047 -0.8615
  733TMC3    H110891   1.772   2.909  12.553  0.5396  1.2137 -1.2062
  733TMC3    H210892   2.123   3.144  12.584 -0.3456  2.0794  1.7260
  733TMC3    C710893   1.908   3.110  12.439  0.6700  0.0025 -0.1401
  733TMC3    C810894   2.151   3.128  12.844  0.0644 -0.1118 -0.2575
  733TMC3    O110895   1.791   3.128  12.424  0.4161 -0.0818 -0.1934
  733TMC3    O210896   2.168   3.086  12.957  0.2764 -0.6237  0.2824
  734MPD2     C10897   4.013   1.334  12.133 -1.4511 -0.3122 -1.0814
  734MPD2    C110898   3.934   1.441  12.150  0.5292 -0.3555  0.4355
  734MPD2    C210899   3.955   1.562  12.072  0.3698  0.4009  0.0288
  734MPD2    C310900   4.042   1.563  11.972 -0.1380 -0.4374 -0.0131
  734MPD2    C410901   4.106   1.444  11.944 -0.6242 -0.2011 -0.3541
  734MPD2    C510902   4.093   1.330  12.021  0.2464 -0.2098 -0.0932
  734MPD2     H10903   3.899   1.651  12.098  0.8077  1.0301 -1.2256
  734MPD2    H110904   4.171   1.433  11.858 -0.5942  2.3958 -0.6771
  734MPD2    H210905   3.989   1.238  12.175  1.1650 -1.8354 -3.0551
  734MPD2    H310906   4.132   1.237  11.981  0.6189  0.0369 -0.3060
  734MPD2     N10907   4.053   1.682  11.892 -0.6882  0.6915 -0.3060
  734MPD2    H510908   4.004   1.761  11.930 -1.3328 -0.2655  0.8445
  734MPD2    N110909   3.832   1.418  12.246  0.2334  0.2267  0.2046
  734MPD2    H710910   3.838   1.333  12.301 -1.4807 -1.7212 -2.5964
  735TMC3    C110911   3.620   1.425  12.330 -0.3535  0.6689 -0.2889
  735TMC3    C210912   3.508   1.427  12.246 -0.6910  0.9787 -1.0811
  735TMC3    C310913   3.471   1.312  12.185 -0.6024 -0.6771 -0.1498
  735TMC3    C410914   3.666   1.304  12.376  0.5463 -0.4462  0.4598
  735TMC3    C510915   3.610   1.185  12.332 -0.0700 -0.8923 -0.1311
  735TMC3    C610916   3.517   1.189  12.229  0.9415 -1.1614 -0.5954
  735TMC3     C10917   3.725   1.495  12.263  0.0609 -0.8647  0.0532
  735TMC3     O10918   3.685   1.584  12.187 -0.3026  0.7676  0.3750
  735TMC3     H10919   3.476   1.528  12.228  0.9757  1.0947 -3.3265
  735TMC3    H110920   3.752   1.310  12.441  1.7958 -1.3436 -1.1038
  735TMC3    H210921   3.483   1.099  12.178  2.5342 -0.7373 -2.4078
  735TMC3    C710922   3.712   1.086  12.321  0.0192  0.1008  0.4347
  735TMC3    C810923   3.440   1.325  12.049  0.2985  1.0877  0.6394
  735TMC3    O110924   3.818   1.131  12.287  0.2547 -0.3140 -0.2697
  735TMC3    O210925   3.378   1.231  12.000 -0.6282  0.1658 -0.0614
  736MPD2     C10926   3.671   0.736  12.223 -0.2732 -0.1737  0.2695
  736MPD2    C110927   3.739   0.850  12.252  0.3365 -0.3512 -0.4418
  736MPD2    C210928   3.876   0.855  12.250  1.1474  0.0055 -0.2687
  736MPD2    C310929   3.949   0.754  12.197 -0.0599 -0.3244  0.7453
  736MPD2    C410930   3.883   0.639  12.172 -0.1676 -0.0213  0.5455
  736MPD2    C510931   3.746   0.628  12.178 -0.4936  0.3099 -0.8421
  736MPD2     H10932   3.927   0.937  12.299  0.1182 -0.9464  2.4034
  736MPD2    H110933   3.934   0.547  12.145  0.5830  0.8669 -1.0299
  736MPD2    H210934   3.564   0.728  12.240 -0.7622  0.0223 -2.7585
  736MPD2    H310935   3.697   0.531  12.172 -0.5106  0.2580  0.2267
  736MPD2     N10936   4.091   0.768  12.170 -0.1176 -0.1901 -0.1146
  736MPD2    H510937   4.139   0.697  12.116 -0.4877 -0.0353 -0.6499
  736MPD2    N110938   3.664   0.962  12.300  0.2660 -0.4922 -0.2147
  736MPD2    H710939   3.565   0.952  12.321  0.9337 -1.5102  2.5415
  737TMC3    C110940   4.298   0.864  12.150 -0.0519 -0.5168 -0.2980
  737TMC3    C210941   4.337   0.991  12.116 -0.4210  0.3901  0.3018
  737TMC3    C310942   4.384   0.997  11.989  0.0643  0.6637  0.5955
  737TMC3    C410943   4.337   0.747  12.083 -0.1630 -0.6346  0.4973
  737TMC3    C510944   4.403   0.768  11.965 -0.8189  0.6326 -0.1149
  737TMC3    C610945   4.417   0.889  11.908  0.2210  0.5457 -0.0846
  737TMC3     C10946   4.175   0.863  12.222 -0.6222 -0.5664  0.1570
  737TMC3     O10947   4.157   0.955  12.297  0.2415 -0.4035 -0.0924
  737TMC3     H10948   4.310   1.076  12.177 -0.7189 -0.7111  1.7201
  737TMC3    H110949   4.316   0.645  12.113 -0.9669 -0.1745  1.5066
  737TMC3    H210950   4.433   0.907  11.802  1.7227  0.9147  0.2010
  737TMC3    C710951   4.442   0.645  11.896 -0.6425  0.3666  0.2225
  737TMC3    C810952   4.407   1.132  11.948  0.8695 -0.2293 -0.2467
  737TMC3    O110953   4.398   0.533  11.927  0.2705 -0.0569  0.0028
  737TMC3    O210954   4.403   1.219  12.036  0.3127 -0.1360  0.5094
  738MPD2     C10955   4.330   4.284  14.737  0.0330  0.1723  0.5889
  738MPD2    C110956   4.396   4.174  14.787  0.6360  0.4115  0.5256
  738MPD2    C210957   4.530   4.154  14.768 -0.3122 -0.1066  0.4217
  738MPD2    C310958   4.595   4.247  14.684 -0.6179 -0.6469  0.1527
  738MPD2    C410959   4.524   4.354  14.631 -0.4695  0.5623 -0.3365
  738MPD2    C510960   4.399   4.382  14.668  0.1743  0.3713  0.4448
  738MPD2     H10961   4.582   4.067  14.806  2.1123  0.6254 -1.1729
  738MPD2    H110962   4.579   4.425  14.570  1.0719  0.4800  0.9460
  738MPD2    H210963   4.224   4.296  14.755  0.0238  1.0941 -0.0809
  738MPD2    H310964   4.346   4.467  14.625 -0.2630 -0.0502  0.1438
  738MPD2     N10965   4.730   4.242  14.649  0.1040  0.3051  0.0089
  738MPD2    H510966   0.018   4.312  14.580  2.6627 -2.4793 -1.8731
  738MPD2    N110967   4.328   4.064  14.852  0.2453 -0.6583 -0.5891
  738MPD2    H710968   4.381   3.992  14.898 -1.1681 -0.8374  0.7693
  739TMC3    C110969   0.209   4.163  14.645 -0.7625 -1.0193  0.0213
  739TMC3    C210970   0.229   4.177  14.506 -0.0930  0.1353  0.2610
  739TMC3    C310971   0.352   4.174  14.456 -0.5249 -0.5487 -0.4469
  739TMC3    C410972   0.313   4.127  14.721 -0.2023  0.3254  0.6359
  739TMC3    C510973   0.440   4.132  14.676 -0.0368 -0.2666  0.7321
  739TMC3    C610974   0.459   4.148  14.541  0.1886 -0.8609 -0.4885
  739TMC3     C10975   0.084   4.162  14.715  0.0493  0.0015  0.1988
  739TMC3     O10976   0.071   4.081  14.806  0.3869  0.7672 -0.7876
  739TMC3     H10977   0.146   4.203  14.442  0.4473  1.5210  0.1144
  739TMC3    H110978   0.287   4.124  14.827  1.5741 -0.2159  1.0479
  739TMC3    H210979   0.554   4.130  14.492 -0.5774 -1.8814 -1.5795
  739TMC3    C710980   0.547   4.138  14.773 -0.0323  0.3264  0.3518
  739TMC3    C810981   0.370   4.230  14.321 -0.7611  0.4314  0.5268
  739TMC3    O110982   0.513   4.100  14.885  0.4957 -0.0031  0.6501
  739TMC3    O210983   0.268   4.244  14.253 -0.4218 -0.1827 -0.1036
  740TMC3    C110984   0.707   0.572  14.453 -0.0915  0.9168 -0.0399
  740TMC3    C210985   0.754   0.485  14.547 -0.0426  0.2242  0.0534
  740TMC3    C310986   0.871   0.425  14.524  0.4277  0.3768  0.1885
  740TMC3    C410987   0.759   0.582  14.325 -0.5206 -0.3196 -0.5592
  740TMC3    C510988   0.870   0.512  14.306  0.6814 -0.0959 -0.0370
  740TMC3    C610989   0.934   0.436  14.404  0.1257  0.0804  0.6163
  740TMC3     C10990   0.590   0.650  14.479  0.2663 -0.2177 -0.8274
  740TMC3     O10991   0.575   0.751  14.410 -0.5067 -0.2215  0.1903
  740TMC3     H10992   0.707   0.488  14.644  0.0007  0.8891  0.0499
  740TMC3    H110993   0.723   0.659  14.258  1.1804 -0.0090 -1.0985
  740TMC3    H210994   1.024   0.380  14.383 -2.5672 -2.9442 -2.8427
  740TMC3    C710995   0.951   0.542  14.189  0.1173  0.1228  0.3672
  740TMC3    C810996   0.923   0.313  14.607  0.4104  0.5645 -0.0579
  740TMC3    O110997   1.072   0.519  14.203 -0.3863  0.1719  0.7087
  740TMC3    O210998   1.021   0.251  14.567 -0.3105 -0.3894  0.7239
  741TMC3    C110999   0.198   4.667  14.195  0.9125  0.0677 -0.1395
  741TMC3    C211000   0.059   4.673  14.192  0.3520  0.0331 -0.3038
  741TMC3    C311001   4.738   4.660  14.311 -0.5641 -0.3686 -0.0170
  741TMC3    C411002   0.279   4.629  14.302  0.3718  0.0465 -0.6654
  741TMC3    C511003   0.210   4.590  14.415 -0.1099  0.2166  0.2506
  741TMC3    C611004   0.068   4.606  14.420 -0.0806  0.8822  0.0759
  741TMC3     C11005   0.249   4.728  14.066  0.0162 -0.4926 -0.7621
  741TMC3     O11006   0.182   0.002  13.966 -0.3799  0.2646  0.1042
  741TMC3     H11007   4.737   4.716  14.113 -0.7676 -1.7083 -0.3980
  741TMC3    H111008   0.386   4.612  14.289  0.5790  0.1069  0.9440
  741TMC3    H211009   0.007   4.563  14.499  0.1785  0.6006  0.1235
  741TMC3    C711010   0.282   4.544  14.531 -0.6577 -0.3580  0.5358
  741TMC3    C811011   4.603   4.615  14.311  0.5300  0.0337 -0.3740
  741TMC3    O111012   0.402   4.524  14.531 -0.7702 -0.2944 -0.3778
  741TMC3    O211013   4.537   4.633  14.412  0.0715 -0.4632 -0.0387
  742TMC3    C111014   0.172   3.364  15.296  0.2721  0.1107 -0.5148
  742TMC3    C211015   0.161   3.369  15.165  0.0905 -0.3799 -0.2489
  742TMC3    C311016   0.207   3.264  15.100  0.0422 -0.2004 -0.1805
  742TMC3    C411017   0.227   3.266  15.372 -0.4302 -0.1713  0.0162
  742TMC3    C511018   0.293   3.172  15.301 -0.3392 -0.0456 -0.0687
  742TMC3    C611019   0.275   3.158  15.160  0.2942 -0.1407 -0.1436
  742TMC3     C11020   0.112   3.476  15.369 -0.7267 -0.7311  0.3942
  742TMC3     O11021   0.039   3.549  15.307 -0.1104  0.4147 -0.0312
  742TMC3     H11022   0.085   3.435  15.124  0.6310  0.3981 -0.0045
  742TMC3    H111023   0.234   3.274  15.480  0.6166 -1.6936  0.0628
  742TMC3    H211024   0.303   3.059  15.123  1.3084 -0.3017  1.0491
  742TMC3    C711025   0.391   3.077  15.363 -0.5200  0.2082 -0.2773
  742TMC3    C811026   0.141   3.226  14.977 -0.1658  0.6115  0.1004
  742TMC3    O111027   0.472   3.026  15.289  0.5622  0.0790 -0.0260
  742TMC3    O211028   0.124   3.106  14.958 -0.0148 -0.2475 -0.2366
  743MPD2     C11029   2.504   0.408   1.642  0.0978 -0.2008 -0.5272
  743MPD2    C111030   2.565   0.361   1.522 -0.2389 -0.4358  0.5971
  743MPD2    C211031   2.699   0.398   1.509 -0.6817  0.6336 -0.2331
  743MPD2    C311032   2.769   0.448   1.616  1.0498 -0.0944 -0.7853
  743MPD2    C411033   2.709   0.489   1.730  0.0797  0.3817 -0.2370
  743MPD2    C511034   2.575   0.465   1.745  0.7433  0.8780 -0.1095
  743MPD2     H11035   2.753   0.381   1.417 -2.0087 -1.8697 -0.5612
  743MPD2    H111036   2.760   0.551   1.803 -0.1703 -1.6210  1.6461
  743MPD2    H211037   2.397   0.395   1.654  0.2681 -0.9939  0.1359
  743MPD2    H311038   2.522   0.502   1.831 -0.9253  0.6503 -1.0294
  743MPD2     N11039   2.911   0.460   1.596  0.4703  0.3495  0.2331
  743MPD2    H511040   2.950   0.446   1.504 -1.2887 -0.9538 -0.3325
  743MPD2    N111041   2.489   0.279   1.431 -0.0912  0.6987  0.2237
  743MPD2    H711042   2.395   0.258   1.462  1.2633 -1.6823  2.8123
  744TMC3    C111043   2.480   0.097   1.275 -0.0206 -0.1815 -0.7733
  744TMC3    C211044   2.380   0.038   1.347 -0.8665 -0.5275  0.6099
  744TMC3    C311045   2.373   4.636   1.346 -0.7413  0.1330  0.1667
  744TMC3    C411046   2.559   0.026   1.191  0.0217  0.1827 -0.3186
  744TMC3    C511047   2.543   4.632   1.180  0.5470 -0.2477  0.1895
  744TMC3    C611048   2.459   4.565   1.260  0.3178 -0.5932  0.1363
  744TMC3     C11049   2.546   0.213   1.323  0.1123  0.2886 -0.1187
  744TMC3     O11050   2.656   0.240   1.271  0.0518  0.6368  0.7329
  744TMC3     H11051   2.308   0.096   1.404  1.2014  1.6432  0.9822
  744TMC3    H111052   2.630   0.075   1.126  1.5055  1.8516  2.5436
  744TMC3    H211053   2.469   4.459   1.284  0.0529 -0.9862 -1.5294
  744TMC3    C711054   2.651   4.560   1.118  0.6642 -0.1204  0.0187
  744TMC3    C811055   2.250   4.571   1.394  0.5838  0.1767  0.5692
  744TMC3    O111056   2.754   4.624   1.102 -0.3139 -0.5328 -0.2742
  744TMC3    O211057   2.151   4.635   1.389 -0.3782  0.0051 -0.1493
  745TMC3    C111058   0.550   2.660  13.624 -0.4135  0.6523  0.7238
  745TMC3    C211059   0.459   2.707  13.715  0.0286 -0.2384  0.3987
  745TMC3    C311060   0.329   2.663  13.702  0.0142 -0.0150  0.4225
  745TMC3    C411061   0.507   2.591  13.523 -0.5455 -0.0749  0.2101
  745TMC3    C511062   0.379   2.565  13.499 -0.2936  0.5592 -0.3551
  745TMC3    C611063   0.280   2.592  13.595  0.1620  0.1581  0.3223
  745TMC3     C11064   0.675   2.737  13.603  0.4170  0.5482 -0.0630
  745TMC3     O11065   0.768   2.688  13.544  0.3139  0.7066 -0.0497
  745TMC3     H11066   0.498   2.762  13.799  0.1723 -1.4817  1.1388
  745TMC3    H111067   0.582   2.536  13.466  0.2414  0.3036  0.8752
  745TMC3    H211068   0.175   2.586  13.571  0.2115 -0.3946  0.2318
  745TMC3    C711069   0.336   2.606  13.365  0.3961  0.1332  0.1617
  745TMC3    C811070   0.234   2.687  13.801 -0.1810 -0.7152  0.4371
  745TMC3    O111071   0.219   2.639  13.350 -0.3930  0.1582 -1.0749
  745TMC3    O211072   0.135   2.619  13.790 -0.6116  0.2766 -0.0816
  746TMC3    C111073   2.795   0.468  11.078 -0.0917 -0.2266 -0.5482
  746TMC3    C211074   2.923   0.442  11.055  0.2950  0.2286 -0.8430
  746TMC3    C311075   2.960   0.308  11.047  0.2647  0.2135 -0.6005
  746TMC3    C411076   2.704   0.370  11.098 -0.0541 -0.4261  0.0934
  746TMC3    C511077   2.738   0.241  11.092 -0.1684  0.6594  0.3306
  746TMC3    C611078   2.867   0.209  11.062  0.4135  0.3485 -1.0001
  746TMC3     C11079   2.751   0.600  11.089 -0.1025  0.0969  1.1246
  746TMC3     O11080   2.637   0.621  11.115  0.2694  0.2630  0.5538
  746TMC3     H11081   2.989   0.518  11.013 -1.6509  1.3323 -1.9341
  746TMC3    H111082   2.603   0.395  11.128  0.7528  1.4526  1.2707
  746TMC3    H211083   2.905   0.109  11.042 -0.6391  0.1692 -2.0878
  746TMC3    C711084   2.642   0.135  11.098  0.5400  0.1126  0.9250
  746TMC3    C811085   3.072   0.263  10.957 -0.5561 -0.5293  0.3185
  746TMC3    O111086   2.530   0.170  11.063 -0.3784  0.5607  0.5249
  746TMC3    O211087   3.087   0.146  10.920 -0.5723  0.0034 -0.1094
  747TMC3    C111088   0.079   0.541  10.898 -0.3061  0.8766 -0.1737
  747TMC3    C211089   4.721   0.581  10.990  1.3897  0.5813  0.5995
  747TMC3    C311090   0.024   0.628  11.114 -0.4905  0.5571  0.2601
  747TMC3    C411091   0.209   0.524  10.936 -0.2405  0.9946  0.5467
  747TMC3    C511092   0.244   0.578  11.057 -0.0786 -0.2172 -0.4776
  747TMC3    C611093   0.157   0.638  11.144 -0.1954  0.1756 -0.2285
  747TMC3     C11094   0.042   0.503  10.767 -0.4298  0.0283 -0.5014
  747TMC3     O11095   0.097   0.412  10.713 -0.5372 -0.5663  0.7890
  747TMC3     H11096   4.616   0.565  10.972  2.2292 -0.8480 -2.9773
  747TMC3    H111097   0.278   0.502  10.855 -0.3590 -1.5037  1.1194
  747TMC3    H211098   0.188   0.667  11.244 -1.9799  0.5094  0.2248
  747TMC3    C711099   0.377   0.556  11.112 -0.0301  0.5914 -0.0160
  747TMC3    C811100   4.671   0.583  11.218 -0.1718 -0.7211  0.3917
  747TMC3    O111101   0.411   0.624  11.207 -0.1904  0.4348  0.1346
  747TMC3    O211102   4.579   0.513  11.180  0.4563 -0.0812 -0.5756
  748MPD2     C11103   1.800   0.619   1.638  0.2769  0.8155  0.3267
  748MPD2    C111104   1.852   0.559   1.524 -0.0745  0.1905  0.1691
  748MPD2    C211105   1.982   0.593   1.484 -0.4128  0.2673 -0.2627
  748MPD2    C311106   2.061   0.674   1.559  0.3369 -0.0143  0.8218
  748MPD2    C411107   2.011   0.735   1.671 -0.2401  0.1918 -0.6120
  748MPD2    C511108   1.879   0.710   1.705  0.0321 -0.1585 -0.2706
  748MPD2     H11109   2.023   0.545   1.396 -1.3945 -0.0144 -0.5677
  748MPD2    H111110   2.070   0.800   1.734  0.0216 -1.6977  1.0938
  748MPD2    H211111   1.696   0.610   1.667 -0.0924  3.4580 -0.1746
  748MPD2    H311112   1.838   0.768   1.786  1.8701 -1.6620  1.7396
  748MPD2     N11113   2.196   0.695   1.520  0.1769  0.1285  0.3953
  748MPD2    H511114   2.228   0.666   1.428 -1.1490 -0.2576  0.0496
  748MPD2    N111115   1.773   0.461   1.459  0.0035 -0.1236  0.4656
  748MPD2    H711116   1.682   0.453   1.503 -0.4804  2.4391 -0.0918
  749TMC3    C111117   2.416   0.777   1.524 -0.0244 -0.7247 -0.9225
  749TMC3    C211118   2.532   0.782   1.595 -0.1614 -0.2624 -0.1141
  749TMC3    C311119   2.650   0.813   1.528 -0.2146  0.7734  0.4094
  749TMC3    C411120   2.407   0.836   1.401  0.4105 -0.3949  0.1278
  749TMC3    C511121   2.523   0.874   1.340 -0.1301  0.4317 -0.3066
  749TMC3    C611122   2.650   0.866   1.402 -0.1709 -0.2632 -0.1866
  749TMC3     C11123   2.295   0.747   1.601  0.3020  0.1902 -0.0824
  749TMC3     O11124   2.290   0.755   1.721 -0.5249 -0.1228  0.1807
  749TMC3     H11125   2.547   0.737   1.693 -0.4262 -0.3689 -0.1238
  749TMC3    H111126   2.309   0.835   1.355 -0.6487  0.5366  2.3377
  749TMC3    H211127   2.741   0.908   1.359 -1.0047 -0.4497 -2.1431
  749TMC3    C711128   2.529   0.959   1.226  0.2513  0.3964 -0.1255
  749TMC3    C811129   2.774   0.805   1.605 -0.4767 -0.4276  0.0135
  749TMC3    O111130   2.636   0.969   1.166  0.0321  0.0090 -0.9230
  749TMC3    O211131   2.768   0.822   1.727  0.3401  0.3669  0.4209
  750MPD2     C11132   2.813   2.427  11.722  0.0788 -1.0543 -0.1824
  750MPD2    C111133   2.725   2.321  11.741  0.2888  0.1398 -0.8297
  750MPD2    C211134   2.730   2.212  11.653  0.1521  0.5835 -0.0012
  750MPD2    C311135   2.821   2.212  11.549  0.3542  0.0243 -0.1927
  750MPD2    C411136   2.905   2.316  11.530  0.1058  0.3267  0.1893
  750MPD2    C511137   2.904   2.424  11.614 -0.2006 -0.0283 -0.6115
  750MPD2     H11138   2.653   2.136  11.658 -1.5022  2.2895  0.8458
  750MPD2    H111139   2.972   2.320  11.445  0.0956 -0.3177  0.1473
  750MPD2    H211140   2.803   2.515  11.784 -1.7937 -0.2817 -1.5937
  750MPD2    H311141   2.970   2.509  11.602  0.7464 -0.8592 -1.3016
  750MPD2     N11142   2.819   2.119  11.448 -0.2452 -0.1734 -0.2071
  750MPD2    H511143   2.864   2.143  11.361  0.4582  0.5634  0.3702
  750MPD2    N111144   2.619   2.345  11.825  0.1867  0.0247 -0.1341
  750MPD2    H711145   2.618   2.435  11.872  0.0694 -0.6152  1.0694
  751TMC3    C111146   2.763   1.927  11.316  0.4656  0.3193 -0.3706
  751TMC3    C211147   2.663   1.836  11.281 -0.1484  0.2990  0.3622
  751TMC3    C311148   2.701   1.732  11.202  0.0401 -0.5817  0.7755
  751TMC3    C411149   2.884   1.925  11.258  0.7032  0.4326  0.0979
  751TMC3    C511150   2.911   1.831  11.166  0.2861 -0.0569  0.0928
  751TMC3    C611151   2.817   1.731  11.134  0.3408 -0.5310  0.4378
  751TMC3     C11152   2.742   2.002  11.436 -0.6930  0.3564  0.6007
  751TMC3     O11153   2.692   1.934  11.523  0.3140  0.3009 -0.2112
  751TMC3     H11154   2.571   1.838  11.338  0.6470  2.3679  1.5568
  751TMC3    H111155   2.971   1.975  11.299  0.2547 -1.0941  2.9168
  751TMC3    H211156   2.836   1.663  11.051  0.7744 -0.7443  0.7114
  751TMC3    C711157   3.014   1.868  11.064 -0.3447 -0.3361 -0.3233
  751TMC3    C811158   2.612   1.621  11.173  0.1023 -0.1216  0.3701
  751TMC3    O111159   3.047   1.988  11.068  0.2579 -0.0766  0.5435
  751TMC3    O211160   2.641   1.560  11.069 -0.2513  0.2039  0.4443
  752TMC3    C111161   1.510   1.389  17.191 -0.1686  0.4998 -0.1845
  752TMC3    C211162   1.571   1.274  17.231  0.3922  0.0141 -0.2061
  752TMC3    C311163   1.506   1.181  17.303  0.6613  0.0562 -0.2776
  752TMC3    C411164   1.378   1.414  17.227 -0.7295 -0.4843  0.0373
  752TMC3    C511165   1.304   1.318  17.292 -0.3470  0.5937 -1.0033
  752TMC3    C611166   1.371   1.204  17.335  0.5959  0.1417  0.1372
  752TMC3     C11167   1.587   1.483  17.111 -0.9729  0.5993 -0.8093
  752TMC3     O11168   1.707   1.463  17.105 -0.0983  0.1009 -0.1170
  752TMC3     H11169   1.673   1.256  17.199  0.6458  0.0892  0.5453
  752TMC3    H111170   1.331   1.510  17.209  0.8672  0.0831 -1.0791
  752TMC3    H211171   1.309   1.130  17.383  1.3288 -0.4349  0.2026
  752TMC3    C711172   1.181   1.362  17.345 -0.2295 -0.1936 -0.7755
  752TMC3    C811173   1.567   1.052  17.337  0.0082  0.5451 -0.2705
  752TMC3    O111174   1.119   1.449  17.282 -0.0156 -0.0975  0.5278
  752TMC3    O211175   1.509   0.992  17.425 -0.3448 -0.9768  0.3183
  753TMC3    C111176   3.351   2.935  13.068  0.2743  0.4920 -0.6683
  753TMC3    C211177   3.391   2.903  13.198 -0.0541 -0.1133 -0.8210
  753TMC3    C311178   3.354   2.776  13.245 -0.2617  0.5140 -1.0866
  753TMC3    C411179   3.272   2.852  12.988  1.0194  0.1066 -0.5897
  753TMC3    C511180   3.248   2.723  13.034  0.1495  0.0908  0.1621
  753TMC3    C611181   3.284   2.691  13.154  0.9569  0.1302 -0.6357
  753TMC3     C11182   3.367   3.071  13.015  0.6770  0.5465 -0.4770
  753TMC3     O11183   3.315   3.096  12.908  0.3288 -0.1292 -0.2595
  753TMC3     H11184   3.442   2.968  13.269 -0.5580 -1.7299  1.0058
  753TMC3    H111185   3.235   2.892  12.894  0.7504  1.5227  0.1187
  753TMC3    H211186   3.252   2.598  13.198 -2.1172  1.9613  1.0118
  753TMC3    C711187   3.179   2.633  12.946 -0.6491  0.6125 -0.1665
  753TMC3    C811188   3.390   2.728  13.376 -0.3910  0.1997 -0.2647
  753TMC3    O111189   3.157   2.673  12.831 -0.1051  0.2162  0.0557
  753TMC3    O211190   3.374   2.609  13.396 -0.1752 -0.0747  0.3132
  754MPD2     C11191   2.113   1.247  13.055  0.4071 -0.2825 -0.4982
  754MPD2    C111192   2.105   1.367  13.118 -0.2413  0.0508  0.1346
  754MPD2    C211193   2.009   1.462  13.071 -0.7308  0.2135 -0.2385
  754MPD2    C311194   1.916   1.421  12.977 -0.3660  0.2190 -0.6535
  754MPD2    C411195   1.924   1.305  12.916 -0.4237  0.0941  0.1575
  754MPD2    C511196   2.022   1.213  12.954  0.0695 -0.2881 -0.0040
  754MPD2     H11197   2.004   1.560  13.116 -2.1157 -0.2444  0.5774
  754MPD2    H111198   1.851   1.272  12.844 -0.0452  2.2096 -1.1808
  754MPD2    H211199   2.192   1.182  13.092 -3.4796 -2.7634  3.4142
  754MPD2    H311200   2.015   1.113  12.912  0.0529  0.0366 -0.7751
  754MPD2     N11201   1.800   1.487  12.936 -0.1296  0.1422  0.2338
  754MPD2    H511202   1.734   1.426  12.887 -0.7252  0.5605  0.5137
  754MPD2    N111203   2.212   1.399  13.220  0.5566 -0.3139  0.6671
  754MPD2    H711204   2.270   1.323  13.253 -0.8949 -2.3440 -1.4308
  755MPD2     C11205   1.753   1.746  13.704 -0.8079  0.1446  0.1712
  755MPD2    C111206   1.620   1.781  13.687 -0.0359 -0.0851  0.7036
  755MPD2    C211207   1.564   1.765  13.565  0.1187 -0.8102  0.0918
  755MPD2    C311208   1.639   1.715  13.465  0.2300 -0.5183 -0.4216
  755MPD2    C411209   1.771   1.676  13.478 -0.0773 -0.1649  0.3710
  755MPD2    C511210   1.832   1.704  13.595 -0.0249 -0.5127 -0.4808
  755MPD2     H11211   1.466   1.812  13.564  1.0364  1.0937  0.0969
  755MPD2    H111212   1.828   1.641  13.393 -0.0567  2.5873 -0.7588
  755MPD2    H211213   1.804   1.752  13.800  0.2881 -1.8120 -0.2970
  755MPD2    H311214   1.938   1.694  13.612  0.2048 -1.3665 -2.5425
  755MPD2     N11215   1.583   1.684  13.341  0.4019  0.2262 -0.3862
  755MPD2    H511216   1.645   1.633  13.278  0.7331 -1.1100  1.0366
  755MPD2    N111217   1.552   1.827  13.799  0.5235  0.3415  0.1606
  755MPD2    H711218   1.451   1.818  13.791  0.4683  0.6233  0.5454
  756MPD2     C11219   2.827   3.404  10.021 -0.3312  0.4407 -0.8686
  756MPD2    C111220   2.784   3.290  10.087 -0.4622 -0.6009 -0.5879
  756MPD2    C211221   2.683   3.218  10.024 -0.1136 -0.3869 -0.6884
  756MPD2    C311222   2.627   3.254   9.902 -0.2709  0.7139 -0.2811
  756MPD2    C411223   2.667   3.368   9.843  0.5796 -0.4069 -0.0738
  756MPD2    C511224   2.779   3.437   9.893  0.2311 -0.4561  0.3538
  756MPD2     H11225   2.655   3.127  10.076 -0.1040 -0.7665 -1.3538
  756MPD2    H111226   2.634   3.415   9.752  1.1158 -1.2358 -0.6924
  756MPD2    H211227   2.913   3.460  10.056 -0.8735  0.8989 -0.2669
  756MPD2    H311228   2.825   3.511   9.828  1.5275 -2.9272 -1.5386
  756MPD2     N11229   2.526   3.170   9.852  0.0018 -0.5473 -0.3266
  756MPD2    H511230   2.511   3.083   9.902 -2.2562 -0.4016 -0.7616
  756MPD2    N111231   2.825   3.251  10.216  0.0021 -0.2105  1.2480
  756MPD2    H711232   2.774   3.168  10.245 -1.8983  0.0765 -1.1953
  757MPD2     C11233   2.169   2.421  10.196 -0.5473  0.7131 -0.7008
  757MPD2    C111234   2.111   2.386  10.079 -0.1597 -0.2816  0.9037
  757MPD2    C211235   2.119   2.475   9.973  1.1914 -0.5842  0.1373
  757MPD2    C311236   2.187   2.594   9.982 -0.1258 -0.0870  1.6246
  757MPD2    C411237   2.245   2.623  10.104 -0.3672  0.2187 -0.3815
  757MPD2    C511238   2.229   2.543  10.214  0.5124  0.3776  0.2376
  757MPD2     H11239   2.073   2.455   9.877 -1.6030  1.2501  1.0800
  757MPD2    H111240   2.289   2.720  10.126  0.0570 -0.1057  0.2244
  757MPD2    H211241   2.175   2.355  10.282  2.2937  0.1637 -1.3052
  757MPD2    H311242   2.268   2.570  10.311 -0.3114 -1.3589  1.0465
  757MPD2     N11243   2.186   2.688   9.874  0.5767 -1.1298 -0.6307
  757MPD2    H511244   2.123   2.662   9.799 -0.3951 -2.6308  0.6869
  757MPD2    N111245   2.040   2.264  10.064  0.0632 -0.8015 -0.3871
  757MPD2    H711246   1.990   2.256   9.976  0.2397 -3.7276 -0.2013
  758MPD2     C11247   2.493   1.428  15.869 -0.2957 -0.5143  0.9939
  758MPD2    C111248   2.463   1.301  15.923 -0.2113 -0.1349  0.6255
  758MPD2    C211249   2.448   1.284  16.058 -0.9003 -0.3107 -0.2929
  758MPD2    C311250   2.449   1.395  16.136  0.4139 -0.0302  0.1700
  758MPD2    C411251   2.474   1.516  16.090  0.3131  0.2018  0.3874
  758MPD2    C511252   2.496   1.532  15.957 -0.7744 -0.0618  0.6098
  758MPD2     H11253   2.432   1.187  16.103 -2.3715 -0.9091 -2.0827
  758MPD2    H111254   2.483   1.596  16.162 -3.1522 -0.4156  1.4930
  758MPD2    H211255   2.521   1.457  15.768 -1.0622 -0.2102  0.8694
  758MPD2    H311256   2.535   1.630  15.930 -0.9839 -0.0241  0.4509
  758MPD2     N11257   2.440   1.374  16.273  0.5937 -0.1202 -0.0847
  758MPD2    H511258   2.452   1.460  16.325 -1.3771  0.2194 -0.1778
  758MPD2    N111259   2.467   1.183  15.847 -0.3460 -0.3897 -0.2607
  758MPD2    H711260   2.447   1.096  15.894 -0.2783  0.6445  1.6749
  759MPD2     C11261   1.883   4.160  10.103 -0.7079  0.0078 -0.5513
  759MPD2    C111262   1.773   4.213  10.166 -0.4355  0.6129 -0.2478
  759MPD2    C211263   1.742   4.345  10.145 -0.0748  0.1185  0.8599
  759MPD2    C311264   1.832   4.428  10.079 -0.1041 -0.0665  0.4639
  759MPD2    C411265   1.949   4.375  10.018 -0.7581  0.1661  0.7284
  759MPD2    C511266   1.971   4.241  10.038 -0.3737  0.6704 -0.9007
  759MPD2     H11267   1.645   4.381  10.177 -0.5066  0.4092 -0.7917
  759MPD2    H111268   2.020   4.428   9.956 -0.6536 -0.8281  0.0011
  759MPD2    H211269   1.914   4.057  10.110  2.8589  1.2138  1.5945
  759MPD2    H311270   2.049   4.202   9.974 -0.9504  0.1303 -1.2797
  759MPD2     N11271   1.791   4.561  10.062  0.2938  0.5361  0.0054
  759MPD2    H511272   1.706   4.591  10.107  0.9534  1.7018  0.4954
  759MPD2    N111273   1.692   4.142  10.257  0.3693 -0.4347  0.5118
  759MPD2    H711274   1.620   4.193  10.306  0.1580  0.8705 -1.1392
  760MPD2     C11275   0.856   1.790  12.256  0.5423  0.4496 -0.0298
  760MPD2    C111276   0.948   1.813  12.161 -0.0841  0.4705  0.0845
  760MPD2    C211277   0.992   1.707  12.087  0.0248  0.9604 -0.1092
  760MPD2    C311278   0.937   1.581  12.091  0.0075 -0.0232  0.3325
  760MPD2    C411279   0.835   1.562  12.187 -0.6938 -0.1751 -0.1433
  760MPD2    C511280   0.803   1.666  12.267  0.2492  0.0591 -0.0311
  760MPD2     H11281   1.078   1.719  12.022  0.4540  1.4819  0.5560
  760MPD2    H111282   0.776   1.474  12.211  2.0037 -0.9691  3.6585
  760MPD2    H211283   0.815   1.865  12.322 -0.8909  0.7678 -1.2933
  760MPD2    H311284   0.731   1.660  12.348  0.8341  1.9395  0.6294
  760MPD2     N11285   0.986   1.473  12.010  0.1227 -0.0762 -0.1712
  760MPD2    H511286   0.956   1.380  12.037  2.9526 -0.8718  0.1401
  760MPD2    N111287   1.013   1.942  12.149 -0.2231 -0.2784 -0.4141
  760MPD2    H711288   1.081   1.951  12.074  2.4538  1.8537  2.2902
  761MPD2     C11289   2.266   1.286  11.324 -0.5489 -0.1524  0.0785
  761MPD2    C111290   2.339   1.290  11.204  0.4841 -0.2889 -0.7169
  761MPD2    C211291   2.428   1.391  11.189 -0.1190  0.3070 -0.3986
  761MPD2    C311292   2.437   1.481  11.291 -0.5609 -0.0918  0.2433
  761MPD2    C411293   2.366   1.475  11.410  0.7574 -0.1733  0.0020
  761MPD2    C511294   2.279   1.375  11.427  0.4015  0.4511 -0.1153
  761MPD2     H11295   2.484   1.404  11.097 -0.6510  0.0166 -0.7653
  761MPD2    H111296   2.370   1.560  11.477  1.1838 -1.2234  1.3063
  761MPD2    H211297   2.187   1.214  11.342  0.6869 -1.0235  2.0332
  761MPD2    H311298   2.223   1.367  11.519 -0.2378  0.9882 -0.4550
  761MPD2     N11299   2.524   1.591  11.279 -0.6495  0.7720 -0.2667
  761MPD2    H511300   2.530   1.645  11.365 -1.0153 -0.8172  0.7451
  761MPD2    N111301   2.313   1.193  11.109  0.2289  0.4262  0.7785
  761MPD2    H711302   2.256   1.115  11.140 -2.4271  1.9682 -0.3494
  762MPD2     C11303   2.788   0.518  10.749  0.0627  0.6610  0.3559
  762MPD2    C111304   2.781   0.661  10.744  0.4062 -0.5479 -0.0428
  762MPD2    C211305   2.892   0.723  10.688 -0.5493 -0.3744 -0.7070
  762MPD2    C311306   3.003   0.649  10.639  0.2469 -0.5078  0.7499
  762MPD2    C411307   3.006   0.511  10.639 -0.1940  0.4272 -0.5176
  762MPD2    C511308   2.898   0.446  10.702  0.3520  0.5468  0.4599
  762MPD2     H11309   2.887   0.829  10.671  0.5286 -0.4695 -1.6313
  762MPD2    H111310   3.087   0.449  10.602 -0.0298 -0.2562  1.0053
  762MPD2    H211311   2.709   0.459  10.795  0.8667  2.1208  3.6187
  762MPD2    H311312   2.896   0.339  10.719 -0.8734  0.7086  1.2903
  762MPD2     N11313   3.109   0.713  10.570  0.4309  0.2371  0.5940
  762MPD2    H511314   3.167   0.648  10.519 -0.0846  1.0126 -0.9951
  762MPD2    N111315   2.660   0.720  10.790  0.1393  0.0796 -0.6494
  762MPD2    H711316   2.586   0.656  10.815  1.3056 -0.7919  0.5987
  763MPD2     C11317   4.498   1.259  16.071 -0.1086  0.3409 -0.3899
  763MPD2    C111318   4.394   1.342  16.039  0.3176  0.0451  0.5604
  763MPD2    C211319   4.396   1.480  16.061 -0.5824  0.2640 -0.0021
  763MPD2    C311320   4.520   1.537  16.099 -0.6698 -0.9050  0.1007
  763MPD2    C411321   4.628   1.454  16.115  0.0236 -0.3618 -0.3504
  763MPD2    C511322   4.617   1.317  16.110 -0.3046 -0.0263  0.1787
  763MPD2     H11323   4.301   1.527  16.041 -0.6034  0.0505 -0.4150
  763MPD2    H111324   4.730   1.486  16.130 -0.4330  0.5134  0.8106
  763MPD2    H211325   4.496   1.152  16.058  1.4720  0.2285  0.2600
  763MPD2    H311326   4.710   1.262  16.117  0.4609  1.2037 -0.3158
  763MPD2     N11327   4.544   1.677  16.105 -0.0360  0.5548 -0.2555
  763MPD2    H511328   4.643   1.702  16.104 -0.4688  2.2267 -1.2938
  763MPD2    N111329   4.281   1.294  15.980 -0.1022 -0.1993 -0.5073
  763MPD2    H711330   4.214   1.369  15.966  3.2170  2.5922 -1.2807
  764MPD2     C11331   2.881   2.460  17.407 -0.0822  0.1226  0.0612
  764MPD2    C111332   2.743   2.465  17.417  0.0562 -0.6259 -0.3735
  764MPD2    C211333   2.688   2.374  17.506  0.0252  0.1871  0.6350
  764MPD2    C311334   2.774   2.297  17.581 -0.2407  0.4450  0.0830
  764MPD2    C411335   2.904   2.276  17.549  0.3839  0.0315  0.1135
  764MPD2    C511336   2.958   2.359  17.458  0.1089 -0.4159 -0.3935
  764MPD2     H11337   2.583   2.383  17.530  0.0595  1.3280  0.3772
  764MPD2    H111338   2.972   2.205  17.595 -1.9349 -1.1681  1.6700
  764MPD2    H211339   2.936   2.530  17.345  0.1140 -1.0798 -1.1382
  764MPD2    H311340   3.063   2.348  17.435  0.3553 -1.2569  1.1893
  764MPD2     N11341   2.710   2.231  17.690 -0.1674  0.2837  0.5214
  764MPD2    H511342   2.610   2.240  17.700 -0.2969 -1.4223  0.7346
  764MPD2    N111343   2.659   2.573  17.368  0.2880  0.3779  0.0426
  764MPD2    H711344   2.560   2.559  17.382  0.5778  1.2733  2.9558
  765MPD2     C11345   2.141   0.844  15.496 -0.5887 -0.0877 -0.1612
  765MPD2    C111346   2.188   0.892  15.613 -0.1967 -1.0493  0.4348
  765MPD2    C211347   2.274   0.819  15.688 -0.6626  0.2316  0.3567
  765MPD2    C311348   2.317   0.695  15.651  0.1151 -0.3435 -0.0628
  765MPD2    C411349   2.273   0.647  15.530  0.6234 -0.3931  0.8374
  765MPD2    C511350   2.183   0.715  15.454  0.3103  0.4870  0.7505
  765MPD2     H11351   2.312   0.865  15.778 -0.7756  1.8915 -0.4466
  765MPD2    H111352   2.304   0.548  15.500  0.7420 -0.0593 -0.1475
  765MPD2    H211353   2.061   0.891  15.440  1.9695  2.0297 -2.0350
  765MPD2    H311354   2.161   0.675  15.355  0.8481  1.8779  0.0619
  765MPD2     N11355   2.414   0.628  15.729 -0.4312  0.5868 -0.4444
  765MPD2    H511356   2.450   0.669  15.815  0.8627 -1.2136 -0.1277
  765MPD2    N111357   2.127   1.012  15.662  0.7284  0.2503 -0.8395
  765MPD2    H711358   2.065   1.063  15.600 -0.1001  1.1841  0.7727
  766MPD2     C11359   1.512   1.058  15.516  0.0200 -0.1666  0.0029
  766MPD2    C111360   1.645   1.037  15.533 -0.0384  0.0623  0.0132
  766MPD2    C211361   1.709   0.971  15.431  0.1890 -0.1014 -0.3531
  766MPD2    C311362   1.646   0.941  15.316  0.3968  0.4748 -0.7759
  766MPD2    C411363   1.518   0.963  15.301  0.1407  0.2115 -0.4144
  766MPD2    C511364   1.450   1.027  15.401 -0.6850  0.3965  0.5063
  766MPD2     H11365   1.815   0.949  15.433  0.1102 -0.5437 -1.0029
  766MPD2    H111366   1.460   0.928  15.216 -0.4540 -2.1036  0.9274
  766MPD2    H211367   1.458   1.117  15.589 -0.5189 -0.2026 -0.3659
  766MPD2    H311368   1.344   1.045  15.388 -0.5250  1.1039  0.2293
  766MPD2     N11369   1.710   0.892  15.202  0.0813 -0.0968  0.5143
  766MPD2    H511370   1.646   0.901  15.123  0.5256 -1.5028 -0.0147
  766MPD2    N111371   1.733   1.083  15.628 -0.3893  0.1333  0.1471
  766MPD2    H711372   1.828   1.048  15.623 -0.9907 -1.3768 -0.7822
  767MPD2     C11373   1.276   1.269  15.150  0.7025 -0.0330 -0.0510
  767MPD2    C111374   1.411   1.257  15.116 -0.9876  0.7285 -0.1968
  767MPD2    C211375   1.446   1.184  15.003  0.3884 -0.8681  0.6968
  767MPD2    C311376   1.344   1.127  14.923  0.8112  0.2411  0.3568
  767MPD2    C411377   1.211   1.146  14.956 -0.0191  0.1313 -0.0405
  767MPD2    C511378   1.174   1.219  15.069 -0.3956 -0.3909 -0.8443
  767MPD2     H11379   1.551   1.175  14.981  0.5637  4.5972 -0.8855
  767MPD2    H111380   1.127   1.111  14.897 -0.6491 -1.9820  2.1211
  767MPD2    H211381   1.237   1.307  15.243 -1.6924  0.6663 -1.3418
  767MPD2    H311382   1.073   1.225  15.107  0.6922 -0.6987  2.1235
  767MPD2     N11383   1.388   1.041  14.815  0.2317  0.3234 -0.0991
  767MPD2    H511384   1.488   1.034  14.798  0.3419  0.3488  0.5400
  767MPD2    N111385   1.512   1.307  15.207 -0.4158 -0.5018 -0.1896
  767MPD2    H711386   1.484   1.375  15.278 -1.1605 -0.8140 -0.1931
  768MPD2     C11387   2.488   4.515  10.666  1.7500  0.3836  0.0381
  768MPD2    C111388   2.458   4.441  10.780 -0.5116 -0.1264  0.0357
  768MPD2    C211389   2.553   4.424  10.875  0.7286 -0.3375  0.0367
  768MPD2    C311390   2.672   4.496  10.865  0.2695  0.4199 -0.1816
  768MPD2    C411391   2.691   4.579  10.757 -0.2827 -0.0689 -0.0648
  768MPD2    C511392   2.605   4.579  10.651  0.1137 -0.1940  0.3522
  768MPD2     H11393   2.517   4.369  10.961 -0.8812 -1.5668 -1.4234
  768MPD2    H111394   2.784   4.634  10.757  0.4020 -1.2286 -0.2162
  768MPD2    H211395   2.426   4.521  10.577 -0.0821 -1.1862  1.2184
  768MPD2    H311396   2.625   4.633  10.559  0.6775 -1.3727 -0.2216
  768MPD2     N11397   2.780   4.484  10.950  0.4468  0.4708 -0.2976
  768MPD2    H511398   2.860   4.545  10.948  2.6913 -2.5584 -2.6937
  768MPD2    N111399   2.334   4.373  10.802 -0.3142 -0.1942 -0.2925
  768MPD2    H711400   2.322   4.313  10.883 -1.3907  2.1257  1.2709
  769MPD2     C11401   3.319   2.277  14.978 -0.3672  0.2776  0.8959
  769MPD2    C111402   3.250   2.386  15.012 -0.0222 -0.2863 -0.4031
  769MPD2    C211403   3.276   2.440  15.138  0.2001 -0.6068  1.0810
  769MPD2    C311404   3.369   2.380  15.222  0.0529 -0.2885  0.3107
  769MPD2    C411405   3.442   2.269  15.177 -0.2001 -0.1045 -0.2242
  769MPD2    C511406   3.413   2.221  15.051  0.3683 -0.2070  0.1767
  769MPD2     H11407   3.216   2.521  15.179 -0.5873 -0.5930 -0.1110
  769MPD2    H111408   3.517   2.222  15.238  0.2327  0.7188 -0.1195
  769MPD2    H211409   3.298   2.227  14.884 -0.2949 -0.0021  1.0306
  769MPD2    H311410   3.469   2.139  15.010  0.2694 -0.4252  0.4775
  769MPD2     N11411   3.388   2.439  15.342  0.1188  0.4237 -0.0058
  769MPD2    H511412   3.330   2.521  15.356  0.4697  0.5883  0.4903
  769MPD2    N111413   3.144   2.430  14.927 -0.0526 -0.0496 -0.2860
  769MPD2    H711414   3.117   2.360  14.859  0.8925 -1.4752  0.8192
  770MPD2     C11415   2.655   1.924  15.376  0.7360  0.5742  0.4866
  770MPD2    C111416   2.722   1.899  15.256 -0.6853 -1.0914 -0.4305
  770MPD2    C211417   2.756   2.011  15.181  0.0765  0.1034  0.0310
  770MPD2    C311418   2.723   2.139  15.218 -0.4544  0.6829 -0.1711
  770MPD2    C411419   2.661   2.158  15.339  0.0384 -0.3262 -0.3758
  770MPD2    C511420   2.629   2.053  15.420  0.5327 -0.1855 -0.4625
  770MPD2     H11421   2.810   2.007  15.087  1.6472  0.6358  0.9015
  770MPD2    H111422   2.640   2.257  15.379 -0.7836 -2.2129  3.8779
  770MPD2    H211423   2.624   1.837  15.432  1.0233  1.0479  1.3831
  770MPD2    H311424   2.580   2.070  15.515 -0.9490  0.4615 -1.3353
  770MPD2     N11425   2.759   2.239  15.129 -0.2501 -0.5488 -0.1125
  770MPD2    H511426   2.816   2.217  15.048  2.1773  0.2154  1.3652
  770MPD2    N111427   2.765   1.775  15.220 -0.2020 -0.0282 -0.0303
  770MPD2    H711428   2.725   1.697  15.271 -0.4473 -1.0090 -1.7461
  771MPD2     C11429   4.066   0.015  13.345 -0.7706  0.0949 -1.1507
  771MPD2    C111430   4.040   0.145  13.330 -0.0609 -0.3830  0.2217
  771MPD2    C211431   3.947   0.180  13.230  0.0283  0.5737 -0.2335
  771MPD2    C311432   3.880   0.089  13.151  0.4883 -0.4792 -0.6192
  771MPD2    C411433   3.909   4.691  13.175  0.3168  0.2413  0.4093
  771MPD2    C511434   4.001   4.660  13.270  0.2378 -0.6384  0.4657
  771MPD2     H11435   3.914   0.283  13.230  0.8623  0.8389  0.4374
  771MPD2    H111436   3.854   4.615  13.120 -0.0252 -1.3044  2.8875
  771MPD2    H211437   4.133   4.715  13.421 -0.6733 -0.5046 -1.5350
  771MPD2    H311438   4.029   4.557  13.283  0.3743 -0.9129 -2.0612
  771MPD2     N11439   3.787   0.143  13.063 -0.4153  0.6172 -0.2635
  771MPD2    H511440   3.772   0.243  13.060 -0.3724  0.5950 -1.0969
  771MPD2    N111441   4.105   0.245  13.414  0.2603  0.2853  0.2103
  771MPD2    H711442   4.058   0.334  13.424 -0.1331  0.1326 -0.2829
  772MPD2     C11443   3.911   0.497  14.061  0.2716  0.1533 -0.1737
  772MPD2    C111444   3.896   0.433  13.938  0.1695 -0.1994  0.1043
  772MPD2    C211445   3.783   0.360  13.912  0.0948  0.0579 -0.5237
  772MPD2    C311446   3.684   0.346  14.006  0.1157 -0.1875 -0.0037
  772MPD2    C411447   3.700   0.406  14.132  0.5307  0.0427  0.4002
  772MPD2    C511448   3.812   0.484  14.152  0.0569 -0.7580  0.4383
  772MPD2     H11449   3.768   0.306  13.819 -1.0131 -3.9164  1.9314
  772MPD2    H111450   3.629   0.404  14.214 -0.3466 -0.8649 -0.3905
  772MPD2    H211451   3.989   0.571  14.077  0.1882  0.1139  0.4351
  772MPD2    H311452   3.814   0.532  14.250  0.6128 -0.1397  0.1247
  772MPD2     N11453   3.569   0.275  13.970  0.8205 -0.3107  0.4740
  772MPD2    H511454   3.579   0.221  13.885  0.3819  3.3251 -1.8749
  772MPD2    N111455   3.987   0.447  13.831  0.0865  0.0760 -0.3685
  772MPD2    H711456   3.964   0.395  13.747  1.7861 -0.1342 -0.7073
  773MPD2     C11457   3.186   1.691   0.141  0.3544  0.1789 -0.5219
  773MPD2    C111458   3.158   1.613   0.031  0.2344 -0.9649  0.5602
  773MPD2    C211459   3.172   1.475   0.038 -0.4324  0.3538  0.4024
  773MPD2    C311460   3.202   1.413   0.153  1.1202  0.3068  0.0771
  773MPD2    C411461   3.226   1.494   0.266  1.0857  0.5424  0.3704
  773MPD2    C511462   3.216   1.633   0.259 -0.0120  0.4140  0.0459
  773MPD2     H11463   3.134   1.415  17.704 -3.9277  2.5107  0.4661
  773MPD2    H111464   3.256   1.439   0.354 -0.3211  0.1971  0.6303
  773MPD2    H211465   3.187   1.799   0.145 -0.6641  0.1632 -0.0764
  773MPD2    H311466   3.233   1.701   0.341 -2.1624  1.2377 -0.1880
  773MPD2     N11467   3.201   1.273   0.148 -0.2183  0.2194  0.3110
  773MPD2    H511468   3.207   1.221   0.061  0.7377  1.4346 -0.3433
  773MPD2    N111469   3.097   1.663  17.667  0.0903  0.5580 -0.1439
  773MPD2    H711470   3.048   1.596  17.609  0.7402 -1.8386  2.0786
  774MPD2     C11471   2.091   0.784  13.778  0.2944  0.7732  0.1414
  774MPD2    C111472   2.185   0.788  13.678  0.6806  0.0377 -0.2838
  774MPD2    C211473   2.253   0.904  13.653 -0.5728  0.3751  0.0547
  774MPD2    C311474   2.210   1.019  13.711 -0.5753 -0.1105  0.2344
  774MPD2    C411475   2.114   1.012  13.812  0.2820  0.2214  0.5648
  774MPD2    C511476   2.061   0.897  13.849  0.1071  0.0446  0.1786
  774MPD2     H11477   2.328   0.916  13.576  1.3607 -2.0551  1.5931
  774MPD2    H111478   2.075   1.096  13.867  2.3756  0.0083  2.3877
  774MPD2    H211479   2.031   0.697  13.802 -1.4086  2.4427  1.9407
  774MPD2    H311480   1.992   0.890  13.932 -1.6476  1.1502 -1.1890
  774MPD2     N11481   2.275   1.138  13.669  0.0014 -0.2282  0.5265
  774MPD2    H511482   2.359   1.129  13.612  1.0078  1.3489  1.7484
  774MPD2    N111483   2.205   0.665  13.613  0.4208  0.3166 -0.0061
  774MPD2    H711484   2.140   0.589  13.634  1.2581 -0.4026 -0.0043
  775MPD2     C11485   3.660   2.202  15.719 -0.8447 -0.2835  0.6332
  775MPD2    C111486   3.700   2.313  15.790  0.0195 -0.2658 -0.9635
  775MPD2    C211487   3.768   2.419  15.728  0.3811  0.2053 -0.5373
  775MPD2    C311488   3.787   2.419  15.593  0.8210  0.0238 -0.8636
  775MPD2    C411489   3.745   2.316  15.514 -0.2873  0.4987 -0.2385
  775MPD2    C511490   3.681   2.210  15.584 -0.4010 -0.1863  0.0284
  775MPD2     H11491   3.807   2.497  15.792  0.5965  0.8017 -1.3885
  775MPD2    H111492   3.763   2.308  15.408 -3.2429 -1.3448 -0.6133
  775MPD2    H211493   3.604   2.119  15.760 -1.1380  1.0796  3.0043
  775MPD2    H311494   3.647   2.129  15.520 -2.9533  0.1643  0.9510
  775MPD2     N11495   3.850   2.527  15.530  0.1752  0.6436 -0.5387
  775MPD2    H511496   3.849   2.509  15.430 -1.9290 -0.9341 -0.2281
  775MPD2    N111497   3.661   2.306  15.921 -0.3270 -0.0021 -0.5322
  775MPD2    H711498   3.616   2.220  15.948  0.2183 -0.2842 -0.5324
  776MPD2     C11499   1.825   2.545  11.670  1.0220 -0.2244 -0.8536
  776MPD2    C111500   1.953   2.582  11.708 -0.8866 -0.7291 -0.1639
  776MPD2    C211501   1.995   2.707  11.689 -0.5041  0.4470 -0.3087
  776MPD2    C311502   1.914   2.797  11.616 -0.0851 -0.7448 -0.1280
  776MPD2    C411503   1.795   2.755  11.565  0.1898  0.0103  0.6628
  776MPD2    C511504   1.749   2.629  11.592 -0.6986  0.0200 -0.5283
  776MPD2     H11505   2.095   2.740  11.718 -1.0742  1.4229  0.5496
  776MPD2    H111506   1.729   2.828  11.519  1.5479  1.7450  1.4527
  776MPD2    H211507   1.786   2.453  11.711  1.3003  0.0806  0.0941
  776MPD2    H311508   1.647   2.605  11.566 -0.8665  0.2522 -0.0850
  776MPD2     N11509   1.957   2.932  11.584  0.6221 -0.4405 -0.5454
  776MPD2    H511510   1.907   2.986  11.514  0.0045 -1.1104 -0.6259
  776MPD2    N111511   2.023   2.478  11.773  0.1508 -0.0991 -0.3611
  776MPD2    H711512   1.992   2.383  11.754  0.7009 -0.1628 -0.9426
  777MPD2     C11513   3.806   0.109   0.850 -0.3326 -0.1122 -0.1529
  777MPD2    C111514   3.682   0.147   0.896 -0.0300 -0.0417 -0.0269
  777MPD2    C211515   3.568   0.085   0.837 -0.5416 -0.3909  0.1934
  777MPD2    C311516   3.575   4.735   0.734  0.1478  0.1230  0.7382
  777MPD2    C411517   3.700   4.708   0.683 -0.7583 -0.1158 -0.3086
  777MPD2    C511518   3.815   0.016   0.750  0.1419  0.4935  0.1695
  777MPD2     H11519   3.468   0.099   0.879 -0.4763 -1.2442  0.6255
  777MPD2    H111520   3.710   4.644   0.596  0.5579 -0.7539  0.3070
  777MPD2    H211521   3.897   0.145   0.896 -0.7966  1.3469 -0.3824
  777MPD2    H311522   3.913   4.737   0.707 -1.2793 -3.0703 -1.6946
  777MPD2     N11523   3.454   4.673   0.684  0.3457 -0.1974 -0.5807
  777MPD2    H511524   3.367   4.714   0.715 -1.2236 -3.3599 -0.8212
  777MPD2    N111525   3.678   0.239   1.001 -0.7880  0.0995 -0.7900
  777MPD2    H711526   3.763   0.278   1.041 -0.5807  0.2301 -1.3481
  778MPD2     C11527   4.139   0.362  15.003  0.3893 -0.3579 -0.9271
  778MPD2    C111528   4.149   0.245  14.927  0.7849 -0.0624 -0.4594
  778MPD2    C211529   4.220   0.249  14.807  0.1718  0.1788  0.0431
  778MPD2    C311530   4.279   0.364  14.760 -0.6034 -0.1894 -0.7591
  778MPD2    C411531   4.267   0.482  14.835 -0.7894 -0.1623  0.6180
  778MPD2    C511532   4.194   0.477  14.950  0.0240 -0.3824 -0.8669
  778MPD2     H11533   4.235   0.160  14.746  2.0876 -1.0641  2.3388
  778MPD2    H111534   4.314   0.572  14.797 -0.7840  0.6277  2.4801
  778MPD2    H211535   4.092   0.363  15.101  1.6382  0.2106 -0.3399
  778MPD2    H311536   4.194   0.560  15.019 -0.7126 -1.0165 -0.1090
  778MPD2     N11537   4.362   0.356  14.646 -0.0698  0.7739 -0.5478
  778MPD2    H511538   4.400   0.264  14.629 -0.1388  0.8627 -1.1911
  778MPD2    N111539   4.081   0.123  14.959  0.2034 -0.1251 -0.1837
  778MPD2    H711540   4.079   0.048  14.891  1.9910  1.0018 -1.4554
  779MPD2     C11541   3.488   3.913  13.979  0.5259  0.6016 -0.3728
  779MPD2    C111542   3.593   3.865  14.051 -0.1950 -0.0912  0.0979
  779MPD2    C211543   3.659   3.956  14.125  0.2603 -0.2435 -0.3424
  779MPD2    C311544   3.609   4.083  14.131 -0.5145 -0.4826  0.8031
  779MPD2    C411545   3.505   4.130  14.054  1.0492  0.3272 -0.8458
  779MPD2    C511546   3.434   4.043  13.980 -0.2627  0.2535  0.2709
  779MPD2     H11547   3.741   3.931  14.191  1.7186 -0.8396 -2.3880
  779MPD2    H111548   3.458   4.227  14.062 -1.1391 -0.8563  0.4807
  779MPD2    H211549   3.420   3.849  13.925  1.8685 -1.8408  0.8493
  779MPD2    H311550   3.352   4.064  13.912  2.1476  2.7745 -1.8435
  779MPD2     N11551   3.669   4.174  14.217 -0.0980 -0.3883 -0.4846
  779MPD2    H511552   3.758   4.150  14.261 -0.9752 -2.6479  0.0731
  779MPD2    N111553   3.641   3.736  14.050  0.7265 -0.0089  0.6568
  779MPD2    H711554   3.718   3.710  14.111 -0.3733 -3.2907  0.6397
  780MPD2     C11555   4.392   3.542   0.465  0.1215 -0.0789 -0.1398
  780MPD2    C111556   4.282   3.540   0.384 -0.0636 -0.0029  1.1906
  780MPD2    C211557   4.251   3.652   0.314 -0.1306  0.2984 -0.4305
  780MPD2    C311558   4.310   3.773   0.339 -0.1911  0.1507  0.0853
  780MPD2    C411559   4.405   3.781   0.435 -0.1189 -0.1673  0.0244
  780MPD2    C511560   4.444   3.661   0.488 -0.5117  0.2103 -0.0527
  780MPD2     H11561   4.172   3.645   0.239 -2.5878 -0.3014  2.2181
  780MPD2    H111562   4.463   3.871   0.449  0.4601  0.0783 -4.0201
  780MPD2    H211563   4.424   3.462   0.531 -2.0540  0.2705  1.3478
  780MPD2    H311564   4.529   3.675   0.554 -0.7828  0.4144  0.2554
  780MPD2     N11565   4.270   3.888   0.262  0.2895  0.3269  0.1138
  780MPD2    H511566   4.203   3.860   0.191  0.3347  0.3011  0.0812
  780MPD2    N111567   4.225   3.415   0.361 -0.2003 -0.6769  0.3590
  780MPD2    H711568   4.259   3.342   0.423 -0.9914 -1.2890  0.0641
  781MPD2     C11569   0.758   1.274  11.880 -0.4611  0.5299  0.1360
  781MPD2    C111570   0.757   1.135  11.884 -0.7259  0.3125 -0.3231
  781MPD2    C211571   0.789   1.062  11.767 -0.0692  0.3361 -0.8264
  781MPD2    C311572   0.820   1.123  11.650 -0.2423  0.6988 -0.4914
  781MPD2    C411573   0.794   1.255  11.645 -0.3325  0.2826 -0.2598
  781MPD2    C511574   0.763   1.327  11.752  0.2732 -0.3310  0.0444
  781MPD2     H11575   0.787   0.954  11.771 -0.5625  0.3311 -1.2210
  781MPD2    H111576   0.817   1.300  11.549  0.1055 -0.5796 -0.5521
  781MPD2    H211577   0.730   1.341  11.961  0.1494  0.9349  0.0093
  781MPD2    H311578   0.746   1.431  11.729 -0.5596  0.0226  2.2277
  781MPD2     N11579   0.875   1.062  11.536 -0.3841  0.1621  0.1198
  781MPD2    H511580   0.907   1.124  11.463  1.6420  0.2040  1.0533
  781MPD2    N111581   0.726   1.060  11.997  0.6533  0.2114 -0.2919
  781MPD2    H711582   0.693   0.966  11.978  1.0839  0.2963 -1.5005
  782MPD2     C11583   2.879   2.423  10.469 -0.4228  0.7273 -0.5698
  782MPD2    C111584   3.007   2.461  10.447 -0.0365 -0.7442  0.1436
  782MPD2    C211585   3.074   2.553  10.535 -0.5827 -0.1663 -0.0057
  782MPD2    C311586   3.000   2.611  10.637 -0.3770  0.7185 -0.4335
  782MPD2    C411587   2.861   2.573  10.648 -0.1548  0.0316 -1.0051
  782MPD2    C511588   2.798   2.484  10.567  0.5399  0.2052 -0.2071
  782MPD2     H11589   3.181   2.567  10.533 -0.5193 -0.4711  1.4008
  782MPD2    H111590   2.808   2.625  10.728  0.3646  0.3454 -0.8647
  782MPD2    H211591   2.832   2.350  10.404 -1.5656  1.0960 -0.1520
  782MPD2    H311592   2.694   2.460  10.585  0.3746  1.5041  0.5271
  782MPD2     N11593   3.075   2.683  10.729 -0.2653 -0.2951 -0.0172
  782MPD2    H511594   3.172   2.700  10.705 -0.6288  0.3759 -1.0319
  782MPD2    N111595   3.086   2.376  10.366  0.1125  0.3618 -0.5331
  782MPD2    H711596   3.042   2.294  10.325 -1.3216  0.8407  0.0580
  783MPD2     C11597   3.215   1.640  10.869 -0.1941  0.3455  0.1469
  783MPD2    C111598   3.154   1.754  10.896  1.1004  0.9867 -0.2847
  783MPD2    C211599   3.173   1.865  10.802 -0.4657  0.4026  0.0505
  783MPD2    C311600   3.259   1.852  10.687  0.4304  0.2625 -0.0502
  783MPD2    C411601   3.327   1.735  10.678 -0.1159  0.0913  0.5198
  783MPD2    C511602   3.316   1.636  10.771  0.0017  0.6274  0.2508
  783MPD2     H11603   3.125   1.962  10.811 -0.0654  0.5401  0.7189
  783MPD2    H111604   3.399   1.720  10.599 -1.6212  1.4291 -1.1040
  783MPD2    H211605   3.200   1.559  10.940  0.0658 -1.1473 -1.5139
  783MPD2    H311606   3.382   1.551  10.756 -0.0008  0.1832  2.7499
  783MPD2     N11607   3.273   1.958  10.596 -0.7264 -0.7109 -0.2670
  783MPD2    H511608   3.213   2.037  10.616 -2.0075 -2.1265  1.5537
  783MPD2    N111609   3.078   1.754  11.014 -0.0627  0.3163 -0.3676
  783MPD2    H711610   3.054   1.662  11.048  0.6964  0.6137  0.9437
  784MPD2     C11611   0.585   1.466   0.666 -0.0241  0.5727 -0.1898
  784MPD2    C111612   0.552   1.516   0.791 -0.1722  0.2157  0.2484
  784MPD2    C211613   0.439   1.601   0.791 -0.7995  0.3910 -0.1430
  784MPD2    C311614   0.353   1.611   0.679  0.1532  0.3366  0.2197
  784MPD2    C411615   0.394   1.554   0.566 -0.3893  0.5123 -0.0462
  784MPD2    C511616   0.511   1.487   0.557 -0.0824 -0.0208 -0.0535
  784MPD2     H11617   0.433   1.670   0.874  1.2929 -0.6505  0.8736
  784MPD2    H111618   0.342   1.554   0.471  2.6442 -1.4349 -1.7131
  784MPD2    H211619   0.660   1.387   0.660 -1.7576 -1.2458  1.9950
  784MPD2    H311620   0.540   1.443   0.462  0.2194  2.5494 -1.1414
  784MPD2     N11621   0.236   1.686   0.677  0.5489 -0.2384 -0.8079
  784MPD2    H511622   0.182   1.697   0.591  0.3486 -0.2304 -0.6818
  784MPD2    N111623   0.617   1.496   0.914 -0.4499  0.3077  0.3122
  784MPD2    H711624   0.578   1.550   0.991  1.5205  1.8100  0.2415
  785MPD2     C11625   0.920   0.350  10.202 -0.0766  0.8623 -0.1207
  785MPD2    C111626   0.881   0.379  10.328 -0.6074 -0.5037 -0.2769
  785MPD2    C211627   0.745   0.379  10.353  0.3666  0.2825  0.0094
  785MPD2    C311628   0.642   0.357  10.257  0.2178  0.2248  0.2443
  785MPD2    C411629   0.686   0.327  10.133  0.2799 -0.0710 -0.1878
  785MPD2    C511630   0.819   0.331  10.110 -0.2735 -0.1327  0.3378
  785MPD2     H11631   0.712   0.414  10.451 -4.0037 -0.6118 -1.1560
  785MPD2    H111632   0.626   0.299  10.047  0.8105  1.2209 -0.9719
  785MPD2    H211633   1.023   0.355  10.170 -0.0012  1.0021  0.1403
  785MPD2    H311634   0.846   0.314  10.006 -0.3277 -2.9988  0.7890
  785MPD2     N11635   0.511   0.366  10.306  0.4722 -0.0027 -0.1081
  785MPD2    H511636   0.502   0.407  10.398 -1.9357  0.1499 -0.4059
  785MPD2    N111637   0.979   0.407  10.421  0.1896  0.1427 -0.4099
  785MPD2    H711638   1.070   0.399  10.377 -0.6115 -0.8493 -1.8942
  786MPD2     C11639   4.576   3.322  14.578 -0.2757  0.2192 -0.7800
  786MPD2    C111640   4.596   3.209  14.652  0.0786  0.4277  0.4342
  786MPD2    C211641   4.677   3.215  14.760 -0.8233  0.1362 -0.2762
  786MPD2    C311642   0.012   3.328  14.793 -0.8991 -0.1678 -0.2302
  786MPD2    C411643   4.733   3.440  14.715 -0.8132  0.7429  0.4365
  786MPD2    C511644   4.639   3.434  14.615  0.8391 -0.2210 -0.7517
  786MPD2     H11645   4.678   3.124  14.819 -1.2646  1.1178  1.2284
  786MPD2    H111646   0.042   3.537  14.733  0.5977 -0.1721  1.7263
  786MPD2    H211647   4.504   3.328  14.498 -1.7359 -1.1872  0.4337
  786MPD2    H311648   4.614   3.519  14.552  1.3352 -0.4792 -1.2967
  786MPD2     N11649   0.099   3.339  14.899 -0.2561 -0.3943  0.0998
  786MPD2    H511650   0.130   3.430  14.933 -2.1341  0.2311  0.1155
  786MPD2    N111651   4.538   3.083  14.626 -0.0016  0.3364  0.7948
  786MPD2    H711652   4.583   3.004  14.671  1.4952  0.7064 -0.0569
  787MPD2     C11653   0.024   2.533  14.887  0.6051  0.3952 -0.2213
  787MPD2    C111654   4.718   2.517  14.764  0.5861 -0.6709 -0.1596
  787MPD2    C211655   0.012   2.398  14.694 -0.4746 -0.5895 -0.0796
  787MPD2    C311656   0.085   2.303  14.754 -0.1528  0.9301 -0.5427
  787MPD2    C411657   0.134   2.326  14.881  0.4183 -0.3629  0.4178
  787MPD2    C511658   0.101   2.434  14.944  0.5007 -0.1289  0.5153
  787MPD2     H11659   4.730   2.383  14.589  0.4432  0.6875 -0.4384
  787MPD2    H111660   0.201   2.264  14.940  1.9484  0.6770 -0.2197
  787MPD2    H211661   4.737   2.619  14.949 -1.4303  0.9541 -1.8187
  787MPD2    H311662   0.141   2.439  15.044  0.6057 -1.6666  0.5500
  787MPD2     N11663   0.116   2.187  14.679  0.3264 -0.3349  0.1191
  787MPD2    H511664   0.070   2.184  14.589  0.0981  1.0936  0.2002
  787MPD2    N111665   4.622   2.604  14.718 -0.5989  0.4603 -0.2191
  787MPD2    H711666   4.594   2.685  14.773 -0.2761  1.1474 -1.0528
  788MPD2     C11667   1.735   0.873   0.872 -0.1385  0.0992 -0.0763
  788MPD2    C111668   1.853   0.829   0.804 -0.3972 -0.1512  0.3530
  788MPD2    C211669   1.930   0.920   0.729 -0.6311  0.1061  0.0637
  788MPD2    C311670   1.903   1.060   0.736 -0.3671  0.2632  0.2695
  788MPD2    C411671   1.787   1.094   0.811  0.1123  0.1217  0.7042
  788MPD2    C511672   1.713   1.009   0.878  0.2348 -0.3173 -0.0322
  788MPD2     H11673   2.013   0.882   0.669 -1.0218  3.0994 -2.4123
  788MPD2    H111674   1.752   1.196   0.811 -1.8478 -0.5539 -1.4819
  788MPD2    H211675   1.676   0.819   0.945  0.6048  0.4016  0.7534
  788MPD2    H311676   1.630   1.043   0.939  1.5449 -0.8253  2.0106
  788MPD2     N11677   1.957   1.163   0.661 -0.2750  0.2035  0.8267
  788MPD2    H511678   1.928   1.259   0.678  1.6394  1.0315 -0.5320
  788MPD2    N111679   1.857   0.694   0.802  0.0097  0.5974  0.4716
  788MPD2    H711680   1.787   0.634   0.844  0.3468 -1.0309 -1.2882
  789MPD2     C11681   2.146   1.069  16.511  0.1797  0.6729 -0.1068
  789MPD2    C111682   2.041   1.080  16.423  0.1580  0.4020 -0.0260
  789MPD2    C211683   1.944   1.172  16.457 -0.3401 -0.6939  0.2593
  789MPD2    C311684   1.958   1.247  16.574 -0.0770  0.6157  0.3614
  789MPD2    C411685   2.060   1.225  16.665 -0.6863  0.0154  0.6132
  789MPD2    C511686   2.156   1.134  16.632 -0.0215 -0.2897  0.1895
  789MPD2     H11687   1.859   1.187  16.391 -0.1222 -2.2561 -0.3589
  789MPD2    H111688   2.074   1.282  16.757  1.6385 -0.9903  0.8796
  789MPD2    H211689   2.219   0.990  16.500 -0.3465  0.5371 -2.5925
  789MPD2    H311690   2.239   1.117  16.700  0.1092 -2.1155 -0.4275
  789MPD2     N11691   1.850   1.326  16.615 -0.4493 -0.1535 -0.0058
  789MPD2    H511692   1.851   1.357  16.712 -1.7702  0.5760 -0.2255
  789MPD2    N111693   2.028   1.007  16.304  0.9563 -0.0553  0.0306
  789MPD2    H711694   1.941   1.026  16.257  0.9079 -0.6860 -0.1272
  790MPD2     C11695   3.054   2.911  13.379  0.3552  0.1788 -0.5393
  790MPD2    C111696   2.975   2.802  13.406  0.0523 -0.2776 -0.0684
  790MPD2    C211697   2.886   2.760  13.310 -0.6880 -0.5036  0.3716
  790MPD2    C311698   2.878   2.816  13.188  0.0802 -0.2728 -0.0716
  790MPD2    C411699   2.964   2.923  13.159 -0.3777  0.5044  0.1822
  790MPD2    C511700   3.045   2.971  13.257 -0.1529  0.1859  0.1086
  790MPD2     H11701   2.817   2.679  13.331  0.3846 -0.7858  2.8268
  790MPD2    H111702   2.962   2.978  13.065 -1.7067 -0.3329 -0.2823
  790MPD2    H211703   3.132   2.947  13.445 -1.0185 -1.0964  1.7642
  790MPD2    H311704   3.102   3.062  13.239  1.2826 -0.3266  2.1410
  790MPD2     N11705   2.788   2.762  13.094 -0.3577 -0.5876  0.8037
  790MPD2    H511706   2.725   2.691  13.130  1.1785 -1.9365  0.8389
  790MPD2    N111707   2.969   2.741  13.533 -0.8626  0.7782 -0.4936
  790MPD2    H711708   3.039   2.773  13.599 -0.9529  2.2573 -1.1174
  791MPD2     C11709   2.089   2.753  13.057 -0.2019  0.4215 -0.5624
  791MPD2    C111710   2.153   2.649  13.002  0.5065 -0.4564 -0.1486
  791MPD2    C211711   2.075   2.530  12.990 -0.2743  0.3061 -0.3947
  791MPD2    C311712   1.949   2.518  13.045 -0.9965  1.0218  0.1135
  791MPD2    C411713   1.897   2.622  13.119 -0.0993  0.3862 -0.2065
  791MPD2    C511714   1.969   2.738  13.121  0.6388 -0.4791 -0.7095
  791MPD2     H11715   2.126   2.449  12.939  2.3410  0.8672  1.3428
  791MPD2    H111716   1.801   2.627  13.169 -1.2445 -2.4592 -2.1331
  791MPD2    H211717   2.145   2.846  13.058  0.7174 -0.1460  1.3933
  791MPD2    H311718   1.924   2.826  13.167  2.2591 -1.5577  2.9750
  791MPD2     N11719   1.887   2.388  13.041  0.1421  0.0687  0.3164
  791MPD2    H511720   1.931   2.322  12.978 -2.6084 -0.2163 -1.2541
  791MPD2    N111721   2.284   2.659  12.949 -0.5097  0.2291  0.5322
  791MPD2    H711722   2.320   2.754  12.942  1.2847 -0.4581  0.4580
  792MPD2     C11723   3.256   2.915  11.435  0.3334  0.6060  0.3147
  792MPD2    C111724   3.155   2.995  11.394  0.5689 -0.0956  0.6326
  792MPD2    C211725   3.030   2.954  11.388 -0.3861  1.0644 -0.0687
  792MPD2    C311726   3.000   2.820  11.399  0.1992  0.6406 -0.6195
  792MPD2    C411727   3.102   2.729  11.422 -0.2671  0.7825 -0.6057
  792MPD2    C511728   3.226   2.782  11.445  0.1444  0.2601 -0.2109
  792MPD2     H11729   2.958   3.035  11.388 -2.5863 -0.8876  1.5670
  792MPD2    H111730   3.086   2.622  11.434 -0.7055  0.7189 -1.7319
  792MPD2    H211731   3.357   2.950  11.447  1.3064 -2.8362  2.4194
  792MPD2    H311732   3.310   2.715  11.458 -2.2030 -2.5870 -0.0362
  792MPD2     N11733   2.868   2.761  11.382  0.2958 -0.0266  0.3401
  792MPD2    H511734   2.854   2.664  11.358  1.0729  0.0759 -0.5218
  792MPD2    N111735   3.171   3.132  11.365 -0.0364 -0.5140 -0.3208
  792MPD2    H711736   3.099   3.185  11.317 -0.5140  0.9549  2.0274
  793MPD2     C11737   2.425   2.941  10.625  0.2645 -0.3752  1.0129
  793MPD2    C111738   2.550   2.940  10.684 -0.0693 -1.2020 -0.1751
  793MPD2    C211739   2.563   2.883  10.816 -0.2850 -0.7469  0.2549
  793MPD2    C311740   2.447   2.849  10.885 -0.2113  0.4745 -0.3503
  793MPD2    C411741   2.321   2.842  10.818 -0.3895  0.6839 -0.8382
  793MPD2    C511742   2.310   2.892  10.688  0.7325  0.0326 -0.0834
  793MPD2     H11743   2.663   2.877  10.859  0.0704  0.9658 -0.3386
  793MPD2    H111744   2.233   2.802  10.866  0.7455 -1.3737 -0.5019
  793MPD2    H211745   2.414   2.986  10.527 -2.2429  0.0115  1.4702
  793MPD2    H311746   2.213   2.883  10.642  0.5310  0.1189  0.3228
  793MPD2     N11747   2.471   2.812  11.021 -0.5581  0.6297 -0.0663
  793MPD2    H511748   2.565   2.831  11.054  0.1946 -1.7144 -0.8567
  793MPD2    N111749   2.657   2.987  10.606 -0.0085 -0.3814 -0.3183
  793MPD2    H711750   2.635   3.018  10.512 -0.6426 -1.1604 -0.4233
  794MPD2     C11751   2.720   2.120  17.044  0.5060 -0.1629  0.0660
  794MPD2    C111752   2.646   2.056  17.142  1.1886  0.4406 -0.1086
  794MPD2    C211753   2.519   2.002  17.108  0.3966  0.3818 -0.1954
  794MPD2    C311754   2.482   2.012  16.978  0.0595  0.3299 -0.0011
  794MPD2    C411755   2.549   2.080  16.880  0.0552  0.7191  0.9280
  794MPD2    C511756   2.672   2.122  16.916  0.3093 -0.2904 -0.2536
  794MPD2     H11757   2.452   1.963  17.183  1.1479  0.1237  0.3317
  794MPD2    H111758   2.516   2.084  16.777 -0.5388 -1.2464  1.0389
  794MPD2    H211759   2.822   2.154  17.060 -0.4892  2.8861 -0.1148
  794MPD2    H311760   2.719   2.176  16.835 -2.1413  0.5522 -1.0853
  794MPD2     N11761   2.353   1.960  16.955  0.3807  0.3022  0.5355
  794MPD2    H511762   2.293   1.935  17.033  1.2670 -0.4597  0.9700
  794MPD2    N111763   2.691   2.039  17.277 -0.2388 -0.3963 -0.4742
  794MPD2    H711764   2.615   1.998  17.331  1.2654 -1.9353  0.4460
  795MPD2     C11765   0.516   4.135  13.103 -0.5315  0.1136 -0.5646
  795MPD2    C111766   0.404   4.075  13.145 -0.0146  0.2015  0.1648
  795MPD2    C211767   0.415   3.975  13.239 -0.2864 -0.0983 -0.6708
  795MPD2    C311768   0.530   3.965  13.316 -1.0619 -0.5735 -0.6387
  795MPD2    C411769   0.639   4.039  13.277 -0.1278 -0.1637  0.0721
  795MPD2    C511770   0.631   4.116  13.167  0.3703  0.0443  0.2282
  795MPD2     H11771   0.326   3.918  13.263 -1.3657  2.5533  1.5896
  795MPD2    H111772   0.738   4.026  13.320  0.3796  0.3753 -0.9299
  795MPD2    H211773   0.525   4.199  13.016 -0.7115 -0.1787 -0.7982
  795MPD2    H311774   0.722   4.158  13.126 -0.1659  0.6203 -0.3618
  795MPD2     N11775   0.531   3.875  13.428 -0.3424  0.0707 -0.2849
  795MPD2    H511776   0.455   3.809  13.442  0.2440 -0.5859 -0.1778
  795MPD2    N111777   0.280   4.100  13.091 -0.4919 -0.3393 -0.6659
  795MPD2    H711778   0.202   4.043  13.122  0.1742 -1.9398 -1.9045
  796MPD2     C11779   4.564   0.464  15.793  0.0899 -0.1957  0.6979
  796MPD2    C111780   4.607   0.542  15.900  0.0756 -0.5521 -0.4465
  796MPD2    C211781   4.602   0.680  15.879 -0.2606 -0.6576 -0.0023
  796MPD2    C311782   4.560   0.734  15.763  0.9257 -0.1301 -0.3724
  796MPD2    C411783   4.533   0.654  15.657 -0.0475 -0.0845  0.2934
  796MPD2    C511784   4.526   0.522  15.673  0.2228 -0.1829  0.4378
  796MPD2     H11785   4.624   0.752  15.957  5.1566 -2.7423  0.3661
  796MPD2    H111786   4.511   0.693  15.558 -0.4105 -0.6126  0.1641
  796MPD2    H211787   4.569   0.356  15.787 -0.9958 -0.2191  0.1177
  796MPD2    H311788   4.481   0.457  15.599 -0.3837 -0.7586  1.3101
  796MPD2     N11789   4.576   0.876  15.748  0.3048  0.0610 -0.5474
  796MPD2    H511790   4.615   0.925  15.828  0.6165  0.8823 -1.1995
  796MPD2    N111791   4.640   0.475  16.026 -0.3038  0.4783 -0.0411
  796MPD2    H711792   4.633   0.375  16.042  0.1615  0.5233  0.4434
  797MPD2     C11793   1.324   0.341  16.937 -0.5784 -0.2018 -0.1603
  797MPD2    C111794   1.290   0.357  17.066 -0.1647 -0.4290 -0.5261
  797MPD2    C211795   1.163   0.395  17.105  0.2106 -0.4865  0.2063
  797MPD2    C311796   1.057   0.417  17.010 -0.2393  0.9391 -0.3102
  797MPD2    C411797   1.094   0.396  16.880  0.3068  0.1150 -0.0493
  797MPD2    C511798   1.222   0.362  16.840 -0.9933 -0.1554  0.0916
  797MPD2     H11799   1.140   0.418  17.209 -0.7471  1.9261 -0.5378
  797MPD2    H111800   1.022   0.418  16.802  0.6052 -2.1105 -0.9545
  797MPD2    H211801   1.424   0.319  16.904  1.0589  0.8381  4.0085
  797MPD2    H311802   1.248   0.352  16.735 -1.1581 -0.0511  0.0416
  797MPD2     N11803   0.932   0.473  17.042 -0.1260 -0.4048  0.7740
  797MPD2    H511804   0.877   0.496  16.960  0.9686  1.1972  0.5105
  797MPD2    N111805   1.382   0.349  17.176 -0.1281  0.1652 -0.2117
  797MPD2    H711806   1.351   0.365  17.271 -0.4894 -2.1398  0.0735
  798MPD2     C11807   1.065   0.903  17.532  0.6331 -0.7432  0.4405
  798MPD2    C111808   1.037   0.781  17.478  0.2539  0.1630  0.3852
  798MPD2    C211809   1.134   0.681  17.476 -0.2791 -0.0075  0.5068
  798MPD2    C311810   1.260   0.696  17.522 -0.1088 -0.4504  0.1159
  798MPD2    C411811   1.282   0.815  17.592 -0.1322 -0.0853  0.2457
  798MPD2    C511812   1.186   0.913  17.598 -0.2065  0.1447  0.4306
  798MPD2     H11813   1.115   0.588  17.423  3.6230  0.1996 -1.2841
  798MPD2    H111814   1.380   0.833  17.636  0.0337 -2.6187  0.9391
  798MPD2    H211815   1.002   0.991  17.538  2.0613  0.5940 -4.0988
  798MPD2    H311816   1.214   1.006  17.648 -0.9258  1.0407 -0.8462
  798MPD2     N11817   1.349   0.589  17.507  0.1245  0.1144 -0.5288
  798MPD2    H511818   1.317   0.508  17.454 -1.8406 -0.1402  1.0635
  798MPD2    N111819   0.915   0.754  17.412  0.5222 -0.0055 -0.0528
  798MPD2    H711820   0.904   0.660  17.377  0.4177  1.1455 -3.1033
  799MPD2     C11821   4.572   1.973  14.934  0.4449  0.1647 -0.2803
  799MPD2    C111822   4.494   1.884  14.868  0.1803  0.2813  0.4778
  799MPD2    C211823   4.400   1.917  14.781  0.2890  0.1717  0.7811
  799MPD2    C311824   4.390   2.050  14.739  0.1899 -0.0689  0.1315
  799MPD2    C411825   4.473   2.141  14.805 -0.2785 -0.4295 -0.3337
  799MPD2    C511826   4.557   2.106  14.903  0.5708 -0.0755  0.4630
  799MPD2     H11827   4.344   1.840  14.730 -2.0820  1.9532  0.7159
  799MPD2    H111828   4.475   2.246  14.776  0.0902 -0.2052  0.4932
  799MPD2    H211829   4.649   1.943  15.004 -0.0205 -0.6889 -0.1284
  799MPD2    H311830   4.616   2.184  14.948 -1.3646  2.3604 -1.2676
  799MPD2     N11831   4.314   2.099  14.630 -0.3436  0.0963 -0.5317
  799MPD2    H511832   4.327   2.195  14.600 -3.5740  1.3027  1.9473
  799MPD2    N111833   4.500   1.751  14.909  0.4261 -0.2184 -0.4205
  799MPD2    H711834   4.414   1.697  14.909  1.7230 -2.2701  1.3415
  800MPD2     C11835   0.127   2.875  14.269 -0.1616 -0.0248 -0.0909
  800MPD2    C111836   0.244   2.926  14.236 -0.2453 -0.4262 -0.4541
  800MPD2    C211837   0.294   2.884  14.113 -0.1067  0.1377  0.0519
  800MPD2    C311838   0.226   2.797  14.027  0.3871  0.2059  0.3400
  800MPD2    C411839   0.099   2.754  14.064  0.3043  0.6687  0.3177
  800MPD2    C511840   0.050   2.797  14.186  0.2270  0.4666  0.7287
  800MPD2     H11841   0.384   2.928  14.072 -0.4213 -1.0115 -1.8655
  800MPD2    H111842   0.039   2.693  13.997  1.5337 -0.4288  0.2087
  800MPD2    H211843   0.084   2.893  14.367  0.5902  0.3177  0.1750
  800MPD2    H311844   4.694   2.756  14.222 -0.6439  1.9431  0.1633
  800MPD2     N11845   0.282   2.772  13.898  0.0849  0.7171  0.7304
  800MPD2    H511846   0.363   2.830  13.876  0.7507 -0.7644 -0.7004
  800MPD2    N111847   0.302   3.029  14.316 -0.2906  0.4745 -0.0350
  800MPD2    H711848   0.246   3.071  14.390  0.0128  0.6704  0.0838
  801MPD2     C11849   0.137   3.715  14.438 -0.0811  0.9560  0.0090
  801MPD2    C111850   0.122   3.583  14.393 -0.3594 -0.9185  0.3257
  801MPD2    C211851   0.006   3.551  14.324  0.3854  0.2988 -0.6707
  801MPD2    C311852   4.654   3.655  14.286  0.8791 -0.6781  0.6346
  801MPD2    C411853   4.676   3.786  14.333  0.1640  0.2060 -0.4444
  801MPD2    C511854   0.044   3.813  14.416 -0.1061  0.0944 -0.5678
  801MPD2     H11855   4.734   3.451  14.284  1.5993 -0.6565  1.4306
  801MPD2    H111856   4.610   3.869  14.311 -0.1362  0.5007  1.5216
  801MPD2    H211857   0.231   3.738  14.487  0.1281  1.0936 -0.4573
  801MPD2    H311858   0.063   3.915  14.448 -0.2255 -0.2144  0.5095
  801MPD2     N11859   4.532   3.627  14.216  0.1291 -0.0743  0.0989
  801MPD2    H511860   4.471   3.703  14.189  0.6189  1.1104  2.3211
  801MPD2    N111861   0.210   3.482  14.401 -0.2828  0.1445 -0.2742
  801MPD2    H711862   0.184   3.387  14.378  1.1614  0.0168 -1.3737
  802MPD2     C11863   0.244   0.033   0.472 -0.2210  0.1788  0.2139
  802MPD2    C111864   0.122   4.696   0.472  0.2594 -1.0157  0.2583
  802MPD2    C211865   0.104   4.600   0.372  0.6914 -0.2010 -0.3593
  802MPD2    C311866   0.195   4.570   0.270  0.1130 -0.2149  0.0271
  802MPD2    C411867   0.317   4.640   0.275 -0.0646 -0.2607  0.1123
  802MPD2    C511868   0.338   4.736   0.376  1.1154  0.3739 -0.7217
  802MPD2     H11869   0.006   4.554   0.378  0.5951  0.2061  1.0174
  802MPD2    H111870   0.405   4.625   0.215 -1.1321 -0.7814 -1.3325
  802MPD2    H211871   0.281   0.094   0.553  1.2349  1.0966 -1.1161
  802MPD2    H311872   0.434   0.048   0.378  1.6943 -0.7171 -1.3835
  802MPD2     N11873   0.157   4.477   0.170 -0.1096  0.7366  0.0961
  802MPD2    H511874   0.070   4.426   0.180  0.0412  0.4699  0.0360
  802MPD2    N111875   0.011   4.725   0.553 -0.2350  0.0674  0.5944
  802MPD2    H711876   4.671   4.661   0.543 -1.3488  1.3725  0.9097
  803MPD2     C11877   0.735   2.323  12.056  0.4878  0.9262  0.5744
  803MPD2    C111878   0.818   2.373  12.153 -0.2482  0.2285 -0.0595
  803MPD2    C211879   0.788   2.342  12.281  0.3627  0.0140  0.3241
  803MPD2    C311880   0.676   2.269  12.316 -0.3847  0.0201  0.0060
  803MPD2    C411881   0.596   2.223  12.213 -0.0690  0.1658  0.3417
  803MPD2    C511882   0.631   2.240  12.081 -0.0461 -0.5291  0.3869
  803MPD2     H11883   0.859   2.371  12.358  0.1799  0.6297  0.2553
  803MPD2    H111884   0.505   2.171  12.239 -0.9807  2.0874  1.0519
  803MPD2    H211885   0.757   2.320  11.950  0.4021 -1.5283  0.6335
  803MPD2    H311886   0.563   2.204  12.005 -0.2272  0.8104 -0.1002
  803MPD2     N11887   0.634   2.235  12.446 -0.5193  0.2739 -0.5111
  803MPD2    H511888   0.551   2.178  12.450  1.1131 -1.9935  1.2005
  803MPD2    N111889   0.930   2.452  12.121  0.0673  0.2875  0.1106
  803MPD2    H711890   0.979   2.494  12.200  0.8649  0.1030 -0.2868
  804MPD2     C11891   0.341   3.687  16.947  0.1620  0.2746  0.1944
  804MPD2    C111892   0.358   3.712  17.078  0.2012 -0.1759 -0.1594
  804MPD2    C211893   0.409   3.833  17.114 -0.3165 -0.4285 -0.6115
  804MPD2    C311894   0.470   3.910  17.022 -0.0821  0.6394 -0.4890
  804MPD2    C411895   0.458   3.884  16.886 -0.0656  0.2353 -0.2335
  804MPD2    C511896   0.387   3.771  16.846 -0.9360  0.0409  0.3297
  804MPD2     H11897   0.429   3.844  17.220 -1.6713 -0.5177 -0.3449
  804MPD2    H111898   0.502   3.948  16.810  1.4127  0.3743  0.7560
  804MPD2    H211899   0.291   3.592  16.928  1.1146  0.0430 -1.1668
  804MPD2    H311900   0.365   3.743  16.743  0.8353 -1.1715  0.2801
  804MPD2     N11901   0.556   4.013  17.074 -0.0310  0.5815 -0.7045
  804MPD2    H511902   0.567   4.019  17.175  0.8667  0.6192 -0.8034
  804MPD2    N111903   0.330   3.608  17.171 -0.1457 -0.2138 -0.4742
  804MPD2    H711904   0.308   3.514  17.142  1.6837 -0.6315 -0.5216
  805MPD2     C11905   4.414   2.220  15.373 -0.3266 -0.1093 -0.4041
  805MPD2    C111906   4.478   2.096  15.356  0.0245  0.4241 -0.2934
  805MPD2    C211907   4.594   2.060  15.424  0.3586  0.0329  0.4000
  805MPD2    C311908   4.666   2.155  15.494 -0.6791  0.3273  0.3625
  805MPD2    C411909   4.602   2.275  15.516  0.0290  0.5611 -0.1641
  805MPD2    C511910   4.477   2.300  15.465  0.2218 -0.4712  0.0385
  805MPD2     H11911   4.629   1.957  15.416  1.8173  0.5085  0.7440
  805MPD2    H111912   4.655   2.344  15.580 -1.1135  2.0669 -0.8455
  805MPD2    H211913   4.315   2.238  15.332 -0.2840 -0.0582 -0.4842
  805MPD2    H311914   4.417   2.380  15.506 -1.6995 -1.5013 -0.8007
  805MPD2     N11915   0.048   2.115  15.559 -0.2451  0.5274  0.8608
  805MPD2    H511916   0.084   2.024  15.535 -1.6971 -0.1156  1.1145
  805MPD2    N111917   4.418   1.995  15.276 -0.6732 -0.5074  0.4582
  805MPD2    H711918   4.463   1.904  15.274 -1.1234 -0.7354  0.7754
  806MPD2     C11919   0.255   1.317   0.217  0.3111  0.5916  0.2894
  806MPD2    C111920   0.208   1.424   0.286  0.8629  0.6999  0.2360
  806MPD2    C211921   0.225   1.554   0.235  0.0624  0.4818 -0.1781
  806MPD2    C311922   0.300   1.580   0.123 -0.5261 -0.0867  0.2587
  806MPD2    C411923   0.350   1.466   0.057 -0.2609 -1.0960  0.1072
  806MPD2    C511924   0.326   1.337   0.103 -0.3951  0.2426 -0.0130
  806MPD2     H11925   0.186   1.641   0.287  1.4622 -0.7197  2.9028
  806MPD2    H111926   0.397   1.478  17.708  0.3547 -0.8810  0.4348
  806MPD2    H211927   0.232   1.216   0.249  0.3153 -0.0285 -1.7003
  806MPD2    H311928   0.362   1.253   0.044 -1.8162  0.6080 -1.4324
  806MPD2     N11929   0.321   1.714   0.080 -0.1812 -0.0174  0.2877
  806MPD2    H511930   0.275   1.791   0.128  0.4341  0.1473  0.6149
  806MPD2    N111931   0.138   1.401   0.407  0.3155  0.4187  0.5704
  806MPD2    H711932   0.134   1.303   0.433  0.1327 -0.7870 -3.9634
  807MPD2     C11933   4.530   1.711   1.132 -0.0061 -0.6416  0.7820
  807MPD2    C111934   4.650   1.642   1.118  0.0192  0.4268  0.0106
  807MPD2    C211935   0.003   1.643   1.222 -0.1464 -0.3691  0.1714
  807MPD2    C311936   4.724   1.707   1.339 -0.2273  0.0236  0.3259
  807MPD2    C411937   4.616   1.786   1.350 -0.2596 -0.3590  0.7755
  807MPD2    C511938   4.525   1.784   1.245 -0.5342  0.2101 -0.0627
  807MPD2     H11939   0.090   1.579   1.214  0.2659 -0.0280  1.8637
  807MPD2    H111940   4.589   1.840   1.440 -3.4711 -0.1617 -0.3106
  807MPD2    H211941   4.463   1.718   1.047 -1.3348 -1.5946  1.7574
  807MPD2    H311942   4.434   1.840   1.266 -0.2109  0.7737 -0.1479
  807MPD2     N11943   0.092   1.695   1.431  0.1889 -0.0246 -0.3412
  807MPD2    H511944   0.172   1.642   1.398 -0.2859 -0.3007 -1.0636
  807MPD2    N111945   4.677   1.553   1.010  0.7685  0.7097  0.2185
  807MPD2    H711946   0.022   1.495   1.011 -0.3245 -0.8506 -0.2471
  808MPD2     C11947   0.543   3.758  10.467 -0.0705 -0.1418  0.3811
  808MPD2    C111948   0.508   3.835  10.357 -0.3611 -0.5590  0.3921
  808MPD2    C211949   0.549   3.969  10.354 -0.1197 -0.0625 -0.4693
  808MPD2    C311950   0.612   4.024  10.466 -0.0476 -0.2315 -0.4801
  808MPD2    C411951   0.651   3.944  10.574 -0.2680 -0.0656  1.0550
  808MPD2    C511952   0.620   3.807  10.564  0.3963 -0.7903  0.0611
  808MPD2     H11953   0.520   4.025  10.265  0.5858 -0.2367 -0.8045
  808MPD2    H111954   0.694   3.979  10.667 -0.6532  0.7096  0.9357
  808MPD2    H211955   0.515   3.654  10.479  1.5916 -0.8863 -2.2623
  808MPD2    H311956   0.648   3.745  10.649  0.8172 -0.4896  0.1470
  808MPD2     N11957   0.626   4.165  10.477  0.6960  0.2626  0.9124
  808MPD2    H511958   0.669   4.194  10.564  1.6202 -0.6823  0.7700
  808MPD2    N111959   0.429   3.784  10.251 -0.4098  0.5953 -0.5131
  808MPD2    H711960   0.417   3.849  10.174 -0.5508  0.2131 -0.8085
  809MPD2     C11961   1.017   4.689   9.820  0.3041  0.1295 -0.2085
  809MPD2    C111962   1.070   4.608   9.921 -1.1618  0.1364 -0.4310
  809MPD2    C211963   0.997   4.592  10.033 -0.1744 -1.0037  0.0027
  809MPD2    C311964   0.877   4.662  10.047 -0.4980 -0.2489 -0.3086
  809MPD2    C411965   0.830   4.728   9.940 -0.6585 -0.1955 -0.1071
  809MPD2    C511966   0.895   0.007   9.821 -0.2810 -0.7691 -0.6068
  809MPD2     H11967   1.025   4.527  10.115  1.7038 -0.1743  0.0222
  809MPD2    H111968   0.735   0.042   9.954 -0.7962 -0.5002  0.0696
  809MPD2    H211969   1.077   4.711   9.732 -0.0919  2.0263  0.0047
  809MPD2    H311970   0.860   0.059   9.732  0.0702 -2.9519 -2.0447
  809MPD2     N11971   0.799   4.651  10.162 -0.2949  0.3504  0.4175
  809MPD2    H511972   0.704   4.684  10.154  0.1111  1.4428  0.0862
  809MPD2    N111973   1.202   4.562   9.918 -0.8938 -0.3345  0.3770
  809MPD2    H711974   1.216   4.496   9.994  1.2381  0.9819  1.1008
  810MPD2     C11975   0.135   3.847  10.490  0.1951  0.2258  0.0938
  810MPD2    C111976   0.169   3.720  10.533  0.3197 -0.0800 -0.0452
  810MPD2    C211977   0.255   3.700  10.643  0.3389 -0.0057 -0.2630
  810MPD2    C311978   0.308   3.815  10.714  0.2954 -1.0457  0.5193
  810MPD2    C411979   0.289   3.935  10.653 -0.0677  0.7121  0.0124
  810MPD2    C511980   0.200   3.957  10.549  0.1551 -0.2078 -0.0256
  810MPD2     H11981   0.279   3.604  10.688 -2.0628  0.0190  1.0563
  810MPD2    H111982   0.333   4.028  10.686 -0.7624  1.3296 -0.7703
  810MPD2    H211983   0.077   3.878  10.404 -0.0488  0.2989  0.2849
  810MPD2    H311984   0.171   4.059  10.525 -0.9107 -0.5236 -0.0664
  810MPD2     N11985   0.363   3.811  10.846  0.1674 -0.1248 -0.1488
  810MPD2    H511986   0.418   3.891  10.875  1.1610 -0.4859 -1.0663
  810MPD2    N111987   0.104   3.620  10.457 -0.1039 -0.0888  0.3220
  810MPD2    H711988   0.039   3.646  10.384  0.5626  1.0115  0.1177
  811MPD2     C11989   4.342   3.392   9.807 -0.4861  0.1149  0.4702
  811MPD2    C111990   4.394   3.472   9.906 -0.1775 -0.4549 -0.2429
  811MPD2    C211991   4.386   3.606   9.895  0.1565  0.5544 -0.7909
  811MPD2    C311992   4.319   3.659   9.788  0.3343  0.4569  0.3212
  811MPD2    C411993   4.260   3.580   9.692 -0.0455 -0.1583  0.4517
  811MPD2    C511994   4.277   3.446   9.701 -0.4621 -1.0767 -0.1615
  811MPD2     H11995   4.413   3.673   9.976 -2.6658 -0.0742  0.6662
  811MPD2    H111996   4.196   3.624   9.617  0.4184  3.0427  1.9123
  811MPD2    H211997   4.341   3.284   9.810  2.1957  0.1312  2.6029
  811MPD2    H311998   4.233   3.376   9.630  1.2514 -1.9691 -0.3492
  811MPD2     N11999   4.301   3.793   9.794  0.4033  0.2260 -0.0536
  811MPD2    H512000   4.334   3.855   9.867  0.9872 -0.6856  0.4578
  811MPD2    N112001   4.474   3.407  10.009  0.5452  0.2229  1.3973
  811MPD2    H712002   4.483   3.307   9.998  0.1500  0.3283  0.0805
  812MPD2     C12003   2.835   2.548  12.217 -0.7112 -0.8725 -0.0401
  812MPD2    C112004   2.962   2.611  12.198 -0.3645 -0.0822  0.4989
  812MPD2    C212005   3.061   2.590  12.293  0.5846 -0.7071 -0.2756
  812MPD2    C312006   3.037   2.494  12.390  0.6150 -0.3196  0.1852
  812MPD2    C412007   2.925   2.419  12.398 -0.1259 -0.5476  0.4636
  812MPD2    C512008   2.821   2.450  12.311  0.2823  0.1478  0.1568
  812MPD2     H12009   3.155   2.643  12.288  0.2219  0.1702  2.0988
  812MPD2    H112010   2.905   2.344  12.474 -0.3560  1.8680  2.7856
  812MPD2    H212011   2.748   2.569  12.156  0.0469  0.7075 -0.5846
  812MPD2    H312012   2.727   2.397  12.299  0.8526 -0.8410 -0.0208
  812MPD2     N12013   3.142   2.471  12.487 -0.2212  0.4908 -0.4710
  812MPD2    H512014   3.129   2.394  12.553  0.1854  2.3323  1.7826
  812MPD2    N112015   2.965   2.708  12.092 -0.2731 -0.9441  0.2633
  812MPD2    H712016   2.878   2.731  12.045  1.3783 -0.4389 -2.5565
  813MPD2     C12017   2.898   4.170  13.027 -0.1068 -0.4922 -1.0544
  813MPD2    C112018   2.916   4.229  13.152  0.5717 -0.3069  0.4981
  813MPD2    C212019   2.810   4.242  13.244  0.1670  0.5471  0.1602
  813MPD2    C312020   2.682   4.206  13.206 -0.2765  0.6010 -0.5406
  813MPD2    C412021   2.672   4.157  13.076 -0.7747  0.0777  0.2092
  813MPD2    C512022   2.776   4.135  12.986 -0.0146  0.1266  0.7353
  813MPD2     H12023   2.824   4.290  13.340 -1.4116 -0.2661  0.8076
  813MPD2    H112024   2.573   4.141  13.036 -0.8780  0.7720  0.2007
  813MPD2    H212025   2.973   4.147  12.951  1.1718  1.3247 -0.3607
  813MPD2    H312026   2.764   4.094  12.887 -0.6051  0.2224  0.7644
  813MPD2     N12027   2.566   4.228  13.281 -0.0968  0.3546 -0.3678
  813MPD2    H512028   2.479   4.220  13.230 -0.5753 -0.0393  0.5119
  813MPD2    N112029   3.039   4.282  13.190 -0.8449 -0.2858 -0.0973
  813MPD2    H712030   3.043   4.326  13.281 -0.7378  1.5194 -0.9738
  814MPD2     C12031   3.004   1.369  12.350  0.3926 -0.0480 -0.1544
  814MPD2    C112032   3.091   1.411  12.252 -0.6507  0.2722  0.5371
  814MPD2    C212033   3.175   1.514  12.285 -0.1508 -0.5434 -0.0334
  814MPD2    C312034   3.177   1.568  12.413  0.2381 -0.5469  0.0851
  814MPD2    C412035   3.095   1.518  12.512 -0.4690  0.7346 -0.2276
  814MPD2    C512036   3.006   1.424  12.474  0.9205  1.0711  0.1214
  814MPD2     H12037   3.244   1.553  12.211 -1.8095  1.5592 -0.4689
  814MPD2    H112038   3.107   1.547  12.615  1.7622  2.3452 -0.9488
  814MPD2    H212039   2.929   1.291  12.342  0.9663 -0.5635 -0.4664
  814MPD2    H312040   2.932   1.389  12.545 -1.9838  3.4780 -1.7461
  814MPD2     N12041   3.267   1.657  12.459 -0.3054  0.4493  0.3419
  814MPD2    H512042   3.278   1.668  12.559  0.5419 -1.9315  0.4954
  814MPD2    N112043   3.091   1.361  12.124  0.5289  0.1932 -0.4153
  814MPD2    H712044   3.140   1.404  12.046  0.2774  1.7701  0.2920
  815MPD2     C12045   3.811   4.719  12.019 -0.6574 -0.2483 -0.0148
  815MPD2    C112046   3.814   4.589  11.971 -0.9090  0.4730 -0.4235
  815MPD2    C212047   3.720   4.504  12.019 -0.8124 -0.3063  0.1241
  815MPD2    C312048   3.623   4.542  12.113  0.7324 -0.1408  0.7830
  815MPD2    C412049   3.620   4.676  12.150 -0.1728 -0.2559 -0.4681
  815MPD2    C512050   3.717   0.024  12.111 -0.8828  0.1677  0.5170
  815MPD2     H12051   3.720   4.397  11.998  1.1119 -0.3933  0.5174
  815MPD2    H112052   3.558   4.717  12.229  2.9218  2.0519  0.7543
  815MPD2    H212053   3.893   0.049  11.996 -2.0495  1.5099  0.2282
  815MPD2    H312054   3.723   0.128  12.138 -0.4859 -0.2698  2.1116
  815MPD2     N12055   3.537   4.445  12.151 -0.3613 -0.0453  0.6381
  815MPD2    H512056   3.531   4.353  12.108 -0.2882 -0.0750  0.6928
  815MPD2    N112057   3.918   4.555  11.884  0.2619 -0.1593 -0.3352
  815MPD2    H712058   3.965   4.634  11.842 -0.0804 -0.2164 -0.8215
  816MPD2     C12059   4.548   3.756  17.190  0.1892 -0.0631  0.8083
  816MPD2    C112060   4.440   3.700  17.121  0.1716  1.1484  0.3874
  816MPD2    C212061   4.469   3.611  17.016  0.1989 -0.1840 -0.1590
  816MPD2    C312062   4.604   3.590  16.990 -0.1085  0.9226 -0.1759
  816MPD2    C412063   4.705   3.639  17.065  0.1426  1.0878  0.4502
  816MPD2    C512064   4.679   3.714  17.170 -0.5888  0.1327  0.6855
  816MPD2     H12065   4.401   3.565  16.946  1.8117  0.8847 -2.4283
  816MPD2    H112066   0.073   3.628  17.044 -0.3118 -0.1867 -1.1697
  816MPD2    H212067   4.521   3.828  17.266  1.3111 -0.0000  1.1533
  816MPD2    H312068   0.026   3.750  17.227  0.7862  0.2740 -1.4702
  816MPD2     N12069   4.627   3.514  16.871 -0.1469 -0.1994  0.6152
  816MPD2    H512070   4.545   3.497  16.814 -1.3931  1.5004  1.9221
  816MPD2    N112071   4.312   3.747  17.145  0.0572  0.0070  0.7112
  816MPD2    H712072   4.311   3.806  17.228 -3.2896  2.7325 -1.2595
  817MPD2     C12073   2.934   0.564  10.314  0.5753 -0.6475  0.5272
  817MPD2    C112074   3.003   0.649  10.230 -0.3312 -0.5703  0.1143
  817MPD2    C212075   2.935   0.766  10.186  0.8361 -0.1114  0.7532
  817MPD2    C312076   2.798   0.796  10.218  0.7383 -0.5718  0.2824
  817MPD2    C412077   2.733   0.707  10.296  0.7183 -0.2351  0.3585
  817MPD2    C512078   2.804   0.595  10.344  0.2672 -0.1470  0.6072
  817MPD2     H12079   2.982   0.833  10.115  0.9710 -1.5353 -0.5238
  817MPD2    H112080   2.626   0.716  10.315  0.3048 -0.0581 -2.0294
  817MPD2    H212081   2.969   0.475  10.365  0.3810 -0.9788  0.0883
  817MPD2    H312082   2.747   0.530  10.410  0.0756 -2.7915 -2.2073
  817MPD2     N12083   2.743   0.914  10.172  0.1207 -0.0745 -0.3877
  817MPD2    H512084   2.820   0.965  10.130 -1.1310  1.0497 -1.2931
  817MPD2    N112085   3.138   0.630  10.182 -0.2368  0.4986  0.0858
  817MPD2    H712086   3.165   0.704  10.118 -1.1183  0.9116  0.1885
  818MPD2     C12087   1.858   0.403  10.187  0.3831  0.2797  0.3838
  818MPD2    C112088   1.804   0.331  10.292  0.1705 -0.1384  0.0473
  818MPD2    C212089   1.867   0.215  10.326  0.3763  0.0018 -0.0864
  818MPD2    C312090   1.975   0.171  10.256 -0.1194 -0.5881 -0.0823
  818MPD2    C412091   2.028   0.242  10.145  0.5715 -0.1635 -0.1591
  818MPD2    C512092   1.968   0.359  10.115 -0.0480 -0.3164  0.4058
  818MPD2     H12093   1.838   0.163  10.416 -2.6641 -0.0645 -1.1241
  818MPD2    H112094   2.124   0.216  10.102 -0.2097 -1.4011 -1.1404
  818MPD2    H212095   1.826   0.497  10.145 -0.2603 -0.2410 -0.2999
  818MPD2    H312096   2.013   0.427  10.043 -0.5164 -0.0416  0.3771
  818MPD2     N12097   2.027   0.039  10.279  0.1443 -0.0027 -0.0791
  818MPD2    H512098   2.116   0.020  10.235  1.4641 -0.3576  2.7353
  818MPD2    N112099   1.703   0.377  10.379 -0.5718  0.3671 -1.0809
  818MPD2    H712100   1.689   0.329  10.468  0.6380  3.0791  0.5454
  819MPD2     C12101   0.335   1.582  15.366 -0.4240 -1.1882  0.5228
  819MPD2    C112102   0.340   1.475  15.450 -0.4558 -0.4100  0.6713
  819MPD2    C212103   0.433   1.477  15.555  0.2041 -0.2617  0.2019
  819MPD2    C312104   0.519   1.587  15.575  1.0712 -0.3156  0.0331
  819MPD2    C412105   0.520   1.684  15.479  0.1060 -0.1164 -0.2864
  819MPD2    C512106   0.424   1.680  15.376 -0.1940  0.5401  0.5811
  819MPD2     H12107   0.437   1.391  15.621  2.3893 -3.0876 -3.6375
  819MPD2    H112108   0.604   1.752  15.483  0.9944 -1.3754  2.4677
  819MPD2    H212109   0.274   1.596  15.278 -0.7294 -1.9700  0.6155
  819MPD2    H312110   0.418   1.758  15.301  0.3194 -0.3057 -0.3396
  819MPD2     N12111   0.628   1.569  15.660 -0.0402 -0.0683 -0.0213
  819MPD2    H512112   0.636   1.487  15.720 -1.1075  1.2656  1.9146
  819MPD2    N112113   0.256   1.367  15.412  0.9546  0.3278  0.6058
  819MPD2    H712114   0.209   1.363  15.322 -3.3331  3.1659  2.7021
  820MPD2     C12115   4.063   1.207  15.336  0.3487 -0.7836 -0.0632
  820MPD2    C112116   4.163   1.304  15.314  0.0651  0.3449 -0.0713
  820MPD2    C212117   4.297   1.259  15.302 -0.5552 -0.4603  0.1858
  820MPD2    C312118   4.322   1.125  15.320  0.2949  0.5382  0.2903
  820MPD2    C412119   4.220   1.034  15.340  0.2140 -0.1234 -0.0896
  820MPD2    C512120   4.093   1.076  15.354 -0.1441  0.3440  0.0477
  820MPD2     H12121   4.378   1.320  15.263 -1.1045 -0.1106 -0.4139
  820MPD2    H112122   4.243   0.928  15.335 -0.5183 -0.3202  0.6887
  820MPD2    H212123   3.963   1.247  15.350  0.8185  0.6052 -0.6073
  820MPD2    H312124   4.024   0.993  15.359  0.5479 -0.2570 -0.3904
  820MPD2     N12125   4.451   1.067  15.319 -0.5450  0.3322  0.7341
  820MPD2    H512126   4.455   0.969  15.345  0.5111  0.1793  0.0044
  820MPD2    N112127   4.128   1.442  15.304 -0.4251 -0.2125 -0.0436
  820MPD2    H712128   4.029   1.460  15.298 -0.1222  2.2603  1.8197
  821MPD2     C12129   0.373   2.815  13.133 -0.0832 -0.4852  0.5101
  821MPD2    C112130   0.472   2.749  13.207  0.5060  0.1427  0.5263
  821MPD2    C212131   0.598   2.788  13.185  0.7190  0.7573  0.0145
  821MPD2    C312132   0.636   2.906  13.117  0.2324  0.4198  0.1622
  821MPD2    C412133   0.538   2.970  13.042 -0.3496  0.5287 -0.3832
  821MPD2    C512134   0.408   2.917  13.053  0.1989  0.0510 -0.8981
  821MPD2     H12135   0.670   2.735  13.245 -1.3533 -1.3430  0.6415
  821MPD2    H112136   0.556   3.057  12.981  1.5210 -0.6648 -1.5416
  821MPD2    H212137   0.271   2.778  13.133  0.3185 -1.5769 -0.7808
  821MPD2    H312138   0.323   2.963  13.004 -1.7235 -3.5560 -1.0011
  821MPD2     N12139   0.766   2.951  13.129 -0.0647 -0.5608  0.0876
  821MPD2    H512140   0.829   2.901  13.191 -0.1599 -0.2056  0.4710
  821MPD2    N112141   0.449   2.661  13.310  0.5324 -1.5099 -0.0014
  821MPD2    H712142   0.532   2.652  13.368  1.4747  1.3363 -0.9400
  822MPD2     C12143   1.139   3.192  15.866 -0.3752  0.0978 -0.4128
  822MPD2    C112144   1.107   3.163  15.994  0.6611 -0.1210  0.4393
  822MPD2    C212145   1.017   3.238  16.064 -0.7999  0.3584  0.2245
  822MPD2    C312146   0.976   3.359  16.011 -0.3831 -0.4248 -0.5832
  822MPD2    C412147   1.004   3.384  15.877  0.1865  0.2133 -0.0075
  822MPD2    C512148   1.090   3.305  15.804 -0.4006  0.2408  0.3954
  822MPD2     H12149   0.969   3.211  16.157 -0.7241 -0.8958 -0.1024
  822MPD2    H112150   0.955   3.467  15.827  3.1845  0.9641 -1.7332
  822MPD2    H212151   1.204   3.130  15.805 -1.1279 -0.3307 -0.7875
  822MPD2    H312152   1.104   3.331  15.699  0.4510  2.4578  1.0650
  822MPD2     N12153   0.898   3.454  16.086 -0.1452 -0.0827 -0.4150
  822MPD2    H512154   0.857   3.434  16.177  0.0703  2.0450  0.1521
  822MPD2    N112155   1.169   3.057  16.068  0.8863 -0.2436  0.0760
  822MPD2    H712156   1.136   3.046  16.163  1.6633  2.3909  0.6553
  823MPD2     C12157   0.672   3.571  16.877  0.2535 -0.4845 -0.7205
  823MPD2    C112158   0.741   3.541  16.761  0.9121 -0.5326 -0.0204
  823MPD2    C212159   0.810   3.422  16.762 -1.1046  1.2672 -0.1475
  823MPD2    C312160   0.812   3.344  16.873  0.6033 -0.4443 -0.0011
  823MPD2    C412161   0.735   3.373  16.982 -0.4903 -0.0736  0.8781
  823MPD2    C512162   0.668   3.489  16.991  0.1801 -0.3749  0.4825
  823MPD2     H12163   0.862   3.402  16.669  1.5665  1.1407  1.3814
  823MPD2    H112164   0.735   3.308  17.068  2.4724 -1.5746 -0.2199
  823MPD2    H212165   0.616   3.663  16.885 -1.1992 -1.2993 -1.5869
  823MPD2    H312166   0.600   3.512  17.072 -0.8733 -1.4550 -0.0842
  823MPD2     N12167   0.888   3.226  16.882  0.2232 -0.0708  0.1530
  823MPD2    H512168   0.867   3.172  16.965 -0.2485 -1.4562 -0.8794
  823MPD2    N112169   0.725   3.622  16.642  0.3617  0.9793  0.4963
  823MPD2    H712170   0.699   3.720  16.654  2.1023  1.1766  2.5217
  824MPD2     C12171   1.745   2.388  16.101 -0.3716 -0.2006 -0.0868
  824MPD2    C112172   1.708   2.488  16.010  0.4167 -0.9033  0.1629
  824MPD2    C212173   1.760   2.478  15.879 -0.0928  0.0427  0.2210
  824MPD2    C312174   1.839   2.370  15.848  0.4613 -0.1736 -0.4391
  824MPD2    C412175   1.861   2.269  15.938  0.3368  0.1793 -0.0679
  824MPD2    C512176   1.816   2.277  16.066 -0.2241  0.0001  0.2414
  824MPD2     H12177   1.735   2.557  15.809  0.7018 -0.7494 -0.9588
  824MPD2    H112178   1.914   2.179  15.909 -0.0631  0.3589 -1.3507
  824MPD2    H212179   1.718   2.398  16.205 -0.3519  0.9178 -0.1841
  824MPD2    H312180   1.830   2.202  16.142 -0.5184 -0.8365 -0.5220
  824MPD2     N12181   1.891   2.361  15.715  0.4059  0.6558  0.3498
  824MPD2    H512182   1.882   2.446  15.659  0.7804 -0.7633 -1.8558
  824MPD2    N112183   1.620   2.593  16.051  0.4910  0.2507 -0.3834
  824MPD2    H712184   1.584   2.658  15.982 -0.7112 -0.0356 -0.0193
  825MPD2     C12185   2.416   2.668  15.100 -0.2074  0.8830  0.5679
  825MPD2    C112186   2.355   2.665  15.223 -0.4286 -0.4318  0.6927
  825MPD2    C212187   2.342   2.785  15.294  0.3107  0.0454  0.3960
  825MPD2    C312188   2.401   2.902  15.250 -0.5075 -0.0701 -0.1216
  825MPD2    C412189   2.461   2.904  15.129  0.0360 -0.2146 -0.4540
  825MPD2    C512190   2.456   2.792  15.048  0.2508  0.0211  0.1220
  825MPD2     H12191   2.289   2.792  15.388 -1.0277  1.2163 -0.4454
  825MPD2    H112192   2.504   2.995  15.091  0.1423  0.6001  1.6213
  825MPD2    H212193   2.418   2.589  15.026 -1.7441  1.0960  0.2962
  825MPD2    H312194   2.497   2.796  14.947 -1.3370  1.0667 -0.4708
  825MPD2     N12195   2.398   3.019  15.325 -0.2134  0.1099  0.2722
  825MPD2    H512196   2.443   3.103  15.288  0.6160 -1.0920 -1.4560
  825MPD2    N112197   2.290   2.540  15.273  0.6859  0.0992  0.2751
  825MPD2    H712198   2.300   2.468  15.202 -0.9454  0.1793 -0.0436
  826MPD2     C12199   2.528   2.850  13.337  0.7553  0.2830  0.3348
  826MPD2    C112200   2.428   2.864  13.429 -0.7938  0.2744  0.6871
  826MPD2    C212201   2.314   2.932  13.401  0.0817 -0.1720 -0.0921
  826MPD2    C312202   2.300   2.988  13.272  0.1931 -0.0701  0.2264
  826MPD2    C412203   2.404   2.992  13.186 -0.1915  0.4100  0.0487
  826MPD2    C512204   2.519   2.928  13.223 -0.3862 -0.8444 -0.1899
  826MPD2     H12205   2.237   2.925  13.477 -0.0577 -0.9244 -0.3105
  826MPD2    H112206   2.413   3.049  13.094  0.9275  0.3003  0.0814
  826MPD2    H212207   2.623   2.798  13.345 -0.6581 -2.3835 -0.3349
  826MPD2    H312208   2.606   2.927  13.159 -0.1662  0.7248  0.0652
  826MPD2     N12209   2.180   3.050  13.228  0.2749 -0.1624 -0.6743
  826MPD2    H512210   2.174   3.079  13.131  0.3367  3.5569  0.4655
  826MPD2    N112211   2.451   2.791  13.553 -0.0241  0.0166 -0.0738
  826MPD2    H712212   2.541   2.744  13.554  0.0573  0.1739  0.1032
  827MPD2     C12213   3.250   4.123  10.244 -0.0332  0.2018 -0.2341
  827MPD2    C112214   3.137   4.063  10.300  0.2059  0.0256 -0.1597
  827MPD2    C212215   3.011   4.092  10.264 -0.1094  0.8525 -0.7029
  827MPD2    C312216   2.990   4.196  10.175 -0.3945 -0.7766  0.1492
  827MPD2    C412217   3.096   4.271  10.133 -0.0575 -0.2330  0.6474
  827MPD2    C512218   3.225   4.239  10.168  0.3931  0.4039 -1.0847
  827MPD2     H12219   2.921   4.045  10.301 -0.0372  1.2136 -0.0727
  827MPD2    H112220   3.082   4.362  10.077 -2.3010 -0.8474  0.2153
  827MPD2    H212221   3.354   4.098  10.263  0.3195  1.5172 -0.4438
  827MPD2    H312222   3.299   4.303  10.120  0.6346 -1.2256 -2.9216
  827MPD2     N12223   2.856   4.211  10.126  0.1203  0.1405  0.5748
  827MPD2    H512224   2.786   4.143  10.154  1.7107 -1.6130  0.3389
  827MPD2    N112225   3.171   3.965  10.394 -0.0280  0.1413 -0.5015
  827MPD2    H712226   3.265   3.973  10.431  0.3424 -4.2076 -0.5089
  828MPD2     C12227   1.037   3.489  12.638 -0.3283 -0.4618  0.3263
  828MPD2    C112228   0.942   3.486  12.537  0.0547 -0.2199 -0.1836
  828MPD2    C212229   0.982   3.432  12.416 -0.0509 -0.1758  0.9853
  828MPD2    C312230   1.100   3.363  12.400  0.2812 -0.4234 -0.6029
  828MPD2    C412231   1.187   3.361  12.505  0.6477  0.0031 -0.5794
  828MPD2    C512232   1.155   3.423  12.621 -0.5444 -0.8346 -0.1642
  828MPD2     H12233   0.911   3.433  12.335 -1.8103  0.7837  2.5306
  828MPD2    H112234   1.273   3.294  12.508  0.5464 -0.0829  0.5846
  828MPD2    H212235   1.004   3.524  12.735  0.6278 -2.1823  1.2711
  828MPD2    H312236   1.225   3.418  12.704 -1.1178  1.2509  0.4291
  828MPD2     N12237   1.147   3.301  12.284 -0.2120 -0.7014 -0.7104
  828MPD2    H512238   1.246   3.280  12.284  0.1398  1.0139 -2.9543
  828MPD2    N112239   0.812   3.537  12.545 -0.4202  0.1967 -0.1631
  828MPD2    H712240   0.765   3.547  12.456  1.0904 -0.4538 -1.0451
  829MPD2     C12241   0.446   3.854  11.878  0.0629  0.0424  0.4576
  829MPD2    C112242   0.338   3.857  11.964  0.2743 -0.0795 -0.2925
  829MPD2    C212243   0.354   3.809  12.096  0.0943  0.8455  0.0371
  829MPD2    C312244   0.472   3.752  12.137 -0.3903  0.3905 -0.7832
  829MPD2    C412245   0.580   3.729  12.047  0.0608  0.4941 -0.9151
  829MPD2    C512246   0.559   3.785  11.925  0.2922 -0.0134 -0.6149
  829MPD2     H12247   0.265   3.815  12.158 -0.4905 -2.1356 -0.5716
  829MPD2    H112248   0.676   3.688  12.076  0.0970  0.6559 -0.8083
  829MPD2    H212249   0.452   3.898  11.780 -2.1339  0.5024  0.5385
  829MPD2    H312250   0.638   3.775  11.851  1.6956  0.9116  0.7869
  829MPD2     N12251   0.481   3.708  12.277 -0.0887 -0.4256  0.8234
  829MPD2    H512252   0.569   3.662  12.298  1.1919  1.4252 -0.5320
  829MPD2    N112253   0.219   3.916  11.915  0.4263  0.0351 -0.6605
  829MPD2    H712254   0.219   3.937  11.816  0.5182 -0.6328 -0.8030
  830MPD2     C12255   1.300   1.291  16.048 -0.1234 -0.1533  0.0060
  830MPD2    C112256   1.264   1.344  15.929 -0.0263 -0.1645 -0.7635
  830MPD2    C212257   1.341   1.440  15.875  0.3316  0.1185  0.2089
  830MPD2    C312258   1.462   1.478  15.935  0.1310  0.2419 -0.1711
  830MPD2    C412259   1.489   1.433  16.061  0.0433 -0.6337 -0.6091
  830MPD2    C512260   1.409   1.337  16.118 -0.5841 -1.0935  0.5513
  830MPD2     H12261   1.326   1.473  15.773  0.6216 -1.9298 -0.4975
  830MPD2    H112262   1.573   1.476  16.114 -2.0162  1.0287  1.3450
  830MPD2    H212263   1.240   1.209  16.087  1.9990 -0.8427  1.8142
  830MPD2    H312264   1.427   1.298  16.217  1.6190 -3.6639 -0.8626
  830MPD2     N12265   1.552   1.570  15.873  0.1220 -0.3021  0.1940
  830MPD2    H512266   1.635   1.599  15.924  0.9334 -2.4934  0.1285
  830MPD2    N112267   1.137   1.310  15.871  0.0194  0.1568  0.5587
  830MPD2    H712268   1.083   1.238  15.918 -1.7348  1.2280  0.1868
  831MPD2     C12269   1.261   3.557  16.339  0.3797 -0.1908  1.0022
  831MPD2    C112270   1.259   3.436  16.276 -0.9807  0.3215  0.1268
  831MPD2    C212271   1.165   3.344  16.314  0.4276 -0.4261  0.2110
  831MPD2    C312272   1.063   3.375  16.402 -0.3386  0.8898 -0.2018
  831MPD2    C412273   1.065   3.494  16.470 -0.4723  0.3872 -0.1387
  831MPD2    C512274   1.173   3.576  16.445  0.2061 -0.3782 -0.1363
  831MPD2     H12275   1.178   3.246  16.269  0.6951 -0.4866  0.4215
  831MPD2    H112276   1.002   3.502  16.559 -0.8154  0.5423 -0.3957
  831MPD2    H212277   1.336   3.635  16.333 -0.3734  0.4390 -0.2801
  831MPD2    H312278   1.188   3.655  16.518  0.1140 -0.2128 -0.2971
  831MPD2     N12279   0.951   3.288  16.418 -0.4133 -0.1874  0.0736
  831MPD2    H512280   0.869   3.328  16.462 -1.2349  0.3239 -1.9427
  831MPD2    N112281   1.344   3.400  16.168  0.4070  0.1460  0.0385
  831MPD2    H712282   1.313   3.328  16.103  0.2405 -1.1249  1.5126
  832MPD2     C12283   4.336   4.578  17.250  0.4767 -0.9332  0.0707
  832MPD2    C112284   4.348   4.690  17.177 -0.4801  0.0143  0.6203
  832MPD2    C212285   4.237   4.735  17.115 -0.4582 -0.8444  0.5468
  832MPD2    C312286   4.113   4.660  17.114  0.3658 -0.3027 -0.0586
  832MPD2    C412287   4.110   4.540  17.179 -0.2869 -0.2089  0.3788
  832MPD2    C512288   4.218   4.509  17.257  0.5954  0.7744  0.7371
  832MPD2     H12289   4.236   0.095  17.069 -1.2287 -1.4221 -0.6628
  832MPD2    H112290   4.026   4.472  17.180 -2.7709  2.8521  1.9501
  832MPD2    H212291   4.408   4.550  17.326 -0.9755 -2.9594  0.7374
  832MPD2    H312292   4.219   4.410  17.302 -0.1331  0.8592  0.9441
  832MPD2     N12293   4.001   4.705  17.039  0.1793  0.8397 -0.5314
  832MPD2    H512294   3.925   4.638  17.028 -0.3155  1.2978  0.1197
  832MPD2    N112295   4.475   0.021  17.185 -0.0346 -0.2631 -0.1103
  832MPD2    H712296   4.544   4.719  17.247  1.6124  1.7421 -0.6703
  833MPD2     C12297   1.779   1.617  12.632 -0.0145 -0.4300 -0.1939
  833MPD2    C112298   1.650   1.564  12.633 -0.4085  0.3201 -0.2620
  833MPD2    C212299   1.626   1.431  12.602 -0.3728  0.3442 -0.3820
  833MPD2    C312300   1.740   1.354  12.572 -0.2985 -0.9080  0.0008
  833MPD2    C412301   1.871   1.399  12.589  0.0548 -0.1730  0.7179
  833MPD2    C512302   1.892   1.536  12.612  0.1068 -0.0187 -0.1329
  833MPD2     H12303   1.528   1.386  12.613  0.0257 -1.0882 -2.7884
  833MPD2    H112304   1.954   1.332  12.568 -1.2782 -1.2239 -1.2391
  833MPD2    H212305   1.799   1.723  12.645  2.1984 -1.2103  2.5330
  833MPD2    H312306   1.987   1.587  12.602 -0.8767  1.8649  0.1170
  833MPD2     N12307   1.721   1.216  12.532 -0.2230 -0.1867  0.0885
  833MPD2    H512308   1.810   1.171  12.512 -1.9436 -2.6671 -1.9501
  833MPD2    N112309   1.543   1.648  12.634  0.3009 -0.1769  0.3810
  833MPD2    H712310   1.558   1.748  12.624 -1.7731  0.0763 -0.3489
  834MPD2     C12311   2.174   0.495  12.032  0.0064  0.6945 -0.0323
  834MPD2    C112312   2.077   0.546  11.946  0.2781 -0.0360 -0.2939
  834MPD2    C212313   1.985   0.638  11.997  0.1057 -0.4922  0.5713
  834MPD2    C312314   1.990   0.687  12.121  0.5845 -0.0741  0.1958
  834MPD2    C412315   2.092   0.642  12.202 -0.6271 -0.0638  0.7917
  834MPD2    C512316   2.182   0.551  12.155  0.6025  0.7268  0.0381
  834MPD2     H12317   1.905   0.679  11.936  0.7494  0.3259  0.2868
  834MPD2    H112318   2.108   0.682  12.302  3.4030 -2.9271  1.2771
  834MPD2    H212319   2.242   0.419  11.996 -2.6910 -2.4464  1.5252
  834MPD2    H312320   2.259   0.521  12.224  1.4013  0.7639 -0.8423
  834MPD2     N12321   1.906   0.796  12.161 -0.4054 -0.2290 -0.1105
  834MPD2    H512322   1.837   0.828  12.093 -0.5556 -0.1743  0.0684
  834MPD2    N112323   2.053   0.473  11.824 -0.8402 -0.5043 -0.7850
  834MPD2    H712324   2.098   0.384  11.805  0.8302 -0.4230  2.6288
  835MPD2     C12325   1.968   4.007  11.026 -0.1582 -0.0703 -0.5977
  835MPD2    C112326   1.908   4.110  11.088 -0.1263  0.6935  0.2789
  835MPD2    C212327   1.935   4.131  11.222 -0.6660 -0.1680 -0.1020
  835MPD2    C312328   2.028   4.064  11.295  0.1425 -0.2475 -0.1675
  835MPD2    C412329   2.086   3.957  11.234 -0.7589  0.2474 -0.0541
  835MPD2    C512330   2.058   3.932  11.103 -0.5890  0.0464  0.0795
  835MPD2     H12331   1.873   4.209  11.266 -1.3043  0.2304 -1.6932
  835MPD2    H112332   2.158   3.892  11.284  0.9031  3.4127  1.6737
  835MPD2    H212333   1.954   3.979  10.922 -4.9803  0.3025 -0.0479
  835MPD2    H312334   2.113   3.860  11.045 -0.6059 -2.1592  2.8072
  835MPD2     N12335   2.059   4.076  11.435  0.3230  0.3613  0.7309
  835MPD2    H512336   2.109   3.998  11.476 -1.9365 -0.6998  1.4748
  835MPD2    N112337   1.809   4.190  11.033  0.0024  0.3943  0.4501
  835MPD2    H712338   1.767   4.267  11.084 -1.1599  0.3031 -0.3711
  836MPD2     C12339   1.511   4.290  11.938 -0.2524 -0.6772  0.2159
  836MPD2    C112340   1.585   4.185  11.993 -0.4482  0.2517 -0.4239
  836MPD2    C212341   1.530   4.114  12.102  0.0438 -0.8078 -0.1812
  836MPD2    C312342   1.398   4.136  12.141  0.3143 -0.7347 -0.0151
  836MPD2    C412343   1.324   4.238  12.080  0.1673 -0.6324 -0.2383
  836MPD2    C512344   1.385   4.312  11.982  0.9311  0.2443  0.1501
  836MPD2     H12345   1.587   4.038  12.154 -0.5754 -1.3542 -0.3029
  836MPD2    H112346   1.220   4.260  12.099  0.6088  0.4881  0.9552
  836MPD2    H212347   1.561   4.351  11.864 -1.1787  0.9458  0.9153
  836MPD2    H312348   1.318   4.379  11.929 -1.9648 -1.0676  2.1451
  836MPD2     N12349   1.322   4.065  12.242 -0.3748 -0.4139  0.0988
  836MPD2    H512350   1.222   4.083  12.242 -0.2706  0.1660  1.4803
  836MPD2    N112351   1.710   4.161  11.933 -0.4557  0.0057  0.3524
  836MPD2    H712352   1.738   4.225  11.859  1.2789 -1.1520 -0.0113
  837MPD2     C12353   4.553   4.450  10.085 -0.3067  0.1648 -0.1844
  837MPD2    C112354   4.478   4.489   9.980 -0.1125  0.4367 -0.1962
  837MPD2    C212355   4.429   4.619   9.965  0.0773  0.2233 -0.6488
  837MPD2    C312356   4.460   4.715  10.062 -0.0942  0.1042 -0.5378
  837MPD2    C412357   4.525   4.674  10.177  0.6479  0.2022  0.3462
  837MPD2    C512358   4.571   4.542  10.185  0.6227  0.0171  0.1988
  837MPD2     H12359   4.367   4.655   9.884 -2.2772 -2.1250  0.1120
  837MPD2    H112360   4.548   0.007  10.256 -2.4630  1.1453  0.3695
  837MPD2    H212361   4.593   4.349  10.092 -0.5870  0.1153  0.7533
  837MPD2    H312362   4.639   4.523  10.267  2.5350 -0.4794 -1.4934
  837MPD2     N12363   4.395   0.106  10.048  0.0620  0.0437  0.6222
  837MPD2    H512364   4.354   0.124   9.957  1.0806 -1.3997 -0.1262
  837MPD2    N112365   4.441   4.393   9.881  0.6971 -0.1822 -0.3243
  837MPD2    H712366   4.394   4.423   9.797  1.2492 -1.5727 -1.1174
  838MPD2     C12367   3.132   2.125  12.364 -0.1235 -0.0841  0.4135
  838MPD2    C112368   3.010   2.080  12.317 -0.2584 -0.2461 -0.6027
  838MPD2    C212369   2.928   1.999  12.395  0.3737 -0.7113  0.2371
  838MPD2    C312370   2.967   1.951  12.520  0.3532 -0.1372  0.5316
  838MPD2    C412371   3.100   1.981  12.559  0.2368 -0.1216  0.0069
  838MPD2    C512372   3.172   2.066  12.479 -0.3763  0.6066  0.4623
  838MPD2     H12373   2.828   1.976  12.360  0.0590 -0.3100  0.8937
  838MPD2    H112374   3.149   1.947  12.649 -0.4552  2.1798  1.2377
  838MPD2    H212375   3.205   2.181  12.307  0.2073 -0.4602  0.4667
  838MPD2    H312376   3.273   2.095  12.504 -0.8266  0.9609  1.8319
  838MPD2     N12377   2.873   1.898  12.609  0.4321 -0.3407  0.2791
  838MPD2    H512378   2.785   1.878  12.563 -1.6305 -1.4960  4.8294
  838MPD2    N112379   2.962   2.107  12.188  0.0400  0.6133 -0.1273
  838MPD2    H712380   2.881   2.053  12.158  0.2376  1.3015 -1.9703
  839MPD2     C12381   2.710   1.438  12.070  0.5367  0.2076  0.3401
  839MPD2    C112382   2.701   1.479  11.940 -0.1803  0.1807 -0.4022
  839MPD2    C212383   2.774   1.589  11.896 -0.0069  0.4388 -0.1476
  839MPD2    C312384   2.857   1.657  11.984 -0.5476 -0.3797  0.0199
  839MPD2    C412385   2.863   1.614  12.115  0.1792 -0.0842  0.2441
  839MPD2    C512386   2.782   1.509  12.165 -0.2196  0.6404 -0.4111
  839MPD2     H12387   2.766   1.612  11.790 -1.1053  1.8125  0.2354
  839MPD2    H112388   2.927   1.663  12.188  2.4031  0.0888 -1.8028
  839MPD2    H212389   2.639   1.364  12.106  0.7679  0.9891  2.4109
  839MPD2    H312390   2.777   1.473  12.267  0.2943  2.1769  0.1529
  839MPD2     N12391   2.928   1.778  11.957 -0.2858  0.0256  0.6217
  839MPD2    H512392   2.982   1.820  12.032  1.0365 -0.2713 -0.1635
  839MPD2    N112393   2.624   1.409  11.845  0.2103  0.1169 -0.1696
  839MPD2    H712394   2.622   1.454  11.754 -0.0291 -1.0065 -0.7216
  840MPD2     C12395   3.731   3.947  10.468 -0.7738 -0.3459 -0.6599
  840MPD2    C112396   3.654   3.958  10.584  0.4195 -0.3095 -0.4052
  840MPD2    C212397   3.688   4.066  10.663  0.1270  0.1817  0.2237
  840MPD2    C312398   3.788   4.155  10.635  0.0443 -0.3309 -0.0703
  840MPD2    C412399   3.872   4.134  10.525 -0.0759 -0.5327  0.9517
  840MPD2    C512400   3.840   4.031  10.440  0.6393 -0.6577  0.2666
  840MPD2     H12401   3.626   4.085  10.751 -0.5033  3.1127 -0.8422
  840MPD2    H112402   3.956   4.198  10.503  0.0066 -0.7232  0.7179
  840MPD2    H212403   3.715   3.863  10.402  0.6488 -1.5087  0.4765
  840MPD2    H312404   3.899   4.025  10.349 -0.1611  0.6255 -0.3451
  840MPD2     N12405   3.809   4.279  10.700 -0.2806 -0.2777 -0.6298
  840MPD2    H512406   3.875   4.340  10.653  0.2048 -1.2770 -1.2348
  840MPD2    N112407   3.537   3.877  10.598 -0.0193 -0.4061  0.3733
  840MPD2    H712408   3.523   3.808  10.525  2.1002 -0.3969 -0.0543
  841MPD2     C12409   2.535   3.505  15.041 -0.5748 -0.4685 -0.8825
  841MPD2    C112410   2.603   3.432  14.949 -0.3277 -0.1574  0.0646
  841MPD2    C212411   2.742   3.459  14.927 -0.5295  0.9444 -0.4697
  841MPD2    C312412   2.801   3.565  14.999 -0.1610  0.2709 -0.1793
  841MPD2    C412413   2.724   3.639  15.084 -0.5681 -0.1756 -0.3895
  841MPD2    C512414   2.596   3.607  15.110  0.0284  0.0199  0.0371
  841MPD2     H12415   2.800   3.403  14.854 -2.7885 -0.2946 -1.3053
  841MPD2    H112416   2.766   3.729  15.127  0.6103 -1.2914  0.8094
  841MPD2    H212417   2.427   3.494  15.049 -0.2242 -2.3633  1.3891
  841MPD2    H312418   2.546   3.676  15.177  2.3381  0.5040  1.2625
  841MPD2     N12419   2.941   3.579  14.986  0.0812  0.0457 -0.1958
  841MPD2    H512420   2.980   3.511  14.921  1.3701  1.2600 -0.6955
  841MPD2    N112421   2.541   3.336  14.871  0.1160  0.4913 -0.1123
  841MPD2    H712422   2.597   3.301  14.793  2.2697  0.1131  1.6016
  842MPD2     C12423   2.834   0.023  16.778  0.5160  0.2220  0.5321
  842MPD2    C112424   2.955   0.064  16.727  0.9166  0.0388 -0.0483
  842MPD2    C212425   3.071   4.731  16.761  0.3522 -0.1330 -0.3376
  842MPD2    C312426   3.063   4.636  16.856  0.3387  0.2041 -0.1227
  842MPD2    C412427   2.942   4.604  16.909 -0.3944 -0.0480 -0.6662
  842MPD2    C512428   2.827   4.678  16.877  0.3709  0.3683  0.6922
  842MPD2     H12429   3.163   0.031  16.716  0.5706 -1.0526 -0.6541
  842MPD2    H112430   2.939   4.527  16.985 -2.0587 -0.7360 -1.4344
  842MPD2    H212431   2.742   0.069  16.744 -0.1127  0.0110  1.9663
  842MPD2    H312432   2.734   4.656  16.927 -0.6032 -0.0069 -1.2970
  842MPD2     N12433   3.173   4.564  16.912  0.0850  0.1376 -0.4201
  842MPD2    H512434   3.152   4.499  16.988 -3.4842  0.2709 -1.2850
  842MPD2    N112435   2.947   0.155  16.624 -0.3396  0.2183  0.0169
  842MPD2    H712436   2.858   0.202  16.621 -1.3409 -1.7794 -1.4104
  843MPD2     C12437   0.610   0.354  17.552  0.4750 -0.7192 -0.4221
  843MPD2    C112438   0.713   0.265  17.590  0.4880 -1.5157 -0.1144
  843MPD2    C212439   0.827   0.312  17.638 -0.4115 -0.0278 -0.3252
  843MPD2    C312440   0.850   0.449  17.648  0.3397  0.2351  0.2511
  843MPD2    C412441   0.751   0.538  17.608 -0.4252 -0.3751  0.3983
  843MPD2    C512442   0.630   0.490  17.566  0.4287 -0.3716  0.4718
  843MPD2     H12443   0.906   0.245  17.671 -1.3997 -1.1357 -0.1872
  843MPD2    H112444   0.755   0.646  17.607  0.0516 -0.3788  1.5229
  843MPD2    H212445   0.513   0.321  17.515 -0.4967  0.5356  1.0178
  843MPD2    H312446   0.554   0.559  17.532  0.3262 -2.0781 -2.7763
  843MPD2     N12447   0.968   0.509  17.696 -0.0147  0.4301 -1.1565
  843MPD2    H512448   0.972   0.610  17.693 -0.7385  0.4716 -0.5744
  843MPD2    N112449   0.688   0.130  17.592  0.6185 -0.0911  0.2982
  843MPD2    H712450   0.597   0.106  17.555  1.1927 -4.1738  1.4620
  844MPD2     C12451   3.975   3.926  16.561  0.6747  0.0787  0.0990
  844MPD2    C112452   3.987   4.027  16.476 -0.1627 -0.5760 -0.3454
  844MPD2    C212453   4.029   4.144  16.517  0.2554 -0.0146  0.2826
  844MPD2    C312454   4.081   4.156  16.640  0.0097  0.5469 -0.0817
  844MPD2    C412455   4.087   4.051  16.729 -0.2713 -0.0727  0.0413
  844MPD2    C512456   4.031   3.940  16.688  0.4013 -0.2817 -0.2123
  844MPD2     H12457   4.029   4.224  16.445 -0.8258  1.3163  1.7627
  844MPD2    H112458   4.129   4.055  16.828 -1.1202 -0.7332  0.4325
  844MPD2    H212459   3.909   3.840  16.547 -1.6059  1.5199  2.0889
  844MPD2    H312460   4.042   3.856  16.756  0.1471 -1.4003 -1.5606
  844MPD2     N12461   4.117   4.281  16.686  0.3176  0.0066  0.0810
  844MPD2    H512462   4.169   4.293  16.772  2.4575  0.5854 -1.2987
  844MPD2    N112463   3.947   4.014  16.340  0.4340 -0.4951 -0.0300
  844MPD2    H712464   3.981   4.092  16.285 -1.3975 -0.0671 -0.5688
  845MPD2     C12465   4.270   0.636  16.764 -0.4627 -0.4177 -0.3218
  845MPD2    C112466   4.341   0.573  16.868  0.3807 -1.1392  0.2146
  845MPD2    C212467   4.343   0.433  16.868  0.0899  0.7282 -0.4918
  845MPD2    C312468   4.279   0.355  16.772  0.4454  0.1746  1.0140
  845MPD2    C412469   4.203   0.422  16.678  0.0753  0.4064 -0.3330
  845MPD2    C512470   4.199   0.559  16.675 -0.0840 -1.3883  0.4012
  845MPD2     H12471   4.401   0.387  16.948 -0.2427 -1.6753 -1.6347
  845MPD2    H112472   4.143   0.382  16.597  1.7177  2.4136 -2.5427
  845MPD2    H212473   4.257   0.743  16.752 -0.1849 -0.5045 -1.3999
  845MPD2    H312474   4.149   0.624  16.604 -0.3558 -0.8705  1.0704
  845MPD2     N12475   4.275   0.215  16.787  0.1219  0.3725  0.1361
  845MPD2    H512476   4.336   0.181  16.861  2.6609 -0.2941 -2.2491
  845MPD2    N112477   4.390   0.657  16.974 -0.1394 -0.3159  0.1962
  845MPD2    H712478   4.374   0.756  16.959 -0.1363 -0.4908 -0.9768
  846MPD2     C12479   1.002   0.674  13.689 -0.3065 -0.6351 -0.9119
  846MPD2    C112480   0.868   0.694  13.733 -0.3728 -0.4312  0.4295
  846MPD2    C212481   0.826   0.667  13.866  0.1895  0.1633 -0.0263
  846MPD2    C312482   0.911   0.602  13.952  0.1438  0.6911  0.0670
  846MPD2    C412483   1.043   0.580  13.913 -0.1152 -0.0658  0.3717
  846MPD2    C512484   1.085   0.613  13.782 -0.5667 -0.0936  0.0912
  846MPD2     H12485   0.726   0.691  13.900 -0.3746 -0.8919 -0.9398
  846MPD2    H112486   1.121   0.541  13.976  0.3573  1.2150  0.5862
  846MPD2    H212487   1.042   0.702  13.592  1.1335 -0.8270 -0.3630
  846MPD2    H312488   1.190   0.607  13.757 -1.0243 -0.6336 -1.7058
  846MPD2     N12489   0.867   0.578  14.085  0.4311  0.1637  0.8604
  846MPD2    H512490   0.768   0.569  14.106  0.5151 -1.3608  0.6041
  846MPD2    N112491   0.781   0.767  13.651 -0.7125  0.7977 -0.2079
  846MPD2    H712492   0.688   0.780  13.689  0.1889 -1.3099  2.6676
  847MPD2     C12493   0.733   1.688  14.788 -0.2927  0.5533  0.4433
  847MPD2    C112494   0.814   1.783  14.721 -0.3820 -0.2808 -0.2076
  847MPD2    C212495   0.933   1.737  14.657  0.4543  0.6598 -0.7301
  847MPD2    C312496   0.973   1.605  14.654  0.2653  0.1005  0.1516
  847MPD2    C412497   0.889   1.514  14.726  0.5613  0.2521 -0.2442
  847MPD2    C512498   0.776   1.558  14.791 -0.4342 -0.1823  0.1673
  847MPD2     H12499   0.995   1.812  14.608  0.3569  2.1322  1.3975
  847MPD2    H112500   0.901   1.406  14.718 -1.1118  0.1207 -1.0298
  847MPD2    H212501   0.639   1.703  14.840 -0.3721 -1.3454  0.8553
  847MPD2    H312502   0.709   1.488  14.837 -1.0905 -0.3170 -0.9910
  847MPD2     N12503   1.102   1.576  14.596  0.4735  0.1927  0.3802
  847MPD2    H512504   1.156   1.652  14.556 -0.4917 -0.3143 -1.8940
  847MPD2    N112505   0.796   1.921  14.719 -0.3485  0.4390  0.1894
  847MPD2    H712506   0.866   1.986  14.685  1.2444 -0.8752  0.9621
  848MPD2     C12507   3.889   0.317  16.300 -0.0376  0.6641  0.5398
  848MPD2    C112508   3.877   0.368  16.423 -0.1128 -0.4976  0.6873
  848MPD2    C212509   3.877   0.505  16.437  0.7321  0.0236 -0.4495
  848MPD2    C312510   3.870   0.589  16.325 -0.1433 -0.1098  0.3233
  848MPD2    C412511   3.887   0.537  16.200  0.6104 -0.1646 -0.0127
  848MPD2    C512512   3.897   0.397  16.190  0.3965  0.0969 -0.5397
  848MPD2     H12513   3.875   0.553  16.534  3.0571 -0.0356 -0.3941
  848MPD2    H112514   3.885   0.597  16.109 -0.4442  2.1817  1.5560
  848MPD2    H212515   3.900   0.212  16.276 -2.5060  0.1037  1.8621
  848MPD2    H312516   3.903   0.355  16.090  0.8367  0.0240 -0.4834
  848MPD2     N12517   3.851   0.735  16.339  0.1090  0.0659 -0.4750
  848MPD2    H512518   3.804   0.777  16.260  0.6648  1.0332 -0.2843
  848MPD2    N112519   3.873   0.284  16.526 -0.0348 -0.3812 -0.3033
  848MPD2    H712520   3.863   0.320  16.620 -3.4205  0.7270 -1.0802
  849MPD2     C12521   2.405   4.363  14.545 -0.4337 -0.9114  0.1028
  849MPD2    C112522   2.508   4.447  14.559  0.4685 -0.3342 -0.2364
  849MPD2    C212523   2.571   4.437  14.681 -0.6957  0.7335 -0.1241
  849MPD2    C312524   2.532   4.353  14.783  0.5462  0.1649 -0.4405
  849MPD2    C412525   2.423   4.277  14.772  0.3685 -0.2004  0.1842
  849MPD2    C512526   2.358   4.282  14.648  0.8573  0.4504  0.1812
  849MPD2     H12527   2.649   4.510  14.699  0.4807 -0.4103 -0.5715
  849MPD2    H112528   2.368   4.229  14.852 -0.5170  1.0534  0.3318
  849MPD2    H212529   2.348   4.358  14.453 -1.7966  1.6859  0.8163
  849MPD2    H312530   2.280   4.209  14.629  1.3397  0.2163 -0.9022
  849MPD2     N12531   2.595   4.352  14.906  0.3865  0.8657  0.5182
  849MPD2    H512532   2.558   4.288  14.975  1.5301 -0.7684 -0.3568
  849MPD2    N112533   2.537   4.533  14.450  0.2541 -0.4070 -0.5932
  849MPD2    H712534   2.481   4.523  14.366 -1.9710  0.4173  0.7970
  850MPD2     C12535   1.180   2.705  14.967  0.4615 -0.1258 -0.7994
  850MPD2    C112536   1.243   2.736  15.084 -0.4417  0.0773 -0.6978
  850MPD2    C212537   1.364   2.811  15.080 -0.0365  0.0906 -0.1410
  850MPD2    C312538   1.417   2.857  14.959 -0.2418  0.4393 -0.1554
  850MPD2    C412539   1.352   2.824  14.835 -0.9232 -0.0198  0.4244
  850MPD2    C512540   1.236   2.745  14.845 -0.2174 -0.0601  0.6957
  850MPD2     H12541   1.405   2.833  15.177  3.5917  0.6153 -1.8100
  850MPD2    H112542   1.401   2.850  14.741 -1.2964 -0.2840  0.1556
  850MPD2    H212543   1.096   2.636  14.967 -0.0812  0.5529  1.5648
  850MPD2    H312544   1.182   2.714  14.757  1.4099  1.4966 -0.8411
  850MPD2     N12545   1.538   2.928  14.950 -0.1836 -0.1474  0.1371
  850MPD2    H512546   1.552   2.973  14.860 -2.0209  2.0835  0.9540
  850MPD2    N112547   1.201   2.699  15.216  0.7416 -0.1748  0.2736
  850MPD2    H712548   1.263   2.719  15.294  0.4106 -0.4556  0.6133
  851MPD2     C12549   1.341   2.388  16.002 -0.1453  0.6590 -0.4499
  851MPD2    C112550   1.331   2.381  15.862 -0.3961  0.4074 -1.2177
  851MPD2    C212551   1.415   2.288  15.805 -0.0546 -0.3508 -0.1135
  851MPD2    C312552   1.497   2.197  15.877  0.2627  0.6813  0.3966
  851MPD2    C412553   1.508   2.208  16.009 -0.0706 -0.1479 -0.2066
  851MPD2    C512554   1.427   2.303  16.069 -0.1699  0.0339  0.7564
  851MPD2     H12555   1.418   2.290  15.697 -0.9393  1.4785 -0.1018
  851MPD2    H112556   1.572   2.156  16.079  0.1541 -0.1812 -0.4359
  851MPD2    H212557   1.275   2.456  16.054 -0.0275 -0.2866  0.9339
  851MPD2    H312558   1.428   2.327  16.174  0.8229 -0.2019  0.8049
  851MPD2     N12559   1.567   2.099  15.805 -0.2247 -0.6066  0.3982
  851MPD2    H512560   1.562   2.109  15.704  0.3082 -1.3013  0.3033
  851MPD2    N112561   1.243   2.470  15.790 -0.0333 -0.1546  0.4778
  851MPD2    H712562   1.191   2.534  15.848  0.9239  0.1950  0.9398
  852MPD2     C12563   0.241   0.991  10.004 -0.1711  1.1021  0.0663
  852MPD2    C112564   0.348   0.930  10.072 -0.2917  0.1004  0.1660
  852MPD2    C212565   0.471   0.975  10.053 -0.3493 -0.8433  0.2383
  852MPD2    C312566   0.499   1.076   9.970 -0.2954 -0.5991 -0.0776
  852MPD2    C412567   0.405   1.123   9.889 -0.3711  0.2274 -0.1059
  852MPD2    C512568   0.273   1.090   9.914 -0.3949  0.0928  0.5307
  852MPD2     H12569   0.544   0.939  10.124  1.4707  0.6939 -0.8532
  852MPD2    H112570   0.413   1.195   9.809 -0.4449  2.3180  1.7859
  852MPD2    H212571   0.136   0.972  10.022  0.3247 -2.0136 -0.3965
  852MPD2    H312572   0.194   1.146   9.865  0.2410 -0.1440 -0.7839
  852MPD2     N12573   0.628   1.129   9.971  0.4563  0.3382 -0.4563
  852MPD2    H512574   0.699   1.101  10.037 -0.2076 -0.2292  0.0026
  852MPD2    N112575   0.323   0.836  10.175 -0.2163 -0.1623 -0.8119
  852MPD2    H712576   0.405   0.810  10.228  0.2843  0.2707 -1.3790
  853MPD2     C12577   2.877   0.222  12.512  0.1714 -0.0255 -0.0084
  853MPD2    C112578   2.761   0.281  12.452 -0.2078  0.4069  0.0329
  853MPD2    C212579   2.770   0.342  12.330 -0.3296 -0.0142  0.5341
  853MPD2    C312580   2.893   0.362  12.268 -0.0182 -0.6396 -0.1505
  853MPD2    C412581   3.006   0.300  12.323  1.0987  0.3664  0.2759
  853MPD2    C512582   2.995   0.234  12.451 -0.1514  0.2686 -0.4106
  853MPD2     H12583   2.683   0.391  12.287 -0.6810  0.1043  1.3616
  853MPD2    H112584   3.109   0.315  12.291  1.1090 -2.1040 -0.8769
  853MPD2    H212585   2.871   0.158  12.599  2.5667  0.2291  0.3506
  853MPD2    H312586   3.088   0.194  12.492 -0.4050  0.1392  0.0413
  853MPD2     N12587   2.912   0.435  12.145  0.6228 -0.8171 -0.2112
  853MPD2    H512588   3.003   0.421  12.103  1.9938  1.1801  2.0786
  853MPD2    N112589   2.638   0.265  12.521  0.1418 -0.1841 -0.4043
  853MPD2    H712590   2.639   0.212  12.607 -1.1177  2.1795  1.0888
  854MPD2     C12591   0.177   1.089  12.542 -0.0723  0.0633  0.0109
  854MPD2    C112592   0.054   1.032  12.528 -0.1775 -0.0631 -0.6855
  854MPD2    C212593   0.041   0.896  12.545  0.4197 -0.4914 -0.4997
  854MPD2    C312594   0.146   0.821  12.591  0.4043 -0.4929  0.2694
  854MPD2    C412595   0.268   0.878  12.609 -0.1945 -0.0012 -0.3664
  854MPD2    C512596   0.288   1.013  12.572  1.0115 -0.0879  0.0184
  854MPD2     H12597   4.687   0.840  12.526  1.3850 -2.6054  1.1511
  854MPD2    H112598   0.351   0.811  12.629  0.8792  0.5646 -2.9847
  854MPD2    H212599   0.196   1.196  12.542 -1.4218  0.3018  1.6367
  854MPD2    H312600   0.388   1.055  12.573  0.0334  2.2481 -0.9046
  854MPD2     N12601   0.145   0.680  12.613 -0.0373  0.0336 -0.4468
  854MPD2    H512602   0.222   0.650  12.673 -1.1886  0.2924  1.1706
  854MPD2    N112603   4.680   1.114  12.493  0.2597  0.1396  0.0782
  854MPD2    H712604   4.705   1.207  12.461  1.1753 -0.6918 -1.6416
  855MPD2     C12605   0.228   0.335  13.390 -0.5275  0.3691 -0.2949
  855MPD2    C112606   0.225   0.223  13.310 -0.4640 -0.4102 -0.1081
  855MPD2    C212607   0.223   0.244  13.173  0.6047 -0.7427 -0.1709
  855MPD2    C312608   0.209   0.369  13.118 -0.7320  0.3458 -0.8314
  855MPD2    C412609   0.208   0.478  13.196 -0.1394  0.0399 -0.2458
  855MPD2    C512610   0.223   0.456  13.328  0.6172  0.0494  0.7462
  855MPD2     H12611   0.242   0.163  13.102  1.2831 -0.3755 -0.4053
  855MPD2    H112612   0.191   0.577  13.157 -0.2686 -0.5774 -1.7512
  855MPD2    H212613   0.231   0.335  13.498  0.2415  2.3240 -0.3125
  855MPD2    H312614   0.208   0.550  13.379  0.8381  0.8152 -0.6001
  855MPD2     N12615   0.192   0.389  12.979 -0.5828  0.7122  0.0258
  855MPD2    H512616   0.199   0.487  12.954 -1.2061  0.8840  0.5181
  855MPD2    N112617   0.227   0.091  13.358 -0.1210 -0.4286  0.2565
  855MPD2    H712618   0.228   0.011  13.296  1.0628  0.5191 -0.9556
  856MPD2     C12619   1.520   1.225  14.068 -1.0269  0.0574 -0.2604
  856MPD2    C112620   1.538   1.361  14.075 -0.2883 -0.0857 -0.2548
  856MPD2    C212621   1.427   1.440  14.101  0.3491  0.2591  0.3406
  856MPD2    C312622   1.305   1.391  14.138  0.1549  0.0714  0.2674
  856MPD2    C412623   1.287   1.255  14.133  0.1231 -0.5460 -0.2835
  856MPD2    C512624   1.394   1.176  14.097  0.1604 -0.0439 -0.0573
  856MPD2     H12625   1.433   1.548  14.088 -0.5602  0.1810 -0.7237
  856MPD2    H112626   1.188   1.214  14.151 -0.5289  1.1043 -0.0826
  856MPD2    H212627   1.599   1.151  14.065 -0.7355  0.3392  0.5829
  856MPD2    H312628   1.377   1.069  14.090 -1.0863  0.1299  0.4109
  856MPD2     N12629   1.192   1.461  14.176 -0.4342  0.7440  0.3040
  856MPD2    H512630   1.117   1.395  14.193  0.0736  0.3326  0.9230
  856MPD2    N112631   1.665   1.406  14.050 -0.1585 -0.5435  0.0190
  856MPD2    H712632   1.729   1.331  14.025  2.0201  1.7037 -1.0846
  857MPD2     C12633   3.179   3.788  12.128  0.1157  0.2008  0.1304
  857MPD2    C112634   3.273   3.704  12.195  0.1895 -0.0440 -0.5277
  857MPD2    C212635   3.395   3.769  12.231 -0.3546 -0.4506 -0.1283
  857MPD2    C312636   3.428   3.894  12.203  0.0222  0.8618 -0.1471
  857MPD2    C412637   3.333   3.975  12.142 -0.7120 -0.0420 -0.0993
  857MPD2    C512638   3.211   3.918  12.100  0.9585 -0.8651 -0.7323
  857MPD2     H12639   3.466   3.718  12.295  1.0737  0.7574 -0.7543
  857MPD2    H112640   3.348   4.075  12.104  1.2604 -0.2951  0.0310
  857MPD2    H212641   3.082   3.763  12.088  0.4123  1.0879 -1.1196
  857MPD2    H312642   3.138   3.978  12.047 -1.2345 -0.7630  2.4369
  857MPD2     N12643   3.559   3.933  12.241 -1.0824  0.4225  0.0442
  857MPD2    H512644   3.621   3.872  12.292 -0.5802  2.1019  1.4287
  857MPD2    N112645   3.259   3.562  12.189  0.0352  0.4556 -0.5187
  857MPD2    H712646   3.163   3.536  12.169  0.8958 -0.6709 -3.1963
  858MPD2     C12647   4.311   2.380  16.331  0.0488  0.0428  0.1703
  858MPD2    C112648   4.444   2.356  16.337 -0.9663  0.8766 -0.4476
  858MPD2    C212649   4.534   2.428  16.423 -0.2388  0.7614 -0.1347
  858MPD2    C312650   4.488   2.517  16.518 -0.5444  0.0264  0.1597
  858MPD2    C412651   4.351   2.537  16.511 -0.9726  0.2970  0.2181
  858MPD2    C512652   4.267   2.471  16.419  0.1460  0.0106 -0.2560
  858MPD2     H12653   4.640   2.405  16.423 -0.0987  1.3840 -0.4871
  858MPD2    H112654   4.325   2.609  16.587 -1.1610  0.8086 -0.3280
  858MPD2    H212655   4.240   2.323  16.273 -0.7133 -1.4362  2.5762
  858MPD2    H312656   4.159   2.486  16.418  0.3065  1.1936  0.4096
  858MPD2     N12657   4.569   2.574  16.619  0.3266 -0.3145 -0.1310
  858MPD2    H512658   4.533   2.642  16.686  0.3497 -1.8249  1.4039
  858MPD2    N112659   4.488   2.250  16.257 -0.0699 -0.3378  0.3627
  858MPD2    H712660   4.419   2.190  16.214 -0.5660  0.6388 -0.2146
  859MPD2     C12661   2.687   4.023  16.011 -0.1634 -0.7784  0.4631
  859MPD2    C112662   2.810   4.062  15.960 -0.2510  0.4608 -0.7003
  859MPD2    C212663   2.920   3.987  16.003  0.2338  0.9860  0.1852
  859MPD2    C312664   2.909   3.874  16.079  0.1330  0.3140  0.2838
  859MPD2    C412665   2.788   3.847  16.132 -0.5098  0.4345  0.7940
  859MPD2    C512666   2.677   3.920  16.098 -0.1770  0.7186  0.3921
  859MPD2     H12667   3.014   4.010  15.954 -0.3200  1.3279 -0.7215
  859MPD2    H112668   2.776   3.764  16.201  0.0294  0.8507  1.3992
  859MPD2    H212669   2.597   4.081  15.992 -0.5782 -1.2528  1.0166
  859MPD2    H312670   2.583   3.878  16.129 -0.3406  1.9118  1.5293
  859MPD2     N12671   3.016   3.790  16.111  0.0040  0.4584  0.3029
  859MPD2    H512672   2.993   3.715  16.176 -1.9313  0.0566 -0.8590
  859MPD2    N112673   2.822   4.177  15.883 -0.0220 -0.5510  0.4495
  859MPD2    H712674   2.728   4.203  15.854 -0.3468 -0.1391  1.8566
  860MPD2     C12675   0.949   0.305  11.404 -0.8231  0.2370  0.0189
  860MPD2    C112676   0.893   0.403  11.485  0.8560  0.3416  0.1878
  860MPD2    C212677   0.757   0.414  11.490 -0.0272  0.0578  0.0974
  860MPD2    C312678   0.670   0.340  11.411  0.2345 -0.0315  0.3308
  860MPD2    C412679   0.725   0.256  11.326 -0.1246 -0.0873 -0.0505
  860MPD2    C512680   0.863   0.245  11.320  0.2290  0.2854 -0.3576
  860MPD2     H12681   0.707   0.478  11.563 -0.4571 -0.2565  0.0789
  860MPD2    H112682   0.668   0.196  11.256 -1.4463  2.5200 -1.1785
  860MPD2    H212683   1.055   0.288  11.392 -0.6253  1.5212 -0.0772
  860MPD2    H312684   0.917   0.169  11.264  0.1107  1.1089 -1.6047
  860MPD2     N12685   0.532   0.355  11.448 -0.3539 -0.1841  0.8536
  860MPD2    H512686   0.518   0.407  11.534 -0.2756  0.4635  0.4732
  860MPD2    N112687   0.975   0.465  11.578  0.2956 -0.0337  0.0961
  860MPD2    H712688   0.922   0.506  11.654  1.2040 -1.1787  1.3229
  861MPD2     C12689   4.456   3.178  11.138 -0.3363 -0.8368 -0.5260
  861MPD2    C112690   4.359   3.249  11.210  0.0573 -0.3627 -0.1833
  861MPD2    C212691   4.269   3.335  11.144 -0.0243 -0.1077  0.0850
  861MPD2    C312692   4.277   3.362  11.010  0.0391  0.3113 -0.1818
  861MPD2    C412693   4.376   3.294  10.941  0.2218  0.0592  0.1696
  861MPD2    C512694   4.464   3.204  11.001 -0.2586 -0.7396 -0.5508
  861MPD2     H12695   4.204   3.395  11.207 -0.0081  1.2538 -1.2018
  861MPD2    H112696   4.384   3.294  10.833 -0.9496 -3.5566  0.0809
  861MPD2    H212697   4.528   3.110  11.181 -0.3261 -0.2580  0.3630
  861MPD2    H312698   4.539   3.151  10.943  1.3010  0.1354  0.6820
  861MPD2     N12699   4.213   3.460  10.938  0.2024 -0.8066 -0.1060
  861MPD2    H512700   4.237   3.469  10.840  1.1063  0.8332  0.2594
  861MPD2    N112701   4.349   3.240  11.352  0.4084  0.0114 -0.5913
  861MPD2    H712702   4.277   3.290  11.403 -1.1037 -0.8563 -1.8666
  862MPD2     C12703   3.913   3.699  10.344 -0.0577  0.0668  0.1832
  862MPD2    C112704   4.006   3.684  10.444  0.0827 -0.4676 -0.3834
  862MPD2    C212705   4.023   3.564  10.511  0.3003  0.5101 -0.3391
  862MPD2    C312706   3.933   3.455  10.494  0.5194 -0.7609  0.0582
  862MPD2    C412707   3.838   3.476  10.399 -0.3891 -0.2045 -0.2147
  862MPD2    C512708   3.829   3.591  10.324  0.0716 -0.7860 -0.1741
  862MPD2     H12709   4.120   3.549  10.557  1.0522  0.1788 -2.0215
  862MPD2    H112710   3.761   3.399  10.395 -1.4584  0.8722 -0.3373
  862MPD2    H212711   3.911   3.790  10.286  0.4474 -1.1026 -1.6863
  862MPD2    H312712   3.748   3.594  10.252  0.2905 -0.7331 -0.4163
  862MPD2     N12713   3.931   3.342  10.574 -0.5377  0.3019  0.0035
  862MPD2    H512714   3.845   3.291  10.559  0.7219 -2.2989  1.7363
  862MPD2    N112715   4.097   3.786  10.458 -0.4208 -0.0363 -0.6486
  862MPD2    H712716   4.101   3.844  10.375  2.8305 -2.4710 -2.2012
  863MPD2     C12717   2.816   0.899  16.775  0.3024 -0.0699 -0.2732
  863MPD2    C112718   2.830   1.031  16.802 -0.8502 -0.0606 -0.8792
  863MPD2    C212719   2.930   1.078  16.886 -0.3549 -0.1481  0.0475
  863MPD2    C312720   3.004   0.990  16.961 -0.1286 -0.5213  0.5919
  863MPD2    C412721   2.980   0.857  16.946  0.6152 -0.3191  0.3660
  863MPD2    C512722   2.885   0.813  16.848  0.4870 -0.0401 -0.0715
  863MPD2     H12723   2.942   1.181  16.919 -1.8471  0.0047  0.1056
  863MPD2    H112724   3.031   0.780  17.003  2.3123  1.0639  0.7191
  863MPD2    H212725   2.754   0.863  16.694 -0.8463  0.1039  0.5399
  863MPD2    H312726   2.867   0.707  16.837 -1.5260  0.2654  0.2681
  863MPD2     N12727   3.111   1.022  17.042  0.0075 -0.2387 -0.2552
  863MPD2    H512728   3.158   0.944  17.086  0.5414  0.4651  0.4215
  863MPD2    N112729   2.748   1.116  16.727 -0.1749 -0.3210  0.3074
  863MPD2    H712730   2.684   1.074  16.661  1.1383  1.3642 -2.0159
  864MPD2     C12731   3.364   2.273  17.342 -0.1945 -0.2426 -0.5067
  864MPD2    C112732   3.408   2.204  17.230 -0.1064 -0.2087 -0.1105
  864MPD2    C212733   3.497   2.268  17.152 -0.1859 -0.4298 -0.5709
  864MPD2    C312734   3.536   2.399  17.173  0.6526  0.1543 -0.7675
  864MPD2    C412735   3.505   2.466  17.284  0.6094 -0.1597  0.4515
  864MPD2    C512736   3.422   2.398  17.375  0.2604 -0.4086 -0.0283
  864MPD2     H12737   3.529   2.218  17.062 -1.6831  1.1463 -1.9666
  864MPD2    H112738   3.545   2.566  17.291  0.2843 -0.1705  2.4869
  864MPD2    H212739   3.294   2.231  17.413  2.7159 -0.4648  2.2034
  864MPD2    H312740   3.400   2.454  17.465  0.3948  1.5069 -1.1748
  864MPD2     N12741   3.615   2.471  17.074 -0.1704  0.1681 -0.1804
  864MPD2    H512742   3.634   2.567  17.100 -1.7945  0.2329  0.7992
  864MPD2    N112743   3.358   2.081  17.188 -0.2156 -0.6489 -0.0903
  864MPD2    H712744   3.400   2.038  17.107  1.9713  1.8525 -0.2522
  865MPD2     C12745   3.473   2.930  16.358  0.1888  0.8198 -0.1916
  865MPD2    C112746   3.489   2.821  16.443  0.4818 -1.3536  0.7020
  865MPD2    C212747   3.548   2.845  16.563  0.3141  0.1557 -0.0344
  865MPD2    C312748   3.565   2.968  16.613 -0.0615  0.5641  0.6055
  865MPD2    C412749   3.540   3.076  16.524  0.3635 -0.3561 -0.8335
  865MPD2    C512750   3.491   3.057  16.397  0.0706  0.0180  0.2091
  865MPD2     H12751   3.583   2.756  16.613 -0.5091 -0.7376 -1.0486
  865MPD2    H112752   3.574   3.173  16.558 -0.7862 -0.0302 -0.6319
  865MPD2    H212753   3.454   2.920  16.252 -0.7472 -1.4704  0.2007
  865MPD2    H312754   3.476   3.132  16.320  1.3902  0.5892  0.5203
  865MPD2     N12755   3.622   3.000  16.741  1.0962 -0.5860 -0.2957
  865MPD2    H512756   3.629   3.100  16.756 -0.3535 -0.5819  0.3519
  865MPD2    N112757   3.495   2.693  16.382 -0.0216  0.4569  0.3910
  865MPD2    H712758   3.489   2.685  16.281 -0.1636 -2.7739  0.6508
  866MPD2     C12759   0.272   3.608  11.623 -0.1810  0.1214 -0.2836
  866MPD2    C112760   0.270   3.583  11.489  0.2710  0.1032  0.3999
  866MPD2    C212761   0.153   3.625  11.425 -0.0710  0.3954 -0.5078
  866MPD2    C312762   0.042   3.677  11.485  0.1326 -0.1477  0.2707
  866MPD2    C412763   0.040   3.686  11.620 -0.2929 -0.7668 -0.5493
  866MPD2    C512764   0.160   3.658  11.689  0.1922  0.2465 -0.5492
  866MPD2     H12765   0.151   3.608  11.318 -1.0818 -1.2675 -0.2206
  866MPD2    H112766   4.692   3.716  11.680  0.2343 -2.0898  0.8716
  866MPD2    H212767   0.352   3.569  11.686 -1.2124  1.3271  1.7604
  866MPD2    H312768   0.160   3.659  11.798 -0.3602 -0.0029 -0.5441
  866MPD2     N12769   4.663   3.703  11.412 -0.4289 -0.0919 -0.3793
  866MPD2    H512770   4.580   3.722  11.466 -0.0888 -0.0524  0.1307
  866MPD2    N112771   0.371   3.515  11.430  0.4731 -0.5195 -0.0713
  866MPD2    H712772   0.463   3.526  11.473 -0.2794  0.3410  1.3074
  867MPD2     C12773   1.843   2.527  16.814 -0.1584  0.2992 -0.1777
  867MPD2    C112774   1.918   2.448  16.898  0.4887 -0.2250 -0.1463
  867MPD2    C212775   2.012   2.507  16.972 -0.0756  0.1169  0.4856
  867MPD2    C312776   2.058   2.636  16.955 -0.5203  0.1357 -0.3585
  867MPD2    C412777   1.986   2.718  16.875  0.0122  0.6294 -0.6430
  867MPD2    C512778   1.878   2.656  16.806 -0.4674 -0.2564  0.4270
  867MPD2     H12779   2.071   2.444  17.039  1.6295 -0.1732 -1.2867
  867MPD2    H112780   1.996   2.825  16.873  0.6947  0.5704 -0.4575
  867MPD2    H212781   1.756   2.495  16.757 -1.0401  1.0270  0.7600
  867MPD2    H312782   1.807   2.718  16.752 -2.4502 -2.2114  0.8017
  867MPD2     N12783   2.176   2.696  17.013  0.3707  0.4206 -0.3484
  867MPD2    H512784   2.227   2.763  16.956 -1.9241  0.2768 -2.5862
  867MPD2    N112785   1.898   2.313  16.888  0.3949  1.0036  0.4231
  867MPD2    H712786   1.833   2.282  16.817  0.4270 -1.1194  1.3290
  868MPD2     C12787   3.694   1.735  13.346 -0.0153  0.3783 -0.9318
  868MPD2    C112788   3.722   1.604  13.327  0.1021 -0.6373  0.1420
  868MPD2    C212789   3.618   1.509  13.346  0.0344 -0.0851 -0.1526
  868MPD2    C312790   3.499   1.546  13.385  0.6921  0.2389 -0.6752
  868MPD2    C412791   3.475   1.680  13.413 -0.4395  0.2118 -0.9032
  868MPD2    C512792   3.576   1.772  13.400  0.4089 -0.2673 -0.5023
  868MPD2     H12793   3.634   1.402  13.337  1.5422  0.1490 -0.2422
  868MPD2    H112794   3.379   1.713  13.451  0.6849  1.2797  1.0231
  868MPD2    H212795   3.773   1.809  13.355 -0.7928  0.6641  3.4801
  868MPD2    H312796   3.572   1.872  13.441 -1.1553  0.3845 -2.2040
  868MPD2     N12797   3.401   1.442  13.405  0.3851 -0.0716 -0.0374
  868MPD2    H512798   3.425   1.344  13.394  4.2156  0.5483  2.8022
  868MPD2    N112799   3.855   1.568  13.294 -0.3718  0.9931 -0.0519
  868MPD2    H712800   3.917   1.645  13.273 -0.3746  0.1094 -3.3084
  869MPD2     C12801   4.409   4.159   1.066  0.7018  0.3192  0.3438
  869MPD2    C112802   4.432   4.284   1.121  0.0150 -0.3194 -0.3678
  869MPD2    C212803   4.520   4.369   1.062 -0.2354  0.3180  1.1072
  869MPD2    C312804   4.611   4.318   0.970  0.3835 -0.2772  0.0676
  869MPD2    C412805   4.598   4.190   0.922 -0.6273 -0.1377 -0.2996
  869MPD2    C512806   4.494   4.113   0.971  0.0820  0.1256  0.2927
  869MPD2     H12807   4.524   4.474   1.090 -0.5047  0.5762  0.1735
  869MPD2    H112808   4.667   4.149   0.850 -3.2317 -0.5098 -2.5494
  869MPD2    H212809   4.339   4.092   1.114  1.7540 -0.4017  0.8707
  869MPD2    H312810   4.481   4.011   0.937 -1.3527  1.0643 -1.9566
  869MPD2     N12811   4.723   4.384   0.909 -0.1852  0.0691 -0.1533
  869MPD2    H512812   0.040   4.330   0.843  2.4442  3.0278 -0.4280
  869MPD2    N112813   4.345   4.325   1.217 -0.6608  0.3583  0.1788
  869MPD2    H712814   4.277   4.252   1.232  0.2844 -0.1340  2.0091
  870MPD2     C12815   0.340   3.612   1.725  0.4309 -0.6722 -0.3388
  870MPD2    C112816   0.279   3.490   1.728  0.0176  0.0124  0.2018
  870MPD2    C212817   0.140   3.485   1.716 -0.7960 -0.1250 -0.7707
  870MPD2    C312818   0.063   3.592   1.689  0.6503  0.3652  0.3324
  870MPD2    C412819   0.125   3.712   1.671  0.7225  0.1027 -0.3393
  870MPD2    C512820   0.255   3.719   1.703  0.1238 -0.0842 -0.5279
  870MPD2     H12821   0.084   3.392   1.715 -1.3529  0.2053 -0.2486
  870MPD2    H112822   0.072   3.806   1.664  2.0201  0.8633 -0.0946
  870MPD2    H212823   0.449   3.617   1.728  0.3916 -1.0153  1.5904
  870MPD2    H312824   0.297   3.819   1.699  0.9720 -0.5703 -3.4291
  870MPD2     N12825   4.659   3.576   1.675  0.0991 -0.2333 -0.2688
  870MPD2    H512826   4.634   3.477   1.680  1.4234 -0.5383  0.4186
  870MPD2    N112827   0.358   3.373   1.726  0.1983 -0.0943  0.1693
  870MPD2    H712828   0.457   3.394   1.737  0.5727 -0.4207 -2.6309
  871MPD2     C12829   1.085   2.781  16.332  0.3757 -0.6186 -0.4011
  871MPD2    C112830   1.155   2.739  16.442 -0.4001 -0.5739 -0.2631
  871MPD2    C212831   1.203   2.610  16.437  0.4196  0.0379 -0.1578
  871MPD2    C312832   1.176   2.517  16.338 -0.2154 -0.5172  0.3706
  871MPD2    C412833   1.097   2.560  16.229 -0.0185  0.4738  0.2433
  871MPD2    C512834   1.058   2.690  16.234 -0.5458  0.2597 -0.4215
  871MPD2     H12835   1.265   2.574  16.518  0.5272 -0.4592 -0.4616
  871MPD2    H112836   1.065   2.504  16.142 -0.0673  0.6882  0.1241
  871MPD2    H212837   1.035   2.876  16.316  5.1328  2.3876  2.6728
  871MPD2    H312838   0.991   2.730  16.159 -0.7299 -0.5259 -0.6772
  871MPD2     N12839   1.213   2.374  16.366 -0.1673  0.2083 -0.4664
  871MPD2    H512840   1.273   2.357  16.446 -1.6627 -2.6169  0.0587
  871MPD2    N112841   1.159   2.824  16.556 -0.3528  0.3642 -0.3140
  871MPD2    H712842   1.133   2.922  16.552  0.7282  0.5564 -2.5091
  872MPD2     C12843   1.984   0.027  13.773 -0.6038  0.2127  0.2641
  872MPD2    C112844   1.983   0.164  13.766  1.0601 -0.8485 -0.6927
  872MPD2    C212845   1.881   0.227  13.832 -0.6103 -0.4513  0.6050
  872MPD2    C312846   1.776   0.154  13.891  0.2148 -0.4204 -0.2315
  872MPD2    C412847   1.772   0.018  13.885 -0.2559  0.4715 -0.1901
  872MPD2    C512848   1.880   4.689  13.832  0.5030 -0.8305 -0.0884
  872MPD2     H12849   1.864   0.334  13.837 -0.2962 -0.3038 -1.2572
  872MPD2    H112850   1.693   4.696  13.929  1.0369 -0.3878  0.9282
  872MPD2    H212851   2.063   4.705  13.728 -1.7741 -0.5446 -0.8142
  872MPD2    H312852   1.883   4.581  13.831 -1.3110 -0.9170  1.7065
  872MPD2     N12853   1.675   0.220  13.965 -0.3655 -0.2650  0.2640
  872MPD2    H512854   1.593   0.170  13.997  0.5185 -1.6634  0.3464
  872MPD2    N112855   2.079   0.238  13.701 -0.1526  0.5628  0.1064
  872MPD2    H712856   2.074   0.338  13.713 -0.1827  0.2855  2.5098
  873MPD2     C12857   4.335   0.156   1.023  0.0480 -1.0743  0.1282
  873MPD2    C112858   4.203   0.174   1.064 -1.4788  0.4857 -0.3059
  873MPD2    C212859   4.114   0.074   1.075  0.1839 -0.0913 -0.0326
  873MPD2    C312860   4.153   4.684   1.037 -0.1180 -0.3476 -0.7077
  873MPD2    C412861   4.285   4.666   1.001 -0.3902 -0.3936 -0.3212
  873MPD2    C512862   4.379   0.027   1.018  0.2336 -0.7494  0.6317
  873MPD2     H12863   4.013   0.110   1.096  0.2372  0.6077 -0.9410
  873MPD2    H112864   4.330   4.567   1.004  2.9519  1.1398  0.5923
  873MPD2    H212865   4.405   0.238   1.012 -0.9839 -0.5853 -2.8160
  873MPD2    H312866   4.484   0.000   1.016  0.1578 -0.9183 -0.7444
  873MPD2     N12867   4.064   4.581   1.023  0.4355 -0.3133 -0.0216
  873MPD2    H512868   4.090   4.490   0.986  1.3003 -0.1298  0.1469
  873MPD2    N112869   4.172   0.318   1.084 -0.4982  0.3989 -0.6842
  873MPD2    H712870   4.247   0.387   1.081 -0.0995 -0.0622 -1.6046
  874MPD2     C12871   3.128   0.880  16.097 -0.0802  0.1474  0.0893
  874MPD2    C112872   3.194   0.782  16.171  0.8258 -0.4214  0.1519
  874MPD2    C212873   3.302   0.820  16.247 -0.4316  0.2163  0.0936
  874MPD2    C312874   3.344   0.956  16.245  1.1744  0.4068  0.2053
  874MPD2    C412875   3.283   1.046  16.164 -0.1241  0.0885 -0.1602
  874MPD2    C512876   3.169   1.009  16.098  0.0086  0.1374  0.2939
  874MPD2     H12877   3.351   0.754  16.318  0.3729  0.2093 -0.4711
  874MPD2    H112878   3.319   1.146  16.141  1.0111  0.0373  1.4269
  874MPD2    H212879   3.047   0.848  16.032 -1.0877  0.0601  1.3857
  874MPD2    H312880   3.112   1.086  16.048  0.3563 -0.6451 -1.3017
  874MPD2     N12881   3.459   0.984  16.328 -0.4422  0.2856 -0.4624
  874MPD2    H512882   3.500   0.906  16.378 -1.3353 -1.1964 -2.0366
  874MPD2    N112883   3.132   0.651  16.174 -0.1249 -0.7888 -0.0633
  874MPD2    H712884   3.052   0.638  16.113  0.1842  1.8689 -0.9972
  875MPD2     C12885   3.777   3.213  14.532  0.1692 -0.3872 -0.1063
  875MPD2    C112886   3.811   3.328  14.470 -0.1265  0.6297 -0.5303
  875MPD2    C212887   3.879   3.426  14.542 -0.3807 -0.0072  0.5616
  875MPD2    C312888   3.896   3.417  14.677 -0.2482  0.0121  0.0584
  875MPD2    C412889   3.855   3.303  14.739  0.2594  0.5974 -0.0740
  875MPD2    C512890   3.804   3.201  14.661  0.2766 -0.9162 -0.4321
  875MPD2     H12891   3.906   3.515  14.487 -2.7424  0.2369 -0.2144
  875MPD2    H112892   3.837   3.308  14.846 -2.1718  0.4027 -0.4689
  875MPD2    H212893   3.716   3.133  14.491 -1.0775  0.3267  0.3814
  875MPD2    H312894   3.764   3.112  14.708  0.8986 -0.5107  0.8586
  875MPD2     N12895   3.946   3.520  14.761 -0.5283 -0.2606  0.5084
  875MPD2    H512896   3.950   3.495  14.859  1.9212 -0.1955  0.4417
  875MPD2    N112897   3.782   3.346  14.327 -0.8565  0.6301  0.2713
  875MPD2    H712898   3.816   3.435  14.292 -0.5652  0.2203 -0.4732
  876MPD2     C12899   2.897   4.721  16.288 -0.1300 -0.2874  0.3605
  876MPD2    C112900   3.021   4.715  16.226  0.7658 -0.3629 -0.0003
  876MPD2    C212901   3.114   4.631  16.286 -0.2889  0.0771  0.1929
  876MPD2    C312902   3.079   4.542  16.384  0.9366  0.0286 -0.1349
  876MPD2    C412903   2.949   4.537  16.429 -0.0444 -0.7759 -0.1491
  876MPD2    C512904   2.861   4.634  16.386 -0.0603  0.6628  0.2487
  876MPD2     H12905   3.214   4.620  16.246 -0.9183 -0.2318 -1.2649
  876MPD2    H112906   2.914   4.462  16.499  0.4309  0.3017  1.2442
  876MPD2    H212907   2.822   0.054  16.256  3.4364  2.9982 -0.7407
  876MPD2    H312908   2.768   4.645  16.440  1.2640  0.2200  2.6595
  876MPD2     N12909   3.177   4.457  16.430  0.2912  0.0169 -1.3532
  876MPD2    H512910   3.270   4.453  16.389  1.5057 -2.2549  1.5915
  876MPD2    N112911   3.054   0.072  16.123  0.1158 -0.0456 -0.1570
  876MPD2    H712912   2.980   0.103  16.062  0.2065 -0.2967 -0.3934
  877MPD2     C12913   2.928   0.384  15.394  0.4671 -0.7832 -0.7475
  877MPD2    C112914   3.054   0.346  15.417  0.8054 -0.5648  0.5189
  877MPD2    C212915   3.152   0.361  15.323  0.4515  0.6129 -0.1340
  877MPD2    C312916   3.119   0.425  15.212  0.9929 -0.0300 -0.2547
  877MPD2    C412917   2.989   0.471  15.190 -0.3336  0.7390  0.3868
  877MPD2    C512918   2.892   0.438  15.280  0.0701 -0.4633 -0.2633
  877MPD2     H12919   3.252   0.320  15.332  0.2771 -0.1695 -1.9194
  877MPD2    H112920   2.950   0.517  15.100 -2.1343 -1.0363  0.2658
  877MPD2    H212921   2.852   0.378  15.471  1.9099 -0.8897  0.6770
  877MPD2    H312922   2.787   0.461  15.270 -0.1900 -0.5441  2.3748
  877MPD2     N12923   3.205   0.442  15.108 -0.6708  0.2360 -0.4265
  877MPD2    H512924   3.170   0.478  15.020  0.8083  0.5124 -0.9092
  877MPD2    N112925   3.104   0.309  15.542 -0.0833  0.3918 -0.3357
  877MPD2    H712926   3.206   0.303  15.547  0.0318  2.1722 -0.6012
  878MPD2     C12927   2.750   4.652  13.459  0.5571 -0.3459  0.8700
  878MPD2    C112928   2.862   4.600  13.522  0.1359  0.0281  0.4232
  878MPD2    C212929   2.848   4.574  13.656  0.1776  0.5760 -0.3312
  878MPD2    C312930   2.731   4.582  13.721 -0.4082 -0.0201  0.3527
  878MPD2    C412931   2.614   4.622  13.659  0.4092 -0.1112 -0.2638
  878MPD2    C512932   2.633   4.660  13.527  0.4035 -0.1972  0.0728
  878MPD2     H12933   2.926   4.513  13.702 -0.2308 -0.2602 -0.7366
  878MPD2    H112934   2.526   4.642  13.719 -0.7142 -1.6544 -1.3871
  878MPD2    H212935   2.759   4.687  13.356  3.5827  0.4944  1.4317
  878MPD2    H312936   2.546   4.700  13.476  0.8850  0.9149  0.1286
  878MPD2     N12937   2.733   4.542  13.859 -0.1311  0.1361 -0.0705
  878MPD2    H512938   2.825   4.526  13.898  0.5178  1.2582 -1.1839
  878MPD2    N112939   2.975   4.581  13.440  0.1498 -0.0212 -0.1420
  878MPD2    H712940   2.966   4.621  13.347 -0.0656 -1.8068 -0.8874
  879MPD2     C12941   3.535   1.307  16.870  0.0137 -0.4336  0.1627
  879MPD2    C112942   3.577   1.184  16.894  0.0239  0.8743  0.4984
  879MPD2    C212943   3.509   1.084  16.833 -0.3244  0.3344 -0.3832
  879MPD2    C312944   3.407   1.106  16.745 -0.2636  0.0271  0.5691
  879MPD2    C412945   3.372   1.235  16.713 -0.0537 -0.7255  0.4491
  879MPD2    C512946   3.429   1.334  16.783 -0.0926  0.2884 -0.4853
  879MPD2     H12947   3.518   0.984  16.874  0.4229  0.0771 -1.1790
  879MPD2    H112948   3.291   1.264  16.647  0.1622 -0.8410  0.1351
  879MPD2    H212949   3.592   1.392  16.907  1.3922 -0.9601 -0.7517
  879MPD2    H312950   3.398   1.437  16.764  1.0968  0.6834 -0.2565
  879MPD2     N12951   3.322   1.008  16.690  0.5785 -0.0656  0.0962
  879MPD2    H512952   3.245   1.048  16.638 -1.7031 -2.7235  1.4593
  879MPD2    N112953   3.671   1.163  16.989 -0.4717  0.1899  0.6003
  879MPD2    H712954   3.698   1.248  17.038  0.0907 -0.0833  0.7578
  880MPD2     C12955   0.210   2.618   0.360  0.0622  0.0933 -0.2768
  880MPD2    C112956   0.130   2.621   0.471  0.1772 -0.0090 -0.3434
  880MPD2    C212957   0.077   2.500   0.518  0.5924 -0.2246 -0.2691
  880MPD2    C312958   0.130   2.378   0.482 -0.3163 -0.0205 -0.1257
  880MPD2    C412959   0.226   2.379   0.384 -0.3059  0.7258  0.6443
  880MPD2    C512960   0.259   2.497   0.323  0.7549  0.3775 -0.2584
  880MPD2     H12961   4.724   2.503   0.577  1.9011  2.6097  1.5898
  880MPD2    H112962   0.270   2.290   0.340  0.7951  0.3363  2.5307
  880MPD2    H212963   0.237   2.700   0.295 -2.5643 -0.1791 -1.7169
  880MPD2    H312964   0.339   2.493   0.250  1.9041  1.5302  0.9103
  880MPD2     N12965   0.068   2.266   0.535  0.0781  0.7796  0.2582
  880MPD2    H512966   4.735   2.281   0.607  0.8148  0.5624  1.0310
  880MPD2    N112967   0.086   2.749   0.510  0.1864  0.0490  0.4454
  880MPD2    H712968   0.130   2.826   0.461  0.1513  1.0992  2.0775
  881MPD2     C12969   0.068   3.659   0.182 -0.2352 -0.2155 -0.5672
  881MPD2    C112970   0.061   3.528   0.137  0.1173 -0.3454 -0.4461
  881MPD2    C212971   0.056   3.426   0.230 -0.4760  0.4719  0.0932
  881MPD2    C312972   0.032   3.451   0.372  0.5655  0.0104 -0.1336
  881MPD2    C412973   0.027   3.586   0.404 -0.3640  0.5546 -0.6855
  881MPD2    C512974   0.046   3.684   0.316 -0.0105  0.5186 -0.5463
  881MPD2     H12975   0.086   3.328   0.194 -0.1302  0.1894  1.1340
  881MPD2    H112976   0.008   3.624   0.503  0.6277 -0.6977 -0.0153
  881MPD2    H212977   0.073   3.742   0.112 -0.9977  0.2922 -0.0221
  881MPD2    H312978   0.043   3.787   0.351 -2.3909  0.8398 -1.6962
  881MPD2     N12979   0.022   3.352   0.472  0.4414  0.0773  0.0777
  881MPD2    H512980   0.017   3.387   0.567  0.3781 -0.4408  0.2671
  881MPD2    N112981   0.117   3.504   0.003  0.1686 -0.4138 -0.0922
  881MPD2    H712982   0.137   3.584  17.692  0.7704 -0.6085 -0.1543
  882MPD2     C12983   3.178   0.221  14.403 -0.0796  0.1358  0.3589
  882MPD2    C112984   3.190   0.289  14.520  0.3362 -0.8075 -0.2250
  882MPD2    C212985   3.109   0.249  14.630  0.3424  0.1996 -0.3161
  882MPD2    C312986   3.020   0.148  14.611 -0.4931 -0.2113 -0.3269
  882MPD2    C412987   3.011   0.080  14.491 -0.9585  0.0211 -0.5490
  882MPD2    C512988   3.086   0.119  14.386  0.0901  0.2421 -0.6317
  882MPD2     H12989   3.122   0.302  14.724  0.0657 -0.5140  0.1197
  882MPD2    H112990   2.955   4.726  14.479 -1.3447 -0.1921  2.9845
  882MPD2    H212991   3.245   0.251  14.323  0.0814 -0.9267  0.1031
  882MPD2    H312992   3.079   0.077  14.287  2.1695  0.2163 -0.7714
  882MPD2     N12993   2.923   0.113  14.707 -0.3223  0.1219  0.2076
  882MPD2    H512994   2.847   0.062  14.663  0.5086  1.3093 -2.5684
  882MPD2    N112995   3.273   0.408  14.525 -0.4578  0.0985  0.6024
  882MPD2    H712996   3.304   0.442  14.434 -2.1260  0.6460  0.2363
  883MPD2     C12997   0.401   0.375  16.263  0.5546  0.3544  0.3742
  883MPD2    C112998   0.409   0.474  16.162 -0.1269  0.0060 -0.2766
  883MPD2    C212999   0.492   0.583  16.171  0.5026  0.0827  0.0205
  883MPD2    C313000   0.576   0.598  16.277  0.8507  0.2325 -0.2716
  883MPD2    C413001   0.570   0.505  16.379  0.0792 -0.5049  0.4951
  883MPD2    C513002   0.491   0.396  16.371  0.5106 -0.4313 -0.1933
  883MPD2     H13003   0.475   0.669  16.108 -1.3692 -0.7394 -0.5925
  883MPD2    H113004   0.615   0.531  16.474  1.7161  1.0636 -0.7108
  883MPD2    H213005   0.332   0.292  16.260 -0.8641  1.5684 -0.2142
  883MPD2    H313006   0.472   0.341  16.462  0.0279 -2.1643 -1.3368
  883MPD2     N13007   0.668   0.704  16.277 -0.1006 -0.3097 -0.3229
  883MPD2    H513008   0.668   0.760  16.192  0.5432 -1.5986 -1.1621
  883MPD2    N113009   0.331   0.463  16.042  0.0471  0.6650  0.0816
  883MPD2    H713010   0.316   0.551  15.994 -3.2136 -2.5633 -4.7195
  884MPD2     C13011   2.478   1.155  15.184  0.3365 -0.4152 -0.4877
  884MPD2    C113012   2.449   1.281  15.143 -0.0076  0.0886  0.1478
  884MPD2    C213013   2.336   1.344  15.197  0.1869  0.4136  1.0778
  884MPD2    C313014   2.247   1.276  15.283 -0.8253  0.5750 -0.6430
  884MPD2    C413015   2.278   1.146  15.317 -0.1334 -0.3692 -0.7101
  884MPD2    C513016   2.392   1.090  15.274  0.1667  0.3153  0.2572
  884MPD2     H13017   2.319   1.449  15.176 -0.4159  0.1844  0.4322
  884MPD2    H113018   2.222   1.080  15.383  1.2663 -3.8229 -3.0324
  884MPD2    H213019   2.575   1.114  15.159  1.2965  1.8183 -0.4458
  884MPD2    H313020   2.422   0.991  15.308  1.0747  0.4980 -0.0164
  884MPD2     N13021   2.132   1.339  15.324 -0.5517  0.2699  0.1961
  884MPD2    H513022   2.111   1.434  15.295  0.9795  0.4530 -0.3267
  884MPD2    N113023   2.543   1.360  15.066 -0.3860  0.0061 -0.0991
  884MPD2    H713024   2.500   1.448  15.039 -0.6024  0.4651  1.7874
  885MPD2     C13025   0.468   0.746  17.738  0.8183 -0.5034 -0.4779
  885MPD2    C113026   0.573   0.828   0.033 -0.3593  0.1954  0.0057
  885MPD2    C213027   0.604   0.945  17.703 -0.5453  0.4338 -0.7463
  885MPD2    C313028   0.533   0.974  17.590 -0.5066  0.1062  0.1673
  885MPD2    C413029   0.421   0.891  17.560 -0.0107  0.4110  0.0624
  885MPD2    C513030   0.385   0.781  17.638 -0.3931 -0.1320 -0.2906
  885MPD2     H13031   0.692   1.005  17.719  1.4500 -2.2817 -1.4399
  885MPD2    H113032   0.354   0.915  17.478  2.3409 -0.0176 -1.9852
  885MPD2    H213033   0.439   0.652   0.036 -0.4982 -0.1870 -0.6667
  885MPD2    H313034   0.300   0.716  17.619 -1.0250  0.5419  0.2294
  885MPD2     N13035   0.556   1.088  17.510 -0.5480  0.2950  0.4574
  885MPD2    H513036   0.649   1.127  17.505  0.2084 -1.5534  0.1743
  885MPD2    N113037   0.653   0.790   0.146  0.9302 -0.2325  0.1252
  885MPD2    H713038   0.611   0.706   0.186 -2.0891  2.0375  1.6654
  886MPD2     C13039   2.037   4.430  15.151  0.5098 -0.1078  0.3359
  886MPD2    C113040   2.076   4.469  15.277 -0.4082  0.1753 -0.2593
  886MPD2    C213041   2.051   4.602  15.318  0.3560  0.0616 -0.1108
  886MPD2    C313042   1.981   4.695  15.246 -0.5558  0.2747 -0.3829
  886MPD2    C413043   1.957   4.655  15.118 -0.5251  0.2533  0.5673
  886MPD2    C513044   1.982   4.524  15.073 -0.3493  0.1535  0.4034
  886MPD2     H13045   2.080   4.636  15.417 -0.5117  0.3866  0.0259
  886MPD2    H113046   1.920   4.732  15.051  1.1426  0.4536 -0.1400
  886MPD2    H213047   2.059   4.341  15.092  1.4585  1.7018 -2.0275
  886MPD2    H313048   1.962   4.508  14.968  1.4505 -0.0494  0.0790
  886MPD2     N13049   1.956   0.095  15.287 -0.3002 -0.3769  0.2977
  886MPD2    H513050   1.933   0.152  15.206  0.5995  1.0246  1.0368
  886MPD2    N113051   2.150   4.377  15.359 -0.1587 -0.3806 -0.4388
  886MPD2    H713052   2.161   4.412  15.454  0.5200  1.0535 -1.0441
  887MPD2     C13053   2.573   4.415  15.951  0.1456  0.7789  0.3260
  887MPD2    C113054   2.526   4.468  15.836  0.0287  0.1159 -0.3198
  887MPD2    C213055   2.535   4.604  15.826 -0.2778  0.5714  0.1970
  887MPD2    C313056   2.604   4.679  15.910  0.9855 -0.6416 -0.4430
  887MPD2    C413057   2.656   4.621  16.025  0.4459  0.0177 -0.3830
  887MPD2    C513058   2.643   4.488  16.041 -0.1166  0.3587  0.4498
  887MPD2     H13059   2.491   4.644  15.735  0.4719 -1.4444 -1.0686
  887MPD2    H113060   2.689   4.684  16.106 -1.7077 -0.8392  1.1632
  887MPD2    H213061   2.565   4.308  15.967  0.6667  0.9947  2.0355
  887MPD2    H313062   2.680   4.433  16.128 -1.1369 -0.8679  0.1011
  887MPD2     N13063   2.604   0.086  15.893  0.3621  1.2745 -0.0367
  887MPD2    H513064   2.544   0.123  15.820 -2.1730 -0.0605  1.3293
  887MPD2    N113065   2.447   4.388  15.745  0.4694 -0.0920  0.2195
  887MPD2    H713066   2.377   4.439  15.692 -0.1218 -0.8960  0.2180
  888MPD2     C13067   4.377   4.442  15.023 -0.7389  0.3001  0.2299
  888MPD2    C113068   4.299   4.527  15.105  0.3547 -0.9351  0.0162
  888MPD2    C213069   4.320   4.661  15.099 -0.1708 -0.4538 -0.2321
  888MPD2    C313070   4.423   4.717  15.027 -0.4368 -0.3622 -0.6915
  888MPD2    C413071   4.501   4.639  14.946  0.6507 -0.3744  0.6267
  888MPD2    C513072   4.481   4.503  14.953 -0.9127  0.5447  0.2447
  888MPD2     H13073   4.255   4.728  15.154  1.6665  1.4894 -0.3938
  888MPD2    H113074   4.597   4.664  14.903  0.2014 -0.0458 -0.2041
  888MPD2    H213075   4.376   4.334  15.027  1.4831  0.2905  0.6612
  888MPD2    H313076   4.544   4.431  14.902 -0.3804  1.0125  0.2484
  888MPD2     N13077   4.451   0.119  15.042 -0.6418 -0.0953  0.2288
  888MPD2    H513078   4.402   0.172  15.113  1.2535 -0.1143  1.5373
  888MPD2    N113079   4.208   4.464  15.196 -0.0959  0.3478 -0.1627
  888MPD2    H713080   4.211   4.363  15.208 -2.3531  0.2159 -0.6748
  889MPD2     C13081   4.105   4.581  12.248  0.3200  0.0872 -0.4595
  889MPD2    C113082   3.994   4.515  12.306 -0.0619 -0.3217 -1.0775
  889MPD2    C213083   3.897   4.587  12.366  0.3254 -0.0019  0.4786
  889MPD2    C313084   3.912   4.720  12.387  0.6031 -0.1524  0.0257
  889MPD2    C413085   4.012   0.056  12.318  0.9524 -0.1530 -0.1177
  889MPD2    C513086   4.109   4.722  12.254 -0.1275  0.1311 -0.2455
  889MPD2     H13087   3.816   4.536  12.417  0.7263 -0.9270  0.1959
  889MPD2    H113088   4.022   0.164  12.323  1.0716 -0.0637 -1.9704
  889MPD2    H213089   4.182   4.537  12.186  1.8243  0.8808  0.8231
  889MPD2    H313090   4.196   0.029  12.207  0.0012 -0.5157 -0.6329
  889MPD2     N13091   3.812   0.036  12.471 -0.7855 -0.0469 -0.3581
  889MPD2    H513092   3.749   4.707  12.516 -1.4896  1.2303  0.5353
  889MPD2    N113093   3.950   4.389  12.272  0.3282  0.9616  0.5896
  889MPD2    H713094   3.852   4.377  12.295 -0.2841  2.0884 -1.4439
  890MPD2     C13095   2.939   1.275  14.558  0.2484 -0.0767 -0.2565
  890MPD2    C113096   3.061   1.325  14.608 -0.1469 -0.3615  0.9870
  890MPD2    C213097   3.127   1.245  14.695 -1.5149  0.8101  0.5333
  890MPD2    C313098   3.074   1.128  14.746  0.4884 -0.5656  0.7256
  890MPD2    C413099   2.948   1.091  14.715 -0.3135  0.0040  0.5354
  890MPD2    C513100   2.889   1.161  14.614 -0.6814  0.0269 -0.1882
  890MPD2     H13101   3.231   1.261  14.719 -0.4583 -1.3667 -2.7013
  890MPD2    H113102   2.887   1.005  14.739 -1.4439  0.0175 -2.3512
  890MPD2    H213103   2.889   1.329  14.479 -0.1052  0.2346  0.1779
  890MPD2    H313104   2.789   1.125  14.592 -0.6211  0.8889 -1.8217
  890MPD2     N13105   3.152   1.048  14.835 -0.3338 -0.0563 -0.6079
  890MPD2    H513106   3.247   1.080  14.849 -0.0395 -1.3747  0.4049
  890MPD2    N113107   3.117   1.441  14.552  0.2084  0.2128 -0.0898
  890MPD2    H713108   3.066   1.474  14.471  2.3002  2.0170 -0.6757
  891MPD2     C13109   1.620   4.429  16.324  0.7004  0.4242  0.3456
  891MPD2    C113110   1.516   4.396  16.404 -0.6663 -0.5568  0.6327
  891MPD2    C213111   1.542   4.303  16.503 -0.4961 -0.2975  1.1016
  891MPD2    C313112   1.668   4.253  16.534  0.0596 -0.4525 -0.0325
  891MPD2    C413113   1.769   4.310  16.459 -0.4644 -0.4572  0.7079
  891MPD2    C513114   1.751   4.386  16.348 -0.2737  0.5130  0.6336
  891MPD2     H13115   1.465   4.278  16.576  0.9460  0.8681  3.0487
  891MPD2    H113116   1.867   4.264  16.470 -0.7332 -0.8980  1.2569
  891MPD2    H213117   1.611   4.496  16.240 -1.2356 -1.1670 -0.7082
  891MPD2    H313118   1.836   4.420  16.290 -0.9647 -0.4770 -0.9581
  891MPD2     N13119   1.686   4.148  16.630 -0.2335  0.0050 -0.1530
  891MPD2    H513120   1.610   4.117  16.689  1.9603 -1.1106  2.0797
  891MPD2    N113121   1.384   4.433  16.380  0.0007  0.4740  0.5330
  891MPD2    H713122   1.374   4.491  16.297 -0.8042  0.2812  0.4900
  892MPD2     C13123   2.522   0.894  14.931 -0.2493  0.4847  0.1768
  892MPD2    C113124   2.416   0.807  14.962 -0.1151 -0.0452  0.3591
  892MPD2    C213125   2.440   0.672  14.970 -0.0351 -0.0106  0.2735
  892MPD2    C313126   2.563   0.621  14.923  0.0606  0.7326  0.7593
  892MPD2    C413127   2.664   0.715  14.883 -0.4835  0.3740  0.6335
  892MPD2    C513128   2.648   0.847  14.896 -0.3550  0.5311 -0.6649
  892MPD2     H13129   2.369   0.598  15.007  0.0958 -0.4894 -0.4289
  892MPD2    H113130   2.762   0.680  14.850  0.0148  0.1983  2.3154
  892MPD2    H213131   2.508   1.001  14.920 -0.9868  0.3964  0.2751
  892MPD2    H313132   2.728   0.914  14.868  2.0618 -1.5710  1.2997
  892MPD2     N13133   2.605   0.485  14.926  0.4861 -0.3549 -0.8513
  892MPD2    H513134   2.682   0.453  14.868  0.9678 -0.6996 -0.0316
  892MPD2    N113135   2.285   0.846  14.966 -0.1385  0.6935 -1.2370
  892MPD2    H713136   2.224   0.773  15.002  1.2091  0.4654  0.6189
  893MPD2     C13137   3.699   3.604   0.367  0.4927  0.2387  0.2548
  893MPD2    C113138   3.770   3.535   0.459 -0.6698 -0.7224  0.1079
  893MPD2    C213139   3.769   3.398   0.456  0.0840  0.0278 -0.3355
  893MPD2    C313140   3.680   3.326   0.373  0.1036 -0.0644 -0.0508
  893MPD2    C413141   3.598   3.402   0.287  0.2659 -0.7656  0.0279
  893MPD2    C513142   3.611   3.538   0.284 -0.2565 -0.8211  0.4739
  893MPD2     H13143   3.838   3.337   0.514 -1.9239 -1.8802  0.0500
  893MPD2    H113144   3.523   3.362   0.220 -0.2588 -0.8736  0.6811
  893MPD2    H213145   3.707   3.712   0.357 -0.2469  0.3786  1.1742
  893MPD2    H313146   3.554   3.594   0.210 -0.0409 -0.5497  0.5119
  893MPD2     N13147   3.663   3.181   0.365 -0.2147  0.5208  0.2224
  893MPD2    H513148   3.611   3.145   0.286  1.1658 -2.0771  0.5038
  893MPD2    N113149   3.858   3.610   0.542 -0.0316 -0.4888 -0.1061
  893MPD2    H713150   3.854   3.712   0.534  0.1637 -0.2818  2.5067
  894MPD2     C13151   2.062   1.652   1.171  0.0137 -0.0529  0.1525
  894MPD2    C113152   2.108   1.623   1.303  0.2888  0.2030  0.2061
  894MPD2    C213153   2.229   1.681   1.339 -0.2992 -0.3344 -0.3708
  894MPD2    C313154   2.311   1.749   1.249 -0.8785 -0.0078 -0.3824
  894MPD2    C413155   2.274   1.760   1.117 -0.7896  0.0933 -0.0383
  894MPD2    C513156   2.146   1.711   1.083  0.1454  0.0327  0.9931
  894MPD2     H13157   2.265   1.662   1.439  2.7078 -1.1935 -1.5973
  894MPD2    H113158   2.332   1.803   1.036  0.1196 -1.0401  0.0156
  894MPD2    H213159   1.970   1.606   1.136 -0.0604  0.6638 -0.5985
  894MPD2    H313160   2.111   1.712   0.980 -1.6034  0.2645  1.5781
  894MPD2     N13161   2.434   1.797   1.306 -0.9185  0.9359  0.0828
  894MPD2    H513162   2.454   1.782   1.405  1.5401  1.4460 -0.3460
  894MPD2    N113163   2.033   1.539   1.388  0.0594  0.0908 -0.4999
  894MPD2    H713164   2.077   1.529   1.479 -1.3712  0.3148  0.2233
  895MPD2     C13165   1.739   4.376  13.705  0.4445  0.1172  0.4373
  895MPD2    C113166   1.621   4.314  13.677  0.5744 -0.0050 -0.5145
  895MPD2    C213167   1.621   4.170  13.682 -0.0806  0.0270  0.2408
  895MPD2    C313168   1.737   4.102  13.690  0.6443 -0.1716 -0.7066
  895MPD2    C413169   1.852   4.165  13.709 -0.3109 -0.0142  0.4866
  895MPD2    C513170   1.853   4.301  13.714 -0.0577 -0.0647 -0.8082
  895MPD2     H13171   1.524   4.127  13.657 -0.4746  1.4306 -0.6619
  895MPD2    H113172   1.942   4.107  13.725 -0.6709 -0.5241  0.6578
  895MPD2    H213173   1.752   4.483  13.717 -1.8159  0.3791  0.4311
  895MPD2    H313174   1.952   4.337  13.738  0.4695 -2.2430  0.3027
  895MPD2     N13175   1.725   3.961  13.693  0.9120 -0.1794 -0.3659
  895MPD2    H513176   1.630   3.931  13.672 -0.0631  1.7933  1.3230
  895MPD2    N113177   1.499   4.376  13.651  0.5850 -0.0722 -0.0035
  895MPD2    H713178   1.418   4.315  13.642 -0.3368  0.9447  1.2822
  896MPD2     C13179   4.307   1.954   1.623 -0.1834  0.6254 -0.3205
  896MPD2    C113180   4.207   2.042   1.588 -0.9123 -0.1757  0.8376
  896MPD2    C213181   4.092   2.007   1.508  0.8548  0.0602 -0.4189
  896MPD2    C313182   4.082   1.873   1.470  0.5413  0.0151  0.3278
  896MPD2    C413183   4.185   1.785   1.507 -0.4719 -0.0992 -0.2202
  896MPD2    C513184   4.297   1.822   1.581 -0.2520  0.3389  0.3603
  896MPD2     H13185   4.017   2.077   1.474 -0.4143 -1.2581 -0.3101
  896MPD2    H113186   4.181   1.682   1.474  0.2163  0.2361 -1.3612
  896MPD2    H213187   4.389   1.977   1.690  1.0997  2.5260 -2.5436
  896MPD2    H313188   4.369   1.746   1.608 -1.3387  0.0147  2.3718
  896MPD2     N13189   3.960   1.839   1.400 -0.5353 -0.1585 -0.0990
  896MPD2    H513190   3.895   1.916   1.393 -1.1123 -0.5324  1.1147
  896MPD2    N113191   4.228   2.179   1.622 -0.2796  0.2892 -0.1834
  896MPD2    H713192   4.316   2.197   1.669 -0.3892 -0.1255  0.1791
  897MPD2     C13193   0.234   4.408  10.217 -0.0909  0.3343 -0.1642
  897MPD2    C113194   0.225   4.534  10.263 -0.1933 -0.7453  0.0309
  897MPD2    C213195   0.244   4.565  10.397  0.2167 -0.1506 -0.4060
  897MPD2    C313196   0.249   4.463  10.483  0.0032 -0.4217  0.4664
  897MPD2    C413197   0.253   4.335  10.435 -0.1516  0.1818  0.0968
  897MPD2    C513198   0.257   4.310  10.307 -0.4625  0.0861 -0.3709
  897MPD2     H13199   0.233   4.665  10.438 -1.1507 -1.0762  1.5082
  897MPD2    H113200   0.268   4.255  10.507  1.6645  0.4882  0.0447
  897MPD2    H213201   0.240   4.378  10.113 -0.9791 -2.8545  0.6842
  897MPD2    H313202   0.281   4.212  10.267  0.9883  0.6951 -0.9643
  897MPD2     N13203   0.255   4.509  10.623 -0.6389  0.3323  0.5651
  897MPD2    H513204   0.244   4.608  10.642  0.3859  0.3492  1.0939
  897MPD2    N113205   0.181   4.628  10.171  0.7814  0.6396 -0.3542
  897MPD2    H713206   0.154   4.602  10.077 -1.6562  1.4864  0.1277
  898MPD2     C13207   2.921   4.481   0.015 -0.6015 -0.3038  0.0937
  898MPD2    C113208   2.856   4.599   0.041 -0.0576  0.2612  0.3398
  898MPD2    C213209   2.760   4.647  17.708  0.3841 -0.4433 -0.8321
  898MPD2    C313210   2.756   4.592  17.587 -0.5954  0.1535 -0.1542
  898MPD2    C413211   2.830   4.477  17.547 -0.6077 -0.2226  0.3537
  898MPD2    C513212   2.915   4.421  17.639  0.3806  0.0542 -0.1408
  898MPD2     H13213   2.703   4.738  17.726  1.0107 -0.4772  1.2815
  898MPD2    H113214   2.813   4.436  17.448 -0.7168  2.3016 -0.6775
  898MPD2    H213215   2.983   4.434   0.089  1.4076  0.7766 -0.9158
  898MPD2    H313216   2.978   4.338  17.610 -0.1079 -1.0487  1.9391
  898MPD2     N13217   2.657   4.641  17.499 -0.6560 -0.0630 -1.0447
  898MPD2    H513218   2.586   4.698  17.545  0.4796  0.9882 -0.5861
  898MPD2    N113219   2.871   4.658   0.166 -0.7223 -0.1121  0.0036
  898MPD2    H713220   2.798   4.723   0.194  3.7095  4.0781  1.7419
  899MPD2     C13221   3.095   0.748  17.585 -0.0719 -0.2526 -0.2830
  899MPD2    C113222   3.092   0.885  17.609  0.1317 -1.2079 -0.4911
  899MPD2    C213223   3.010   0.941  17.701 -0.9743 -0.8508  0.8745
  899MPD2    C313224   2.921   0.860   0.026  0.3217 -0.1793  0.0296
  899MPD2    C413225   2.932   0.722   0.011 -0.0278  0.0192 -0.1537
  899MPD2    C513226   3.015   0.669  17.662  0.6752 -0.3720 -0.5679
  899MPD2     H13227   3.001   1.048  17.715 -1.4079 -0.9424  1.3329
  899MPD2    H113228   2.877   0.645   0.064  0.0280  1.3634  1.8696
  899MPD2    H213229   3.162   0.700  17.515  1.3360  1.3754 -0.0445
  899MPD2    H313230   3.017   0.561  17.648  1.3143 -0.1516 -2.1971
  899MPD2     N13231   2.840   0.920   0.124 -0.0073 -0.5108 -0.1857
  899MPD2    H513232   2.833   1.021   0.130  2.5562 -0.3977  0.9839
  899MPD2    N113233   3.168   0.965  17.520  0.1023 -0.8540 -0.2693
  899MPD2    H713234   3.205   0.919  17.438 -1.0064  0.3069 -1.4156
  900MPD2     C13235   2.650   2.106  13.047  0.2895 -0.0210  0.0772
  900MPD2    C113236   2.565   1.995  13.020  0.2279  0.1252 -0.0162
  900MPD2    C213237   2.477   2.000  12.919  0.1487 -0.0631 -0.4343
  900MPD2    C313238   2.472   2.110  12.833 -0.6364  0.3301 -0.2504
  900MPD2    C413239   2.549   2.224  12.870  0.1435 -0.3943  0.6202
  900MPD2    C513240   2.635   2.219  12.974  0.3190 -0.0013  0.1803
  900MPD2     H13241   2.419   1.911  12.897  2.7074 -1.7949 -0.1973
  900MPD2    H113242   2.539   2.316  12.814  0.1030  0.1270  1.4837
  900MPD2    H213243   2.730   2.101  13.120  1.5025 -0.4899 -1.2625
  900MPD2    H313244   2.690   2.309  12.998 -0.8122  0.1792  2.1219
  900MPD2     N13245   2.391   2.118  12.717  0.2066 -0.3234  0.0056
  900MPD2    H513246   2.311   2.056  12.707 -0.9567  1.4348 -1.7213
  900MPD2    N113247   2.587   1.876  13.100 -0.3886 -0.0912 -0.3367
  900MPD2    H713248   2.668   1.880  13.160  0.5288 -0.9079 -1.5302
  901MPD2     C13249   2.696   0.742  13.083  0.0543 -0.9100  0.3659
  901MPD2    C113250   2.813   0.808  13.051 -0.3405  0.0103  0.6114
  901MPD2    C213251   2.819   0.946  13.075 -0.1242  0.3033 -0.3380
  901MPD2    C313252   2.715   1.030  13.124  0.0642  0.2785  0.5907
  901MPD2    C413253   2.610   0.956  13.170 -0.2655 -0.3403 -0.0115
  901MPD2    C513254   2.601   0.817  13.156 -0.4309  0.2091 -0.9408
  901MPD2     H13255   2.910   0.998  13.048  0.8022 -0.4696  1.2744
  901MPD2    H113256   2.524   1.004  13.214 -0.4974  0.6174 -1.5113
  901MPD2    H213257   2.683   0.634  13.076  2.5420 -1.1960  0.2231
  901MPD2    H313258   2.515   0.771  13.204 -2.2623  2.9855 -1.5497
  901MPD2     N13259   2.730   1.174  13.117  0.0670 -0.3013  0.1511
  901MPD2    H513260   2.821   1.199  13.079 -0.8647 -0.1436 -1.9746
  901MPD2    N113261   2.911   0.745  12.964  0.2776  0.2264  0.3552
  901MPD2    H713262   2.880   0.665  12.909  1.0029  0.3910 -0.2906
  902MPD2     C13263   1.232   0.112  12.973  0.0385 -0.1303  0.2686
  902MPD2    C113264   1.225   0.157  12.840 -0.5777 -0.1449 -0.1878
  902MPD2    C213265   1.255   0.067  12.737 -0.0279  0.2079  0.0519
  902MPD2    C313266   1.293   4.675  12.767 -0.8251  0.1247 -0.4064
  902MPD2    C413267   1.276   4.621  12.895 -0.1735 -0.4155 -0.2428
  902MPD2    C513268   1.252   4.715  12.991 -0.1658 -0.3619  0.3438
  902MPD2     H13269   1.267   0.104  12.636 -2.2406  2.3553  0.5823
  902MPD2    H113270   1.288   4.515  12.914  0.7591 -0.3474 -0.4349
  902MPD2    H213271   1.212   0.180  13.055 -0.8403  0.6054 -0.5482
  902MPD2    H313272   1.249   4.678  13.093 -1.6250 -2.1502 -0.3446
  902MPD2     N13273   1.362   4.596  12.671  0.2231 -0.4914 -0.9049
  902MPD2    H513274   1.415   4.516  12.705 -0.4081 -0.1898  0.7657
  902MPD2    N113275   1.190   0.287  12.816  0.5541 -0.8246 -0.9242
  902MPD2    H713276   1.163   0.341  12.898  1.4880 -0.1270 -1.0820
  903MPD2     C13277   1.844   0.080  11.960  0.0349 -0.2541 -0.8847
  903MPD2    C113278   1.718   0.050  12.014 -0.1118  0.4329 -0.2715
  903MPD2    C213279   1.609   0.125  11.967 -0.1394  0.6098 -0.4691
  903MPD2    C313280   1.629   0.243  11.899  0.4841 -0.0139  0.5484
  903MPD2    C413281   1.749   0.260  11.835 -0.9601 -0.8892 -0.1122
  903MPD2    C513282   1.854   0.177  11.861  0.3319 -0.5465 -0.2091
  903MPD2     H13283   1.509   0.095  11.994  0.3996  2.0910  3.1455
  903MPD2    H113284   1.772   0.342  11.768 -0.9532  0.5615  1.6713
  903MPD2    H213285   1.934   0.029  11.992  0.6819  1.2104 -0.3430
  903MPD2    H313286   1.951   0.195  11.816 -0.0904  1.1481 -0.4445
  903MPD2     N13287   1.520   0.334  11.885 -0.4060 -0.1598 -0.9594
  903MPD2    H513288   1.446   0.316  11.952  1.0423  0.3328  0.7910
  903MPD2    N113289   1.706   4.668  12.089  0.6142  0.2711  0.0108
  903MPD2    H713290   1.784   4.634  12.144  1.1726 -0.1307 -1.0152
  904MPD2     C13291   1.298   3.902  13.959 -0.0537  0.4242 -0.3424
  904MPD2    C113292   1.275   3.902  14.099  0.1770 -1.0439  0.4007
  904MPD2    C213293   1.375   3.900  14.194  0.4271  0.6648 -0.0383
  904MPD2    C313294   1.507   3.906  14.149 -0.5700 -0.6370  0.7269
  904MPD2    C413295   1.532   3.908  14.008  0.8741  0.6460  0.2173
  904MPD2    C513296   1.431   3.906  13.917  0.8148  0.5798  0.3733
  904MPD2     H13297   1.340   3.883  14.296  1.7590  1.6553  0.5790
  904MPD2    H113298   1.627   3.911  13.955  1.0274  0.9110  0.5031
  904MPD2    H213299   1.223   3.903  13.881 -0.6902  0.6202  0.2823
  904MPD2    H313300   1.449   3.896  13.811 -0.0656 -2.8199  0.5478
  904MPD2     N13301   1.607   3.924  14.243 -0.0531  0.0695 -0.9099
  904MPD2    H513302   1.587   3.930  14.342  1.4620 -0.2601 -0.5793
  904MPD2    N113303   1.140   3.883  14.142 -0.1569  0.1172 -1.3142
  904MPD2    H713304   1.123   3.847  14.235 -2.5121  0.8446 -1.4577
  905MPD2     C13305   0.981   3.851  13.385 -0.3116  0.6186 -0.6115
  905MPD2    C113306   1.047   3.901  13.486 -0.0069  0.2848 -0.4014
  905MPD2    C213307   1.177   3.859  13.501  0.0260  0.1914 -0.0202
  905MPD2    C313308   1.234   3.759  13.431  0.3646  0.0753  1.2291
  905MPD2    C413309   1.169   3.706  13.320 -0.3611  0.5329 -0.0954
  905MPD2    C513310   1.038   3.759  13.302  0.7586  0.6841 -0.6362
  905MPD2     H13311   1.236   3.908  13.578 -1.1764 -0.8761  1.6066
  905MPD2    H113312   1.209   3.630  13.253 -2.0882  0.1087 -0.6559
  905MPD2    H213313   0.882   3.876  13.349 -0.6865 -2.5550 -1.8001
  905MPD2    H313314   0.984   3.735  13.211  0.7178  0.1227 -0.4601
  905MPD2     N13315   1.363   3.708  13.454 -0.3049  0.4621  0.0459
  905MPD2    H513316   1.384   3.617  13.415 -0.0567  0.8460 -0.7216
  905MPD2    N113317   0.988   3.994  13.575 -0.0347 -0.2715  0.0148
  905MPD2    H713318   0.887   3.999  13.589  0.0107  1.1521 -0.1616
  906MPD2     C13319   3.748   4.611  11.493 -0.8327  1.1218  0.0768
  906MPD2    C113320   3.715   4.518  11.400  0.0058  0.3465  0.4638
  906MPD2    C213321   3.647   4.404  11.441 -0.1666 -0.0121  0.2700
  906MPD2    C313322   3.609   4.392  11.578 -0.8628  0.0026 -0.1291
  906MPD2    C413323   3.652   4.484  11.670 -0.1541  0.4051  0.1062
  906MPD2    C513324   3.724   4.589  11.629  0.4053 -0.1436  0.0611
  906MPD2     H13325   3.608   4.334  11.369 -1.5997  1.4143 -0.3317
  906MPD2    H113326   3.626   4.483  11.775 -1.1743  0.1585 -0.1519
  906MPD2    H213327   3.790   4.706  11.459 -0.5018  1.3736  1.1834
  906MPD2    H313328   3.766   4.651  11.708  1.7362 -1.7034  0.5586
  906MPD2     N13329   3.539   4.281  11.618 -0.8043 -0.1793 -0.2952
  906MPD2    H513330   3.505   4.222  11.543 -0.4855  0.0029 -0.5808
  906MPD2    N113331   3.763   4.513  11.269 -0.5671  0.1372 -0.0853
  906MPD2    H713332   3.743   4.432  11.212  0.6855  0.7115 -1.3629
  907MPD2     C13333   2.822   3.361  15.929  0.0576 -0.2490  0.3787
  907MPD2    C113334   2.716   3.272  15.927  1.0723  0.1969 -0.2683
  907MPD2    C213335   2.713   3.182  16.031  0.0148 -0.0792 -0.1615
  907MPD2    C313336   2.799   3.188  16.142  0.5563  0.1723  0.8640
  907MPD2    C413337   2.901   3.281  16.145 -0.3657 -0.9540  0.0434
  907MPD2    C513338   2.909   3.366  16.040  0.2708 -0.2720  0.6431
  907MPD2     H13339   2.633   3.109  16.029 -2.5633  2.6884  1.5385
  907MPD2    H113340   2.970   3.293  16.228 -1.9906  0.5135  1.1935
  907MPD2    H213341   2.819   3.452  15.870 -1.4947 -0.3105  0.3810
  907MPD2    H313342   2.991   3.436  16.033  0.0578 -0.0820  0.0400
  907MPD2     N13343   2.788   3.088  16.244  0.3177  0.6018  0.1778
  907MPD2    H513344   2.721   3.013  16.230  2.1697 -0.9499 -0.2570
  907MPD2    N113345   2.623   3.273  15.820 -0.2994  0.0471 -0.1923
  907MPD2    H713346   2.546   3.207  15.817 -1.0680  0.9120  0.6667
  908MPD2     C13347   4.636   4.508   9.384 -0.2669  0.0911  0.0940
  908MPD2    C113348   4.673   4.433   9.491  1.3079  0.3042 -0.4265
  908MPD2    C213349   4.693   4.497   9.613 -0.1599  0.1163 -0.4158
  908MPD2    C313350   4.680   4.633   9.624 -0.3184 -0.2422 -0.3184
  908MPD2    C413351   4.648   4.702   9.513  0.4961  0.1368 -0.3718
  908MPD2    C513352   4.619   4.641   9.396 -0.2594 -0.4468 -0.4220
  908MPD2     H13353   4.735   4.444   9.698  2.4207  3.5373  0.4762
  908MPD2    H113354   4.644   0.073   9.512  2.0651  0.2000  0.2300
  908MPD2    H213355   4.613   4.470   9.285 -1.8786  0.0971  0.4594
  908MPD2    H313356   4.589   4.697   9.308  1.4049  3.5224  1.5183
  908MPD2     N13357   4.699   4.697   9.749  0.3756  0.1548 -0.6171
  908MPD2    H513358   0.010   4.638   9.815 -0.4037 -2.2664 -2.2188
  908MPD2    N113359   4.696   4.297   9.475  0.1599 -0.7212  0.3577
  908MPD2    H713360   4.648   4.256   9.396 -1.4658 -1.3702  1.6648
  909MPD2     C13361   0.372   2.160  11.519 -0.6255  0.7027  0.2572
  909MPD2    C113362   0.471   2.240  11.574  0.4552  0.3388 -0.2077
  909MPD2    C213363   0.438   2.303  11.692 -0.1788  0.0473  0.0535
  909MPD2    C313364   0.321   2.278  11.762 -0.9807  0.0309 -0.1126
  909MPD2    C413365   0.224   2.198  11.707  0.2522 -0.1892  0.4924
  909MPD2    C513366   0.252   2.134  11.585  0.2487  0.4540 -0.3704
  909MPD2     H13367   0.512   2.372  11.732 -0.7964 -0.1048  1.4502
  909MPD2    H113368   0.129   2.177  11.754 -0.2496  0.4433 -0.2399
  909MPD2    H213369   0.394   2.122  11.420 -2.4834  1.4845 -0.4545
  909MPD2    H313370   0.167   2.084  11.540  0.7695 -1.7545  1.0894
  909MPD2     N13371   0.302   2.348  11.886 -0.3116  0.4573  0.6076
  909MPD2    H513372   0.360   2.422  11.923  1.5426 -0.1594 -1.0583
  909MPD2    N113373   0.594   2.264  11.497 -0.3782 -0.2132  0.7155
  909MPD2    H713374   0.667   2.317  11.544  2.0657 -1.5196 -1.6697
  910MPD2     C13375   1.813   3.889  16.348  0.3372  0.3296  0.5365
  910MPD2    C113376   1.751   3.780  16.296 -0.0209  0.7123 -0.3362
  910MPD2    C213377   1.683   3.797  16.176  0.2604 -0.0602  0.6816
  910MPD2    C313378   1.681   3.919  16.109 -0.2413 -0.5144  0.5954
  910MPD2    C413379   1.751   4.033  16.159  0.1419  0.5090  0.5560
  910MPD2    C513380   1.805   4.020  16.278 -0.8812  0.2226 -0.2531
  910MPD2     H13381   1.632   3.709  16.137  0.4580  0.4176 -0.6522
  910MPD2    H113382   1.762   4.121  16.097 -0.2376  1.1337  1.3895
  910MPD2    H213383   1.857   3.872  16.446 -1.2975  0.1925  1.2510
  910MPD2    H313384   1.856   4.104  16.322  1.1992 -0.9996 -0.3327
  910MPD2     N13385   1.617   3.927  15.987 -0.2964  0.4884 -0.1199
  910MPD2    H513386   1.598   4.016  15.942  0.3962  0.8872  0.3833
  910MPD2    N113387   1.730   3.652  16.360  0.3839 -1.2701  0.2090
  910MPD2    H713388   1.657   3.587  16.331 -0.8432  0.4353 -0.5606
  911MPD2     C13389   4.449   4.232  16.467  1.0515  1.1200 -0.3228
  911MPD2    C113390   4.524   4.337  16.507 -0.0613 -0.8631  0.6799
  911MPD2    C213391   4.483   4.468  16.479  0.5773 -0.4450  0.7191
  911MPD2    C313392   4.363   4.491  16.414 -0.1429 -0.0767  0.1335
  911MPD2    C413393   4.284   4.384  16.378 -0.3330 -0.8214 -0.1547
  911MPD2    C513394   4.329   4.253  16.403  0.1989 -0.6393 -0.0294
  911MPD2     H13395   4.553   4.549  16.500 -1.7454  1.5029  0.9618
  911MPD2    H113396   4.191   4.393  16.324  0.7147 -1.1203 -2.0189
  911MPD2    H213397   4.471   4.131  16.499 -0.2706  0.3772 -1.7336
  911MPD2    H313398   4.272   4.163  16.382 -1.0470  0.4414 -1.3328
  911MPD2     N13399   4.304   4.618  16.374 -0.6110  0.2725  0.3797
  911MPD2    H513400   4.217   4.608  16.322 -0.7807  1.7093  0.3733
  911MPD2    N113401   4.637   4.305  16.585 -0.5484 -0.1900 -0.5469
  911MPD2    H713402   4.649   4.205  16.598  2.8456  0.1669 -0.7624
  912MPD2     C13403   3.942   4.597  15.761 -0.0160  0.2944 -0.0608
  912MPD2    C113404   3.973   4.577  15.893  0.0127  0.1592 -0.2862
  912MPD2    C213405   3.980   4.444  15.941 -0.9121 -0.3419 -0.5771
  912MPD2    C313406   3.947   4.339  15.862 -0.1735 -0.4795 -0.4855
  912MPD2    C413407   3.895   4.366  15.736  0.0870  0.1266 -0.5708
  912MPD2    C513408   3.899   4.492  15.685  0.3799  0.1772 -0.1081
  912MPD2     H13409   4.005   4.425  16.045 -6.0548 -0.4030  0.6478
  912MPD2    H113410   3.854   4.288  15.673 -1.8689 -0.3801  1.3299
  912MPD2    H213411   3.956   4.694  15.714 -0.1120 -0.6192 -1.9586
  912MPD2    H313412   3.857   4.505  15.586  0.5886 -1.0133 -0.3427
  912MPD2     N13413   3.953   4.204  15.911 -0.3949 -0.6244  0.3054
  912MPD2    H513414   3.998   4.202  16.002 -1.7479 -0.7565  0.9725
  912MPD2    N113415   4.012   4.689  15.970  1.4743 -0.0700 -0.2075
  912MPD2    H713416   4.001   0.044  15.929  0.5897  1.2027  2.9295
  913MPD2     C13417   4.514   1.504  10.535 -0.1387 -0.5181 -0.0117
  913MPD2    C113418   4.637   1.542  10.487  0.8514 -0.3131  0.1229
  913MPD2    C213419   4.634   1.629  10.380  0.2466  0.3936  0.0218
  913MPD2    C313420   4.513   1.690  10.349 -0.3562  0.4081 -0.7627
  913MPD2    C413421   4.399   1.649  10.403 -0.0023 -0.3638 -0.2786
  913MPD2    C513422   4.392   1.546  10.491 -0.3095  0.4332 -0.2211
  913MPD2     H13423   4.723   1.655  10.324 -0.7563  1.0167 -1.3070
  913MPD2    H113424   4.303   1.690  10.373  0.9876  1.2739 -1.1591
  913MPD2    H213425   4.520   1.441  10.623 -1.0697 -1.9535 -0.9781
  913MPD2    H313426   4.300   1.525  10.545 -0.5332 -0.3223 -0.9024
  913MPD2     N13427   4.493   1.798  10.258 -0.2527 -0.3029  0.3202
  913MPD2    H513428   4.399   1.814  10.223  0.7486 -1.0758 -2.7204
  913MPD2    N113429   0.019   1.496  10.548  0.9437 -0.5008 -0.3810
  913MPD2    H713430   0.022   1.451  10.639 -1.5769 -2.0034 -1.0632
  914MPD2     C13431   2.590   1.192  12.378 -0.2911  0.0392 -0.1977
  914MPD2    C113432   2.661   1.234  12.490  0.0406 -0.5717  0.3875
  914MPD2    C213433   2.764   1.151  12.536 -0.0134  0.0851 -0.5770
  914MPD2    C313434   2.802   1.043  12.466  0.5048 -0.2093 -0.1780
  914MPD2    C413435   2.732   1.003  12.357  0.4805  0.0096  0.2457
  914MPD2    C513436   2.626   1.078  12.312  0.3036 -0.3070 -0.1848
  914MPD2     H13437   2.837   1.177  12.612 -1.4082 -2.3467  1.5849
  914MPD2    H113438   2.759   0.918  12.296  0.6879 -0.9706  1.7137
  914MPD2    H213439   2.505   1.253  12.351  1.6037  3.4081  1.5383
  914MPD2    H313440   2.570   1.057  12.222 -0.7988 -2.1005  0.9171
  914MPD2     N13441   2.913   0.968  12.519  0.6202  0.3952 -0.1046
  914MPD2    H513442   2.973   1.014  12.586  2.1174  1.3196 -2.1128
  914MPD2    N113443   2.638   1.360  12.551 -0.1288 -0.1769 -0.0307
  914MPD2    H713444   2.571   1.425  12.511  1.5791  0.5891 -1.6327
  915MPD2     C13445   1.067   0.859  15.487  0.0369  0.5621 -0.1932
  915MPD2    C113446   0.972   0.953  15.441  0.3373 -0.4711 -0.8562
  915MPD2    C213447   0.881   1.008  15.533  0.6041  0.0968  0.9788
  915MPD2    C313448   0.878   0.965  15.666  0.1260 -0.0361  0.0959
  915MPD2    C413449   0.969   0.872  15.708 -0.3428  0.0016 -0.3679
  915MPD2    C513450   1.058   0.824  15.616 -0.3823 -0.7861 -0.5611
  915MPD2     H13451   0.804   1.078  15.501  0.0905 -0.2040  1.5433
  915MPD2    H113452   0.967   0.840  15.812 -0.4821 -0.7338 -0.6015
  915MPD2    H213453   1.149   0.842  15.417  1.6677  1.1908  1.5600
  915MPD2    H313454   1.132   0.754  15.653 -1.1651 -1.1938  0.2502
  915MPD2     N13455   0.781   1.016  15.758  0.2593  0.1086 -0.2137
  915MPD2    H513456   0.734   1.099  15.725  3.2538  2.1189  0.5995
  915MPD2    N113457   0.971   0.984  15.302  0.4914 -0.1876 -0.0404
  915MPD2    H713458   1.033   0.938  15.235 -1.3107 -0.5620 -1.4655
  916MPD2     C13459   3.483   4.208  15.974  0.0630  0.2818 -0.4779
  916MPD2    C113460   3.460   4.099  16.053 -1.0061  0.7871 -0.5111
  916MPD2    C213461   3.500   3.971  16.010 -0.1707  0.6357  0.1299
  916MPD2    C313462   3.571   3.958  15.890  0.1072 -0.2140  0.5319
  916MPD2    C413463   3.594   4.070  15.813  0.2965  0.9331 -0.8931
  916MPD2    C513464   3.559   4.194  15.859 -0.4987 -0.0190 -0.2971
  916MPD2     H13465   3.496   3.883  16.072  2.0227 -2.2112 -3.8058
  916MPD2    H113466   3.655   4.072  15.724  0.1289 -1.6901 -1.0735
  916MPD2    H213467   3.448   4.304  16.009 -0.0446  1.0343 -2.6103
  916MPD2    H313468   3.588   4.282  15.803 -0.3433 -0.0282 -0.2312
  916MPD2     N13469   3.620   3.828  15.841 -0.0590  0.3127  0.0990
  916MPD2    H513470   3.633   3.756  15.911 -1.4547 -1.0439 -1.0609
  916MPD2    N113471   3.400   4.122  16.176  0.7427 -0.4641  0.0159
  916MPD2    H713472   3.377   4.219  16.193  1.3173 -0.2817 -0.2331
  917MPD2     C13473   3.660   2.197  11.267  0.2338 -0.4216  0.0937
  917MPD2    C113474   3.736   2.195  11.380 -0.5042 -0.1862  0.0534
  917MPD2    C213475   3.870   2.197  11.371  0.3872  0.0164  0.0580
  917MPD2    C313476   3.933   2.217  11.248  0.0702 -0.5895  0.1836
  917MPD2    C413477   3.863   2.232  11.136  0.6726 -0.6913 -0.2217
  917MPD2    C513478   3.724   2.212  11.140 -0.2972 -0.3773  0.7280
  917MPD2     H13479   3.933   2.200  11.460 -0.9802  1.3749  0.9865
  917MPD2    H113480   3.916   2.238  11.042  1.7014  1.3374  0.4672
  917MPD2    H213481   3.555   2.172  11.271 -0.1892  1.1442 -0.9149
  917MPD2    H313482   3.670   2.214  11.046  1.5556 -0.4305 -0.3501
  917MPD2     N13483   4.076   2.229  11.244 -0.2878  0.2370 -0.0963
  917MPD2    H513484   4.127   2.223  11.156 -1.0353 -2.0823 -0.3610
  917MPD2    N113485   3.669   2.169  11.500  0.3371  0.1709  0.1168
  917MPD2    H713486   3.571   2.154  11.477  0.0908  2.7909 -0.5269
  918MPD2     C13487   3.792   2.295  12.488 -0.2204  0.3555  0.2637
  918MPD2    C113488   3.884   2.249  12.397 -0.6858  1.0804  0.3445
  918MPD2    C213489   3.835   2.196  12.274 -0.2396  0.0979 -0.1586
  918MPD2    C313490   3.702   2.201  12.245 -0.1830  0.6795  0.2681
  918MPD2    C413491   3.610   2.225  12.343  0.3836  0.5384 -0.7432
  918MPD2    C513492   3.659   2.268  12.462 -0.5899  0.6225  0.4020
  918MPD2     H13493   3.896   2.145  12.200  0.8195  1.6039 -0.3246
  918MPD2    H113494   3.504   2.224  12.317 -0.2301 -1.6537  1.7855
  918MPD2    H213495   3.817   2.342  12.583 -0.0163  2.1762 -0.6971
  918MPD2    H313496   3.589   2.296  12.539  2.6831  0.7950  3.2991
  918MPD2     N13497   3.667   2.170  12.113 -0.7338  0.6837 -0.4514
  918MPD2    H513498   3.740   2.166  12.042  0.1470 -0.2211  0.5119
  918MPD2    N113499   4.025   2.258  12.414 -0.5758 -0.0921 -0.0403
  918MPD2    H713500   4.089   2.237  12.338 -1.1028 -1.8409 -0.0041
  919MPD2     C13501   4.466   1.392  11.797 -0.1440 -0.4514  0.0926
  919MPD2    C113502   4.488   1.264  11.753  0.0627  0.2391  0.4456
  919MPD2    C213503   4.533   1.255  11.622 -0.4114  0.2189 -0.2717
  919MPD2    C313504   4.589   1.352  11.556  0.3972  0.0721 -0.1784
  919MPD2    C413505   4.551   1.478  11.595 -0.1388 -0.2012 -0.8750
  919MPD2    C513506   4.501   1.500  11.722 -0.3322 -0.2556  0.2586
  919MPD2     H13507   4.527   1.158  11.574  1.0140  0.8732 -1.7597
  919MPD2    H113508   4.566   1.565  11.532 -1.9293 -0.1765 -1.2760
  919MPD2    H213509   4.412   1.412  11.889 -0.1108 -3.0989  0.7038
  919MPD2    H313510   4.472   1.600  11.751 -0.9835  0.0283 -1.3274
  919MPD2     N13511   4.656   1.345  11.436 -0.3886  0.0792 -0.0853
  919MPD2    H513512   4.658   1.425  11.374  0.6591  0.7394  0.8144
  919MPD2    N113513   4.443   1.147  11.821 -0.1760 -0.4798 -0.3453
  919MPD2    H713514   4.433   1.064  11.763  1.3865 -1.2749  0.5249
  920MPD2     C13515   4.355   1.812  10.795  0.6843  0.2441  0.1490
  920MPD2    C113516   4.305   1.759  10.906  0.1435  0.0920 -0.2817
  920MPD2    C213517   4.377   1.661  10.972 -0.7479 -0.5543 -1.2716
  920MPD2    C313518   4.500   1.620  10.928 -0.3057  0.3468  0.7759
  920MPD2    C413519   4.556   1.687  10.821 -0.4552  0.8826 -0.0144
  920MPD2    C513520   4.481   1.780  10.760 -0.5373  0.6477 -0.3079
  920MPD2     H13521   4.333   1.604  11.053  1.7916 -2.1529 -1.0579
  920MPD2    H113522   4.657   1.662  10.790 -1.0052 -1.2493 -0.1042
  920MPD2    H213523   4.300   1.878  10.729  0.9203  0.1955 -0.0937
  920MPD2    H313524   4.528   1.829  10.675  1.6925 -1.3480 -0.2360
  920MPD2     N13525   4.569   1.521  10.997  0.5213 -0.9236  1.1269
  920MPD2    H513526   4.530   1.480  11.081 -0.4991  0.1846  1.1972
  920MPD2    N113527   4.170   1.784  10.944 -0.4103 -0.3598 -0.0924
  920MPD2    H713528   4.147   1.720  11.019  2.2044 -1.2369 -0.0323
  921MPD2     C13529   0.831   4.568  16.877  0.0928 -0.6282  0.7074
  921MPD2    C113530   0.770   4.573  16.751 -0.7218 -0.5599  0.4317
  921MPD2    C213531   0.638   4.548  16.741  0.2205 -0.4286 -0.1431
  921MPD2    C313532   0.556   4.510  16.845 -0.2301 -0.0486 -0.1263
  921MPD2    C413533   0.617   4.522  16.969  0.8758 -0.0233  0.4788
  921MPD2    C513534   0.749   4.550  16.983 -0.5936 -0.4928 -0.0732
  921MPD2     H13535   0.589   4.552  16.644  0.0033  1.7255  0.0662
  921MPD2    H113536   0.558   4.516  17.059 -1.2851  2.0436 -0.8047
  921MPD2    H213537   0.939   4.580  16.888  0.6190 -1.9610 -3.3238
  921MPD2    H313538   0.803   4.564  17.076 -1.7409  0.0368  0.5153
  921MPD2     N13539   0.425   4.462  16.826  0.0794 -0.5796  0.2881
  921MPD2    H513540   0.380   4.479  16.737 -0.3833  1.5145  0.9440
  921MPD2    N113541   0.856   4.580  16.644  0.7234  0.2222  0.1787
  921MPD2    H713542   0.949   4.616  16.665  2.1086 -2.6432 -0.9601
  922MPD2     C13543   1.090   1.706   0.041 -0.0804 -1.0853 -0.0090
  922MPD2    C113544   1.126   1.819  17.719 -0.3132  0.5417  0.6052
  922MPD2    C213545   1.037   1.872  17.621 -0.2619  0.0229  0.2831
  922MPD2    C313546   0.926   1.797  17.581 -0.7257  0.0494 -0.4564
  922MPD2    C413547   0.897   1.682  17.640 -0.0198 -0.2347  0.2267
  922MPD2    C513548   0.972   1.644   0.005  0.5988 -0.0829  0.5776
  922MPD2     H13549   1.071   1.959  17.566  1.8201 -1.8544 -1.4411
  922MPD2    H113550   0.819   1.612  17.613 -1.0022 -0.3315  3.2385
  922MPD2    H213551   1.158   1.659   0.112 -0.1253 -0.2889  0.5630
  922MPD2    H313552   0.937   1.552   0.051  1.6431 -0.3781  0.7946
  922MPD2     N13553   0.844   1.852  17.473  0.8428 -0.3770  0.2072
  922MPD2    H513554   0.873   1.945  17.443  0.8616 -0.9089 -1.3879
  922MPD2    N113555   1.248   1.890  17.742  0.4910 -0.4782  0.4207
  922MPD2    H713556   1.271   1.975  17.691  1.6276 -0.0978  1.5662
  923MPD2     C13557   3.235   0.367   9.658 -0.7144  0.3540  0.0470
  923MPD2    C113558   3.115   0.337   9.706 -0.0682  0.5671 -0.3463
  923MPD2    C213559   3.099   0.272   9.831 -0.2229  0.5989 -0.7844
  923MPD2    C313560   3.216   0.237   9.896  0.0278 -0.0008  0.9499
  923MPD2    C413561   3.339   0.254   9.835 -0.0861  0.2391  0.0452
  923MPD2    C513562   3.346   0.320   9.714 -0.2614  0.2715 -0.1593
  923MPD2     H13563   3.002   0.261   9.878  0.8257 -2.7012  0.5876
  923MPD2    H113564   3.427   0.204   9.872  1.2146  1.3038 -1.6193
  923MPD2    H213565   3.248   0.428   9.570  0.7316  0.3128  0.2315
  923MPD2    H313566   3.441   0.345   9.668 -0.5159  0.4482 -0.5905
  923MPD2     N13567   3.216   0.174  10.022 -0.4697  0.0387  0.5711
  923MPD2    H513568   3.303   0.132  10.052 -0.3486  1.6474  2.4353
  923MPD2    N113569   3.003   0.386   9.623 -0.5593  0.0789 -0.3919
  923MPD2    H713570   3.022   0.454   9.551 -0.0672 -0.4019 -0.7219
  924MPD2     C13571   2.478   2.336  16.171 -0.2362 -0.7167 -0.8031
  924MPD2    C113572   2.502   2.345  16.306  0.0340  0.7772  0.2912
  924MPD2    C213573   2.612   2.412  16.354  0.3703 -0.3617 -0.0604
  924MPD2    C313574   2.689   2.489  16.266  0.2300  0.5269  0.0071
  924MPD2    C413575   2.667   2.472  16.132 -0.0850 -0.1609 -0.2053
  924MPD2    C513576   2.562   2.402  16.083  0.1355 -0.1817  0.3705
  924MPD2     H13577   2.629   2.430  16.460 -1.4436  1.5403 -0.0783
  924MPD2    H113578   2.748   2.509  16.070 -1.7569  0.7747 -1.8387
  924MPD2    H213579   2.397   2.274  16.134 -0.8398 -0.0604 -0.5808
  924MPD2    H313580   2.550   2.385  15.977 -1.8003  0.0596  0.5556
  924MPD2     N13581   2.799   2.580  16.301 -0.2001  0.0675  0.1144
  924MPD2    H513582   2.836   2.632  16.222 -1.5112  0.6888 -0.0977
  924MPD2    N113583   2.406   2.296  16.396  0.2704 -0.4006 -0.2891
  924MPD2    H713584   2.309   2.303  16.367 -0.0279  2.2721  1.3886
  925MPD2     C13585   1.571   0.430  14.745 -0.2828  0.0310  0.1473
  925MPD2    C113586   1.452   0.448  14.683  0.2210 -0.4483  0.0366
  925MPD2    C213587   1.338   0.447  14.759 -0.2867 -0.2126 -0.3144
  925MPD2    C313588   1.340   0.407  14.896 -0.7209 -0.0294  0.0762
  925MPD2    C413589   1.465   0.375  14.947  0.5375 -0.5028  0.4287
  925MPD2    C513590   1.572   0.396  14.871 -0.5131  0.7313  0.0441
  925MPD2     H13591   1.247   0.461  14.702  0.3767  0.5721 -1.1745
  925MPD2    H113592   1.481   0.335  15.047  0.3097 -1.4812  0.0727
  925MPD2    H213593   1.663   0.462  14.698 -0.5761 -0.1978 -0.5848
  925MPD2    H313594   1.669   0.365  14.909 -0.8049 -0.1643  0.0452
  925MPD2     N13595   1.233   0.374  14.977 -0.4871  0.3249 -0.1397
  925MPD2    H513596   1.255   0.318  15.058 -0.4072 -0.3794 -0.6402
  925MPD2    N113597   1.443   0.462  14.547  0.3264  0.0639  0.2636
  925MPD2    H713598   1.349   0.481  14.511  0.1898  0.7641  0.9992
  926MPD2     C13599   0.381   3.657  13.081 -0.0176 -0.1398 -0.6534
  926MPD2    C113600   0.276   3.709  13.016 -1.0378 -0.3112  0.2160
  926MPD2    C213601   0.298   3.799  12.915  0.1843  0.7587 -0.9914
  926MPD2    C313602   0.425   3.833  12.881  0.4503  0.6373  0.1094
  926MPD2    C413603   0.535   3.775  12.946  0.1583 -0.3647 -0.7579
  926MPD2    C513604   0.512   3.691  13.051  0.7378  0.3319 -0.1295
  926MPD2     H13605   0.210   3.836  12.864 -0.6755  0.5526  0.3424
  926MPD2    H113606   0.641   3.782  12.927  0.0339  0.5924 -1.0920
  926MPD2    H213607   0.367   3.589  13.164 -0.0261 -1.5731 -1.8110
  926MPD2    H313608   0.597   3.655  13.108 -1.0433 -0.9512  1.7322
  926MPD2     N13609   0.460   3.922  12.772 -0.4773 -0.5951 -0.8872
  926MPD2    H513610   0.561   3.927  12.767 -0.3958 -1.3972  0.0228
  926MPD2    N113611   0.141   3.689  13.042  0.5876 -0.0194  0.1982
  926MPD2    H713612   0.071   3.735  12.985 -0.1960  0.9950  1.9650
  927MPD2     C13613   4.715   0.605  17.498 -0.1557  0.0526 -0.0936
  927MPD2    C113614   4.668   0.726  17.536 -0.0964 -0.7869 -0.2348
  927MPD2    C213615   4.709   0.840  17.470  0.1191 -0.2520  0.3003
  927MPD2    C313616   0.056   0.843  17.359  0.2165 -0.3418 -1.1260
  927MPD2    C413617   0.098   0.720  17.324  0.4465  0.4289  0.6419
  927MPD2    C513618   0.062   0.609  17.393 -0.3868  0.4955  0.3655
  927MPD2     H13619   4.670   0.936  17.501  1.8485  0.2437  0.9634
  927MPD2    H113620   0.166   0.705  17.241 -0.0573 -2.6546  0.7905
  927MPD2    H213621   4.701   0.509  17.548 -1.1275  0.1512 -0.1781
  927MPD2    H313622   0.107   0.515  17.365 -0.0278  1.0264 -0.8653
  927MPD2     N13623   0.087   0.963  17.293 -0.0934 -0.5588  0.1209
  927MPD2    H513624   0.048   1.048  17.332  1.2206  0.0028  0.2263
  927MPD2    N113625   4.578   0.739  17.645  0.2831 -0.1489 -0.3724
  927MPD2    H713626   4.565   0.837  17.669 -2.4587 -1.5280  3.6028
  928MPD2     C13627   2.622   4.216   0.960 -0.3552  0.4209  0.3488
  928MPD2    C113628   2.685   4.339   0.987  0.4311 -0.1913  0.8066
  928MPD2    C213629   2.788   4.371   0.903 -0.5647 -0.6627 -0.3981
  928MPD2    C313630   2.835   4.287   0.801 -0.6685 -0.2944 -0.0078
  928MPD2    C413631   2.774   4.170   0.779 -0.0139  0.0047  0.1869
  928MPD2    C513632   2.666   4.139   0.857  0.0788  0.2315  0.0660
  928MPD2     H13633   2.838   4.466   0.917 -1.0938 -0.3575 -0.5845
  928MPD2    H113634   2.809   4.113   0.694  0.2885 -2.8412  2.2053
  928MPD2    H213635   2.523   4.198   0.999 -0.6434 -1.2025 -1.1412
  928MPD2    H313636   2.600   4.054   0.842  1.2979 -0.7080 -0.0275
  928MPD2     N13637   2.939   4.320   0.714  0.3251 -0.0204 -0.4527
  928MPD2    H513638   2.965   4.251   0.643  1.3904  1.8200 -1.8544
  928MPD2    N113639   2.617   4.426   1.080  0.4965 -0.0833 -0.1563
  928MPD2    H713640   2.529   4.391   1.117 -0.4485 -1.4343 -3.6716
  929MPD2     C13641   2.849   4.638  10.243 -0.1993 -0.6886 -0.0773
  929MPD2    C113642   2.815   4.530  10.326  0.2234  0.2066 -0.2115
  929MPD2    C213643   2.679   4.488  10.325 -0.3523  0.9141  0.4288
  929MPD2    C313644   2.593   4.562  10.252  0.0150 -0.3836  0.1070
  929MPD2    C413645   2.628   4.671  10.171 -0.3840  0.6080 -0.0521
  929MPD2    C513646   2.756   4.705  10.166  0.3026 -0.5634  0.6203
  929MPD2     H13647   2.637   4.422  10.401 -1.0913  0.1119 -0.6609
  929MPD2    H113648   2.556   4.723  10.110  0.3359  0.2449 -1.2114
  929MPD2    H213649   2.950   4.676  10.239 -1.2198  2.0882  0.1040
  929MPD2    H313650   2.780   0.043  10.093  1.9001 -1.0830  0.6130
  929MPD2     N13651   2.449   4.538  10.252  0.4576 -0.2677 -0.0550
  929MPD2    H513652   2.396   4.598  10.189  0.0044 -0.3970  0.2069
  929MPD2    N113653   2.913   4.464  10.404 -0.2355  1.0972 -0.8193
  929MPD2    H713654   3.002   4.512  10.414  0.2905 -0.2454  1.0620
  930MPD2     C13655   4.250   1.211  14.463 -0.4423 -0.8066  0.3624
  930MPD2    C113656   4.261   1.327  14.396  0.7073  0.6485 -0.7097
  930MPD2    C213657   4.230   1.328  14.262 -0.0751 -0.2753 -0.0093
  930MPD2    C313658   4.200   1.222  14.189  0.8161  0.5092  0.0179
  930MPD2    C413659   4.188   1.102  14.258  0.4454  0.1395  0.2066
  930MPD2    C513660   4.211   1.101  14.390  0.4874 -0.4315  0.6890
  930MPD2     H13661   4.244   1.418  14.203 -0.5019 -0.3315 -0.1955
  930MPD2    H113662   4.167   1.005  14.215 -0.3753  0.9657 -1.2906
  930MPD2    H213663   4.265   1.201  14.569 -0.5315  1.5482  0.6036
  930MPD2    H313664   4.203   1.005  14.440  0.2688 -0.8997 -0.2410
  930MPD2     N13665   4.182   1.219  14.056 -0.1592  0.7891  0.0685
  930MPD2    H513666   4.179   1.130  14.007 -0.5132 -0.3707  2.2336
  930MPD2    N113667   4.289   1.451  14.452 -0.3073  0.5735  0.0015
  930MPD2    H713668   4.291   1.531  14.389 -1.8438  0.3569 -0.3061
  931MPD2     C13669   0.067   0.401   0.418 -0.3421 -0.2597  0.3160
  931MPD2    C113670   4.736   0.513   0.462 -0.7390  0.0664  0.8470
  931MPD2    C213671   0.063   0.600   0.554  0.2643 -0.2560 -0.3186
  931MPD2    C313672   0.183   0.563   0.610  0.1683  0.1035  0.2823
  931MPD2    C413673   0.243   0.450   0.577 -0.2349 -0.2460  0.1894
  931MPD2    C513674   0.189   0.370   0.483 -0.0433  0.0789 -0.1483
  931MPD2     H13675   4.732   0.673   0.596 -0.8456  0.1009 -2.7792
  931MPD2    H113676   0.339   0.420   0.617  0.4659 -2.9378 -3.5295
  931MPD2    H213677   0.026   0.337   0.340 -0.7833  1.2850 -0.7294
  931MPD2    H313678   0.251   0.284   0.456 -1.5781 -0.9685 -0.3530
  931MPD2     N13679   0.246   0.631   0.715  0.4249  0.0442  0.0927
  931MPD2    H513680   0.326   0.592   0.763  0.7054  1.1517  0.5156
  931MPD2    N113681   4.606   0.530   0.407  0.4765  0.1113 -0.6133
  931MPD2    H713682   4.576   0.454   0.347 -0.9989  0.0086  0.2802
  932MPD2     C13683   2.613   0.240  11.483 -0.4959  0.3491 -0.6078
  932MPD2    C113684   2.520   0.266  11.582 -0.2640  0.0320  0.0213
  932MPD2    C213685   2.559   0.256  11.711  0.6068 -0.0310  0.7055
  932MPD2    C313686   2.686   0.216  11.754 -0.1134  0.3278 -0.3878
  932MPD2    C413687   2.782   0.197  11.652  0.4385 -0.8753 -0.1980
  932MPD2    C513688   2.743   0.210  11.521 -0.1499  0.3553 -0.2863
  932MPD2     H13689   2.481   0.270  11.785 -0.5146  0.7339 -0.6228
  932MPD2    H113690   2.885   0.168  11.671  0.9432 -0.1101 -1.8062
  932MPD2    H213691   2.590   0.247  11.378 -1.0594  3.2547 -0.3071
  932MPD2    H313692   2.815   0.187  11.443 -0.5281  2.8536 -1.3732
  932MPD2     N13693   2.718   0.179  11.887  0.5325  0.2994  0.3354
  932MPD2    H513694   2.814   0.151  11.902 -0.7408 -2.3010  3.5498
  932MPD2    N113695   2.389   0.308  11.558 -0.2687  0.1306  0.3365
  932MPD2    H713696   2.344   0.347  11.640 -0.2929  1.5027 -0.3253
  933MPD2     C13697   2.190   4.220   1.469  0.0341 -0.4853  0.1535
  933MPD2    C113698   2.155   4.349   1.432 -0.2864 -0.5483  1.0490
  933MPD2    C213699   2.025   4.376   1.403 -0.3548  0.9233 -0.8293
  933MPD2    C313700   1.920   4.286   1.416  0.3078  0.0171 -0.4065
  933MPD2    C413701   1.957   4.161   1.451  0.2636  0.1817 -0.4285
  933MPD2    C513702   2.089   4.129   1.471  0.2515  0.6340  0.8348
  933MPD2     H13703   2.006   4.467   1.347 -0.7630  1.0856 -0.4357
  933MPD2    H113704   1.880   4.086   1.460 -0.4910  0.9851 -0.1597
  933MPD2    H213705   2.290   4.191   1.500 -0.6325 -2.1346  0.7589
  933MPD2    H313706   2.113   4.027   1.495 -0.4160 -0.1195 -1.6493
  933MPD2     N13707   1.794   4.316   1.369 -0.0453  0.2087  0.8049
  933MPD2    H513708   1.775   4.409   1.334  1.8675  0.4493  0.3800
  933MPD2    N113709   2.265   4.436   1.422 -0.3094 -0.5187  0.6398
  933MPD2    H713710   2.360   4.401   1.436  0.5287  2.1839  1.5889
  934MPD2     C13711   4.081   1.919   2.023  0.2435  1.0119  0.8631
  934MPD2    C113712   4.139   1.816   1.945  0.5526 -0.3218 -0.4493
  934MPD2    C213713   4.065   1.747   1.858  0.3113 -0.5094 -0.5650
  934MPD2    C313714   3.936   1.775   1.828 -0.1709 -0.3269 -0.4625
  934MPD2    C413715   3.877   1.878   1.899  0.0198 -0.1821  0.7198
  934MPD2    C513716   3.947   1.942   1.999 -0.2672 -0.4378  0.3942
  934MPD2     H13717   4.111   1.666   1.802 -2.0592 -1.8225 -0.5751
  934MPD2    H113718   3.773   1.897   1.876  0.5256  0.6352 -0.8540
  934MPD2    H213719   4.141   1.975   2.094 -0.2884  4.3441 -1.3141
  934MPD2    H313720   3.897   2.020   2.056  1.2058 -0.9594  2.3734
  934MPD2     N13721   3.850   1.712   1.739  0.3488 -0.0006  0.0048
  934MPD2    H513722   3.752   1.737   1.736  0.1534 -0.6626  1.0764
  934MPD2    N113723   4.275   1.774   1.968 -0.2817  0.3013 -0.1070
  934MPD2    H713724   4.308   1.707   1.898 -2.0675 -0.2640 -0.4191
  935MPD2     C13725   4.106   1.042   1.028 -0.1034 -0.0783  0.5672
  935MPD2    C113726   3.972   1.074   1.018  0.4499 -0.0042 -0.3190
  935MPD2    C213727   3.910   1.154   1.112 -0.4062  0.1824  0.4869
  935MPD2    C313728   3.976   1.189   1.227  0.4676 -0.3855 -0.1023
  935MPD2    C413729   4.108   1.156   1.240 -0.1577 -0.5511  0.0323
  935MPD2    C513730   4.172   1.079   1.147 -0.5235  0.2422  0.2039
  935MPD2     H13731   3.805   1.177   1.093  0.6744  3.0069 -2.1461
  935MPD2    H113732   4.172   1.197   1.317 -0.1975  0.5581 -0.5249
  935MPD2    H213733   4.169   0.995   0.954 -2.1880 -0.8370 -0.7294
  935MPD2    H313734   4.276   1.050   1.161 -0.1700  1.5709  0.3445
  935MPD2     N13735   3.915   1.252   1.332 -0.0424  0.0728  0.1897
  935MPD2    H513736   3.968   1.285   1.412 -1.2910 -0.6626  1.3136
  935MPD2    N113737   3.889   1.037   0.913 -0.5087 -0.0665  0.0636
  935MPD2    H713738   3.797   1.077   0.898 -0.9135 -0.2381  2.0479
  936MPD2     C13739   1.860   3.356  12.270 -1.2592  0.1747  0.7430
  936MPD2    C113740   1.989   3.315  12.312 -0.2072  0.0188  0.0034
  936MPD2    C213741   2.099   3.399  12.300 -0.6489  0.3993 -0.0557
  936MPD2    C313742   2.077   3.524  12.248 -0.1136 -0.3148 -0.2721
  936MPD2    C413743   1.958   3.562  12.191  0.3054 -0.2807  0.0915
  936MPD2    C513744   1.847   3.473  12.203  0.2525  0.0462 -0.1016
  936MPD2     H13745   2.200   3.375  12.331 -0.6822 -0.2595 -0.4553
  936MPD2    H113746   1.939   3.657  12.141 -2.9381 -1.1499 -0.3144
  936MPD2    H213747   1.768   3.300  12.282 -0.4004 -1.4394 -0.1877
  936MPD2    H313748   1.751   3.515  12.176 -0.0464  1.3126  2.8958
  936MPD2     N13749   2.183   3.612  12.268 -0.2608 -0.1305 -0.0870
  936MPD2    H513750   2.263   3.578  12.321 -2.3332 -0.4874  2.8127
  936MPD2    N113751   2.009   3.187  12.379  0.1719  0.5302 -0.3770
  936MPD2    H713752   2.105   3.163  12.404 -0.3731 -1.1842  0.0596
  937MPD2     C13753   4.464   0.486  11.657 -0.6479 -0.0604  0.5572
  937MPD2    C113754   4.546   0.595  11.684  0.3204  0.3144  0.2077
  937MPD2    C213755   4.617   0.643  11.575  0.0591 -0.2556  0.3064
  937MPD2    C313756   4.628   0.575  11.455  0.6475 -0.1222 -0.6992
  937MPD2    C413757   4.553   0.457  11.446  0.6485 -0.3436 -0.1007
  937MPD2    C513758   4.477   0.409  11.542  0.0468  0.2395  0.1279
  937MPD2     H13759   4.649   0.747  11.580 -0.5117 -0.0801  0.2457
  937MPD2    H113760   4.558   0.395  11.357  2.4918  0.7405 -0.7501
  937MPD2    H213761   4.382   0.455  11.721 -1.3754  0.7314  0.0006
  937MPD2    H313762   4.418   0.318  11.534 -0.4248  0.4343  1.2918
  937MPD2     N13763   4.694   0.634  11.342 -0.3162 -0.3756  0.8096
  937MPD2    H513764   0.022   0.709  11.356 -2.4008  1.2026  2.1099
  937MPD2    N113765   4.525   0.678  11.796 -0.1210  0.3976 -0.9458
  937MPD2    H713766   4.565   0.771  11.795  1.1349 -0.1504 -2.6090
  938MPD2     C13767   2.411   1.394   0.990  0.1772 -0.7180  0.1266
  938MPD2    C113768   2.502   1.301   0.951 -0.1437  0.0253  0.1913
  938MPD2    C213769   2.509   1.183   1.022 -0.0955  0.5607  0.4046
  938MPD2    C313770   2.426   1.167   1.134  0.7519 -0.4330  0.0435
  938MPD2    C413771   2.323   1.250   1.159  0.4068 -0.3232 -0.7215
  938MPD2    C513772   2.320   1.364   1.091 -0.2500  0.0065 -0.5282
  938MPD2     H13773   2.582   1.111   0.988 -1.8968 -1.8556  1.6450
  938MPD2    H113774   2.247   1.223   1.231 -0.7888 -0.8753 -2.1842
  938MPD2    H213775   2.391   1.493   0.950 -1.1976 -1.1256 -0.2008
  938MPD2    H313776   2.236   1.432   1.103  0.5355  1.0983 -1.2999
  938MPD2     N13777   2.426   1.049   1.216  0.6385 -0.2187  0.7056
  938MPD2    H513778   2.353   1.043   1.287  0.2798 -0.8103  0.2863
  938MPD2    N113779   2.605   1.322   0.853  0.4848 -0.3149 -0.7740
  938MPD2    H713780   2.674   1.249   0.836 -0.4774 -1.6391  0.9622
  939MPD2     C13781   3.977   1.824   0.549  0.1070 -0.6308 -0.0143
  939MPD2    C113782   3.991   1.954   0.552 -0.9953 -0.2147  0.0820
  939MPD2    C213783   4.057   2.019   0.442  0.3057 -0.6765  0.4501
  939MPD2    C313784   4.100   1.952   0.331  0.4104 -0.1711  0.2535
  939MPD2    C413785   4.077   1.818   0.331 -0.9491  0.3332  0.4728
  939MPD2    C513786   4.026   1.756   0.438 -0.3597  0.3482 -0.5377
  939MPD2     H13787   4.073   2.126   0.449 -1.8498 -0.3333  0.2519
  939MPD2    H113788   4.110   1.764   0.243  1.8508  2.9398 -0.0951
  939MPD2    H213789   3.920   1.767   0.621 -2.4823  0.5245 -1.1261
  939MPD2    H313790   4.024   1.647   0.437  1.7735  0.2987  0.4286
  939MPD2     N13791   4.170   2.025   0.237 -0.4315  0.1971  0.8640
  939MPD2    H513792   4.172   2.125   0.255  1.9397  0.6936 -2.0464
  939MPD2    N113793   3.938   2.017   0.666 -0.0712  0.2835 -0.4968
  939MPD2    H713794   3.916   1.959   0.747 -0.0241 -0.3303 -0.9221
  940MPD2     C13795   3.097   3.408  13.317 -0.3710  0.4751  0.1756
  940MPD2    C113796   2.993   3.316  13.330 -0.1521  1.1107  0.1356
  940MPD2    C213797   2.913   3.282  13.218 -0.3822  0.2465  0.1952
  940MPD2    C313798   2.946   3.333  13.091  0.6589  0.3660 -0.0289
  940MPD2    C413799   3.042   3.435  13.082 -0.2185 -0.1505  0.7725
  940MPD2    C513800   3.118   3.469  13.197  0.3714 -0.3576 -0.3276
  940MPD2     H13801   2.842   3.205  13.243  0.2342 -0.6658 -0.8820
  940MPD2    H113802   3.073   3.481  12.989 -1.4022 -0.9506 -0.0162
  940MPD2    H213803   3.165   3.431  13.398  0.4715 -0.1668 -0.3512
  940MPD2    H313804   3.194   3.546  13.196  0.2353 -0.2195  0.0266
  940MPD2     N13805   2.883   3.293  12.973 -0.9763 -0.3871  0.0686
  940MPD2    H513806   2.912   3.336  12.886  0.7369 -0.4280  0.6195
  940MPD2    N113807   2.963   3.255  13.452  0.0600  0.4088 -0.6860
  940MPD2    H713808   2.882   3.194  13.457  1.3879 -1.1336  2.2024
  941MPD2     C13809   1.986   3.338  10.007  0.7212  0.0056  0.0807
  941MPD2    C113810   2.085   3.254  10.058 -0.1895  0.1644 -0.8837
  941MPD2    C213811   2.047   3.121  10.087  0.0314 -0.2412  0.1941
  941MPD2    C313812   1.912   3.078  10.072  0.3805 -0.8319 -0.4006
  941MPD2    C413813   1.821   3.168  10.029  0.3556  0.0972  0.5164
  941MPD2    C513814   1.858   3.297   9.993 -0.0869  0.3453  0.2709
  941MPD2     H13815   2.117   3.044  10.116  0.7032 -0.3144 -1.5860
  941MPD2    H113816   1.716   3.143  10.018  0.0514  1.1238  1.0935
  941MPD2    H213817   1.990   3.445   9.991 -1.6043  0.3588  1.8231
  941MPD2    H313818   1.788   3.373   9.961  0.7551  0.4712 -1.2920
  941MPD2     N13819   1.862   2.946  10.090 -0.5499 -0.4334  0.2635
  941MPD2    H513820   1.764   2.927  10.072 -0.8662  0.2876  1.2507
  941MPD2    N113821   2.219   3.297  10.062 -0.1486  0.0985  0.1988
  941MPD2    H713822   2.291   3.238  10.103  0.4851  0.0941 -0.9020
  942MPD2     C13823   1.981   0.862   9.365 -0.3221 -0.6227 -0.4173
  942MPD2    C113824   2.117   0.897   9.379  0.3746  0.0866 -0.8542
  942MPD2    C213825   2.209   0.808   9.333  0.2041  0.1968 -0.3279
  942MPD2    C313826   2.172   0.680   9.288 -0.2714  0.4041  0.6141
  942MPD2    C413827   2.039   0.643   9.281 -0.6012  0.5086  0.9302
  942MPD2    C513828   1.944   0.736   9.323  0.8855  0.0790  0.0684
  942MPD2     H13829   2.312   0.832   9.357 -0.1243  0.5885  0.6989
  942MPD2    H113830   2.008   0.545   9.248 -0.1901  0.5334  0.4707
  942MPD2    H213831   1.902   0.933   9.388 -0.5766 -0.6765 -1.1128
  942MPD2    H313832   1.839   0.713   9.325  0.1694  3.2690 -0.1751
  942MPD2     N13833   2.272   0.580   9.253  0.5988 -0.4395  0.0682
  942MPD2    H513834   2.246   0.486   9.226  1.6678 -1.4757  2.6648
  942MPD2    N113835   2.170   1.023   9.429  0.3763 -0.3170  0.1488
  942MPD2    H713836   2.270   1.038   9.417  0.1176  0.3844 -1.1075
  943MPD2     C13837   0.493   3.483   9.832  0.6195  0.3103  0.2382
  943MPD2    C113838   0.485   3.352   9.873  0.1294 -0.2693 -0.2504
  943MPD2    C213839   0.557   3.322   9.989  1.0197  0.2996  0.0541
  943MPD2    C313840   0.627   3.418  10.064  0.1048  0.1129 -0.2801
  943MPD2    C413841   0.618   3.551  10.029  0.0191  0.2110  0.0462
  943MPD2    C513842   0.556   3.584   9.912  0.0006  0.2535 -0.1798
  943MPD2     H13843   0.539   3.223  10.029  1.1397 -0.5813 -2.0312
  943MPD2    H113844   0.658   3.630  10.092  1.6306 -0.5809  0.0194
  943MPD2    H213845   0.426   3.525   9.759 -0.0108 -0.3089  0.4631
  943MPD2    H313846   0.540   3.688   9.886  0.2606  0.8550  2.0716
  943MPD2     N13847   0.699   3.392  10.185 -0.3817  0.2008  0.1444
  943MPD2    H513848   0.740   3.465  10.243 -1.5954  2.0831 -1.3447
  943MPD2    N113849   0.408   3.258   9.800  0.0550  0.1348 -0.1179
  943MPD2    H713850   0.367   3.293   9.714 -1.9952  1.6675  1.4751
  944MPD2     C13851   0.346   2.386  11.074 -0.1855  0.5372  0.3474
  944MPD2    C113852   0.292   2.299  11.158 -0.5652 -0.3279 -0.0142
  944MPD2    C213853   0.242   2.345  11.279  0.3366 -0.4678  0.1191
  944MPD2    C313854   0.284   2.469  11.327  0.8737  0.6156 -0.3912
  944MPD2    C413855   0.355   2.557  11.243 -0.0119  0.2946 -0.2936
  944MPD2    C513856   0.371   2.517  11.114  0.0072  1.0909 -0.3231
  944MPD2     H13857   0.202   2.281  11.357 -1.5783  1.7627  0.9508
  944MPD2    H113858   0.389   2.653  11.279  3.2697 -0.6867 -0.7720
  944MPD2    H213859   0.370   2.360  10.971  0.9619  2.2305  0.1979
  944MPD2    H313860   0.411   2.588  11.042 -1.4454  2.0500 -0.1839
  944MPD2     N13861   0.251   2.499  11.464 -0.6405  0.0873 -0.0502
  944MPD2    H513862   0.190   2.434  11.513 -0.9255 -0.8883 -1.6848
  944MPD2    N113863   0.277   2.165  11.116  0.5971  0.5982 -0.6402
  944MPD2    H713864   0.307   2.148  11.021 -0.0412 -2.5570 -0.2853
    1TMC1    C113865   3.781   2.359  15.055 -0.3003  0.8331  0.0096
    1TMC1    C213866   3.771   2.367  14.918  0.4940 -0.4086  0.2234
    1TMC1    C313867   3.765   2.251  14.848 -0.2258  0.3084 -0.0889
    1TMC1    C413868   3.778   2.241  15.122  0.0676  0.6190  0.2737
    1TMC1    C513869   3.766   2.130  15.053  0.1578 -0.5434 -0.2607
    1TMC1    C613870   3.766   2.128  14.920  0.5832  0.1425 -0.6415
    1TMC1     C13871   3.764   2.475  15.138  0.1327 -0.4390  0.8238
    1TMC1     O13872   3.825   2.468  15.246  0.2735  0.9795 -0.4107
    1TMC1     H13873   3.781   2.462  14.866  3.7904  0.3572  2.2749
    1TMC1    H113874   3.769   2.252  15.230  0.6378 -2.4900  0.6535
    1TMC1    H213875   3.755   2.030  14.875 -1.4496 -0.0338  0.2378
    1TMC1    C713876   3.720   2.005  15.111  0.1159  0.2488  0.6663
    1TMC1    C813877   3.706   2.258  14.720  0.3140 -0.0549 -0.0320
    1TMC1    O113878   3.645   1.935  15.049  0.0626 -0.0816 -0.0548
    1TMC1    O213879   3.603   2.321  14.697  0.1222 -0.7425 -0.0200
    1TMC1    O313880   3.742   2.016  15.243 -0.2333 -0.2780  0.3977
    1TMC1    H313881   3.818   2.077  15.255  1.0886 -1.4853 -1.8054
    1TMC1    O513882   3.752   2.152  14.642  0.4788  0.2623  0.0461
    1TMC1    H513883   3.824   2.105  14.688  1.3928 -0.3453 -2.0475
    2MPD2     C13884   3.636   2.969  15.207 -0.9183  0.4005 -0.3825
    2MPD2    C113885   3.605   2.934  15.076 -0.0162 -0.5391  0.6547
    2MPD2    C213886   3.638   2.812  15.033  0.2047 -0.9121 -0.2236
    2MPD2    C313887   3.693   2.719  15.118  0.1233  0.2941  0.2909
    2MPD2    C413888   3.708   2.746  15.246  0.2266 -0.3510  0.4403
    2MPD2    C513889   3.679   2.871  15.296 -0.3954 -0.3844 -0.1884
    2MPD2     H13890   3.634   2.797  14.926  1.3055  1.0419 -0.5391
    2MPD2    H113891   3.735   2.670  15.318  0.6589  0.3570  1.0268
    2MPD2    H213892   3.615   3.072  15.234 -2.0483  0.0602  0.0794
    2MPD2    H313893   3.695   2.895  15.400 -1.5652  1.3706 -0.4218
    2MPD2     N13894   3.721   2.587  15.068 -0.3691  0.6105  0.3498
    2MPD2    H513895   3.701   2.575  14.969 -3.4569  0.7578  0.9555
    2MPD2    N113896   3.554   3.036  14.985 -0.1186  0.4458  0.8607
    2MPD2    H713897   3.565   3.129  15.023  0.3949 -0.4551  2.9663
    3TMC2    C113898   3.479   3.137  14.789 -0.3128  0.1429  0.0806
    3TMC2    C213899   3.477   3.262  14.853  0.1352  0.8737  0.4322
    3TMC2    C313900   3.448   3.366  14.771 -0.2361  0.2081 -0.8503
    3TMC2    C413901   3.458   3.122  14.653  0.2862 -0.1998 -0.4749
    3TMC2    C513902   3.433   3.238  14.585 -0.2822  0.6852 -0.1037
    3TMC2    C613903   3.426   3.363  14.641  0.2677  0.3629  0.3777
    3TMC2     C13904   3.519   3.015  14.856  0.0504 -0.6455  0.3996
    3TMC2     O13905   3.480   2.913  14.799  0.1361  0.3761  0.3725
    3TMC2     H13906   3.503   3.276  14.957  0.3808 -0.7153  0.5911
    3TMC2    H113907   3.471   3.028  14.600 -0.7030  0.1248 -1.2814
    3TMC2    H213908   3.410   3.455  14.585 -2.6985 -0.3722  0.0250
    3TMC2    C713909   3.406   3.226  14.442 -0.1021 -0.1560  1.1061
    3TMC2    C813910   3.480   3.492  14.829 -0.3167 -0.1905  0.2390
    3TMC2    O113911   3.404   3.108  14.404 -0.5847 -0.5637  0.0757
    3TMC2    O213912   3.546   3.502  14.925 -0.4716  0.0751  0.0360
    3TMC2    O513913   3.428   3.594  14.760  0.3095  0.3125 -0.7062
    3TMC2    H513914   3.351   3.566  14.705 -0.7722  2.4497 -0.2905
    4TMC2    C113915   2.908   3.902  13.951 -0.7578 -0.4363  0.0217
    4TMC2    C213916   2.929   3.934  13.816  0.4440 -0.1539 -0.5512
    4TMC2    C313917   3.060   3.905  13.774  0.4915  0.3233  0.0060
    4TMC2    C413918   3.002   3.860  14.040  0.0822  0.0790  0.0234
    4TMC2    C513919   3.123   3.824  13.988 -0.0037  0.7131 -0.1661
    4TMC2    C613920   3.144   3.833  13.854  0.4890 -0.0129 -0.2421
    4TMC2     C13921   2.767   3.885  13.995 -0.1739 -0.5670 -0.4315
    4TMC2     O13922   2.747   3.849  14.110 -0.2403 -0.1602  0.9299
    4TMC2     H13923   2.863   4.004  13.767  0.1013 -0.4787 -0.5639
    4TMC2    H113924   2.973   3.838  14.142 -3.9186  0.1621 -1.0872
    4TMC2    H213925   3.246   3.823  13.819  0.2827 -0.7661 -0.6303
    4TMC2    C713926   3.198   3.732  14.075  0.0588  0.5877  0.2386
    4TMC2    C813927   3.123   3.965  13.655 -0.2300  0.0198 -0.1921
    4TMC2    O113928   3.170   3.743  14.193  0.1088 -0.4772  0.3162
    4TMC2    O213929   3.238   3.944  13.625 -0.3906  0.4735  0.0959
    4TMC2    O513930   3.030   3.988  13.557  0.7950 -0.4282  0.0242
    4TMC2    H513931   2.936   3.983  13.584  0.0033 -3.0555 -3.1823
    5MPD2     C13932   2.270   3.830  13.893 -0.0776  0.2057 -0.3427
    5MPD2    C113933   2.322   3.895  13.786 -0.5585  0.2934 -0.5008
    5MPD2    C213934   2.457   3.924  13.788 -0.1134 -0.8978 -0.4714
    5MPD2    C313935   2.542   3.890  13.899  0.8513  0.0712 -0.4520
    5MPD2    C413936   2.479   3.832  14.011 -0.2126  0.3119 -0.1572
    5MPD2    C513937   2.338   3.806  14.004  0.0358  0.5645  0.2298
    5MPD2     H13938   2.503   3.985  13.711  2.1094  0.6036  2.0313
    5MPD2    H113939   2.527   3.801  14.103  0.2286  0.0528 -0.4767
    5MPD2    H213940   2.166   3.799  13.900 -0.6012  2.6368  2.4773
    5MPD2    H313941   2.287   3.752  14.082  0.1829 -1.2595 -0.9181
    5MPD2     N13942   2.679   3.914  13.893 -0.2939  0.2618 -0.1463
    5MPD2    H513943   2.712   3.948  13.803  0.8823 -1.8904 -0.5235
    5MPD2    N113944   2.238   3.907  13.669  0.2250  0.4738  0.4087
    5MPD2    H713945   2.143   3.872  13.676  0.1341  0.7650  0.6046
    6MPD1     C13946   1.326   0.761  13.330  0.8552  0.1166  0.0680
    6MPD1    C113947   1.378   0.736  13.201  0.5267 -1.1391  0.7767
    6MPD1    C213948   1.427   0.608  13.167 -0.0845  0.4358 -0.1211
    6MPD1    C313949   1.428   0.514  13.262 -0.2559 -0.8303  0.2968
    6MPD1    C413950   1.388   0.546  13.392  0.4478  0.2245 -0.0064
    6MPD1    C513951   1.340   0.669  13.426  0.4167 -0.4607 -0.5346
    6MPD1     H13952   1.463   0.587  13.067 -1.6470 -2.7052 -0.0098
    6MPD1    H113953   1.388   0.473  13.471  2.9519 -1.8082 -1.8917
    6MPD1    H213954   1.290   0.861  13.352  1.8855  0.7117 -0.9687
    6MPD1    H313955   1.297   0.686  13.524 -0.2702 -0.8722 -0.7691
    6MPD1     N13956   1.475   0.384  13.239 -0.4400 -0.1004 -0.0403
    6MPD1    H513957   1.476   0.318  13.316  0.9361 -2.0798 -1.7484
    6MPD1    N113958   1.386   0.848  13.116  0.0272  0.1101  0.3402
    6MPD1    H613959   1.313   0.915  13.138 -0.6050 -0.6489  0.5537
    6MPD1    H713960   1.376   0.819  13.019 -1.2929 -1.4658  0.9480
    7MPD2     C13961   1.441   4.319  13.294  0.1509  0.5374  0.5585
    7MPD2    C113962   1.564   4.381  13.316 -0.1597  0.6022  0.1717
    7MPD2    C213963   1.675   4.301  13.353  0.6726 -0.5304  0.7867
    7MPD2    C313964   1.666   4.163  13.346 -0.3567 -0.8861 -0.5513
    7MPD2    C413965   1.545   4.108  13.315  0.2313 -0.3967 -0.3017
    7MPD2    C513966   1.431   4.183  13.300  0.5363  0.0548 -0.2133
    7MPD2     H13967   1.773   4.345  13.369 -0.0053  2.0369 -2.0766
    7MPD2    H113968   1.535   4.001  13.305 -1.5594 -0.1240 -1.4005
    7MPD2    H213969   1.350   4.375  13.272  0.3710  1.7352  2.6714
    7MPD2    H313970   1.337   4.136  13.273  1.1622 -0.4646 -1.4764
    7MPD2     N13971   1.774   4.069  13.361 -1.0251 -0.0899  0.9039
    7MPD2    H513972   1.750   3.970  13.354  0.1597 -0.2437 -1.0362
    7MPD2    N113973   1.589   4.521  13.296  0.0136 -0.5199  0.0424
    7MPD2    H713974   1.682   4.559  13.309  0.6863 -1.9346 -0.6148
    8TMC3    C113975   1.987   3.990  13.349 -0.4403 -0.4743  0.4294
    8TMC3    C213976   2.074   3.958  13.451 -0.5376 -0.5947 -0.4254
    8TMC3    C313977   2.207   3.937  13.429  0.5013  0.4676  1.3421
    8TMC3    C413978   2.039   4.023  13.226 -0.1216 -0.0892 -0.1441
    8TMC3    C513979   2.169   4.020  13.205  0.5936  0.7982 -0.0703
    8TMC3    C613980   2.254   3.970  13.302 -0.5808 -0.1990 -0.6406
    8TMC3     C13981   1.905   4.107  13.376  0.4389 -0.5145 -0.2429
    8TMC3     O13982   1.963   4.215  13.394  0.5479 -0.1245 -0.0386
    8TMC3     H13983   2.018   3.937  13.541 -0.1844 -1.8653 -0.5017
    8TMC3    H113984   1.972   4.060  13.149  0.0173  0.6437  0.0858
    8TMC3    H213985   2.354   3.939  13.274 -0.4910  0.6198 -1.2514
    8TMC3    C713986   2.219   4.135  13.133 -0.5894  0.3122  0.4741
    8TMC3    C813987   2.291   3.938  13.543 -0.1729 -0.0958 -0.0801
    8TMC3    O113988   2.324   4.121  13.075 -0.3760 -0.4188 -0.1667
    8TMC3    O213989   2.401   3.977  13.513 -0.1973  0.2477 -0.4379
    9TMC3    C113990   1.593   0.211  13.150  0.1252  0.2597  0.2664
    9TMC3    C213991   1.691   0.172  13.055 -0.2595  0.0172  0.0261
    9TMC3    C313992   1.720   0.045  13.038 -0.3275 -0.2733 -0.7588
    9TMC3    C413993   1.528   0.120  13.217 -0.3505  0.3532  0.8714
    9TMC3    C513994   1.565   4.726  13.199 -0.7104 -0.6104  0.8857
    9TMC3    C613995   1.664   4.682  13.114  0.1534 -0.0281 -0.3205
    9TMC3     C13996   1.542   0.340  13.129 -0.9262 -0.0005  0.0691
    9TMC3     O13997   1.571   0.407  13.029  0.4923  0.7730 -0.1753
    9TMC3     H13998   1.745   0.246  12.998 -1.5067  1.1458  0.3093
    9TMC3    H113999   1.440   0.141  13.278 -1.0232  3.9187 -1.3482
    9TMC3    H214000   1.681   4.578  13.088  1.8821  0.5407 -1.4528
    9TMC3    C714001   1.494   4.619  13.266  0.3075 -0.5399 -0.0154
    9TMC3    C814002   1.846   0.003  12.982 -0.1488  0.1128  0.2378
    9TMC3    O114003   1.383   4.628  13.303  0.5485 -0.1568 -0.2546
    9TMC3    O214004   1.878   0.048  12.875  0.7668  0.6156 -0.2782
   10MPD2     C14005   2.244   4.397  13.000 -0.3014 -0.1985 -0.1234
   10MPD2    C114006   2.142   4.370  13.092 -0.4211  0.4917  0.3100
   10MPD2    C214007   2.036   4.456  13.113 -0.2189 -0.7645  0.2865
   10MPD2    C314008   2.018   4.566  13.036 -0.7281  1.0207  0.7714
   10MPD2    C414009   2.101   4.588  12.927  0.5528  0.4480  0.0361
   10MPD2    C514010   2.218   4.506  12.916  0.0271 -0.2282 -0.2752
   10MPD2     H14011   1.972   4.435  13.198  1.4080  0.8143  1.9064
   10MPD2    H114012   2.081   4.663  12.851  1.0545 -0.1882 -0.7215
   10MPD2    H214013   2.333   4.339  12.975 -0.4502 -1.2581  1.8200
   10MPD2    H314014   2.288   4.526  12.836  2.1436 -3.3591  0.8196
   10MPD2     N14015   1.907   4.649  13.063  0.6032  0.3803 -0.0220
   10MPD2    H514016   1.857   4.634  13.150  2.3249 -0.8543  0.7532
   10MPD2    N114017   2.134   4.244  13.147 -0.0981 -0.1827  0.1949
   10MPD2    H714018   2.059   4.222  13.212  0.2787 -2.0538  0.0074
   11MPD2     C14019   3.350   3.246  14.148  0.2073  0.5392  0.8036
   11MPD2    C114020   3.357   3.360  14.237  0.0209 -0.3639 -0.2965
   11MPD2    C214021   3.327   3.487  14.190 -0.5245  0.0838 -0.2045
   11MPD2    C314022   3.291   3.503  14.057  0.7606  0.4838  0.0024
   11MPD2    C414023   3.297   3.389  13.974  0.0893 -0.0046 -0.1384
   11MPD2    C514024   3.331   3.267  14.018  0.5860 -0.1843 -1.3011
   11MPD2     H14025   3.346   3.571  14.256  2.8033 -1.5249  0.9016
   11MPD2    H114026   3.281   3.393  13.867  1.2927 -1.5123 -0.3611
   11MPD2    H214027   3.378   3.152  14.195 -0.3825  0.9009  1.8631
   11MPD2    H314028   3.339   3.184  13.950 -0.0304 -0.0082 -1.5930
   11MPD2     N14029   3.253   3.630  14.004  0.4465 -0.2206 -0.1669
   11MPD2    H514030   3.233   3.636  13.904 -1.4854  2.2456  0.3778
   11MPD2    N114031   3.395   3.347  14.368 -0.1015 -0.0234 -0.3369
   11MPD2    H714032   3.392   3.436  14.417  1.7328 -1.2625  2.0138
    1MPD1     C14033   2.004   4.592  16.076 -0.0506  0.2973  0.6676
    1MPD1    C114034   1.872   4.563  16.057  0.0192 -1.1670 -0.9988
    1MPD1    C214035   1.779   4.661  16.078 -0.4677 -0.2639 -0.4902
    1MPD1    C314036   1.814   0.050  16.119 -0.8055 -0.0191 -0.3219
    1MPD1    C414037   1.945   0.076  16.141  0.6073 -0.8716 -0.1363
    1MPD1    C514038   2.038   4.714  16.132  0.3046  0.4075  0.1869
    1MPD1     H14039   1.675   4.635  16.066 -0.8037  1.4086 -1.1596
    1MPD1    H114040   1.981   0.168  16.187 -0.5157 -0.8209  0.6316
    1MPD1    H214041   2.087   4.522  16.069  1.0253  1.2614  3.5898
    1MPD1    H314042   2.140   4.723  16.168 -0.6981  1.9478  2.6160
    1MPD1     N14043   1.718   0.151  16.142 -0.0398  0.3865 -0.5128
    1MPD1    H514044   1.756   0.236  16.182 -0.7734  0.8622 -0.8330
    1MPD1    N114045   1.840   4.428  16.029 -0.6256 -0.3620 -0.6037
    1MPD1    H614046   1.897   4.392  15.953 -3.0436  1.1770 -3.1614
    1MPD1    H714047   1.740   4.418  16.010 -0.4247 -1.7354 -0.9667
    2MPD1     C14048   1.834   0.773  16.731 -0.1781  0.4050  0.4343
    2MPD1    C114049   1.826   0.634  16.743  0.1374 -0.1485  0.5911
    2MPD1    C214050   1.758   0.563  16.648  0.0742  0.6826  0.4083
    2MPD1    C314051   1.704   0.620  16.539 -0.5562  0.0141 -0.0353
    2MPD1    C414052   1.716   0.758  16.522 -0.7140  0.2746 -0.4164
    2MPD1    C514053   1.789   0.830  16.616  0.0368 -0.3136  0.5764
    2MPD1     H14054   1.742   0.456  16.662  0.6341  0.4858 -0.4695
    2MPD1    H114055   1.673   0.817  16.441 -0.4331  0.6540 -0.2874
    2MPD1    H214056   1.889   0.834  16.802 -0.5458  0.9969  0.2045
    2MPD1    H314057   1.815   0.935  16.605  1.5026 -0.6758  0.6176
    2MPD1     N14058   1.622   0.543  16.451 -0.0860 -0.3348  0.1701
    2MPD1    H514059   1.610   0.446  16.477 -0.5589 -0.8766 -2.0865
    2MPD1    N114060   1.863   0.566  16.855 -0.2690 -0.4871  0.0039
    2MPD1    H614061   1.936   0.619  16.902 -0.4368  1.8213 -2.3238
    2MPD1    H714062   1.892   0.471  16.831  0.0767 -0.7798  1.6049
    3TMC3    C114063   1.498   0.480  16.254  0.2166  0.3699  0.4702
    3TMC3    C214064   1.381   0.517  16.199  0.7036 -0.2550  0.8349
    3TMC3    C314065   1.338   0.436  16.095  0.4417 -0.1617  0.0686
    3TMC3    C414066   1.569   0.370  16.220 -0.2245 -0.6139  0.0383
    3TMC3    C514067   1.524   0.286  16.120  0.4015 -0.2636  0.3378
    3TMC3    C614068   1.400   0.319  16.062  0.1485  0.8366  0.7805
    3TMC3     C14069   1.564   0.586  16.331  0.0485 -0.3359 -0.1176
    3TMC3     O14070   1.551   0.696  16.287 -0.5001 -0.2743  0.4727
    3TMC3     H14071   1.334   0.611  16.227 -0.9648 -1.1345  1.0157
    3TMC3    H114072   1.661   0.359  16.278 -0.7764 -1.1186  0.8122
    3TMC3    H214073   1.365   0.255  15.981 -1.6420  0.4729  1.8440
    3TMC3    C714074   1.583   0.153  16.103  1.0609  0.2700 -1.0262
    3TMC3    C814075   1.216   0.480  16.035  0.1233  0.3830 -0.1716
    3TMC3    O114076   1.516   0.077  16.035  0.3466 -0.8501 -0.1238
    3TMC3    O214077   1.163   0.576  16.086  0.4489 -0.3309  0.4239
    4MPD1     C14078   0.803   0.472  15.711 -0.0234  0.1921 -0.3275
    4MPD1    C114079   0.866   0.353  15.706  0.0178  0.6508 -0.2874
    4MPD1    C214080   0.986   0.329  15.773  0.3699  0.3297 -0.7249
    4MPD1    C314081   1.050   0.421  15.863 -0.3838 -0.5249  0.2140
    4MPD1    C414082   0.974   0.538  15.877  0.5697 -0.6444  0.0461
    4MPD1    C514083   0.857   0.558  15.803  0.3618 -0.6886  0.8228
    4MPD1     H14084   1.041   0.237  15.758  0.9483  0.5392  0.1152
    4MPD1    H114085   0.992   0.621  15.944 -1.2878 -1.0475  1.0411
    4MPD1    H214086   0.711   0.492  15.657 -0.2268 -0.5311 -0.2463
    4MPD1    H314087   0.803   0.652  15.807  0.7909 -0.3555 -1.2456
    4MPD1     N14088   1.172   0.396  15.932  0.1872 -0.1379 -0.1889
    4MPD1    H514089   1.207   0.300  15.936 -1.5601 -0.8307 -1.5105
    4MPD1    N114090   0.823   0.252  15.619 -0.4469 -0.5737  0.0941
    4MPD1    H614091   0.855   0.161  15.649 -2.4110 -1.4892 -0.5999
    4MPD1    H714092   0.722   0.239  15.613 -0.4581 -0.4750  0.0564
    1TCq1    O114093   2.360   4.635  11.517 -0.5320  0.2173  0.1027
    1TCq1    C114094   2.370   4.695  11.641  0.2224  0.3424  0.1683
    1TCq1    O214095   2.272   0.003  11.700  0.2113 -0.7555  0.3238
    1TCq1    C214096   2.487   4.657  11.719 -0.8294  0.0864 -1.0938
    1TCq1    C314097   2.459   4.611  11.844 -0.1002 -0.2583 -0.3083
    1TCq1    C414098   2.549   4.526  11.910 -0.3347 -0.1373 -0.7054
    1TCq1    C514099   2.660   4.493  11.845  0.1640 -0.3045  0.4767
    1TCq1    C614100   2.679   4.533  11.716  0.2238  0.0060  0.2579
    1TCq1    C714101   2.600   4.626  11.652  0.5938  0.4852 -0.5589
    1TCq1    C814102   2.815   4.538  11.678  0.2733  0.0082 -0.2902
    1TCq1    O414103   2.836   4.557  11.558 -0.4495  0.2865 -0.1644
    1TCq1    C914104   2.503   4.440  12.021 -0.0320  0.5522  0.5830
    1TCq1    O514105   2.377   4.418  12.025 -0.1304 -0.5265  0.6072
    1TCq1    O614106   2.598   4.387  12.089 -0.0936 -0.1307 -0.4112
    1TCq1    H114107   2.450   4.605  11.491 -1.9474 -1.2332 -3.1366
    1TCq1    H214108   2.359   4.606  11.886 -0.7933 -0.3657 -1.9907
    1TCq1    H314109   2.711   4.402  11.877 -0.6041 -0.8325  0.2016
    1TCq1    H414110   2.612   4.666  11.552  0.4495 -1.5647 -1.3964
    2MPD1     C14111   3.313   4.578  11.804  0.7547  0.6408 -0.1750
    2MPD1    C114112   3.240   4.613  11.918  0.6274  0.8039  0.0713
    2MPD1    C214113   3.101   4.605  11.915 -0.2279  0.0684  0.6972
    2MPD1    C314114   3.032   4.568  11.802 -0.2203  0.1206  0.6195
    2MPD1    C414115   3.107   4.533  11.695 -0.2464 -0.1221  0.2517
    2MPD1    C514116   3.242   4.522  11.702 -0.6474 -0.0157 -0.9051
    2MPD1     H14117   3.046   4.625  12.006 -0.6784 -0.6280  0.5830
    2MPD1    H114118   3.064   4.501  11.601 -1.3795 -1.0276  1.0847
    2MPD1    H214119   3.421   4.579  11.793  0.7703  3.0270  0.3773
    2MPD1    H314120   3.289   4.505  11.606  0.4069  1.7926 -0.6939
    2MPD1     N14121   2.891   4.565  11.790  0.0889 -0.6589 -0.2139
    2MPD1    H514122   2.839   4.570  11.877  1.4967  0.8220  0.5298
    2MPD1    N114123   3.300   4.687  12.018 -0.2963  0.3777 -0.6347
    2MPD1    H614124   3.266   4.660  12.110 -0.0932 -3.3872 -1.6572
    2MPD1    H714125   3.398   4.661  12.023 -0.0267  0.9171 -3.0160
    1TMC1    C114126   0.778   0.342   0.627 -0.1756  0.0522  0.1567
    1TMC1    C214127   0.734   0.365   0.502  0.1183  0.1576  0.1341
    1TMC1    C314128   0.737   0.255   0.414 -0.5683 -0.2954  0.0693
    1TMC1    C414129   0.839   0.230   0.674  0.1466 -0.2160 -0.4837
    1TMC1    C514130   0.839   0.128   0.581  0.4986  0.2882 -0.6347
    1TMC1    C614131   0.793   0.135   0.454 -0.1302  0.4309 -0.3944
    1TMC1     C14132   0.779   0.456   0.718 -0.5126 -0.4683 -0.1747
    1TMC1     O14133   0.712   0.558   0.690  0.1910 -0.8416  0.5079
    1TMC1     H14134   0.667   0.449   0.488  1.5836  1.1223 -1.1926
    1TMC1    H114135   0.862   0.201   0.776 -1.6636  2.2411  0.6215
    1TMC1    H214136   0.808   0.061   0.377  2.9679 -0.2803  0.9022
    1TMC1    C714137   0.895   4.737   0.636 -0.0325 -0.1612 -1.1414
    1TMC1    C814138   0.639   0.251   0.309  0.7142  0.9624  0.0291
    1TMC1    O114139   0.967   0.009   0.729  0.0397 -0.1039  0.1124
    1TMC1    O214140   0.534   0.311   0.319  0.9785 -0.4356 -0.4801
    1TMC1    O314141   0.798   4.651   0.613 -0.3176 -0.3590 -0.7243
    1TMC1    H314142   0.761   4.641   0.523 -0.8051  2.8787 -0.8610
    1TMC1    O514143   0.681   0.166   0.214  0.0859  0.2081  0.1918
    1TMC1    H514144   0.778   0.153   0.217  0.0253 -0.6546 -1.2567
    2MPD1     C14145   1.041   0.656   1.118  0.7591 -0.4766  0.0076
    2MPD1    C114146   1.101   0.538   1.078  0.2500 -0.2966  0.1600
    2MPD1    C214147   1.060   0.484   0.956 -0.0438 -0.3618 -0.5435
    2MPD1    C314148   0.948   0.522   0.891  0.6294  0.2106  0.1340
    2MPD1    C414149   0.879   0.634   0.943  0.1191 -0.1020 -0.7612
    2MPD1    C514150   0.927   0.700   1.055  0.3288 -0.5265  0.3928
    2MPD1     H14151   1.109   0.402   0.905  2.6520  0.5691  0.4922
    2MPD1    H114152   0.787   0.671   0.900 -0.5345 -1.1349 -0.2512
    2MPD1    H214153   1.074   0.714   1.203 -4.5844  0.4904  1.4456
    2MPD1    H314154   0.879   0.789   1.095  0.1781 -0.2299 -0.4523
    2MPD1     N14155   0.897   0.441   0.790 -0.6924  0.0684 -0.2218
    2MPD1    H514156   0.942   0.351   0.776  2.4563  1.3939  1.5709
    2MPD1    N114157   1.220   0.487   1.133 -0.2604  0.1335  0.9197
    2MPD1    H614158   1.235   0.534   1.223 -1.0508  1.7045  0.2260
    2MPD1    H714159   1.226   0.386   1.140  2.0827  0.0745 -2.4952
    1MPD1     C14160   3.165   0.697  12.129  0.7146  0.2603 -0.1332
    1MPD1    C114161   3.130   0.828  12.105  0.7054  0.1325 -0.3147
    1MPD1    C214162   3.222   0.899  12.034  0.0452 -1.0826 -0.1416
    1MPD1    C314163   3.353   0.854  12.009 -0.0720 -0.4959 -0.5524
    1MPD1    C414164   3.373   0.717  12.015  0.2115 -0.8228  0.7783
    1MPD1    C514165   3.287   0.649  12.092 -0.3089  0.0153  0.7150
    1MPD1     H14166   3.192   1.001  12.011 -0.8475 -1.2808  0.1317
    1MPD1    H114167   3.468   0.671  11.989  1.7375  2.5709  0.2758
    1MPD1    H214168   3.111   0.627  12.192 -0.3681  0.4337 -0.8643
    1MPD1    H314169   3.312   0.546  12.115  1.9783  0.4226  0.0751
    1MPD1     N14170   3.446   0.944  11.952  0.6714 -0.2813 -0.2953
    1MPD1    H514171   3.419   1.042  11.952 -1.5510 -0.9323 -2.7095
    1MPD1    N114172   3.003   0.871  12.136  0.2346  0.0408 -0.1198
    1MPD1    H614173   2.982   0.824  12.224 -0.6527  0.2457 -0.2174
    1MPD1    H714174   3.009   0.972  12.146  0.2202  0.0350 -0.0540
    2MPD1     C14175   3.125   0.838  11.600 -0.0171 -0.6301 -0.7330
    2MPD1    C114176   3.076   0.794  11.480 -0.0835 -0.1989 -0.0942
    2MPD1    C214177   3.155   0.708  11.414  0.8546 -0.8800 -0.8653
    2MPD1    C314178   3.255   0.632  11.477  0.0857  0.5786  0.3301
    2MPD1    C414179   3.289   0.669  11.600  0.0775  1.2444 -0.0374
    2MPD1    C514180   3.224   0.770  11.661  0.5751 -0.1819  0.0600
    2MPD1     H14181   3.122   0.678  11.315  1.9657  0.5957 -1.6807
    2MPD1    H114182   3.363   0.613  11.655 -2.9411 -2.1382  0.5622
    2MPD1    H214183   3.069   0.899  11.670 -2.6193 -0.8975 -2.5797
    2MPD1    H314184   3.256   0.790  11.762  1.2233  0.0017 -0.1819
    2MPD1     N14185   3.332   0.531  11.419  0.3745  0.3237  0.3621
    2MPD1    H514186   3.413   0.499  11.471 -1.1976 -0.8985  2.0987
    2MPD1    N114187   2.969   0.854  11.409 -0.2497 -0.5487  0.6031
    2MPD1    H614188   2.888   0.875  11.468 -0.3180  0.6665  0.0686
    2MPD1    H714189   2.940   0.782  11.343  0.8145 -1.9323  1.6567
    3MPD1     C14190   3.590   4.591  10.629  0.1806  0.3168  0.0787
    3MPD1    C114191   3.671   4.701  10.636 -0.0863 -0.3147  0.5559
    3MPD1    C214192   3.667   0.036  10.761  0.1713 -0.5504 -0.3564
    3MPD1    C314193   3.572   0.003  10.857  0.1931  0.3932  0.1984
    3MPD1    C414194   3.489   4.633  10.830 -0.0613 -0.5359  0.1033
    3MPD1    C514195   3.501   4.556  10.717 -0.2603  0.3266 -0.5846
    3MPD1     H14196   3.728   0.121  10.786 -0.7361  1.1964 -4.1266
    3MPD1    H114197   3.400   4.605  10.886 -0.4628  2.1590  0.8292
    3MPD1    H214198   3.601   4.522  10.545  1.4596  0.5694  0.0512
    3MPD1    H314199   3.428   4.481  10.690  1.7564 -2.0489  0.5579
    3MPD1     N14200   3.549   0.090  10.965  0.2562  0.6040  0.1481
    3MPD1    H514201   3.614   0.166  10.982  1.1109 -0.6928  2.5700
    3MPD1    N114202   3.743   0.014  10.526  0.2007  0.1960  0.0044
    3MPD1    H614203   3.759   4.677  10.458 -1.9343 -1.4133  1.2923
    3MPD1    H714204   3.833   0.055  10.551 -0.9655  0.3898  3.7979
    4MPD2     C14205   3.717   1.222  11.323  0.1864  0.0453 -0.4051
    4MPD2    C114206   3.826   1.217  11.408 -1.2731  0.0516 -0.3215
    4MPD2    C214207   3.956   1.201  11.347  0.4287 -0.1313 -0.5084
    4MPD2    C314208   3.977   1.159  11.211  0.1693  0.0988 -0.2432
    4MPD2    C414209   3.865   1.157  11.136  0.4969 -0.2481  0.3592
    4MPD2    C514210   3.743   1.194  11.191 -0.4367  0.3063  0.1192
    4MPD2     H14211   4.041   1.210  11.412 -0.9139 -0.8709  1.3539
    4MPD2    H114212   3.871   1.153  11.028  1.7684  2.5956  0.3484
    4MPD2    H214213   3.616   1.252  11.348  0.4644  0.5744  0.0750
    4MPD2    H314214   3.661   1.213  11.122 -1.5556  1.5194  1.7681
    4MPD2     N14215   4.105   1.135  11.155 -0.1091  0.1228  0.0075
    4MPD2    H514216   4.112   1.087  11.066 -0.3057  0.3984 -0.1558
    4MPD2    N114217   3.817   1.236  11.550  0.0757 -0.1297 -0.0112
    4MPD2    H714218   3.906   1.237  11.600  0.8984 -3.1647 -1.4070
    5TMC3    C114219   3.717   1.203  11.765 -0.4023 -0.0887  0.0936
    5TMC3    C214220   3.616   1.127  11.817 -0.5931  0.2852 -0.4154
    5TMC3    C314221   3.656   1.036  11.911 -0.3121 -0.0123 -0.2209
    5TMC3    C414222   3.841   1.198  11.820  0.0649 -0.7191 -0.3046
    5TMC3    C514223   3.877   1.106  11.909  0.7374  0.3882  0.0898
    5TMC3    C614224   3.784   1.016  11.951  0.4120  0.4758  0.3384
    5TMC3     C14225   3.700   1.232  11.623 -0.0759  0.5250  1.0095
    5TMC3     O14226   3.589   1.216  11.579 -0.1763  0.1413 -0.0534
    5TMC3     H14227   3.515   1.113  11.779 -0.5423 -0.9594 -0.1004
    5TMC3    H114228   3.917   1.264  11.778  2.4609 -2.9005  0.5808
    5TMC3    H214229   3.803   0.930  12.013  3.4387  1.9836  1.5187
    5TMC3    C714230   4.004   1.040  11.866 -0.3800  0.5788 -0.4895
    5TMC3    C814231   3.579   0.917  11.927  0.9351  1.1397  0.2222
    5TMC3    O114232   4.085   1.113  11.811 -1.0426 -0.2893 -0.0675
    5TMC3    O214233   3.635   0.807  11.934  0.2447 -0.1419  0.5879
    6TMC3    C114234   3.408   0.381  11.260  0.0761 -0.1219  0.6872
    6TMC3    C214235   3.379   0.264  11.195 -0.5421 -0.1010 -0.8581
    6TMC3    C314236   3.477   0.174  11.165 -0.1143 -0.5547  0.1126
    6TMC3    C414237   3.545   0.401  11.281  0.2441  0.0288 -0.3298
    6TMC3    C514238   3.639   0.308  11.258  0.4368 -1.0333 -0.0915
    6TMC3    C614239   3.610   0.191  11.198 -0.0788 -0.0749  0.2828
    6TMC3     C14240   3.306   0.474  11.297  0.1443  0.3565  0.3363
    6TMC3     O14241   3.200   0.482  11.231  0.0650 -0.1516  0.6518
    6TMC3     H14242   3.276   0.231  11.192 -0.2397 -1.3043  2.2897
    6TMC3    H114243   3.580   0.494  11.325  0.1762 -0.8203  1.5263
    6TMC3    H214244   3.688   0.122  11.166  0.8331  0.3356  1.6243
    6TMC3    C714245   3.782   0.358  11.246 -0.8722 -0.2614  0.6944
    6TMC3    C814246   3.450   0.088  11.062 -0.4433  0.6458 -0.1243
    6TMC3    O114247   3.796   0.474  11.208 -0.4446  0.2953  0.0296
    6TMC3    O214248   3.352   0.017  11.065 -0.4708  0.4951  0.4806
    7MPD2     C14249   4.162   0.613  11.620 -0.4701 -0.4759  0.1105
    7MPD2    C114250   4.202   0.744  11.613 -0.0686 -0.0489  0.7080
    7MPD2    C214251   4.146   0.842  11.695  0.5153  0.1853 -0.7053
    7MPD2    C314252   4.055   0.809  11.790 -0.0626  0.0012 -0.6464
    7MPD2    C414253   4.026   0.673  11.804  0.0136 -0.1056 -0.2406
    7MPD2    C514254   4.069   0.580  11.715  0.0380 -0.7690 -0.1952
    7MPD2     H14255   4.166   0.945  11.671  1.7800  0.4292  1.4548
    7MPD2    H114256   3.932   0.646  11.852 -0.0270 -0.2580 -0.4053
    7MPD2    H214257   4.194   0.531  11.557  3.0669 -1.4810  3.2659
    7MPD2    H314258   4.028   0.481  11.734 -0.7414 -0.2383  0.8766
    7MPD2     N14259   3.998   0.902  11.878 -0.0390  0.0108  0.0044
    7MPD2    H514260   3.923   0.872  11.939 -0.1317  0.8892  0.3250
    7MPD2    N114261   4.299   0.775  11.515 -0.1537  0.3637  0.5913
    7MPD2    H714262   4.314   0.705  11.442  1.8163  1.0000  0.3914
    8TMC3    C114263   4.424   0.891  11.359 -0.2072 -0.0901  0.6492
    8TMC3    C214264   4.396   0.782  11.288  0.4230 -0.3856 -0.3985
    8TMC3    C314265   4.306   0.792  11.177 -0.4614  0.1929 -0.2108
    8TMC3    C414266   4.395   1.014  11.312  0.1826  0.5001 -0.0675
    8TMC3    C514267   4.310   1.030  11.203 -0.9095  0.7239  0.5297
    8TMC3    C614268   4.259   0.920  11.139 -0.3538  0.2220 -0.1553
    8TMC3     C14269   4.366   0.891  11.499 -0.6323  0.0119 -0.0767
    8TMC3     O14270   4.367   0.989  11.574  0.3843  0.0872  0.3379
    8TMC3     H14271   4.419   0.682  11.323 -2.1527 -0.9526 -0.2926
    8TMC3    H114272   4.420   1.098  11.375  1.9260 -0.2918  0.2988
    8TMC3    H214273   4.183   0.923  11.061  0.0314 -1.8882 -0.6372
    8TMC3    C714274   4.220   1.138  11.219  0.0223  0.7941  0.3154
    8TMC3    C814275   4.215   0.684  11.157 -0.9053 -0.7078  0.2046
    8TMC3    O114276   4.263   1.228  11.294  0.3303  0.0683 -0.3190
    8TMC3    O214277   4.098   0.708  11.138  0.0194 -0.6499  1.0428
    9MPD2     C14278   4.293   0.323  11.186  0.0728 -0.4617 -0.0078
    9MPD2    C114279   4.215   0.436  11.199 -0.0872 -0.6552 -0.6461
    9MPD2    C214280   4.079   0.414  11.226 -0.0600 -1.1154  0.1206
    9MPD2    C314281   4.023   0.286  11.236  0.7851 -0.1352 -0.7023
    9MPD2    C414282   4.109   0.174  11.243  0.3071 -1.4348  0.2027
    9MPD2    C514283   4.243   0.196  11.203  0.6266  0.0762 -0.5380
    9MPD2     H14284   4.021   0.504  11.245  1.0284 -0.4896  0.4799
    9MPD2    H114285   4.076   0.071  11.248  0.8927 -1.5567  1.6002
    9MPD2    H214286   4.399   0.336  11.171 -0.3994  3.9848  0.4156
    9MPD2    H314287   4.311   0.112  11.213  0.1934 -0.0458  1.5002
    9MPD2     N14288   3.883   0.266  11.253 -0.6154  0.0188 -0.4511
    9MPD2    H514289   3.863   0.170  11.280  2.3209 -0.6830 -0.8228
    9MPD2    N114290   4.281   0.559  11.174  1.0823  0.3451  0.2370
    9MPD2    H714291   4.382   0.558  11.184  1.3107 -0.1224 -2.0141
    1MPD1     C14292   1.231   1.571   0.962 -0.3111  0.0896  0.7652
    1MPD1    C114293   1.193   1.527   0.842 -0.3860 -0.5239  0.0150
    1MPD1    C214294   1.074   1.573   0.784  0.1056 -0.9843  0.5468
    1MPD1    C314295   0.989   1.662   0.849 -0.0332  0.4223  0.2087
    1MPD1    C414296   1.036   1.714   0.967 -0.2154  0.4743  0.1988
    1MPD1    C514297   1.155   1.670   1.019  0.3194 -0.5801  0.2868
    1MPD1     H14298   1.037   1.521   0.696 -0.4928  2.6406 -1.3562
    1MPD1    H114299   0.982   1.789   1.025 -0.1481  1.1337 -0.5844
    1MPD1    H214300   1.331   1.551   0.998  0.2744 -1.8285 -1.9134
    1MPD1    H314301   1.187   1.709   1.115 -0.0926 -0.6274  0.4425
    1MPD1     N14302   0.869   1.719   0.805 -0.3764 -0.1915  0.6689
    1MPD1    H514303   0.820   1.783   0.867  1.1580 -0.3267  2.0077
    1MPD1    N114304   1.269   1.452   0.755  0.1026  0.5660 -0.8234
    1MPD1    H614305   1.220   1.413   0.674  1.8370 -1.4267 -0.8811
    1MPD1    H714306   1.300   1.368   0.803  0.9824  2.0222  1.1341
    2TMC2    C114307   0.551   1.948   0.690  0.0296  0.1518 -0.1863
    2TMC2    C214308   0.514   1.967   0.556  0.5596  0.5971 -0.3170
    2TMC2    C314309   0.588   1.891   0.465 -0.1438  0.2491  0.5530
    2TMC2    C414310   0.648   1.857   0.734 -0.3169  0.0417  0.0200
    2TMC2    C514311   0.713   1.786   0.636  0.2031  0.0615  0.3298
    2TMC2    C614312   0.683   1.801   0.503 -0.1270  0.1424  0.9102
    2TMC2     C14313   0.487   2.018   0.793  0.2810  0.0499 -0.0257
    2TMC2     O14314   0.520   1.986   0.908  0.3548  0.2425  0.6664
    2TMC2     H14315   0.441   2.033   0.512  0.4483  1.6433  1.4417
    2TMC2    H114316   0.666   1.840   0.839  1.5906  0.0355 -0.2983
    2TMC2    H214317   0.736   1.750   0.424  0.7032  1.5270  0.5776
    2TMC2    C714318   0.824   1.702   0.673 -0.1799  0.2364  0.1030
    2TMC2    C814319   0.573   1.909   0.328 -0.3517  0.0079 -0.4498
    2TMC2    O114320   0.868   1.635   0.579 -0.1328  0.4159  0.3648
    2TMC2    O214321   0.619   1.828   0.252 -0.2217  0.1302  0.7896
    2TMC2    O514322   0.526   2.038   0.293 -0.4216  0.1134  0.2218
    2TMC2    H514323   0.518   2.115   0.352 -0.7264 -0.7046  1.2471
    3MPD1     C14324   0.147   2.338   0.993  0.2444 -0.2054  0.2194
    3MPD1    C114325   0.196   2.390   0.873 -0.0336  0.7237 -0.2088
    3MPD1    C214326   0.267   2.303   0.789  0.5507 -0.8161 -0.3901
    3MPD1    C314327   0.320   2.186   0.829 -0.5345 -0.0364  0.4290
    3MPD1    C414328   0.294   2.158   0.959 -0.4833  0.0740 -0.0818
    3MPD1    C514329   0.211   2.228   1.042  0.1061  0.4287  0.4510
    3MPD1     H14330   0.292   2.326   0.687 -2.1987  2.5100 -0.2810
    3MPD1    H114331   0.337   2.076   1.016  1.1437  1.8133  1.1872
    3MPD1    H214332   0.074   2.384   1.059 -0.8619  0.7204 -1.6595
    3MPD1    H314333   0.190   2.207   1.146 -0.9874 -0.1802  0.1018
    3MPD1     N14334   0.402   2.117   0.746 -0.5877 -0.5065  0.5886
    3MPD1    H514335   0.419   2.148   0.650  1.0290  3.8250  2.2655
    3MPD1    N114336   0.145   2.506   0.827  0.2799  0.4291 -0.6965
    3MPD1    H614337   0.125   2.578   0.896 -0.8392 -1.1994  0.6721
    3MPD1    H714338   0.197   2.535   0.745  0.2920 -0.7132 -1.0913
    1TMC1    C114339   1.848   2.318  13.575  0.5001  0.7842 -0.3614
    1TMC1    C214340   1.803   2.216  13.502  0.2917 -1.3050 -0.4648
    1TMC1    C314341   1.699   2.143  13.539  0.8312  0.1399  0.4939
    1TMC1    C414342   1.779   2.361  13.687 -0.8927  1.0630  0.0741
    1TMC1    C514343   1.663   2.297  13.723  0.5798  0.7798 -0.6304
    1TMC1    C614344   1.621   2.187  13.647  0.3961 -0.6405 -0.0111
    1TMC1     C14345   1.957   2.397  13.534  0.8019  0.2489  0.0549
    1TMC1     O14346   1.960   2.509  13.579 -0.0886  0.6782 -0.5112
    1TMC1     H14347   1.859   2.190  13.413 -0.8859  0.7963 -1.8071
    1TMC1    H114348   1.823   2.446  13.736  1.4668 -1.3059  2.0694
    1TMC1    H214349   1.538   2.125  13.678 -0.2156  0.5300  0.6729
    1TMC1    C714350   1.617   2.322  13.859  0.6875  0.1288 -0.1203
    1TMC1    C814351   1.635   2.054  13.438 -0.6472 -0.1953 -0.3042
    1TMC1    O114352   1.576   2.231  13.924 -0.1830 -0.3645 -1.2982
    1TMC1    O214353   1.696   1.977  13.358 -0.3758  0.1002 -0.2472
    1TMC1    O314354   1.625   2.454  13.897  0.2970  1.1724  0.0319
    1TMC1    H314355   1.646   2.519  13.826 -0.8285  2.9586  1.3213
    1TMC1    O514356   1.505   2.095  13.436  0.2277  0.5188 -0.2772
    1TMC1    H514357   1.487   2.175  13.489 -0.8985 -0.4653  0.8080
    2MPD2     C14358   2.159   2.539  13.379 -0.0416  0.2879  0.6169
    2MPD2    C114359   2.175   2.410  13.421  0.6844  0.0067 -0.0932
    2MPD2    C214360   2.295   2.345  13.411  0.5207 -0.2106  0.7412
    2MPD2    C314361   2.408   2.412  13.362  0.3530  0.0232 -0.6658
    2MPD2    C414362   2.397   2.543  13.323  0.0140 -0.1660  0.7527
    2MPD2    C514363   2.268   2.602  13.332 -0.3611 -0.1047  0.3277
    2MPD2     H14364   2.300   2.246  13.456  0.4171 -0.0177  1.1792
    2MPD2    H114365   2.482   2.597  13.282 -0.2482  0.1204  0.5817
    2MPD2    H214366   2.066   2.594  13.368 -0.0655  0.5454  2.0125
    2MPD2    H314367   2.245   2.700  13.291  1.4699  0.3690  0.4169
    2MPD2     N14368   2.528   2.345  13.353 -0.1460  0.1911 -0.3452
    2MPD2    H514369   2.520   2.251  13.392 -0.6195 -0.1080 -1.1620
    2MPD2    N114370   2.060   2.337  13.470 -0.0546 -0.6460  0.6823
    2MPD2    H714371   2.065   2.237  13.459  0.0542 -0.6901  1.1691
    3TCq1    O114372   3.209   2.196  13.352  0.2055  0.0541  0.1800
    3TCq1    C114373   3.127   2.302  13.346 -0.5606  0.2466  0.3677
    3TCq1    O214374   3.163   2.405  13.289  0.3961 -0.2499  0.3177
    3TCq1    C214375   2.992   2.248  13.342 -0.5805  0.3876  0.3332
    3TCq1    C314376   2.963   2.116  13.367 -0.2977 -0.0664 -0.3732
    3TCq1    C414377   2.834   2.075  13.374  0.4206 -0.5395  0.2868
    3TCq1    C514378   2.727   2.163  13.361 -0.0149  0.4174 -1.0534
    3TCq1    C614379   2.760   2.299  13.339  0.7813  0.2025  0.0697
    3TCq1    C714380   2.892   2.337  13.320  0.1184 -0.1701 -0.3949
    3TCq1    C814381   2.650   2.398  13.318  1.0578 -0.4634  0.6906
    3TCq1    O414382   2.684   2.508  13.272 -0.5113 -0.1799  0.2483
    3TCq1    C914383   2.812   1.930  13.377 -0.6122 -1.2687  0.8097
    3TCq1    O514384   2.697   1.889  13.348  0.1837  0.6265 -0.2316
    3TCq1    O614385   2.910   1.854  13.402  0.3453 -0.0322 -0.0124
    3TCq1    H114386   3.182   2.135  13.424  0.1301  0.0508  0.1482
    3TCq1    H214387   3.041   2.042  13.373  0.3933  0.7635  0.9288
    3TCq1    H314388   2.624   2.134  13.380  0.0796  1.0247  0.4297
    3TCq1    H414389   2.912   2.443  13.311  1.3242 -0.3763 -0.1190
    1MPD2     C14390   1.260   3.773  15.049 -0.3973 -0.2943  0.3668
    1MPD2    C114391   1.155   3.707  15.009 -0.5521  0.2561  0.7670
    1MPD2    C214392   1.156   3.569  15.014 -0.1363  0.3270  0.4360
    1MPD2    C314393   1.259   3.499  15.077  0.0189 -0.2074  1.0310
    1MPD2    C414394   1.365   3.574  15.132  0.1993 -0.5110  0.3170
    1MPD2    C514395   1.360   3.712  15.116  0.1097 -0.0674 -0.0775
    1MPD2     H14396   1.083   3.514  14.955  1.1295 -0.4343 -0.4039
    1MPD2    H114397   1.446   3.534  15.192  2.3920  0.4541 -2.0048
    1MPD2    H214398   1.252   3.880  15.035  0.5284 -0.0673  1.5009
    1MPD2    H314399   1.442   3.773  15.154 -0.5638  0.0552  1.1775
    1MPD2     N14400   1.261   3.364  15.067  0.0226  0.5685  0.4803
    1MPD2    H514401   1.180   3.328  15.017  0.8977 -1.0612  0.2360
    1MPD2    N114402   1.038   3.775  14.975 -0.9199  0.5038  0.3481
    1MPD2    H714403   1.048   3.874  14.955  0.2200  0.0319 -1.4202
    2TMC3    C114404   0.808   3.791  14.913  0.4552  0.0722  0.3510
    2TMC3    C214405   0.687   3.747  14.952  1.3023 -0.2663  0.4488
    2TMC3    C314406   0.581   3.724  14.873 -0.0755 -0.2329 -0.2128
    2TMC3    C414407   0.827   3.831  14.782  0.4706 -0.5083  0.0536
    2TMC3    C514408   0.710   3.826  14.703  0.0053  0.1464  0.4248
    2TMC3    C614409   0.591   3.768  14.744  0.1883  0.9584  0.0586
    2TMC3     C14410   0.911   3.713  14.964  0.1502  0.2886  1.0661
    2TMC3     O14411   0.884   3.600  15.005  0.1040 -0.0994 -0.1236
    2TMC3     H14412   0.681   3.715  15.056  0.2267  0.5058  0.6308
    2TMC3    H114413   0.921   3.850  14.732  0.4760 -0.5033  0.0655
    2TMC3    H214414   0.505   3.771  14.678  0.0958  0.0086  0.1349
    2TMC3    C714415   0.724   3.863  14.565 -0.1290 -0.0743  0.0360
    2TMC3    C814416   0.531   3.592  14.889 -0.0302 -0.4014 -0.1440
    2TMC3    O114417   0.629   3.839  14.493  0.0033  0.2918  0.2368
    2TMC3    O214418   0.421   3.569  14.836 -0.7549 -0.1047  0.0951
    3TCq1    O114419   1.414   4.671  14.025  0.0789 -0.2210 -0.3100
    3TCq1    C114420   1.469   4.702  14.141  0.3815  0.0813  0.0716
    3TCq1    O214421   1.576   0.033  14.158 -0.1444 -0.0504 -0.1925
    3TCq1    C214422   1.389   4.639  14.246  0.1833  0.1699  0.2020
    3TCq1    C314423   1.448   4.617  14.367  0.3952 -0.5155  0.1341
    3TCq1    C414424   1.395   4.529  14.457  0.0305 -0.0543 -0.7301
    3TCq1    C514425   1.277   4.469  14.434  0.9114  0.2011  0.1805
    3TCq1    C614426   1.218   4.484  14.306 -0.2976  0.4401 -0.9279
    3TCq1    C714427   1.267   4.575  14.219 -0.8247 -0.3688 -0.2177
    3TCq1    C814428   1.090   4.426  14.276  0.2310  0.2714 -0.0618
    3TCq1    O414429   1.024   4.476  14.183  0.8104 -0.0914  0.3379
    3TCq1    C914430   1.466   4.508  14.582  0.3813 -0.5623  0.0155
    3TCq1    O514431   1.545   4.599  14.619 -0.0857 -1.2373  0.9338
    3TCq1    O614432   1.427   4.403  14.642  0.5691  0.0447  0.8779
    3TCq1    H114433   1.365   4.587  14.032 -0.3350  0.2036  1.8867
    3TCq1    H214434   1.543   4.660  14.396  0.1349  0.3854 -0.3712
    3TCq1    H314435   1.230   4.403  14.505  0.0323  4.5392  3.6519
    3TCq1    H414436   1.210   4.586  14.128 -0.1746 -2.4214 -0.8808
    4MPD2     C14437   0.870   4.231  14.243 -0.3642 -0.4115  0.1201
    4MPD2    C114438   0.963   4.221  14.343  0.8914 -0.1779  0.8952
    4MPD2    C214439   0.951   4.127  14.444  0.0912  0.0377 -0.4978
    4MPD2    C314440   0.843   4.041  14.440  0.6937  0.0526  0.1062
    4MPD2    C414441   0.752   4.047  14.335 -0.2803  0.0406  0.8415
    4MPD2    C514442   0.769   4.138  14.241  0.5076 -0.2771  0.3187
    4MPD2     H14443   1.029   4.122  14.520 -0.0497  2.6652 -0.1700
    4MPD2    H114444   0.675   3.973  14.316 -0.3041  0.1126  0.6579
    4MPD2    H214445   0.886   4.308  14.169 -2.0796  0.0195  0.2015
    4MPD2    H314446   0.705   4.146  14.154  0.6466  0.4993  0.2886
    4MPD2     N14447   0.827   3.959  14.549  0.1147 -0.0486 -0.0492
    4MPD2    H514448   0.894   3.978  14.622  0.3539  1.8552 -0.7707
    4MPD2    N114449   1.067   4.317  14.355 -0.5399 -0.1687 -0.2003
    4MPD2    H714450   1.142   4.296  14.420 -2.2001 -0.9027  1.4893
    5TMC2    C114451   1.074   3.069  15.065  0.0952  0.3622  0.5503
    5TMC2    C214452   1.041   3.024  15.186 -0.2123  0.1117 -0.1708
    5TMC2    C314453   1.128   3.055  15.287  0.3880 -0.7222  0.4269
    5TMC2    C414454   1.193   3.131  15.041  0.4909 -0.5944  0.7410
    5TMC2    C514455   1.277   3.147  15.146  0.2272 -0.5520 -0.5428
    5TMC2    C614456   1.253   3.103  15.266  0.1983  0.2101  0.4339
    5TMC2     C14457   0.971   3.145  14.992  0.0889  0.1789 -0.4849
    5TMC2     O14458   1.013   3.256  14.959 -0.6358 -0.4879  0.0992
    5TMC2     H14459   0.940   2.994  15.210 -0.2867 -0.0856 -0.7431
    5TMC2    H114460   1.219   3.160  14.940  1.3411 -0.1489  1.0911
    5TMC2    H214461   1.334   3.123  15.336  0.5458 -0.5023  0.2344
    5TMC2    C714462   1.336   3.282  15.139 -0.2612 -0.5857 -0.2481
    5TMC2    C814463   1.082   3.023  15.420 -0.2820  0.2529  0.2203
    5TMC2    O114464   1.415   3.307  15.230 -0.6865 -0.1337  0.1535
    5TMC2    O214465   0.987   2.953  15.439  0.1222 -0.3051  0.3376
    5TMC2    O514466   1.092   3.146  15.472  0.4659 -0.0197  0.0943
    5TMC2    H514467   1.189   3.153  15.484  0.4202  0.4907  0.1986
    6MPD2     C14468   0.494   3.301  14.876  0.5280  0.2951  0.7474
    6MPD2    C114469   0.608   3.368  14.926  0.0453  0.6620 -0.5784
    6MPD2    C214470   0.719   3.300  14.958  0.6792  0.1216  0.6450
    6MPD2    C314471   0.723   3.164  14.960 -0.5554 -0.1668  0.5347
    6MPD2    C414472   0.608   3.097  14.930 -0.6700 -0.3246  0.1683
    6MPD2    C514473   0.491   3.162  14.898 -0.5295 -0.4346  0.1490
    6MPD2     H14474   0.805   3.352  14.998 -1.3878  3.0465  1.3174
    6MPD2    H114475   0.595   2.990  14.926 -1.6310 -0.2118  0.2759
    6MPD2    H214476   0.400   3.343  14.843  0.1164 -1.3988 -0.2186
    6MPD2    H314477   0.406   3.105  14.862 -0.0216 -1.9106  1.2878
    6MPD2     N14478   0.845   3.095  14.998  0.3132 -0.1427 -0.2887
    6MPD2    H514479   0.846   2.994  15.000 -0.1537 -0.1873 -2.1174
    6MPD2    N114480   0.629   3.507  14.933 -0.3127  0.5658 -0.1248
    6MPD2    H714481   0.719   3.542  14.962  0.0433  0.1600 -0.7345
  945NH3     N114482   0.949   4.184  11.444  0.3960  0.7619  0.2231
  945NH3     H214483   0.952   4.285  11.453  1.1818  0.5929  2.0389
  945NH3     H314484   0.990   4.153  11.532  0.7834  1.6437  0.3509
  945NH3     H414485   1.017   4.171  11.370  1.9492 -0.8608  1.9067
  946SOD     NA14486   0.758   4.679   9.349  0.0341  0.2460  0.1639
  947SOD     NA14487   0.524   4.553  13.185  0.7769 -0.5001 -0.1905
  948SOD     NA14488   1.566   0.971   2.290  0.4456 -0.3763 -0.2785
  949SOD     NA14489   4.216   2.780  11.196 -0.1642 -0.0840  0.1522
  950SOD     NA14490   1.627   3.283   0.498  0.2703  0.1044 -0.4211
  951SOD     NA14491   0.780   4.491  12.354 -0.3324  0.0303 -0.7024
  952SOD     NA14492   3.804   1.712  14.184 -0.6558 -0.0888 -0.0900
  953SOD     NA14493   3.693   1.558  16.576 -0.0608  0.5155 -0.4430
  954SOL     OW14494   1.479   0.013  17.294 -0.2644 -0.1604  0.0538
  954SOL    HW114495   1.572   0.035  17.285  0.3381 -2.6761 -0.0915
  954SOL    HW214496   1.479   4.721  17.385  0.1549 -0.9190 -0.1930
  955SOL     OW14497   2.597   4.548   3.562  0.8220  0.0844  0.2072
  955SOL    HW114498   2.628   4.500   3.485  2.2448  0.4812  0.5312
  955SOL    HW214499   2.597   4.475   3.624 -0.4883  0.1113  0.2440
  956SOL     OW14500   4.363   3.567   8.616 -0.2600  0.1891 -0.0472
  956SOL    HW114501   4.274   3.597   8.635  0.3507  0.4736  2.3773
  956SOL    HW214502   4.394   3.635   8.556  0.1429  0.3403  0.3324
  957SOL     OW14503   2.757   4.111   9.259  0.4581 -0.2433  0.0511
  957SOL    HW114504   2.727   4.109   9.168  0.3418  1.4865  0.0454
  957SOL    HW214505   2.712   4.029   9.281 -0.8404  0.2894 -0.6162
  958SOL     OW14506   1.903   3.070   5.358 -0.4791  0.1708 -0.0621
  958SOL    HW114507   1.867   2.981   5.351 -0.4970  0.2780 -1.2658
  958SOL    HW214508   1.988   3.065   5.314 -1.6872 -1.3826 -2.2271
  959SOL     OW14509   4.227   4.475   2.224 -0.1715  0.1638  0.9651
  959SOL    HW114510   4.136   4.501   2.212  0.3944  0.9827 -1.6684
  959SOL    HW214511   4.271   4.545   2.174 -2.0591  0.9266  0.3672
  960SOL     OW14512   3.820   2.756   7.812  0.2789  0.3293  0.4053
  960SOL    HW114513   3.805   2.814   7.887 -1.4831 -0.9735  1.0599
  960SOL    HW214514   3.731   2.749   7.776 -0.2548 -0.2850  1.8298
  961SOL     OW14515   1.102   4.583   2.908 -0.1598 -0.0273  0.1942
  961SOL    HW114516   1.024   4.631   2.937  0.7710  0.5206  1.8082
  961SOL    HW214517   1.072   4.537   2.830  0.1440  0.5308 -0.2468
  962SOL     OW14518   2.579   3.201   3.502 -0.0892  0.5369 -0.0510
  962SOL    HW114519   2.553   3.256   3.428 -1.4320  1.8887  1.4383
  962SOL    HW214520   2.499   3.150   3.512  0.1051  0.4925  1.3454
  963SOL     OW14521   4.634   1.251   8.999 -0.3078 -0.1550 -0.0516
  963SOL    HW114522   4.624   1.227   8.906 -2.6638  0.3683  0.0903
  963SOL    HW214523   4.719   1.295   8.998 -0.0959 -0.5159  2.0138
  964SOL     OW14524   1.712   2.706   3.688  0.2729  0.3392 -0.3028
  964SOL    HW114525   1.651   2.774   3.661  0.1850  0.4633  0.2159
  964SOL    HW214526   1.659   2.629   3.665  0.4947 -0.1216  0.7032
  965SOL     OW14527   1.756   2.572   5.261  0.2535  0.1101 -0.4746
  965SOL    HW114528   1.838   2.530   5.234  2.0352  2.2521  1.6250
  965SOL    HW214529   1.707   2.496   5.293 -3.1756  2.4686 -0.1668
  966SOL     OW14530   3.130   2.002   3.686  0.8803 -0.1762  0.5166
  966SOL    HW114531   3.210   2.051   3.706  2.2006 -2.3267  0.5031
  966SOL    HW214532   3.075   2.078   3.666 -0.0462 -0.4741  1.9641
  967SOL     OW14533   3.590   0.055   4.494  0.4629  0.3921 -0.4461
  967SOL    HW114534   3.531   0.104   4.436  0.2525 -1.8603 -2.1413
  967SOL    HW214535   3.535   0.001   4.551  1.3338 -0.2211 -0.1934
  968SOL     OW14536   4.245   2.552   5.726  0.2023  0.2400 -0.1973
  968SOL    HW114537   4.154   2.581   5.732  0.0916  0.1595 -1.4167
  968SOL    HW214538   4.289   2.631   5.758 -2.1890  1.2035  0.7240
  969SOL     OW14539   2.186   0.404  10.707  0.5831  0.7317 -0.2142
  969SOL    HW114540   2.142   0.399  10.792 -2.4864  1.8108 -1.7164
  969SOL    HW214541   2.109   0.435  10.659  2.1254  3.8617 -0.6475
  970SOL     OW14542   1.990   4.462  11.427  0.2379 -0.0274  0.6480
  970SOL    HW114543   2.040   4.444  11.507  1.1664  0.3007  0.1427
  970SOL    HW214544   1.928   4.389  11.426 -0.1680  0.3262  0.4216
  971SOL     OW14545   2.541   2.747  16.002 -0.8094  0.0991  0.4159
  971SOL    HW114546   2.531   2.664  15.955  0.2153 -0.4785  1.2185
  971SOL    HW214547   2.458   2.789  15.978 -1.8604 -1.5673  1.1059
  972SOL     OW14548   1.147   1.881   1.979 -0.1335 -0.2844  0.1644
  972SOL    HW114549   1.139   1.888   2.074 -0.6791  0.5047  0.0562
  972SOL    HW214550   1.207   1.955   1.970  1.8494 -2.1717 -2.3181
  973SOL     OW14551   3.256   4.017  15.777 -0.6731 -0.7064 -0.0767
  973SOL    HW114552   3.218   3.950  15.834 -0.9955 -1.4904 -1.2121
  973SOL    HW214553   3.235   4.102  15.816 -1.3136 -1.6576  1.6458
  974SOL     OW14554   3.400   0.197   4.331  0.8427  0.0184  0.1083
  974SOL    HW114555   3.316   0.237   4.308  0.3118 -1.1969 -0.0900
  974SOL    HW214556   3.450   0.211   4.251  0.2988  0.6709 -0.1227
  975SOL     OW14557   4.703   2.928   3.819  0.9201 -0.1731  0.3219
  975SOL    HW114558   4.656   2.947   3.901  0.8140 -2.3998  0.7906
  975SOL    HW214559   0.051   2.902   3.852  0.6861 -1.0574  0.2220
  976SOL     OW14560   3.040   2.269   4.154  0.2275  0.3372  1.0166
  976SOL    HW114561   3.120   2.275   4.103 -1.8569 -1.6952 -2.4406
  976SOL    HW214562   3.087   2.267   4.238 -0.1556 -0.0180  1.2257
  977SOL     OW14563   0.000   4.347   5.093  0.1062  0.1556 -0.5386
  977SOL    HW114564   4.716   4.259   5.065 -0.9041  0.0805  0.4748
  977SOL    HW214565   0.031   4.379   5.008 -0.1536  0.8435 -0.3785
  978SOL     OW14566   1.766   2.365   1.942  0.0381  0.0077 -0.1247
  978SOL    HW114567   1.779   2.372   1.848  1.8326 -0.9730  0.0449
  978SOL    HW214568   1.726   2.451   1.957 -0.2378 -0.3208  1.0023
  979SOL     OW14569   3.625   0.221   2.015  0.3164 -0.0138  0.4169
  979SOL    HW114570   3.551   0.182   1.969  0.6787 -1.1547  0.7974
  979SOL    HW214571   3.684   0.236   1.942  1.0706 -1.2412  0.7654
  980SOL     OW14572   4.490   1.688  17.416 -0.2679  0.3696  0.6453
  980SOL    HW114573   4.499   1.777  17.451 -1.4363 -0.2759  2.5762
  980SOL    HW214574   4.559   1.647  17.467  0.1069 -2.4356 -2.0825
  981SOL     OW14575   3.660   4.223   8.769 -0.0696  0.3279  0.3813
  981SOL    HW114576   3.610   4.290   8.722 -0.7025  0.7013  1.6102
  981SOL    HW214577   3.648   4.147   8.711 -1.6443 -1.2255  2.7713
  982SOL     OW14578   0.275   0.532   3.127 -0.5237  0.4810  0.1184
  982SOL    HW114579   0.197   0.491   3.089 -0.7523  0.8993  0.1425
  982SOL    HW214580   0.238   0.608   3.172  0.7007 -0.8164  3.3059
  983SOL     OW14581   1.495   4.433   3.914 -0.2608 -0.2209 -0.1090
  983SOL    HW114582   1.562   4.435   3.846 -1.0385 -0.0551 -0.8731
  983SOL    HW214583   1.540   4.389   3.986  1.8450  1.0514 -0.6466
  984SOL     OW14584   3.122   0.832   4.733 -0.1709 -0.6862  0.0192
  984SOL    HW114585   3.056   0.893   4.764  1.3913  1.6128 -1.1360
  984SOL    HW214586   3.209   0.862   4.759 -0.5937  0.9312 -0.4410
  985SOL     OW14587   0.335   2.643   4.205  0.1934  0.1179 -0.3145
  985SOL    HW114588   0.305   2.733   4.192 -2.0604 -0.7597 -1.2150
  985SOL    HW214589   0.372   2.661   4.292  2.4127  0.1232 -1.2686
  986SOL     OW14590   3.487   2.255   1.365 -0.5199  0.1294  0.1220
  986SOL    HW114591   3.532   2.181   1.325 -0.3912  1.2685 -1.8802
  986SOL    HW214592   3.411   2.255   1.306  1.4718  2.3675 -2.4532
  987SOL     OW14593   3.515   3.686  13.627 -0.6296 -0.0914 -0.3919
  987SOL    HW114594   3.440   3.630  13.610 -0.9356  0.7302 -1.6665
  987SOL    HW214595   3.514   3.678  13.723  1.0718 -0.3331 -0.3909
  988SOL     OW14596   1.253   2.472  13.027 -0.2226  0.0846  0.0309
  988SOL    HW114597   1.194   2.439  13.095  0.1705 -0.5497  0.0635
  988SOL    HW214598   1.318   2.514  13.083  0.8625 -2.0921  0.3871
  989SOL     OW14599   4.504   1.978   8.727  0.3665 -0.1671 -0.2000
  989SOL    HW114600   4.445   1.906   8.750  0.3997  0.1738  0.9649
  989SOL    HW214601   4.454   2.038   8.672 -0.4587 -0.5577  0.1185
  990SOL     OW14602   3.134   3.880   1.889 -0.1735 -0.0683  0.6054
  990SOL    HW114603   3.180   3.821   1.829  0.1659  1.0596 -0.2405
  990SOL    HW214604   3.145   3.966   1.847 -2.1360 -0.8681 -1.5384
  991SOL     OW14605   0.535   3.383   9.065  0.2844  0.0155  0.0969
  991SOL    HW114606   0.539   3.447   9.136 -0.5303 -2.1514  2.1075
  991SOL    HW214607   0.450   3.348   9.093  0.5029  0.0372  0.7959
  992SOL     OW14608   3.598   4.384   4.014 -0.2613 -0.0955  0.3107
  992SOL    HW114609   3.540   4.461   4.015 -0.4334 -0.2584  2.4316
  992SOL    HW214610   3.547   4.308   4.042 -0.3506 -0.4741 -0.8691
  993SOL     OW14611   0.138   3.971   4.175  0.1689 -0.7786 -0.1355
  993SOL    HW114612   0.130   3.924   4.092 -4.4029  0.2332 -0.2273
  993SOL    HW214613   0.225   3.937   4.197  0.1078  1.5012  3.7738
  994SOL     OW14614   0.893   1.522   4.965  0.1778 -0.0016  0.3497
  994SOL    HW114615   0.872   1.480   4.881 -0.7848 -1.3924  1.2821
  994SOL    HW214616   0.867   1.612   4.948 -1.3856 -0.9966 -2.5372
  995SOL     OW14617   3.452   2.560   3.954 -0.0709  0.3092  0.6921
  995SOL    HW114618   3.482   2.571   4.045  2.0610  0.4249 -0.0148
  995SOL    HW214619   3.514   2.611   3.901  0.7071 -3.2498 -1.8160
  996SOL     OW14620   2.518   2.647   0.786  0.1943 -0.4362  0.0702
  996SOL    HW114621   2.435   2.692   0.767 -0.3865 -0.0075  3.4470
  996SOL    HW214622   2.517   2.650   0.882 -0.1907 -0.6468  0.0720
  997SOL     OW14623   0.647   1.981   1.239  0.0331  0.0598  0.2676
  997SOL    HW114624   0.560   2.008   1.269 -0.7653 -2.2684  0.0118
  997SOL    HW214625   0.697   2.043   1.293  1.4373 -0.2074 -0.7634
  998SOL     OW14626   0.665   3.463   7.168 -0.1290 -0.2512  0.0822
  998SOL    HW114627   0.624   3.421   7.244  0.9533  1.4315  1.5988
  998SOL    HW214628   0.649   3.554   7.195 -1.2795 -0.6786  0.8629
  999SOL     OW14629   3.026   3.782  15.437  0.0255  0.1771  0.0980
  999SOL    HW114630   3.014   3.765  15.530  0.3466 -1.2657 -0.1177
  999SOL    HW214631   3.080   3.860  15.430  1.1847 -0.4517  2.0863
 1000SOL     OW14632   2.910   3.521  15.407 -0.2799  0.1237 -0.1294
 1000SOL    HW114633   2.827   3.566  15.426  0.3891  1.6085 -0.7645
 1000SOL    HW214634   2.969   3.596  15.413  1.1507 -1.0759  0.6505
 1001SOL     OW14635   2.942   1.508   5.294 -0.3209 -0.5833 -0.5781
 1001SOL    HW114636   3.015   1.459   5.330  0.6945  1.2325 -0.1345
 1001SOL    HW214637   2.972   1.532   5.206  3.0741 -0.7409  0.5629
 1002SOL     OW14638   1.818   1.177   4.439  0.2629 -0.2872  0.2927
 1002SOL    HW114639   1.802   1.095   4.486  0.3760  0.9593  2.4724
 1002SOL    HW214640   1.731   1.189   4.400 -0.0983  1.5161  1.6824
 1003SOL     OW14641   1.152   3.419   8.511  0.1459 -0.5791 -0.5070
 1003SOL    HW114642   1.205   3.361   8.456 -0.6115 -1.3740 -0.4121
 1003SOL    HW214643   1.079   3.357   8.516 -0.7146  0.5195  0.4626
 1004SOL     OW14644   0.211   2.012   4.069  0.0179  0.2103 -0.1510
 1004SOL    HW114645   0.157   1.952   4.122 -0.0468  1.0439  0.7284
 1004SOL    HW214646   0.290   1.961   4.085 -0.6995 -1.8442 -3.1497
 1005SOL     OW14647   3.619   4.117  11.132  0.1392 -0.1579  0.4873
 1005SOL    HW114648   3.700   4.069  11.152 -0.3176  0.5912  4.1044
 1005SOL    HW214649   3.654   4.165  11.057 -2.6343  0.4374 -0.4246
 1006SOL     OW14650   3.999   0.802   2.395  0.7300 -0.6327 -0.2339
 1006SOL    HW114651   3.919   0.848   2.367 -0.1702 -1.7043  0.5897
 1006SOL    HW214652   4.037   0.802   2.307 -0.2340  0.6776 -0.6454
 1007SOL     OW14653   1.035   0.807   4.423  0.6017 -0.1684  0.6653
 1007SOL    HW114654   1.003   0.743   4.359 -2.5403  1.0882  0.9678
 1007SOL    HW214655   1.122   0.821   4.386  0.4130 -0.9287 -0.0564
 1008SOL     OW14656   0.809   4.120   9.513 -0.1449  0.4010  0.1735
 1008SOL    HW114657   0.895   4.081   9.529 -0.6739 -0.1910  1.6008
 1008SOL    HW214658   0.822   4.143   9.421  0.7385  1.7240  0.6428
 1009SOL     OW14659   1.201   0.060  14.482 -0.3686  0.3203 -0.3689
 1009SOL    HW114660   1.199   0.084  14.389 -1.6366 -0.6102 -0.5845
 1009SOL    HW214661   1.151   0.131  14.522 -1.5480 -2.0374  2.3069
 1010SOL     OW14662   2.432   3.198   4.683 -0.4033  0.4557  0.1969
 1010SOL    HW114663   2.392   3.273   4.727 -1.1630 -0.3993  0.9757
 1010SOL    HW214664   2.379   3.194   4.604  1.3229 -1.8560 -0.8365
 1011SOL     OW14665   4.201   2.644  11.649 -0.2098  0.5546 -0.5548
 1011SOL    HW114666   4.272   2.666  11.708 -1.4961  1.2613  0.7354
 1011SOL    HW214667   4.154   2.725  11.631 -2.9871 -0.7597  0.6611
 1012SOL     OW14668   2.343   0.545  16.472 -0.3727  0.0609 -0.2484
 1012SOL    HW114669   2.431   0.557  16.435 -0.0235  0.3837  0.6719
 1012SOL    HW214670   2.298   0.629  16.473  0.9681  0.7850 -0.1034
 1013SOL     OW14671   2.367   4.013   1.761  0.3016 -0.1273 -0.7827
 1013SOL    HW114672   2.356   3.973   1.675  1.8381  0.7090 -1.3739
 1013SOL    HW214673   2.283   3.991   1.801  0.3184 -0.5602 -0.9915
 1014SOL     OW14674   1.919   2.633   4.019  0.2323  0.3398 -0.0678
 1014SOL    HW114675   1.935   2.723   4.047 -0.1717 -0.4797  2.7265
 1014SOL    HW214676   1.837   2.633   3.968  0.1486 -1.8580  0.0507
 1015SOL     OW14677   0.548   1.739   7.613  0.5180 -0.1404  0.7034
 1015SOL    HW114678   0.637   1.771   7.599  0.8782 -1.5083 -0.0992
 1015SOL    HW214679   0.518   1.801   7.679 -1.5189 -0.2249 -0.1448
 1016SOL     OW14680   3.305   2.745   0.749 -0.2185 -0.0650  0.2934
 1016SOL    HW114681   3.250   2.699   0.685 -0.4749  4.0155 -2.4651
 1016SOL    HW214682   3.302   2.836   0.718  2.3667 -0.3750 -0.8744
 1017SOL     OW14683   1.527   2.372   0.720 -0.0935  0.0888 -0.1182
 1017SOL    HW114684   1.500   2.403   0.633  1.1047 -0.2485 -0.6125
 1017SOL    HW214685   1.525   2.450   0.775  0.7975 -1.2942  1.8691
 1018SOL     OW14686   4.140   0.657   3.340 -0.6387  0.5982 -0.0266
 1018SOL    HW114687   4.124   0.731   3.399  1.8578  0.6014  0.6390
 1018SOL    HW214688   4.075   0.675   3.272 -0.7695  0.7790  0.1445
 1019SOL     OW14689   1.745   2.748   7.097 -0.0580 -0.2270  0.1268
 1019SOL    HW114690   1.822   2.793   7.064 -1.4770  1.5148 -0.8309
 1019SOL    HW214691   1.738   2.701   7.014 -1.5765 -0.4724  0.3920
 1020SOL     OW14692   3.367   1.940   8.344 -0.5756 -0.6536 -0.4044
 1020SOL    HW114693   3.339   2.016   8.294 -1.5792  0.0897  1.2910
 1020SOL    HW214694   3.305   1.946   8.417  0.4803 -0.5260  0.4836
 1021SOL     OW14695   1.977   0.093   8.872 -0.2550  0.5899  1.2080
 1021SOL    HW114696   2.034   0.126   8.802 -0.0860 -2.9773 -0.3006
 1021SOL    HW214697   1.963   0.005   8.839  1.5807  0.4716  0.7521
 1022SOL     OW14698   1.039   3.003   9.131 -0.2248  0.4528  0.0712
 1022SOL    HW114699   1.090   2.983   9.053  0.4056 -1.7847  1.0398
 1022SOL    HW214700   0.951   2.981   9.100 -0.2597  1.4091 -0.5040
 1023SOL     OW14701   0.614   0.015   4.909 -0.5410 -0.0739 -0.1237
 1023SOL    HW114702   0.674   0.035   4.837  0.8798  0.7015  1.2772
 1023SOL    HW214703   0.538   4.718   4.862  1.1174 -0.5484 -2.4547
 1024SOL     OW14704   1.896   1.955   5.367 -0.0269 -0.2779  0.2512
 1024SOL    HW114705   1.929   2.034   5.409 -1.3372  0.5923 -0.3579
 1024SOL    HW214706   1.971   1.898   5.355  1.7059  1.8828  0.8694
 1025SOL     OW14707   0.467   2.815  12.317  0.1295 -0.1494 -0.4598
 1025SOL    HW114708   0.433   2.892  12.271 -1.3805 -2.4528 -3.2565
 1025SOL    HW214709   0.426   2.828  12.402 -0.4612 -0.7332 -0.6505
 1026SOL     OW14710   3.899   3.215  13.297  0.4718 -0.2028 -0.0001
 1026SOL    HW114711   3.834   3.271  13.255  1.5104  0.9243 -0.1218
 1026SOL    HW214712   3.963   3.275  13.335 -0.2599  1.4952 -1.4345
 1027SOL     OW14713   2.191   1.357   6.957 -0.0596  0.3780 -0.2230
 1027SOL    HW114714   2.237   1.276   6.935 -3.2812 -1.5728  0.1984
 1027SOL    HW214715   2.262   1.421   6.957  0.7969 -0.5652 -0.4205
 1028SOL     OW14716   1.906   2.173   2.072 -0.0640 -0.1601 -0.2312
 1028SOL    HW114717   1.860   2.231   2.012  1.6325  1.5499  0.1049
 1028SOL    HW214718   1.914   2.233   2.147 -0.6939 -0.5049  0.1091
 1029SOL     OW14719   1.363   1.174   1.717 -0.2051  0.6211  0.0479
 1029SOL    HW114720   1.307   1.106   1.755 -1.4707  1.9463  0.5676
 1029SOL    HW214721   1.443   1.141   1.757 -0.9923 -2.2915 -0.7930
 1030SOL     OW14722   2.783   2.538   4.150 -0.0481  0.1406  0.0687
 1030SOL    HW114723   2.728   2.581   4.083 -1.3195  0.1621  1.1313
 1030SOL    HW214724   2.714   2.505   4.207 -0.7128  1.8185  0.2531
 1031SOL     OW14725   3.596   0.331   0.268  0.3072  0.2175 -0.0934
 1031SOL    HW114726   3.509   0.357   0.300 -0.1975  0.7734 -1.8650
 1031SOL    HW214727   3.628   0.292   0.349 -1.1381  0.2095  0.4835
 1032SOL     OW14728   3.627   3.629   2.600  0.1616 -0.1046 -0.2582
 1032SOL    HW114729   3.631   3.708   2.653 -2.1386  0.0709 -0.3144
 1032SOL    HW214730   3.649   3.570   2.672  1.7837  0.8948  0.0451
 1033SOL     OW14731   0.703   1.456   3.548  0.4113  0.1525 -0.6206
 1033SOL    HW114732   0.644   1.459   3.472 -0.0717 -2.0871 -0.3490
 1033SOL    HW214733   0.661   1.388   3.601  0.6339  1.0316  0.6774
 1034SOL     OW14734   4.543   3.570   7.931 -0.7402 -0.1938 -0.1102
 1034SOL    HW114735   4.567   3.629   8.002  3.2655 -0.8001 -0.9813
 1034SOL    HW214736   4.498   3.628   7.869  0.6771 -2.4891 -3.2492
 1035SOL     OW14737   4.487   3.969   7.890 -0.2502 -0.3471 -0.2978
 1035SOL    HW114738   4.469   4.019   7.969 -1.0320  1.2984 -1.5159
 1035SOL    HW214739   4.417   3.998   7.831 -2.5516  0.9448  3.1179
 1036SOL     OW14740   3.416   0.263   5.379 -0.4672 -0.3881 -0.0312
 1036SOL    HW114741   3.491   0.208   5.358 -1.2718 -2.1293  1.5825
 1036SOL    HW214742   3.347   0.197   5.372 -1.3222  0.2282  2.2495
 1037SOL     OW14743   4.572   3.804  13.818  0.3811  0.4433  0.1337
 1037SOL    HW114744   4.565   3.838  13.729  0.2082  0.2001  0.0530
 1037SOL    HW214745   4.561   3.887  13.863 -0.4278  0.3466  0.1246
 1038SOL     OW14746   4.080   3.528  11.580  0.4117  0.1199 -0.2804
 1038SOL    HW114747   4.119   3.586  11.515  1.5009 -0.8856 -0.5126
 1038SOL    HW214748   4.120   3.566  11.659  0.9179 -2.2530  0.6052
 1039SOL     OW14749   0.617   4.532   5.117  0.6506 -0.0245  0.4437
 1039SOL    HW114750   0.528   4.544   5.149  0.6087 -0.5221  0.5148
 1039SOL    HW214751   0.624   4.599   5.050  1.8667 -0.1613  0.4211
 1040SOL     OW14752   3.870   2.288   1.949  0.3224  0.6037 -1.1526
 1040SOL    HW114753   3.892   2.200   1.919  1.9760  0.6074  0.0912
 1040SOL    HW214754   3.946   2.305   2.005 -1.8920  2.1256  1.4137
 1041SOL     OW14755   2.765   4.144   6.197 -0.1236  0.1965  0.4062
 1041SOL    HW114756   2.775   4.156   6.103  1.0197  1.2269  0.6682
 1041SOL    HW214757   2.832   4.078   6.216 -1.2369 -1.5800 -1.8081
 1042SOL     OW14758   2.982   2.318   0.372  0.6742  0.2892 -0.0375
 1042SOL    HW114759   2.946   2.396   0.413  1.7600 -0.2235  1.9131
 1042SOL    HW214760   3.055   2.355   0.324  0.1704  2.4096  0.8278
 1043SOL     OW14761   2.283   1.636   9.360 -0.0990 -0.8121  0.1886
 1043SOL    HW114762   2.274   1.727   9.388 -1.2388 -0.4726 -1.3000
 1043SOL    HW214763   2.376   1.622   9.342  0.5122 -0.0366  2.8227
 1044SOL     OW14764   3.745   4.140  15.524  0.3923 -0.6592 -0.0851
 1044SOL    HW114765   3.690   4.063  15.536  1.0189 -1.1535 -0.3570
 1044SOL    HW214766   3.835   4.116  15.546  1.0100  1.6607 -0.1073
 1045SOL     OW14767   3.987   2.824   7.562 -0.2750  0.0134  0.2371
 1045SOL    HW114768   3.937   2.862   7.491  1.8574 -0.3428 -1.4696
 1045SOL    HW214769   3.926   2.763   7.603  1.4088 -0.5166  2.0155
 1046SOL     OW14770   2.277   1.910   5.443  0.2226 -0.0446 -0.2759
 1046SOL    HW114771   2.356   1.866   5.412  0.6226  3.2605 -3.9121
 1046SOL    HW214772   2.296   1.932   5.535 -2.6892 -0.5181  0.4176
 1047SOL     OW14773   1.103   1.361  10.815  0.6789 -0.6796  0.3557
 1047SOL    HW114774   1.122   1.267  10.811 -1.7099 -1.1520  0.3474
 1047SOL    HW214775   1.166   1.398  10.754  0.2335  0.2285  0.4509
 1048SOL     OW14776   0.564   4.619   8.995  0.3696 -0.1654 -0.0911
 1048SOL    HW114777   0.653   4.622   8.960 -0.5901 -2.0681 -2.7160
 1048SOL    HW214778   0.532   4.696   8.951  0.0237  1.7568  3.4919
 1049SOL     OW14779   2.488   2.132   4.467 -0.5049 -0.0925 -0.0963
 1049SOL    HW114780   2.422   2.137   4.537 -0.5725  0.3075 -0.1909
 1049SOL    HW214781   2.500   2.037   4.466 -1.9160 -0.2334 -2.5107
 1050SOL     OW14782   0.132   0.831  11.456  0.6421 -0.3427 -0.2420
 1050SOL    HW114783   0.116   0.923  11.434  0.9717 -0.2407 -0.0647
 1050SOL    HW214784   0.196   0.834  11.527 -1.6337  1.2637  1.7074
 1051SOL     OW14785   1.677   3.658   3.082  0.2669  0.6763  0.6387
 1051SOL    HW114786   1.678   3.687   3.174 -2.5705 -2.0364  1.5111
 1051SOL    HW214787   1.687   3.740   3.033  1.2638 -0.0547 -0.3685
 1052SOL     OW14788   1.779   0.368  10.847 -0.2134 -0.4848 -0.4669
 1052SOL    HW114789   1.752   0.330  10.931  1.5136 -0.4384  0.0910
 1052SOL    HW214790   1.823   0.292  10.809  1.3187  0.5721 -0.8156
 1053SOL     OW14791   0.703   2.104   2.490 -0.3489  0.8061 -0.2374
 1053SOL    HW114792   0.616   2.139   2.508 -2.4296 -3.0803 -2.8700
 1053SOL    HW214793   0.678   2.060   2.409 -2.0562  0.6396  0.3902
 1054SOL     OW14794   1.990   1.889   1.543 -0.3706 -0.5305 -0.6979
 1054SOL    HW114795   1.952   1.897   1.456 -0.7877  0.2274 -0.4524
 1054SOL    HW214796   2.053   1.961   1.533 -0.5152 -0.2911  0.1020
 1055SOL     OW14797   2.576   1.191   8.850 -0.0940  0.1100  0.2130
 1055SOL    HW114798   2.591   1.242   8.771  1.4009 -0.1633  0.3094
 1055SOL    HW214799   2.494   1.150   8.823 -0.8474  1.1951  0.8534
 1056SOL     OW14800   0.498   2.021   8.426 -0.6184 -0.6630  0.5476
 1056SOL    HW114801   0.452   2.040   8.344  1.1726  0.9363 -0.1141
 1056SOL    HW214802   0.439   2.000   8.498  0.7296 -1.9545  1.2594
 1057SOL     OW14803   1.761   1.546   1.882 -0.1843 -0.4296  0.0444
 1057SOL    HW114804   1.793   1.569   1.795 -1.5835 -0.3685 -0.4485
 1057SOL    HW214805   1.756   1.633   1.920  0.1247 -1.2115  1.8800
 1058SOL     OW14806   1.711   2.319   5.058  0.7020 -0.8603  0.3583
 1058SOL    HW114807   1.645   2.388   5.057  0.3202 -1.2445 -1.0908
 1058SOL    HW214808   1.696   2.307   5.152  0.4321  0.3682  0.4731
 1059SOL     OW14809   3.064   2.167  13.940 -0.4007 -0.1122 -0.5328
 1059SOL    HW114810   3.078   2.074  13.956  0.1186 -0.1352 -1.1110
 1059SOL    HW214811   3.137   2.213  13.981  0.1727 -2.0005  0.5453
 1060SOL     OW14812   0.084   2.067   2.831  0.3492  0.2267  0.3656
 1060SOL    HW114813   0.042   2.147   2.862  3.0730  1.6089  0.4717
 1060SOL    HW214814   0.141   2.040   2.904  0.2148 -1.8078 -0.2686
 1061SOL     OW14815   1.844   1.219  14.234 -0.4125  0.6407 -0.4433
 1061SOL    HW114816   1.802   1.274  14.300  0.7201  0.3592  0.5092
 1061SOL    HW214817   1.811   1.131  14.253 -0.9535  1.2109  1.2427
 1062SOL     OW14818   4.203   1.470   7.274 -0.4964 -0.0011  0.4532
 1062SOL    HW114819   4.186   1.430   7.358 -1.4391  1.0883  0.7947
 1062SOL    HW214820   4.265   1.535   7.307 -1.0331 -0.0088  1.4850
 1063SOL     OW14821   3.968   1.662   3.079  0.1197  0.0085 -0.8569
 1063SOL    HW114822   3.899   1.660   3.012  0.1819 -1.5703 -0.8832
 1063SOL    HW214823   4.012   1.578   3.067  0.4171  0.2960 -1.7480
 1064SOL     OW14824   2.310   0.827   7.369 -0.6828  0.3478  0.3079
 1064SOL    HW114825   2.219   0.854   7.358 -1.4589 -1.1755  3.0941
 1064SOL    HW214826   2.323   0.881   7.446 -0.8399 -0.4562  0.8936
 1065SOL     OW14827   3.595   4.428   0.288 -0.3466 -0.0611  0.6320
 1065SOL    HW114828   3.669   4.367   0.287  1.0994  1.6962  0.3512
 1065SOL    HW214829   3.592   4.460   0.378 -0.6922 -1.6916  1.1983
 1066SOL     OW14830   3.408   2.180   2.485 -0.4423  0.0946 -0.2604
 1066SOL    HW114831   3.386   2.162   2.577 -1.1088 -1.0497 -0.6430
 1066SOL    HW214832   3.352   2.255   2.468  0.7025  1.2391  1.0284
 1067SOL     OW14833   1.687   1.807  16.457  0.2229  0.5085  0.1477
 1067SOL    HW114834   1.655   1.888  16.497 -0.7210  0.5934 -0.7818
 1067SOL    HW214835   1.739   1.846  16.387  0.2676  1.8455  0.9087
 1068SOL     OW14836   3.840   1.230  10.056 -0.4238 -0.0926  0.4446
 1068SOL    HW114837   3.877   1.243   9.969  0.5458  1.6096  1.1020
 1068SOL    HW214838   3.922   1.196  10.090 -1.6155 -1.6947  1.7030
 1069SOL     OW14839   0.861   3.617  10.334  0.3029  0.5948 -0.0619
 1069SOL    HW114840   0.869   3.712  10.334  0.7972  0.5537 -0.4631
 1069SOL    HW214841   0.935   3.587  10.282 -0.6027 -0.3446 -0.8220
 1070SOL     OW14842   2.093   3.810   6.946  0.7524  0.9200  0.1379
 1070SOL    HW114843   2.024   3.877   6.951  0.8030  0.9752  0.0967
 1070SOL    HW214844   2.151   3.840   7.017  0.8643  1.1331 -0.0430
 1071SOL     OW14845   2.436   0.795  14.557 -0.0883 -0.3114  0.2585
 1071SOL    HW114846   2.431   0.850  14.635 -1.1194  1.3464 -0.9873
 1071SOL    HW214847   2.512   0.737  14.561  1.9063  2.5206  3.1963
 1072SOL     OW14848   0.658   4.048   3.073 -0.2316  0.3014  0.1733
 1072SOL    HW114849   0.711   3.971   3.095  1.4748  0.8251 -2.0900
 1072SOL    HW214850   0.644   4.027   2.980 -1.1348  0.0876  0.3548
 1073SOL     OW14851   0.666   3.403   5.905  0.2030 -0.4459  0.2138
 1073SOL    HW114852   0.658   3.381   5.812 -1.5978  2.0148 -0.2079
 1073SOL    HW214853   0.605   3.348   5.954  1.8181 -1.8644  0.6503
 1074SOL     OW14854   1.292   1.756   8.830 -0.2681  0.6496  0.2085
 1074SOL    HW114855   1.344   1.731   8.754  1.0470 -0.7480  1.5769
 1074SOL    HW214856   1.218   1.698   8.813 -1.0647  1.0908  2.1143
 1075SOL     OW14857   3.820   3.885   7.879  0.2957  0.6380 -0.3627
 1075SOL    HW114858   3.883   3.891   7.951 -0.7315  0.1684  0.5720
 1075SOL    HW214859   3.774   3.969   7.873 -1.9957 -0.5887  0.3711
 1076SOL     OW14860   0.558   0.556   4.509  0.0328 -0.2054  0.3486
 1076SOL    HW114861   0.602   0.560   4.593  0.3172  2.0385  0.0793
 1076SOL    HW214862   0.475   0.593   4.540  1.2044  2.4193  0.3168
 1077SOL     OW14863   4.627   1.744   8.359  0.6476 -0.6934  0.6180
 1077SOL    HW114864   4.701   1.688   8.384  0.7490 -0.5468  0.6436
 1077SOL    HW214865   4.623   1.787   8.444  0.9802  0.5186  0.0125
 1078SOL     OW14866   4.355   3.910  14.533 -0.0176 -0.2181 -0.3287
 1078SOL    HW114867   4.404   3.858  14.597 -1.1470 -0.0045  0.7216
 1078SOL    HW214868   4.302   3.834  14.506  1.6750 -1.2426 -0.7787
 1079SOL     OW14869   2.634   4.018  17.648  0.1324 -0.5452 -0.6956
 1079SOL    HW114870   2.626   4.079  17.574  0.3271 -0.0086 -0.2772
 1079SOL    HW214871   2.729   4.016  17.662  0.0547 -2.5278 -0.5198
 1080SOL     OW14872   3.979   0.453   3.048 -0.2551  0.3552  0.0216
 1080SOL    HW114873   4.064   0.496   3.059 -0.0779  0.0850 -0.2867
 1080SOL    HW214874   3.923   0.530   3.038  1.4141  1.5680  0.0501
 1081SOL     OW14875   1.796   0.841   8.982 -0.0286  0.3725 -0.4410
 1081SOL    HW114876   1.755   0.852   8.896  0.8424 -1.5498 -1.0793
 1081SOL    HW214877   1.861   0.776   8.957 -0.2509  1.3789 -3.5409
 1082SOL     OW14878   3.793   4.691  13.556  0.2915  0.0735 -0.1543
 1082SOL    HW114879   3.823   4.602  13.576 -0.3432  0.3040  1.8390
 1082SOL    HW214880   3.795   4.694  13.461 -1.7726  3.3121 -0.0973
 1083SOL     OW14881   2.384   0.064   5.014 -0.5488  0.5153  0.0793
 1083SOL    HW114882   2.373   4.715   5.054 -2.3646 -0.5244 -2.7279
 1083SOL    HW214883   2.464   0.090   5.060  0.6120  0.7848 -2.1293
 1084SOL     OW14884   3.133   1.857  12.140 -0.2561  0.3544  0.2966
 1084SOL    HW114885   3.209   1.816  12.180 -0.0110  1.2214  0.7062
 1084SOL    HW214886   3.133   1.944  12.180  1.7549  0.5742 -0.2151
 1085SOL     OW14887   1.698   1.730  17.677 -0.5679 -0.0010 -0.2583
 1085SOL    HW114888   1.698   1.822  17.649 -1.8382 -0.1336 -0.6920
 1085SOL    HW214889   1.791   1.706  17.676 -0.1284  1.8632 -3.3087
 1086SOL     OW14890   1.324   2.766   2.622  0.4698 -0.2044  0.0872
 1086SOL    HW114891   1.357   2.821   2.551 -0.5181 -1.9012 -1.6845
 1086SOL    HW214892   1.397   2.708   2.646  0.7879 -0.4702 -1.5152
 1087SOL     OW14893   4.133   1.331   2.618 -0.4048 -0.1567  0.0012
 1087SOL    HW114894   4.203   1.266   2.625 -0.6720 -0.4061  0.3822
 1087SOL    HW214895   4.142   1.350   2.525  1.3142  0.6642  0.3399
 1088SOL     OW14896   2.422   4.079   3.694 -0.3270  0.4611  0.5461
 1088SOL    HW114897   2.412   4.069   3.789  0.9394  0.0062  0.6358
 1088SOL    HW214898   2.435   3.986   3.679 -0.8763  0.5794 -0.6172
 1089SOL     OW14899   1.940   1.270   7.046 -0.2866  0.2323 -0.2672
 1089SOL    HW114900   1.936   1.264   7.141 -1.4224  0.2864 -0.3124
 1089SOL    HW214901   2.015   1.324   7.020 -1.4537  1.4054 -1.2015
 1090SOL     OW14902   3.942   4.521   8.574  0.0450 -0.0704 -0.2887
 1090SOL    HW114903   3.922   4.460   8.645 -0.0175 -2.6842 -2.5819
 1090SOL    HW214904   4.025   4.558   8.603 -0.7379  1.5189 -0.0636
 1091SOL     OW14905   1.137   1.793  13.176  0.0669  0.2003 -0.8305
 1091SOL    HW114906   1.061   1.823  13.225 -0.4931  1.2599 -2.3507
 1091SOL    HW214907   1.209   1.802  13.238  0.9746 -3.0858 -1.4034
 1092SOL     OW14908   0.147   1.880  11.936  0.4449  0.0872 -0.4854
 1092SOL    HW114909   0.154   1.975  11.925  5.6352 -0.1968  0.6381
 1092SOL    HW214910   0.101   1.868  12.019 -0.8781 -0.1817 -1.2540
 1093SOL     OW14911   3.715   3.921   5.206  0.2823 -0.1780 -0.0950
 1093SOL    HW114912   3.718   3.826   5.222  0.0398 -0.0352  0.7918
 1093SOL    HW214913   3.624   3.935   5.179  0.3405 -0.4563 -0.4470
 1094SOL     OW14914   2.395   2.963   3.298 -0.0846  0.2236  0.3001
 1094SOL    HW114915   2.398   2.983   3.204 -2.0266 -3.6034 -0.5646
 1094SOL    HW214916   2.480   2.920   3.308  0.3442  1.2045  0.9121
 1095SOL     OW14917   3.191   1.828   2.638 -0.1571 -0.3482  0.2398
 1095SOL    HW114918   3.239   1.794   2.562  1.3615  0.3900  0.8585
 1095SOL    HW214919   3.101   1.804   2.614  0.3021  0.0950 -1.9363
 1096SOL     OW14920   1.540   0.793   7.855  0.0073 -0.7752 -0.2989
 1096SOL    HW114921   1.496   0.798   7.770  0.2522 -0.8320 -0.4291
 1096SOL    HW214922   1.482   0.738   7.907  1.0125 -3.6788 -2.2188
 1097SOL     OW14923   2.853   2.169   9.321  0.3255  0.0253  0.4772
 1097SOL    HW114924   2.862   2.075   9.339  0.4729  0.1785  1.2073
 1097SOL    HW214925   2.874   2.166   9.228  0.0036 -0.0587  0.4063
 1098SOL     OW14926   0.355   4.088   2.468 -0.0665 -0.2978  0.3813
 1098SOL    HW114927   0.429   4.096   2.528  1.5857  0.2877 -1.7421
 1098SOL    HW214928   0.400   4.102   2.384 -1.3955  1.7835  0.0150
 1099SOL     OW14929   3.925   4.139   9.158  0.0321  0.3887  1.1724
 1099SOL    HW114930   3.841   4.115   9.119  1.5079 -0.8074 -1.1892
 1099SOL    HW214931   3.943   4.057   9.203  1.7106  0.5216  0.7324
 1100SOL     OW14932   2.937   4.027  17.701  0.0946  0.0860 -0.0554
 1100SOL    HW114933   2.951   4.082  17.624  0.3648 -0.9529 -0.7347
 1100SOL    HW214934   2.972   3.943  17.673  0.3386  0.0543  0.3459
 1101SOL     OW14935   3.027   1.802   9.758 -0.2448 -0.0198  0.4298
 1101SOL    HW114936   2.952   1.859   9.741 -0.2594 -0.5281 -1.1888
 1101SOL    HW214937   2.996   1.743   9.827 -0.5561 -1.9894 -1.3941
 1102SOL     OW14938   1.158   2.115   6.807 -0.6414  0.2290 -0.1934
 1102SOL    HW114939   1.252   2.131   6.793 -0.3478 -1.0027  0.3607
 1102SOL    HW214940   1.152   2.023   6.783 -2.2784  0.1016  0.7367
 1103SOL     OW14941   0.661   3.301  15.843 -0.0546 -0.3892  0.4325
 1103SOL    HW114942   0.698   3.266  15.761 -1.7314 -0.5274 -0.2565
 1103SOL    HW214943   0.700   3.389  15.841  0.2330 -0.5538 -1.7644
 1104SOL     OW14944   3.700   4.236   2.226 -0.0368 -0.4976  0.1487
 1104SOL    HW114945   3.778   4.268   2.272 -0.0459  1.4209 -1.2342
 1104SOL    HW214946   3.687   4.149   2.266 -2.3320 -0.2753 -0.1123
 1105SOL     OW14947   1.151   0.073   8.580  0.1338 -0.1956 -0.1016
 1105SOL    HW114948   1.088   0.127   8.628 -0.0493 -0.9941  0.5519
 1105SOL    HW214949   1.218   0.070   8.649  0.5815 -0.1329 -0.5336
 1106SOL     OW14950   0.225   3.868   5.661 -0.1913  0.6868  0.4979
 1106SOL    HW114951   0.233   3.959   5.635  1.2941  0.1142 -1.0544
 1106SOL    HW214952   0.172   3.841   5.586  1.6296 -2.1585  0.2253
 1107SOL     OW14953   3.376   1.109   7.857  0.1044 -0.7294  1.0111
 1107SOL    HW114954   3.337   1.029   7.824  0.0869  0.5400 -2.0103
 1107SOL    HW214955   3.462   1.075   7.881 -0.6056 -0.6897  3.6564
 1108SOL     OW14956   4.553   3.424   2.802  0.8916  0.0819 -0.4086
 1108SOL    HW114957   4.484   3.425   2.869 -0.0996  1.2097 -1.4441
 1108SOL    HW214958   4.505   3.409   2.721  0.0486  1.0701 -0.0875
 1109SOL     OW14959   1.147   2.894   9.748 -0.7947  0.1273  0.2589
 1109SOL    HW114960   1.218   2.953   9.774 -0.3688  0.6274 -2.0311
 1109SOL    HW214961   1.189   2.808   9.755  0.1887  0.5488 -0.4227
 1110SOL     OW14962   2.759   3.839   5.969 -0.2584  0.8369  0.1404
 1110SOL    HW114963   2.770   3.863   5.877 -0.2881 -0.0763 -0.1064
 1110SOL    HW214964   2.847   3.824   6.002  0.7315  1.6551 -2.1430
 1111SOL     OW14965   1.212   0.282   4.071 -0.1726 -0.0733 -0.0673
 1111SOL    HW114966   1.166   0.202   4.045  0.2284  0.5802 -2.8308
 1111SOL    HW214967   1.294   0.248   4.105 -0.4692 -1.3757 -0.6403
 1112SOL     OW14968   4.035   2.209   2.188  0.8311  0.3448  0.3609
 1112SOL    HW114969   4.023   2.266   2.264  1.0371 -1.7994  1.9994
 1112SOL    HW214970   4.109   2.154   2.212  0.4126 -0.5864 -0.4973
 1113SOL     OW14971   1.035   1.389   9.278 -0.0879  0.0025 -0.4446
 1113SOL    HW114972   0.941   1.371   9.274  0.0945 -1.1605  0.5547
 1113SOL    HW214973   1.080   1.307   9.259  0.4741 -0.6011  3.4975
 1114SOL     OW14974   1.076   3.302   9.672 -0.0612  0.0899 -0.3507
 1114SOL    HW114975   1.028   3.325   9.752 -1.3040 -1.6550 -0.6012
 1114SOL    HW214976   1.040   3.215   9.661  0.3518 -0.2601  0.9719
 1115SOL     OW14977   3.527   4.440   8.164  0.2041 -0.8191 -0.0129
 1115SOL    HW114978   3.578   4.365   8.195  0.3071 -0.5801  0.3979
 1115SOL    HW214979   3.512   4.480   8.249  3.3108  1.9849 -0.7965
 1116SOL     OW14980   2.101   2.910   6.572  0.0337  0.1237 -0.0854
 1116SOL    HW114981   2.034   2.950   6.628  0.4616  0.1284  0.4231
 1116SOL    HW214982   2.065   2.821   6.571  2.0516 -0.6946 -0.5430
 1117SOL     OW14983   4.633   2.090  10.762 -0.1891 -0.3187  1.1249
 1117SOL    HW114984   4.650   2.007  10.804 -0.1115 -0.7937  0.1661
 1117SOL    HW214985   4.682   2.069  10.682 -1.7561 -2.9568  0.8492
 1118SOL     OW14986   3.572   0.701  13.565  0.2334  0.0114 -0.3588
 1118SOL    HW114987   3.633   0.654  13.508 -1.2309 -1.7790 -0.4569
 1118SOL    HW214988   3.507   0.632  13.578 -2.8306  3.1169  0.9588
 1119SOL     OW14989   1.380   4.114   3.212  0.5962  0.4832 -0.1370
 1119SOL    HW114990   1.298   4.162   3.203 -1.5183 -3.5921 -2.4093
 1119SOL    HW214991   1.394   4.093   3.120 -0.7698  0.1645 -0.2733
 1120SOL     OW14992   1.946   0.159  14.854 -0.2064  0.2915 -0.1450
 1120SOL    HW114993   1.982   0.222  14.791 -2.3736 -1.7186 -3.3941
 1120SOL    HW214994   1.876   0.117  14.805 -1.6536  1.5552  0.8484
 1121SOL     OW14995   0.891   1.420   0.270 -0.2259 -0.3881  0.2395
 1121SOL    HW114996   0.803   1.439   0.236 -0.0781 -1.2472 -0.6395
 1121SOL    HW214997   0.921   1.363   0.199 -0.6212 -0.5241  0.1813
 1122SOL     OW14998   2.858   1.212   0.074 -0.3527 -0.4631  0.0853
 1122SOL    HW114999   2.830   1.276   0.008  2.3109  1.0316  0.3794
 1122SOL    HW215000   2.887   1.276   0.140 -0.2361 -0.6739  0.2385
 1123SOL     OW15001   0.342   1.185   6.672 -0.0294  0.0502 -0.6449
 1123SOL    HW115002   0.299   1.151   6.594 -0.2511 -0.4770 -0.2880
 1123SOL    HW215003   0.303   1.131   6.741 -1.7327  1.3398 -0.6042
 1124SOL     OW15004   3.884   3.066  12.048 -0.2164  0.8908  0.0254
 1124SOL    HW115005   3.803   3.039  12.006 -1.1226 -0.3537  2.5594
 1124SOL    HW215006   3.859   3.152  12.081  0.7385  0.5502  1.6589
 1125SOL     OW15007   0.848   2.844   4.878  0.1073  0.0636  0.3634
 1125SOL    HW115008   0.931   2.857   4.832  0.5369  0.5824  1.2973
 1125SOL    HW215009   0.866   2.811   4.966 -1.0803  1.6117  1.1704
 1126SOL     OW15010   4.651   1.468   4.614  0.0988 -0.0734  0.0135
 1126SOL    HW115011   4.622   1.527   4.544  1.1874  0.6248  0.1421
 1126SOL    HW215012   4.625   1.519   4.690 -0.6048 -0.8449  0.2924
 1127SOL     OW15013   2.339   2.664   4.527 -0.6084 -0.3475 -0.2705
 1127SOL    HW115014   2.299   2.590   4.483 -1.6818 -0.0518  0.2128
 1127SOL    HW215015   2.302   2.736   4.475 -0.0344 -0.3833 -0.7299
 1128SOL     OW15016   4.028   4.399   3.033  0.1115  0.1762  0.2240
 1128SOL    HW115017   4.004   4.372   2.944 -0.8551 -2.8194  1.3928
 1128SOL    HW215018   4.121   4.420   3.029  0.1849 -0.0769  0.6480
 1129SOL     OW15019   3.560   3.176  17.055  0.1472  0.1371  0.3381
 1129SOL    HW115020   3.587   3.087  17.033 -1.1533 -0.2726  0.4118
 1129SOL    HW215021   3.483   3.179  16.998  1.4588  1.6552 -1.3538
 1130SOL     OW15022   2.902   3.285   7.313 -0.6546 -0.6641 -0.3408
 1130SOL    HW115023   2.930   3.246   7.230  2.0987  0.6914 -0.0555
 1130SOL    HW215024   2.976   3.346   7.323 -0.1651 -1.4448  0.8729
 1131SOL     OW15025   3.688   0.361   4.715 -0.0188  0.1414 -0.1507
 1131SOL    HW115026   3.749   0.378   4.786  0.1687  0.9484 -0.5041
 1131SOL    HW215027   3.599   0.367   4.750  0.1496 -0.8015  0.4442
 1132SOL     OW15028   3.374   0.935   8.933 -0.7770  0.9128  0.8051
 1132SOL    HW115029   3.321   0.856   8.950 -3.0338  2.3556  0.4926
 1132SOL    HW215030   3.453   0.924   8.986 -1.1978  0.4955  1.3573
 1133SOL     OW15031   0.163   1.460   7.260  0.1620 -0.4789 -0.1071
 1133SOL    HW115032   0.242   1.434   7.307 -0.9640 -2.5185  0.7058
 1133SOL    HW215033   0.173   1.544   7.303 -0.1150 -0.7972  0.5895
 1134SOL     OW15034   3.590   3.338   3.117 -0.2011 -0.3938 -0.0533
 1134SOL    HW115035   3.571   3.428   3.092  1.0933 -0.4690 -1.2628
 1134SOL    HW215036   3.523   3.314   3.182 -0.7058  0.9560 -0.0697
 1135SOL     OW15037   0.468   4.492   9.966 -0.0300 -0.3447  0.1449
 1135SOL    HW115038   0.542   4.488   9.906  1.1629  0.8175  1.5107
 1135SOL    HW215039   0.481   4.567  10.024  0.4192 -2.3836  2.6759
 1136SOL     OW15040   1.419   0.087  14.634 -0.2541  0.6524 -0.5500
 1136SOL    HW115041   1.489   0.022  14.626 -0.2216  0.7594 -1.1210
 1136SOL    HW215042   1.344   0.066  14.580 -0.4600 -0.9491  0.3759
 1137SOL     OW15043   2.070   1.590   1.992 -0.3816  0.3396 -0.5766
 1137SOL    HW115044   2.122   1.651   2.045 -0.5770  0.6168 -0.7040
 1137SOL    HW215045   2.074   1.643   1.913 -3.5725  0.2747 -0.7753
 1138SOL     OW15046   0.416   2.483  10.736 -0.1432 -0.0143 -0.2150
 1138SOL    HW115047   0.494   2.437  10.706 -0.0551  0.7514 -1.1639
 1138SOL    HW215048   0.346   2.419  10.724  0.1698 -0.1479 -1.3443
 1139SOL     OW15049   2.498   4.035   3.278  0.1344  0.1948 -0.7022
 1139SOL    HW115050   2.470   4.106   3.335 -0.3331  0.0759 -0.7861
 1139SOL    HW215051   2.425   4.034   3.217 -0.4574  1.4778  0.0132
 1140SOL     OW15052   3.433   0.562   7.035  0.6493 -0.0842 -0.2274
 1140SOL    HW115053   3.376   0.637   7.019 -0.9245 -1.3084 -0.3865
 1140SOL    HW215054   3.471   0.540   6.950 -0.1976  0.3690 -0.7279
 1141SOL     OW15055   0.671   4.244   6.508 -0.3816  0.8180  0.0846
 1141SOL    HW115056   0.743   4.269   6.449  0.0128  0.5335  0.4394
 1141SOL    HW215057   0.716   4.247   6.593 -1.3361 -0.2991  0.6316
 1142SOL     OW15058   2.887   0.250   3.590 -0.4382 -0.5024  0.2993
 1142SOL    HW115059   2.876   0.262   3.684 -0.1368  0.6303  0.1980
 1142SOL    HW215060   2.860   0.159   3.577 -1.6563 -0.0953 -0.0397
 1143SOL     OW15061   1.431   3.300   6.119 -0.2152 -0.3208  0.2029
 1143SOL    HW115062   1.516   3.329   6.151 -0.6332  0.6337  0.4555
 1143SOL    HW215063   1.437   3.329   6.028 -2.4712  0.4483  0.2848
 1144SOL     OW15064   4.102   2.235   8.964  0.1196  0.0695  0.3061
 1144SOL    HW115065   4.181   2.181   8.974  0.6802  0.8700  0.1673
 1144SOL    HW215066   4.140   2.317   8.934  3.6679 -1.7674 -0.2315
 1145SOL     OW15067   2.687   3.465   4.983  0.0667  0.0134  0.4141
 1145SOL    HW115068   2.763   3.476   4.926  0.2280 -1.7892  0.2702
 1145SOL    HW215069   2.620   3.456   4.916  1.8134  1.6354 -1.5199
 1146SOL     OW15070   0.587   2.949   1.044 -0.0414 -0.4188 -0.0674
 1146SOL    HW115071   0.523   2.881   1.066 -1.9229  1.1417 -0.7337
 1146SOL    HW215072   0.608   2.922   0.954  1.3724  1.8599 -0.4246
 1147SOL     OW15073   3.401   2.978   4.686 -0.1840  0.1765 -0.2716
 1147SOL    HW115074   3.439   3.029   4.758  1.1096  1.3918 -1.8052
 1147SOL    HW215075   3.475   2.932   4.646 -0.5915 -0.6473 -0.0760
 1148SOL     OW15076   0.820   0.366   6.546 -0.2931 -0.5670  0.6130
 1148SOL    HW115077   0.850   0.425   6.477 -1.6323  1.4275  1.7255
 1148SOL    HW215078   0.737   0.334   6.511  0.1492  0.3018 -1.2054
 1149SOL     OW15079   2.777   3.522   8.219  0.3870 -0.0993  0.0754
 1149SOL    HW115080   2.811   3.459   8.155 -0.4329 -0.3982 -0.0641
 1149SOL    HW215081   2.786   3.459   8.291  2.0236 -1.6371 -1.4613
 1150SOL     OW15082   4.357   1.539  10.062  0.0433 -0.1827 -0.1715
 1150SOL    HW115083   4.265   1.555  10.086 -0.6205 -0.9489 -2.2099
 1150SOL    HW215084   4.365   1.456  10.109  0.3334 -0.2876 -0.4099
 1151SOL     OW15085   0.201   2.932  11.171  0.0276  0.6066  0.2554
 1151SOL    HW115086   0.208   2.911  11.078 -4.8703  0.4554 -0.0735
 1151SOL    HW215087   0.292   2.946  11.198 -0.4071 -0.1404  2.1454
 1152SOL     OW15088   1.804   2.594  15.562  0.2742  0.1933  0.4765
 1152SOL    HW115089   1.709   2.580  15.556  0.4853 -2.2118  2.8207
 1152SOL    HW215090   1.810   2.679  15.519  0.4385  0.2219  0.5583
 1153SOL     OW15091   2.673   0.971   5.416 -0.4987  0.3877 -0.1853
 1153SOL    HW115092   2.631   1.052   5.445  1.6509  1.1246  0.7859
 1153SOL    HW215093   2.603   0.908   5.435 -1.4282  1.4634 -0.0477
 1154SOL     OW15094   4.504   0.265  13.813 -0.1771  0.0779  0.2764
 1154SOL    HW115095   4.443   0.324  13.769 -1.8531 -1.3357  0.7297
 1154SOL    HW215096   4.586   0.277  13.765 -0.2489  1.0601  0.3855
 1155SOL     OW15097   4.485   3.554  13.825 -0.6020  0.6328 -0.2891
 1155SOL    HW115098   4.568   3.508  13.813 -1.5033 -1.2716  0.7050
 1155SOL    HW215099   4.517   3.642  13.846 -1.5410 -0.1145  4.4288
 1156SOL     OW15100   1.296   4.178  14.598  0.2315 -0.2128  0.2804
 1156SOL    HW115101   1.362   4.146  14.537 -0.7318 -1.2989 -0.1886
 1156SOL    HW215102   1.328   4.266  14.621  2.8462 -1.2391  0.5190
 1157SOL     OW15103   1.075   3.234   2.104 -0.5094  0.0853  0.3244
 1157SOL    HW115104   1.133   3.305   2.133 -1.6652  2.1877 -2.6007
 1157SOL    HW215105   1.069   3.186   2.187  1.0177 -2.0178 -0.7819
 1158SOL     OW15106   2.569   4.616   4.752 -0.0208  0.0222 -0.0673
 1158SOL    HW115107   2.634   4.562   4.708  0.2684 -0.9643  1.5599
 1158SOL    HW215108   2.606   4.618   4.841  0.7717 -1.7043 -0.3664
 1159SOL     OW15109   4.288   3.216   3.138  0.4738  0.6385  0.4714
 1159SOL    HW115110   4.213   3.170   3.176 -0.5083  1.1273 -0.8736
 1159SOL    HW215111   4.276   3.192   3.046  1.7572  1.2806  0.1289
 1160SOL     OW15112   3.815   0.635   1.743 -0.0186 -0.4962  0.7013
 1160SOL    HW115113   3.833   0.573   1.673 -0.0746  0.7831 -0.4639
 1160SOL    HW215114   3.730   0.663   1.709  0.2380 -0.3508  0.1808
 1161SOL     OW15115   2.469   3.429   6.325 -0.1307  0.2353  0.5482
 1161SOL    HW115116   2.557   3.399   6.347 -0.4994 -0.2288  1.3945
 1161SOL    HW215117   2.450   3.393   6.238  0.1144 -0.9459  0.9903
 1162SOL     OW15118   0.952   4.188   6.383 -0.1295 -0.3831 -0.2133
 1162SOL    HW115119   0.933   4.158   6.295  2.9708 -2.7660 -0.0445
 1162SOL    HW215120   1.047   4.173   6.387  0.0152  0.2164 -1.5393
 1163SOL     OW15121   0.061   1.207   4.851  0.4189 -0.0272  0.5411
 1163SOL    HW115122   4.705   1.216   4.831  0.7182  0.6608 -0.5283
 1163SOL    HW215123   0.086   1.137   4.790 -0.2505  0.0531  0.1714
 1164SOL     OW15124   2.324   2.752   4.070  0.3000  0.1453  0.2053
 1164SOL    HW115125   2.368   2.780   4.150 -1.7726  1.7400  0.8014
 1164SOL    HW215126   2.268   2.682   4.105 -0.4232  0.1832 -0.8883
 1165SOL     OW15127   2.342   4.512   5.392 -0.0308 -0.3625  0.2319
 1165SOL    HW115128   2.337   4.532   5.486  0.9023 -2.9989  0.8301
 1165SOL    HW215129   2.358   4.599   5.355  2.1356 -0.8218  0.0895
 1166SOL     OW15130   1.357   3.627   0.085  0.1783  0.2332  0.3064
 1166SOL    HW115131   1.409   3.705   0.106  0.3319  0.1511  0.2236
 1166SOL    HW215132   1.363   3.625  17.738  0.1895  0.5095  0.3006
 1167SOL     OW15133   4.031   2.614   8.070  0.4052  0.0583 -0.1762
 1167SOL    HW115134   4.074   2.671   8.006  0.7859 -2.2438 -1.9775
 1167SOL    HW215135   3.958   2.665   8.107  0.1212 -1.5533  1.5112
 1168SOL     OW15136   0.901   3.165   3.689  0.1377 -0.0828  0.4996
 1168SOL    HW115137   0.831   3.099   3.688 -0.4642  0.5490  1.3417
 1168SOL    HW215138   0.971   3.108   3.657 -1.0873 -1.1127 -0.3478
 1169SOL     OW15139   4.178   1.617   6.575  0.2103  0.6199 -0.3971
 1169SOL    HW115140   4.138   1.695   6.614 -1.8980 -1.6471  1.9584
 1169SOL    HW215141   4.257   1.600   6.626 -0.0640 -1.0443 -0.5553
 1170SOL     OW15142   0.832   2.112   1.378  0.3083  0.7559 -0.0192
 1170SOL    HW115143   0.883   2.066   1.445 -0.0880  1.1241  0.5458
 1170SOL    HW215144   0.904   2.157   1.335 -0.3734  0.7906 -1.1090
 1171SOL     OW15145   3.556   3.645   6.315  0.3711 -0.3865  1.1883
 1171SOL    HW115146   3.556   3.708   6.388  0.9697  2.5051 -1.3290
 1171SOL    HW215147   3.463   3.624   6.307  0.4086 -0.2991  0.5580
 1172SOL     OW15148   3.941   1.605   7.433  0.0777 -0.0406 -0.0107
 1172SOL    HW115149   3.991   1.610   7.515 -0.8109  0.4454  0.5065
 1172SOL    HW215150   3.993   1.659   7.373 -2.1944  1.5783 -0.5127
 1173SOL     OW15151   3.821   2.409   4.141 -0.1116 -0.0137 -0.0950
 1173SOL    HW115152   3.855   2.496   4.122  2.4674 -0.7711  1.0881
 1173SOL    HW215153   3.732   2.433   4.164  0.6147  1.2938  1.3211
 1174SOL     OW15154   0.823   1.349  10.482 -0.0560  1.0057  0.2506
 1174SOL    HW115155   0.806   1.384  10.569 -0.0779  1.5202  0.0419
 1174SOL    HW215156   0.885   1.278  10.499 -0.3099  0.7085 -0.0791
 1175SOL     OW15157   2.284   4.050  17.305 -0.0992  0.2906 -0.0105
 1175SOL    HW115158   2.327   4.028  17.223  0.2180  0.5258  0.0926
 1175SOL    HW215159   2.260   3.964  17.340  0.6158 -0.1300 -0.5654
 1176SOL     OW15160   1.754   4.275   9.179  0.1875  0.0882 -0.0332
 1176SOL    HW115161   1.738   4.191   9.222  0.4515  0.4137  0.6934
 1176SOL    HW215162   1.845   4.262   9.153  0.6132  1.4128  0.8354
 1177SOL     OW15163   2.710   0.945   3.623 -0.2383 -0.1385 -0.2296
 1177SOL    HW115164   2.788   0.916   3.669 -0.7775  2.5189  2.3456
 1177SOL    HW215165   2.670   0.992   3.696 -0.3160 -1.9117  0.8578
 1178SOL     OW15166   4.248   1.510  17.416 -0.6086 -0.0389 -0.0798
 1178SOL    HW115167   4.198   1.563  17.478  0.8371  1.3204 -0.0672
 1178SOL    HW215168   4.335   1.542  17.441 -0.9243 -0.9877  2.1585
 1179SOL     OW15169   1.612   1.637   0.914 -0.2690 -0.1008  0.1913
 1179SOL    HW115170   1.617   1.732   0.902  0.5000 -0.3470 -1.5340
 1179SOL    HW215171   1.653   1.605   0.833 -1.6671 -0.9941 -0.1589
 1180SOL     OW15172   3.144   3.234  16.569 -0.6243  0.1452  0.3715
 1180SOL    HW115173   3.072   3.219  16.507  0.3107  0.5432 -0.8170
 1180SOL    HW215174   3.119   3.317  16.608 -2.4004 -0.3621  0.3143
 1181SOL     OW15175   2.116   0.242   3.831 -0.4186  0.4735 -0.2330
 1181SOL    HW115176   2.093   0.334   3.824  0.3212  0.8159  1.9509
 1181SOL    HW215177   2.187   0.241   3.895 -2.3082  0.4285  1.8702
 1182SOL     OW15178   0.115   3.811  16.611  0.2537  0.1083  0.2590
 1182SOL    HW115179   0.106   3.834  16.704 -0.4403  0.7412  0.0354
 1182SOL    HW215180   0.191   3.864  16.587 -0.6262  0.5141 -1.6167
 1183SOL     OW15181   2.323   1.177  12.160 -0.1191  0.3190 -0.5856
 1183SOL    HW115182   2.274   1.253  12.128 -0.7465 -0.7341 -2.1218
 1183SOL    HW215183   2.399   1.188  12.104 -0.0182  2.6499  0.0219
 1184SOL     OW15184   4.316   4.697   3.268 -0.0729 -0.2199  0.2145
 1184SOL    HW115185   4.393   0.016   3.270  0.2446 -0.6820  0.8563
 1184SOL    HW215186   4.250   0.026   3.287  0.2852  0.4026 -0.7229
 1185SOL     OW15187   4.143   4.294   0.951  0.4407 -0.6541  0.2278
 1185SOL    HW115188   4.110   4.206   0.971 -1.7563 -0.0743 -0.9329
 1185SOL    HW215189   4.193   4.281   0.870 -0.7516  0.9273 -0.7689
 1186SOL     OW15190   4.291   2.170   4.995 -0.0169  0.0748 -0.0500
 1186SOL    HW115191   4.323   2.237   5.055  0.7607  1.1279 -1.6482
 1186SOL    HW215192   4.279   2.212   4.911  0.6510 -2.1290 -1.2549
 1187SOL     OW15193   0.543   0.740  11.676  0.0542  0.0740 -0.2382
 1187SOL    HW115194   0.561   0.761  11.584  1.5587  0.1080  0.0699
 1187SOL    HW215195   0.470   0.679  11.662  0.4402 -0.0119 -1.9034
 1188SOL     OW15196   3.389   3.268   6.263  0.7916 -0.6458  0.0205
 1188SOL    HW115197   3.445   3.191   6.274 -1.7832 -2.7846 -1.7848
 1188SOL    HW215198   3.404   3.295   6.173 -2.0033 -0.4143 -0.3797
 1189SOL     OW15199   3.875   0.165   8.777 -0.1763  0.1520  0.1588
 1189SOL    HW115200   3.821   0.098   8.733 -1.1728  0.7584  0.4522
 1189SOL    HW215201   3.821   0.193   8.851 -0.2366  0.0293  0.1624
 1190SOL     OW15202   2.435   2.042   6.293 -0.3139 -0.1989 -0.2021
 1190SOL    HW115203   2.419   2.026   6.200 -0.8458  1.3120 -0.3812
 1190SOL    HW215204   2.398   2.131   6.290 -0.3956 -0.2707 -1.4761
 1191SOL     OW15205   3.072   0.263   7.954 -0.2226 -0.0020  0.1067
 1191SOL    HW115206   3.039   0.289   7.868  0.9395 -0.0464 -0.3443
 1191SOL    HW215207   2.997   0.296   8.003 -0.3933  0.0132 -0.1651
 1192SOL     OW15208   3.080   3.869  17.515 -0.1708  0.1662 -0.2073
 1192SOL    HW115209   3.171   3.839  17.516  0.0960  0.9531 -0.1266
 1192SOL    HW215210   3.029   3.808  17.462 -1.0010  0.9856 -0.3608
 1193SOL     OW15211   4.453   3.810   2.097 -0.3261  0.3437 -0.0945
 1193SOL    HW115212   4.490   3.812   2.185  0.0228  3.3298 -0.2876
 1193SOL    HW215213   4.527   3.774   2.049 -0.8142  1.1203 -1.4186
 1194SOL     OW15214   3.450   4.218   4.538 -0.4269 -0.2762  0.2826
 1194SOL    HW115215   3.483   4.129   4.527 -1.7433 -1.0578  2.4475
 1194SOL    HW215216   3.366   4.196   4.579  0.0301 -1.4149  0.6196
 1195SOL     OW15217   3.978   2.046  15.822  0.1757  1.1242  0.4804
 1195SOL    HW115218   3.908   1.982  15.808  3.3762 -1.8007 -1.8636
 1195SOL    HW215219   3.985   2.099  15.743  2.6135  0.0692  0.0175
 1196SOL     OW15220   2.270   0.342   5.543 -0.1710  0.1564 -0.1706
 1196SOL    HW115221   2.193   0.326   5.489 -1.2509  2.1925  0.7847
 1196SOL    HW215222   2.274   0.261   5.593 -0.5250  1.0750  1.3298
 1197SOL     OW15223   1.603   3.418   8.393 -0.3676  0.2951  0.4796
 1197SOL    HW115224   1.623   3.465   8.474 -2.1757  0.9885  0.5376
 1197SOL    HW215225   1.655   3.472   8.333 -0.7721  1.4075  1.1203
 1198SOL     OW15226   0.951   1.069   5.006  0.1086  0.3902 -0.3087
 1198SOL    HW115227   0.858   1.075   5.029  0.4492  1.8893  0.6477
 1198SOL    HW215228   0.952   1.002   4.938  0.3023 -1.7417  1.7897
 1199SOL     OW15229   2.651   0.524   3.759  0.3837  0.0969 -0.5569
 1199SOL    HW115230   2.701   0.581   3.817 -1.5563  1.1939  0.0523
 1199SOL    HW215231   2.662   0.438   3.801 -1.7402 -0.8668 -1.9597
 1200SOL     OW15232   1.569   4.467   9.248 -0.1997 -0.4636 -0.6981
 1200SOL    HW115233   1.577   4.519   9.168  2.5104 -1.6779 -1.2509
 1200SOL    HW215234   1.628   4.394   9.227 -1.8159 -1.5490 -1.4511
 1201SOL     OW15235   2.227   3.447   8.871 -0.3965  0.6425 -1.2235
 1201SOL    HW115236   2.143   3.407   8.849 -0.4683 -0.5926  1.3075
 1201SOL    HW215237   2.269   3.437   8.786 -0.8752 -2.0652 -1.1150
 1202SOL     OW15238   0.201   0.292  14.860  0.0020 -0.1582 -0.4970
 1202SOL    HW115239   0.296   0.285  14.862 -0.0438 -0.6845 -0.0343
 1202SOL    HW215240   0.170   0.207  14.891  1.4360  0.1801  1.8876
 1203SOL     OW15241   1.205   3.100   8.850 -0.1925 -0.0358  0.1904
 1203SOL    HW115242   1.174   3.055   8.771 -0.6597  1.5438 -0.5076
 1203SOL    HW215243   1.226   3.025   8.906  0.6331 -1.2648 -1.7510
 1204SOL     OW15244   0.089   1.245   3.607 -0.2398 -0.4147 -0.3037
 1204SOL    HW115245   0.143   1.293   3.543 -1.6830 -0.1570 -1.3342
 1204SOL    HW215246   0.028   1.205   3.544  0.8253 -0.7985 -1.0893
 1205SOL     OW15247   0.509   4.467   2.083 -0.1750 -0.2874 -0.6144
 1205SOL    HW115248   0.570   4.541   2.080 -0.0928 -0.3912 -1.3690
 1205SOL    HW215249   0.558   4.404   2.031  0.9427  1.0796 -1.2197
 1206SOL     OW15250   0.468   3.020  10.205 -0.3985 -0.1283 -0.4112
 1206SOL    HW115251   0.470   3.021  10.109  1.6098 -2.4753 -0.4102
 1206SOL    HW215252   0.532   3.088  10.226 -0.8874  0.6386 -1.4199
 1207SOL     OW15253   3.145   0.945  13.991  0.3417  0.3558  0.1723
 1207SOL    HW115254   3.055   0.974  14.004 -0.4857 -1.4147 -1.8041
 1207SOL    HW215255   3.146   0.896  13.909 -1.0442  0.2131  0.2519
 1208SOL     OW15256   3.906   4.660   3.076  0.1382  0.2473  0.1231
 1208SOL    HW115257   3.965   4.714   3.024  0.2000  0.5826  0.5403
 1208SOL    HW215258   3.942   4.575   3.052  2.1402  0.9043  0.8207
 1209SOL     OW15259   0.637   3.827   1.635  0.4763  0.9179 -0.2435
 1209SOL    HW115260   0.620   3.849   1.727 -0.0188  1.3146 -0.4330
 1209SOL    HW215261   0.733   3.836   1.637  0.4722  1.0518 -0.6797
 1210SOL     OW15262   0.394   1.887   6.725  0.1715 -0.1030  0.6682
 1210SOL    HW115263   0.318   1.843   6.763  0.3067 -1.0239 -0.1452
 1210SOL    HW215264   0.451   1.903   6.800  0.1936 -3.6411  1.4033
 1211SOL     OW15265   4.125   2.279   6.422 -0.0742 -0.2610 -0.0608
 1211SOL    HW115266   4.073   2.211   6.465  1.0195 -2.2357 -1.8805
 1211SOL    HW215267   4.088   2.361   6.453 -0.6084 -0.0896 -1.1833
 1212SOL     OW15268   1.133   3.583  14.646 -0.2847  0.8214  0.2765
 1212SOL    HW115269   1.046   3.592  14.608  0.0064  0.9977 -0.3471
 1212SOL    HW215270   1.172   3.663  14.612  1.1165  0.8507  1.9654
 1213SOL     OW15271   3.877   0.554   6.629 -0.0385  0.2127 -0.5182
 1213SOL    HW115272   3.918   0.513   6.706  2.0239 -0.5215 -2.0114
 1213SOL    HW215273   3.935   0.628   6.614  0.9833 -0.3857  0.4460
 1214SOL     OW15274   1.709   2.501   3.026 -0.1521  0.2210  0.2059
 1214SOL    HW115275   1.759   2.430   2.985  1.1835  0.0427  2.1013
 1214SOL    HW215276   1.644   2.456   3.080 -0.0274 -0.5185 -0.2652
 1215SOL     OW15277   2.301   0.541   6.013  0.3537 -0.2417 -0.3065
 1215SOL    HW115278   2.219   0.588   5.997 -0.8367 -3.0497 -2.4651
 1215SOL    HW215279   2.282   0.447   6.013 -1.8459  0.2118 -1.7458
 1216SOL     OW15280   4.736   1.184   9.477 -0.1600 -0.1230  0.7140
 1216SOL    HW115281   4.687   1.103   9.493  0.6433 -0.7656 -0.1131
 1216SOL    HW215282   0.008   1.179   9.382  1.8542  0.0963  0.9090
 1217SOL     OW15283   0.334   2.599   8.681  0.1533  0.3296 -0.6168
 1217SOL    HW115284   0.284   2.565   8.606 -1.9885  2.2211 -0.0318
 1217SOL    HW215285   0.287   2.542   8.741  0.5061  1.6885  0.9360
 1218SOL     OW15286   0.833   3.384   8.792  0.2096  0.0293  0.5598
 1218SOL    HW115287   0.924   3.388   8.820 -0.0996  3.4990  1.0871
 1218SOL    HW215288   0.832   3.350   8.702 -1.6388  1.1999  0.1239
 1219SOL     OW15289   2.511   3.193  12.222  0.3534  0.4173 -0.1780
 1219SOL    HW115290   2.566   3.210  12.146 -1.6024  2.7126 -1.0735
 1219SOL    HW215291   2.545   3.259  12.282  1.6986 -0.1487 -0.3393
 1220SOL     OW15292   1.994   2.688   4.516 -0.0703  0.3489 -0.3247
 1220SOL    HW115293   1.952   2.609   4.485  0.0571  0.4607 -0.7754
 1220SOL    HW215294   1.977   2.679   4.610 -0.5072  2.3088 -0.2109
 1221SOL     OW15295   1.460   1.342   8.884  0.3600  0.0749 -0.0338
 1221SOL    HW115296   1.415   1.343   8.799 -2.3425 -0.4130  1.3818
 1221SOL    HW215297   1.388   1.313   8.940  1.1750 -1.6754  0.1122
 1222SOL     OW15298   0.098   3.886   3.914 -0.2888  0.2999  0.6218
 1222SOL    HW115299   0.105   3.959   3.854  2.6586  0.8493  1.6191
 1222SOL    HW215300   0.019   3.838   3.889 -0.1485 -0.5057  1.7031
 1223SOL     OW15301   0.282   1.975  16.244 -0.1686  0.3334  0.4729
 1223SOL    HW115302   0.299   2.006  16.333  0.1309 -0.5052  0.7031
 1223SOL    HW215303   0.353   2.018  16.195  0.1238 -1.6854 -0.8624
 1224SOL     OW15304   2.431   1.144  16.921  0.0378 -1.0729  0.5019
 1224SOL    HW115305   2.344   1.105  16.916  0.2329 -1.4002 -0.4431
 1224SOL    HW215306   2.467   1.095  16.847  0.6716 -0.9172  0.7035
 1225SOL     OW15307   0.090   4.453   8.607 -0.2786  0.2276  0.2081
 1225SOL    HW115308   0.004   4.481   8.574 -0.2362  0.0299 -0.0779
 1225SOL    HW215309   0.107   4.373   8.558 -0.9554  0.2825 -0.1227
 1226SOL     OW15310   2.126   3.937   6.504 -0.0910  0.3575 -0.4175
 1226SOL    HW115311   2.152   3.879   6.575 -0.0492  0.1056 -0.6393
 1226SOL    HW215312   2.033   3.914   6.504  0.3031 -1.2677 -0.7011
 1227SOL     OW15313   1.934   2.825   3.365 -0.3275 -0.1433 -0.3258
 1227SOL    HW115314   1.864   2.820   3.300 -1.2478 -1.3945  0.7561
 1227SOL    HW215315   1.965   2.914   3.351  1.8806 -0.9373 -0.5889
 1228SOL     OW15316   1.480   0.756   3.814 -0.0428 -0.3421  0.1199
 1228SOL    HW115317   1.389   0.728   3.802 -0.4758 -0.3097  3.3399
 1228SOL    HW215318   1.478   0.831   3.754 -2.4772 -1.6618 -1.4359
 1229SOL     OW15319   3.482   1.525  14.129 -0.0354 -0.4564 -0.0205
 1229SOL    HW115320   3.572   1.528  14.161  0.0097  0.6713 -0.2538
 1229SOL    HW215321   3.458   1.615  14.109  0.1443 -0.3802  0.1138
 1230SOL     OW15322   3.046   3.277   2.699  0.0050 -0.6037  0.2212
 1230SOL    HW115323   3.104   3.353   2.689 -0.2434 -0.4057  0.3014
 1230SOL    HW215324   2.965   3.311   2.663  0.4652  1.3186  0.9771
 1231SOL     OW15325   0.558   3.103   5.920  0.1411  0.6483 -0.4237
 1231SOL    HW115326   0.545   3.009   5.906 -0.0438  0.8065 -1.3075
 1231SOL    HW215327   0.646   3.111   5.957 -0.2738  1.3219  0.4232
 1232SOL     OW15328   3.336   3.363   5.969 -0.5132 -1.1957 -0.2962
 1232SOL    HW115329   3.242   3.347   5.976 -0.6452 -0.1723  0.2953
 1232SOL    HW215330   3.345   3.439   5.911  1.1794 -1.1287  0.0410
 1233SOL     OW15331   2.332   4.232   7.175  0.1446 -0.0520  0.0468
 1233SOL    HW115332   2.239   4.246   7.156  0.6776  1.6839 -1.2727
 1233SOL    HW215333   2.345   4.318   7.216  1.2618 -0.0077 -0.3906
 1234SOL     OW15334   3.932   1.626  16.670 -0.2357 -0.2101 -0.6878
 1234SOL    HW115335   4.020   1.650  16.699 -0.5486  1.7337 -1.3277
 1234SOL    HW215336   3.932   1.531  16.682  0.5398 -0.5191 -3.0014
 1235SOL     OW15337   3.889   4.447   5.807  0.0651  0.2317 -0.1022
 1235SOL    HW115338   3.947   4.524   5.814  1.2343 -0.5033 -1.8369
 1235SOL    HW215339   3.836   4.443   5.886 -0.9561 -1.2558 -0.8627
 1236SOL     OW15340   1.716   1.868   5.752 -0.1841  0.1004  0.1551
 1236SOL    HW115341   1.662   1.853   5.674  2.2666 -1.3199 -1.2646
 1236SOL    HW215342   1.693   1.786   5.795  0.1871 -0.4829 -0.7588
 1237SOL     OW15343   3.286   0.611   4.601  0.0029 -0.1210 -0.2618
 1237SOL    HW115344   3.336   0.659   4.536 -0.1368  0.3715 -0.0070
 1237SOL    HW215345   3.230   0.682   4.634 -1.7294 -1.2630 -0.7152
 1238SOL     OW15346   4.494   2.396   5.035 -0.6936  0.0501  0.1760
 1238SOL    HW115347   4.483   2.457   4.962  0.9858  0.2416  0.0743
 1238SOL    HW215348   4.412   2.413   5.081 -0.7741  1.1865 -0.3649
 1239SOL     OW15349   2.482   2.773   8.327  0.1992  0.0538 -0.0829
 1239SOL    HW115350   2.558   2.741   8.377 -0.4624 -1.0230  0.2275
 1239SOL    HW215351   2.489   2.736   8.239 -1.7669  0.7133 -0.5114
 1240SOL     OW15352   3.127   1.571   5.705 -0.0416  0.1159 -0.1251
 1240SOL    HW115353   3.114   1.490   5.753  1.4900  0.1256  0.2863
 1240SOL    HW215354   3.034   1.596   5.698  0.0802  0.0513 -2.1411
 1241SOL     OW15355   3.219   4.445   3.768  0.3406  0.0790 -0.5248
 1241SOL    HW115356   3.124   4.436   3.778  0.2045  1.7865 -0.2304
 1241SOL    HW215357   3.226   4.531   3.809 -0.7675  0.2798 -0.7695
 1242SOL     OW15358   0.033   0.982   7.029  0.0622 -0.0746 -0.2614
 1242SOL    HW115359   0.025   1.063   7.079  1.8721  1.5005 -2.4824
 1242SOL    HW215360   0.103   0.934   7.071 -0.9622  0.3129  1.8644
 1243SOL     OW15361   2.294   3.748   1.512 -0.1628  0.6556 -0.3244
 1243SOL    HW115362   2.257   3.693   1.444 -2.1064  0.5234  0.8474
 1243SOL    HW215363   2.369   3.698   1.545  0.0137 -0.8785 -3.0454
 1244SOL     OW15364   3.049   4.615  10.019  0.8351  0.3814  0.4337
 1244SOL    HW115365   3.002   4.680   9.966 -1.3763 -1.5352  0.0377
 1244SOL    HW215366   3.012   4.536   9.979  1.3300  0.3734 -0.0120
 1245SOL     OW15367   0.349   2.387   2.267  0.2473  0.4371 -0.2367
 1245SOL    HW115368   0.388   2.474   2.264  0.1353  0.4583 -1.3327
 1245SOL    HW215369   0.402   2.345   2.199  2.1857 -0.5518  1.9168
 1246SOL     OW15370   1.047   1.248   5.391  0.1079 -0.4344 -0.0702
 1246SOL    HW115371   0.953   1.238   5.379  0.1392  0.4364 -0.9961
 1246SOL    HW215372   1.080   1.184   5.328 -0.3783 -0.2764 -0.4867
 1247SOL     OW15373   4.503   0.571   3.826 -0.4781  0.2466  0.3814
 1247SOL    HW115374   4.569   0.586   3.894 -2.2293  0.4288  2.0106
 1247SOL    HW215375   4.462   0.498   3.872  0.0541 -1.2316 -1.4709
 1248SOL     OW15376   1.352   2.144   5.568 -0.3688 -0.3920  0.5506
 1248SOL    HW115377   1.293   2.116   5.638 -2.0020  0.8372 -0.3411
 1248SOL    HW215378   1.294   2.150   5.492 -0.8864 -0.6331  0.9286
 1249SOL     OW15379   2.506   3.587   0.713 -0.5887 -0.0132  0.1320
 1249SOL    HW115380   2.447   3.521   0.678  2.1738 -2.3081 -0.1896
 1249SOL    HW215381   2.450   3.665   0.714  0.1791  0.5327  1.1228
 1250SOL     OW15382   0.462   0.554   9.909  0.2045 -0.1927 -0.6428
 1250SOL    HW115383   0.539   0.584   9.957  0.4511 -3.8711  1.2538
 1250SOL    HW215384   0.425   0.494   9.974 -0.0315  0.6614  0.0122
 1251SOL     OW15385   2.755   4.661  13.052 -0.1975  0.5653 -0.3896
 1251SOL    HW115386   2.821   4.609  13.005  0.4698  0.0315  1.1141
 1251SOL    HW215387   2.800   4.679  13.135 -1.4153  1.5843  0.0422
 1252SOL     OW15388   3.167   2.930   4.775  0.2973 -0.4252 -0.6039
 1252SOL    HW115389   3.246   2.961   4.731  0.3478  0.1951 -0.0842
 1252SOL    HW215390   3.184   2.967   4.862  0.5495  0.9047 -1.2119
 1253SOL     OW15391   0.418   0.014   3.866  0.1111 -0.3198  0.0700
 1253SOL    HW115392   0.410   0.082   3.932  1.7876 -0.8144  0.7853
 1253SOL    HW215393   0.473   4.691   3.915 -0.3961  2.1128  3.6604
 1254SOL     OW15394   0.624   1.973   4.454  0.4465  0.0980  0.5252
 1254SOL    HW115395   0.534   1.989   4.427  0.4267 -0.0500  0.5039
 1254SOL    HW215396   0.611   1.912   4.526 -1.6338  0.5216  0.4956
 1255SOL     OW15397   1.256   0.544   7.445 -0.4277  0.1214 -0.5831
 1255SOL    HW115398   1.257   0.449   7.457  1.5733  0.0519 -1.2019
 1255SOL    HW215399   1.165   0.565   7.465  0.3981  1.9085  1.3543
 1256SOL     OW15400   2.648   0.471   8.396 -0.6407  0.1145  0.4084
 1256SOL    HW115401   2.691   0.411   8.457  1.4434  0.3028 -0.8790
 1256SOL    HW215402   2.724   0.507   8.351 -2.7132  2.1171 -1.4806
 1257SOL     OW15403   0.645   1.758   5.625 -0.2693 -0.3431  0.1763
 1257SOL    HW115404   0.669   1.817   5.553  0.4230  0.6798  1.2453
 1257SOL    HW215405   0.581   1.813   5.671  1.1393 -1.0875  2.9995
 1258SOL     OW15406   1.200   1.585   3.274 -0.3018 -0.3655  0.4003
 1258SOL    HW115407   1.259   1.649   3.235 -0.8893 -0.6689 -1.0012
 1258SOL    HW215408   1.232   1.579   3.364  1.3097  0.3722 -0.1252
 1259SOL     OW15409   2.512   3.337   3.260  0.6008  0.4700 -0.0247
 1259SOL    HW115410   2.561   3.285   3.196  1.6442  2.7097 -1.0274
 1259SOL    HW215411   2.533   3.426   3.233  3.5258 -0.3959 -0.6045
 1260SOL     OW15412   1.582   1.166   7.483  0.3001  0.8764 -0.3026
 1260SOL    HW115413   1.617   1.079   7.466 -0.9481  0.7924 -2.4557
 1260SOL    HW215414   1.653   1.197   7.538  1.2908  0.1963 -1.1989
 1261SOL     OW15415   3.597   0.090   5.787 -0.1763  0.0815 -0.3293
 1261SOL    HW115416   3.650   0.022   5.745  0.6649 -0.6767  1.9256
 1261SOL    HW215417   3.641   0.171   5.762 -2.0597  1.4251  0.7060
 1262SOL     OW15418   0.053   0.972   2.514  0.4857 -0.1298  0.3768
 1262SOL    HW115419   0.012   0.935   2.592 -2.6922  2.7970  0.0844
 1262SOL    HW215420   0.136   0.925   2.508  0.1451 -0.8869  1.5500
 1263SOL     OW15421   0.769   4.620  14.672 -0.0722  0.0846 -0.3590
 1263SOL    HW115422   0.786   4.668  14.753 -0.5209 -2.3830  1.1944
 1263SOL    HW215423   0.856   4.618  14.632  0.1068 -0.3929  0.0621
 1264SOL     OW15424   2.979   4.043   9.101  0.4758  0.1709  0.2908
 1264SOL    HW115425   2.974   4.130   9.062 -1.9452  0.8789  2.2218
 1264SOL    HW215426   2.911   4.055   9.167 -0.2549 -1.4388 -0.1507
 1265SOL     OW15427   0.977   4.143  12.168  0.6592 -0.4209 -0.0072
 1265SOL    HW115428   0.979   4.218  12.109  2.4361 -0.6093 -0.1899
 1265SOL    HW215429   0.930   4.181  12.243 -0.6865 -0.4831 -0.8196
 1266SOL     OW15430   3.348   0.492  13.012  0.4071  0.3990 -0.4000
 1266SOL    HW115431   3.421   0.483  12.950  1.7336 -0.1985  1.2275
 1266SOL    HW215432   3.376   0.577  13.048 -2.4947  0.4429  1.6882
 1267SOL     OW15433   4.551   2.991   5.719  0.3376 -0.5757  0.3044
 1267SOL    HW115434   4.567   3.079   5.753 -0.4731 -0.1100 -0.5437
 1267SOL    HW215435   4.628   2.943   5.749  1.0644  0.5853  0.2740
 1268SOL     OW15436   4.445   3.395   3.473  0.0747  0.3819 -0.2934
 1268SOL    HW115437   4.369   3.338   3.485 -1.2422  2.6346  2.1078
 1268SOL    HW215438   4.518   3.334   3.488 -0.5107  0.1894  1.8247
 1269SOL     OW15439   2.640   2.519   3.596  0.1115  0.2768  0.2779
 1269SOL    HW115440   2.718   2.558   3.636 -0.5938 -0.6819  2.5958
 1269SOL    HW215441   2.642   2.430   3.633 -0.5538  0.7604  1.4670
 1270SOL     OW15442   1.319   0.704  12.248 -0.9113 -0.0438  0.2417
 1270SOL    HW115443   1.331   0.762  12.173  0.1546 -1.3333 -0.5897
 1270SOL    HW215444   1.268   0.636  12.204  0.2860  0.2121 -1.5586
 1271SOL     OW15445   3.710   2.652   8.444 -0.1838  0.0199  0.1991
 1271SOL    HW115446   3.794   2.699   8.440 -0.5642  0.7670  1.0176
 1271SOL    HW215447   3.738   2.574   8.396 -0.9760 -1.5484  2.2931
 1272SOL     OW15448   3.665   3.676  12.149  0.8068 -0.0453  0.0545
 1272SOL    HW115449   3.649   3.714  12.063 -1.0409 -1.1853 -0.0905
 1272SOL    HW215450   3.600   3.605  12.152 -0.5601  1.2324  0.3116
 1273SOL     OW15451   2.137   1.835  17.238 -0.2233  0.4392  0.7435
 1273SOL    HW115452   2.102   1.920  17.264  0.4550  0.8762  0.2217
 1273SOL    HW215453   2.051   1.799  17.217  0.1056  0.3056 -0.3777
 1274SOL     OW15454   2.543   3.870   2.678  0.4608 -0.4371  0.9904
 1274SOL    HW115455   2.534   3.960   2.710 -1.7732 -0.7539  1.2366
 1274SOL    HW215456   2.596   3.874   2.598 -1.8061 -0.4502 -0.4924
 1275SOL     OW15457   1.701   2.237  17.265 -0.2422 -0.2510 -0.1425
 1275SOL    HW115458   1.710   2.316  17.319  4.9855  0.7055 -2.3872
 1275SOL    HW215459   1.684   2.275  17.179 -0.1589 -0.3797 -0.2155
 1276SOL     OW15460   1.073   4.724  11.140 -0.3437  0.6079  0.0838
 1276SOL    HW115461   1.000   4.679  11.182  1.9270  0.9255  4.3279
 1276SOL    HW215462   1.117   0.012  11.221  2.4070 -1.3029 -0.8070
 1277SOL     OW15463   0.257   0.817   2.444  0.0298  0.5130  0.0128
 1277SOL    HW115464   0.331   0.839   2.388  1.1684 -3.3967 -0.0400
 1277SOL    HW215465   0.303   0.760   2.505 -2.8819 -1.0744  0.7289
 1278SOL     OW15466   2.086   0.428   2.825  0.5188 -0.4403 -0.5898
 1278SOL    HW115467   2.164   0.480   2.812 -0.5144  0.8122 -1.6970
 1278SOL    HW215468   2.108   0.347   2.779  1.0130  0.3314 -1.7020
 1279SOL     OW15469   2.090   4.142  12.478 -0.0788 -0.1048 -0.7263
 1279SOL    HW115470   2.129   4.227  12.457 -2.0457  0.6435 -1.3905
 1279SOL    HW215471   2.005   4.151  12.436 -1.2737  0.8846  1.9046
 1280SOL     OW15472   1.492   2.492  14.113  0.2716  0.1993  0.1634
 1280SOL    HW115473   1.538   2.461  14.035  1.2148 -1.2645  1.3055
 1280SOL    HW215474   1.445   2.565  14.073  0.6818  0.4135  0.0762
 1281SOL     OW15475   3.705   2.851   8.901  0.3203 -0.4902 -0.2007
 1281SOL    HW115476   3.796   2.860   8.930 -0.3894 -1.3093  2.3664
 1281SOL    HW215477   3.662   2.901   8.970  0.8344  0.6562 -0.7098
 1282SOL     OW15478   0.287   0.672   0.324  0.1087  0.5337  0.0745
 1282SOL    HW115479   0.240   0.753   0.303 -0.5416  0.4964  1.4021
 1282SOL    HW215480   0.219   0.625   0.372  0.3613 -0.4540 -0.5326
 1283SOL     OW15481   3.274   3.071   8.298 -0.0250  0.5107  0.4856
 1283SOL    HW115482   3.339   3.030   8.355 -1.3331 -1.5955  0.4767
 1283SOL    HW215483   3.315   3.053   8.214 -1.3724 -1.7442  0.3255
 1284SOL     OW15484   4.295   0.552   5.849 -0.3609 -0.4928 -0.3842
 1284SOL    HW115485   4.312   0.548   5.943  0.6123  0.7629 -0.5035
 1284SOL    HW215486   4.301   0.457   5.839 -2.7692 -0.5176 -1.4724
 1285SOL     OW15487   4.126   1.555   5.164 -0.2739 -0.1431 -0.2854
 1285SOL    HW115488   4.172   1.475   5.189 -0.2040 -0.4075 -1.2753
 1285SOL    HW215489   4.036   1.528   5.183 -0.1860  0.9537  1.6836
 1286SOL     OW15490   4.263   3.712  13.771  0.0477 -0.0132  0.3286
 1286SOL    HW115491   4.272   3.745  13.682  0.8026 -0.0440  0.3922
 1286SOL    HW215492   4.326   3.641  13.777 -1.0098 -0.8712  1.3467
 1287SOL     OW15493   3.051   0.834   4.012 -0.2473 -0.0386  0.2530
 1287SOL    HW115494   3.005   0.908   4.052  0.9777  0.7216  0.2740
 1287SOL    HW215495   3.067   0.793   4.096 -0.6477 -2.5441 -0.9031
 1288SOL     OW15496   3.148   1.045  14.388 -0.2253  0.3428 -0.3414
 1288SOL    HW115497   3.073   1.050  14.447  1.8137  0.3222  2.2120
 1288SOL    HW215498   3.187   0.966  14.425 -2.6091 -0.1030  1.2137
 1289SOL     OW15499   0.977   1.368   8.815  0.3978  0.3563 -0.1453
 1289SOL    HW115500   0.899   1.389   8.763 -0.1388  1.2644  1.0430
 1289SOL    HW215501   0.949   1.350   8.905  0.3680 -2.3154 -0.6623
 1290SOL     OW15502   3.669   1.369   6.199  0.3541 -0.0036 -0.1501
 1290SOL    HW115503   3.640   1.279   6.184 -1.4588  0.7521 -1.1651
 1290SOL    HW215504   3.660   1.369   6.294  0.1229  0.9732 -0.1752
 1291SOL     OW15505   1.189   1.025   6.604  0.1089  0.1631  0.0977
 1291SOL    HW115506   1.109   1.074   6.623  0.1181 -0.7717  2.5543
 1291SOL    HW215507   1.154   0.943   6.570  2.2858 -0.4700 -0.6127
 1292SOL     OW15508   1.060   1.034   6.241  0.5768  0.2275  0.5479
 1292SOL    HW115509   1.109   1.115   6.252  0.7202  0.4661 -1.8165
 1292SOL    HW215510   0.968   1.054   6.224  0.4518 -0.8812 -0.0773
 1293SOL     OW15511   1.693   0.158   4.536  0.0246 -0.3701 -0.1715
 1293SOL    HW115512   1.722   0.123   4.452 -1.5410 -0.4303 -0.6787
 1293SOL    HW215513   1.610   0.116   4.558  0.0013  0.2206  0.8628
 1294SOL     OW15514   1.087   2.942   7.244 -0.0706 -0.1049 -0.1359
 1294SOL    HW115515   0.995   2.964   7.230 -0.0071 -1.4569 -2.5080
 1294SOL    HW215516   1.085   2.899   7.330  0.0839  0.7177  0.2880
 1295SOL     OW15517   1.155   3.983   8.645 -0.3308  0.4996 -0.3410
 1295SOL    HW115518   1.157   4.074   8.616 -1.6372  1.6882  3.3303
 1295SOL    HW215519   1.242   3.974   8.686 -0.6386  2.2709  0.6720
 1296SOL     OW15520   2.092   0.137   3.172 -0.3059  0.1645 -0.0681
 1296SOL    HW115521   2.143   0.178   3.241  0.1253 -0.6256  0.0846
 1296SOL    HW215522   2.162   0.112   3.111  0.8807  1.6973  0.6589
 1297SOL     OW15523   0.977   1.868   1.282 -0.3347  0.3140 -0.0131
 1297SOL    HW115524   0.892   1.854   1.323 -0.9363  2.9040 -0.3554
 1297SOL    HW215525   1.010   1.947   1.324 -1.1388  1.6115 -1.8037
 1298SOL     OW15526   4.070   1.999   7.636 -0.4147 -0.2452 -0.9506
 1298SOL    HW115527   4.131   2.047   7.579  1.6459 -1.2149  0.4551
 1298SOL    HW215528   4.095   2.037   7.719  0.7408 -2.3573 -0.3328
 1299SOL     OW15529   3.265   2.989   5.031 -0.0917 -0.1959  0.4624
 1299SOL    HW115530   3.268   2.915   5.091  1.2730 -0.7059 -0.2596
 1299SOL    HW215531   3.358   3.010   5.028 -0.2611 -0.0460 -3.3145
 1300SOL     OW15532   1.006   3.215   5.288  0.4981 -0.0120 -0.2900
 1300SOL    HW115533   0.936   3.196   5.226 -0.1583 -1.1760  0.8079
 1300SOL    HW215534   1.041   3.126   5.291  2.9599  0.9651 -0.7173
 1301SOL     OW15535   3.271   4.413   1.398 -0.4852  0.6524  0.0123
 1301SOL    HW115536   3.261   4.467   1.320  0.2644  0.9024  0.0934
 1301SOL    HW215537   3.366   4.413   1.402 -0.6943  0.2703  5.1627
 1302SOL     OW15538   1.118   0.218   0.760 -0.2327  0.1518 -0.0285
 1302SOL    HW115539   1.173   0.209   0.682  1.8155  0.0580  1.4145
 1302SOL    HW215540   1.058   0.144   0.747  0.6251 -0.8898  1.8141
 1303SOL     OW15541   4.614   4.589   3.840 -0.5619 -0.3999  0.0315
 1303SOL    HW115542   4.556   4.620   3.909  0.0628 -1.3702  0.9950
 1303SOL    HW215543   4.554   4.579   3.766  0.0563 -2.1953 -0.2193
 1304SOL     OW15544   0.861   1.296   2.282  0.1428 -0.3344 -0.3230
 1304SOL    HW115545   0.858   1.286   2.377 -1.9450 -0.8642 -0.4433
 1304SOL    HW215546   0.769   1.292   2.257  0.5992  1.6867 -2.3355
 1305SOL     OW15547   4.343   3.341   1.910  0.6173 -0.0028  0.4437
 1305SOL    HW115548   4.344   3.436   1.920  1.7983  0.0368 -0.0495
 1305SOL    HW215549   4.310   3.323   1.998  0.0706  1.3438  0.5165
 1306SOL     OW15550   4.250   4.642  12.758 -0.1980  0.4843  0.3941
 1306SOL    HW115551   4.285   4.719  12.715 -0.0556  0.1907 -0.0120
 1306SOL    HW215552   4.156   4.660  12.757 -0.3647 -0.4081 -0.0656
 1307SOL     OW15553   2.588   2.798   1.761 -0.1889  0.2317 -0.1762
 1307SOL    HW115554   2.585   2.788   1.856 -0.9590  2.8603  0.0878
 1307SOL    HW215555   2.548   2.884   1.749 -0.1288  0.0452 -1.7097
 1308SOL     OW15556   1.034   3.223   7.377 -0.5334  0.0410 -0.3897
 1308SOL    HW115557   1.003   3.214   7.287 -0.2198  0.1028 -0.5049
 1308SOL    HW215558   1.031   3.132   7.409 -2.0991 -0.3155 -1.5807
 1309SOL     OW15559   0.483   1.581   9.489 -0.2275  0.4326 -0.1698
 1309SOL    HW115560   0.559   1.582   9.431 -0.9166  0.3734 -1.0671
 1309SOL    HW215561   0.517   1.605   9.575 -3.9708  0.2984  1.3638
 1310SOL     OW15562   1.715   4.514  17.122 -0.4654 -0.5065 -0.4712
 1310SOL    HW115563   1.783   4.580  17.105 -1.1172  0.0942 -0.7373
 1310SOL    HW215564   1.758   4.467  17.193  0.3771  0.1839 -0.5136
 1311SOL     OW15565   2.779   1.343   8.044 -0.2314 -0.2307  0.1251
 1311SOL    HW115566   2.785   1.287   8.121  0.2158 -1.1789 -0.6023
 1311SOL    HW215567   2.779   1.435   8.071  1.3058 -0.8998  2.3345
 1312SOL     OW15568   3.168   1.085  12.354  0.3071 -0.0999 -0.0831
 1312SOL    HW115569   3.104   1.126  12.412  0.0710 -1.6407  0.7656
 1312SOL    HW215570   3.130   1.121  12.274 -1.1759  0.2642  0.7857
 1313SOL     OW15571   4.341   0.677   3.575 -0.1318  0.1126  0.3067
 1313SOL    HW115572   4.352   0.664   3.670 -1.6875 -2.9309  0.0868
 1313SOL    HW215573   4.246   0.687   3.575 -0.4417 -2.7748 -0.7572
 1314SOL     OW15574   4.344   1.175   2.585  0.4552 -0.3609 -0.6005
 1314SOL    HW115575   4.405   1.240   2.552 -0.0021  0.2551 -0.2215
 1314SOL    HW215576   4.376   1.093   2.546  0.5683 -0.0437 -1.1756
 1315SOL     OW15577   2.504   0.963  12.870 -0.0611 -0.1932 -0.2930
 1315SOL    HW115578   2.488   0.888  12.813  1.1331  0.2858 -1.2673
 1315SOL    HW215579   2.582   0.926  12.911  1.0217  0.9578 -1.3491
 1316SOL     OW15580   2.005   4.240   7.424 -0.1608  0.3123  0.3805
 1316SOL    HW115581   2.007   4.147   7.446 -0.1721 -0.0985 -1.4059
 1316SOL    HW215582   2.020   4.276   7.512 -1.1218 -0.6442  0.9459
 1317SOL     OW15583   2.716   1.719  10.548  0.3550 -0.8626 -0.1596
 1317SOL    HW115584   2.779   1.779  10.507 -0.2459 -0.5951 -0.6979
 1317SOL    HW215585   2.780   1.670  10.599  0.5853 -1.2153 -0.7870
 1318SOL     OW15586   1.064   2.929   3.671  0.0988 -0.2742 -0.2512
 1318SOL    HW115587   1.026   2.885   3.746  3.7178 -1.3897  0.9076
 1318SOL    HW215588   1.139   2.872   3.659  2.0065  1.7891  1.9203
 1319SOL     OW15589   0.808   4.464   3.999  0.2082 -0.4661  0.3371
 1319SOL    HW115590   0.803   4.384   3.947  1.9229 -1.9401  2.4467
 1319SOL    HW215591   0.770   4.426   4.079 -0.8680 -1.0475 -0.4462
 1320SOL     OW15592   3.399   4.520  11.200 -0.2786 -0.1536  0.0643
 1320SOL    HW115593   3.391   4.578  11.125 -1.1325 -1.7499 -1.0836
 1320SOL    HW215594   3.412   4.439  11.150  1.9741 -0.8481  1.7663
 1321SOL     OW15595   1.457   2.843   9.016 -0.4749 -0.7920 -0.0650
 1321SOL    HW115596   1.552   2.847   9.031 -0.7490 -1.3121  1.8335
 1321SOL    HW215597   1.416   2.835   9.102 -1.2853 -0.0602 -0.3843
 1322SOL     OW15598   1.302   2.705   1.072 -0.0051 -0.4896  0.4383
 1322SOL    HW115599   1.350   2.779   1.033  1.1786 -2.0127 -1.0109
 1322SOL    HW215600   1.236   2.756   1.119 -0.0767  0.0984 -0.2927
 1323SOL     OW15601   1.552   0.533   4.776 -0.0418 -0.1869 -0.1958
 1323SOL    HW115602   1.509   0.484   4.846  0.9459  1.0809  1.3079
 1323SOL    HW215603   1.474   0.546   4.722 -0.4233 -3.4068 -0.4265
 1324SOL     OW15604   4.109   4.200  16.184  0.2425 -0.0777  0.4387
 1324SOL    HW115605   4.162   4.123  16.164  1.7288  0.5344  2.0932
 1324SOL    HW215606   4.171   4.272  16.174 -0.6411  0.6351  0.0763
 1325SOL     OW15607   4.309   3.545   5.242  0.9826  0.6262 -0.0608
 1325SOL    HW115608   4.223   3.574   5.270  0.4912 -2.1916  1.3439
 1325SOL    HW215609   4.292   3.567   5.151  0.6499 -0.9017 -0.3645
 1326SOL     OW15610   2.620   1.987   2.994 -0.6896 -0.1465  0.4026
 1326SOL    HW115611   2.527   1.980   3.016 -0.9687  1.1275 -0.3980
 1326SOL    HW215612   2.634   2.053   3.062  1.3321 -2.6927  2.4935
 1327SOL     OW15613   1.245   3.836   1.915  0.5824  0.3839  0.2094
 1327SOL    HW115614   1.280   3.854   1.827 -2.8396  0.6571 -1.1042
 1327SOL    HW215615   1.246   3.922   1.956 -0.5698  0.6918 -0.4070
 1328SOL     OW15616   4.247   3.627   2.635  0.2468  0.3187 -0.3313
 1328SOL    HW115617   4.280   3.655   2.720 -0.3980 -0.5809  0.2208
 1328SOL    HW215618   4.159   3.597   2.659  1.1876  1.1190  4.0893
 1329SOL     OW15619   3.942   2.385   5.789 -0.1157  0.0394  0.2460
 1329SOL    HW115620   3.887   2.374   5.866 -0.0348  0.2631  0.3368
 1329SOL    HW215621   3.904   2.452   5.732  3.2547  0.3606 -1.6617
 1330SOL     OW15622   1.875   3.736  17.469 -0.5659  0.3135 -0.3951
 1330SOL    HW115623   1.869   3.647  17.434 -1.1110  0.7402 -1.3945
 1330SOL    HW215624   1.786   3.772  17.462  0.0931  1.8894 -0.6191
 1331SOL     OW15625   1.857   0.992   1.973  0.1768 -0.7089  0.2142
 1331SOL    HW115626   1.908   1.064   2.008  1.9890 -0.1251 -3.6260
 1331SOL    HW215627   1.772   1.012   2.013  0.3490  0.4706 -0.0320
 1332SOL     OW15628   0.162   0.890  10.658  0.4618 -0.5034 -0.2536
 1332SOL    HW115629   0.193   0.964  10.711  0.0450 -0.4441 -0.0944
 1332SOL    HW215630   0.154   0.921  10.567 -1.2429 -2.5147 -0.7770
 1333SOL     OW15631   1.815   4.255   8.736 -1.1048 -0.1376  0.4634
 1333SOL    HW115632   1.772   4.178   8.699  1.2207 -0.1761 -2.1688
 1333SOL    HW215633   1.751   4.288   8.798  0.1945 -0.1377  1.8179
 1334SOL     OW15634   3.976   1.997   5.664  0.2371  0.0540 -0.2923
 1334SOL    HW115635   3.888   1.968   5.639 -0.4304  2.4257 -0.7732
 1334SOL    HW215636   4.023   1.916   5.645 -1.5250 -1.2319  0.8143
 1335SOL     OW15637   1.454   0.671   7.153 -0.2500  0.0569 -0.6315
 1335SOL    HW115638   1.449   0.762   7.183 -1.7196 -1.2812  3.1941
 1335SOL    HW215639   1.506   0.670   7.073  1.8457 -0.3534  0.7328
 1336SOL     OW15640   1.370   1.096   2.337  0.2935  0.2650  0.1200
 1336SOL    HW115641   1.322   1.175   2.313 -1.0810 -0.7849 -0.5788
 1336SOL    HW215642   1.392   1.114   2.429  1.9458  0.6706 -0.3521
 1337SOL     OW15643   1.678   0.000   8.974 -0.0919 -0.2085 -0.1980
 1337SOL    HW115644   1.710   4.726   9.063  2.1621  0.0486 -0.9689
 1337SOL    HW215645   1.743   0.061   8.939  0.8064 -1.0736 -0.0438
 1338SOL     OW15646   3.623   4.374   3.701 -0.0755  0.6684 -0.3222
 1338SOL    HW115647   3.551   4.385   3.764  1.9584  0.4316  2.0523
 1338SOL    HW215648   3.588   4.424   3.627 -0.0097 -1.1248 -1.5565
 1339SOL     OW15649   0.038   1.169   5.777 -0.8783  0.6299  0.2386
 1339SOL    HW115650   4.686   1.147   5.800 -0.6258  1.2538  1.8309
 1339SOL    HW215651   0.085   1.110   5.837 -1.8846 -0.9487 -0.5296
 1340SOL     OW15652   0.245   1.104   4.134 -0.6981 -0.7042 -0.4991
 1340SOL    HW115653   0.161   1.145   4.155 -0.4508  0.8583 -2.5882
 1340SOL    HW215654   0.303   1.152   4.192 -1.2328  0.8755 -1.2669
 1341SOL     OW15655   3.180   3.424   8.356  0.2706 -0.4469 -0.4494
 1341SOL    HW115656   3.090   3.394   8.341  0.6562 -1.0828 -1.5185
 1341SOL    HW215657   3.170   3.466   8.442 -1.9073 -0.8588 -0.5005
 1342SOL     OW15658   2.364   1.181   4.254 -0.2546  0.2554 -0.3420
 1342SOL    HW115659   2.434   1.163   4.316  0.6410 -0.7663 -1.6571
 1342SOL    HW215660   2.292   1.152   4.310  1.3091 -1.8281  0.5714
 1343SOL     OW15661   0.616   3.136   9.432  0.3928  0.3089 -0.0980
 1343SOL    HW115662   0.663   3.156   9.513 -0.3891 -1.3281  0.7630
 1343SOL    HW215663   0.576   3.052   9.453 -0.5294  0.0205 -3.0218
 1344SOL     OW15664   2.158   3.455   4.601 -0.8326  0.4651  0.2231
 1344SOL    HW115665   2.072   3.411   4.601 -1.2027  1.1865  0.5276
 1344SOL    HW215666   2.152   3.496   4.515 -2.0266  1.4793  0.7842
 1345SOL     OW15667   1.102   4.210   3.124 -0.2484 -0.4893 -0.2055
 1345SOL    HW115668   1.023   4.258   3.100  1.0555  1.1259 -1.2994
 1345SOL    HW215669   1.167   4.278   3.110 -1.5278  0.6338 -0.6212
 1346SOL     OW15670   4.106   3.450   3.316 -0.0973 -0.0835  0.7765
 1346SOL    HW115671   4.078   3.359   3.312  0.9020 -0.2973 -1.5205
 1346SOL    HW215672   4.120   3.465   3.409 -2.8272 -0.1395  1.2030
 1347SOL     OW15673   4.234   3.410   7.139 -0.2004 -0.0872  0.2054
 1347SOL    HW115674   4.195   3.497   7.137 -1.2119 -0.5386 -0.0357
 1347SOL    HW215675   4.251   3.391   7.232 -0.2830 -1.3365 -0.0331
 1348SOL     OW15676   2.727   2.602   7.124  0.3338  0.2762  0.5624
 1348SOL    HW115677   2.772   2.685   7.108 -0.3937  0.6216  0.3050
 1348SOL    HW215678   2.636   2.626   7.143  0.1447  0.0595 -0.0599
 1349SOL     OW15679   0.925   4.727   7.067  0.0695  0.0392 -0.6243
 1349SOL    HW115680   0.901   4.725   6.975  2.3382 -0.3232 -1.2003
 1349SOL    HW215681   1.019   0.008   7.060  0.1836 -0.7942 -1.2626
 1350SOL     OW15682   3.298   4.736   2.751 -0.5408 -0.3378  0.2201
 1350SOL    HW115683   3.335   0.079   2.788  0.6289  0.6143 -2.9754
 1350SOL    HW215684   3.205   0.020   2.745 -0.8939 -2.2991 -1.5109
 1351SOL     OW15685   3.480   4.040  13.628 -0.3659  0.3727 -0.0384
 1351SOL    HW115686   3.398   3.995  13.648  1.1124 -1.0522  2.7675
 1351SOL    HW215687   3.485   4.045  13.533 -0.5826  0.0421 -0.0672
 1352SOL     OW15688   2.253   2.783   1.562 -0.2527  0.1230 -0.1081
 1352SOL    HW115689   2.160   2.761   1.560 -0.3934  0.6484  0.6880
 1352SOL    HW215690   2.254   2.852   1.495  0.9735  0.3544  0.1396
 1353SOL     OW15691   1.505   2.577  15.474 -0.8509  0.0628 -0.7281
 1353SOL    HW115692   1.582   2.570  15.417 -1.4349 -2.7648 -1.1657
 1353SOL    HW215693   1.475   2.665  15.451  2.5706  1.6966  1.0639
 1354SOL     OW15694   2.235   0.593   0.550 -0.1514 -0.8258  0.5054
 1354SOL    HW115695   2.185   0.636   0.619 -0.4353 -0.1291 -0.1438
 1354SOL    HW215696   2.310   0.583   0.609 -0.4466 -2.3727  0.6310
 1355SOL     OW15697   2.627   1.860   5.142 -0.0313 -0.2867  0.0353
 1355SOL    HW115698   2.604   1.867   5.050 -0.3971 -0.6977  0.0992
 1355SOL    HW215699   2.721   1.841   5.134  0.0977  0.1353  0.5299
 1356SOL     OW15700   0.581   2.538   3.049  0.0485  0.4728 -0.0122
 1356SOL    HW115701   0.500   2.581   3.022  0.4064  0.3167 -1.3060
 1356SOL    HW215702   0.595   2.568   3.139  3.0923 -1.8198  0.2874
 1357SOL     OW15703   0.903   3.830   7.613  0.8065 -0.3285  0.5032
 1357SOL    HW115704   0.910   3.740   7.582 -1.1230 -0.5851  0.8545
 1357SOL    HW215705   0.819   3.834   7.658  0.0820  4.3347 -1.2182
 1358SOL     OW15706   4.304   4.642   6.007  0.1429 -0.1403 -0.2307
 1358SOL    HW115707   4.365   4.705   5.967  0.3283 -1.4445 -1.9940
 1358SOL    HW215708   4.334   4.638   6.098  1.6019  0.3725 -0.6854
 1359SOL     OW15709   2.898   0.634   9.093 -0.7661  0.3023  0.2472
 1359SOL    HW115710   2.905   0.565   9.159  0.9195  0.6942  0.4648
 1359SOL    HW215711   2.870   0.708   9.147 -0.0163  1.7633 -1.3540
 1360SOL     OW15712   2.018   0.657   6.040 -0.2025 -0.2375  0.0910
 1360SOL    HW115713   2.062   0.581   6.079 -2.3437 -0.7170  1.6248
 1360SOL    HW215714   2.028   0.724   6.107  0.4056  0.6511 -0.8830
 1361SOL     OW15715   1.705   3.070   0.543 -0.0499 -0.4848  0.3612
 1361SOL    HW115716   1.673   2.994   0.592  0.3736 -1.7183 -1.2809
 1361SOL    HW215717   1.769   3.029   0.485  0.8473  0.6541  0.5201
 1362SOL     OW15718   3.797   1.861  15.806  0.0861 -0.0730 -0.7013
 1362SOL    HW115719   3.808   1.812  15.724  1.3718  0.9057 -1.1197
 1362SOL    HW215720   3.703   1.856  15.819  0.1955 -0.3305 -0.0317
 1363SOL     OW15721   1.985   2.715  11.263  0.1842 -0.1477  0.1649
 1363SOL    HW115722   1.936   2.787  11.304  1.5317  0.1425  1.2956
 1363SOL    HW215723   2.068   2.726  11.311  0.0482  3.1029 -0.3196
 1364SOL     OW15724   1.333   0.751   2.677  0.2226 -0.0921 -0.5233
 1364SOL    HW115725   1.313   0.749   2.770  0.7484  1.8775 -0.3600
 1364SOL    HW215726   1.313   0.660   2.654 -2.8630 -0.4077  3.5648
 1365SOL     OW15727   3.594   3.562   5.876 -0.5960  0.6600  0.5978
 1365SOL    HW115728   3.602   3.651   5.911  0.2688  0.7348  0.2072
 1365SOL    HW215729   3.501   3.569   5.852 -1.0721 -0.1516  2.2269
 1366SOL     OW15730   3.181   4.430   4.073 -0.4474  0.7255  0.2441
 1366SOL    HW115731   3.114   4.404   4.136  1.2900  3.1650  3.1200
 1366SOL    HW215732   3.157   4.516   4.039  0.5602  1.1412  0.5801
 1367SOL     OW15733   0.328   2.653   6.843 -0.0966  0.6938  0.4579
 1367SOL    HW115734   0.292   2.740   6.823  1.3717  0.8596 -1.4472
 1367SOL    HW215735   0.396   2.637   6.778 -1.1563 -2.2163  0.0539
 1368SOL     OW15736   2.542   2.876   2.487 -0.3333  0.6996  0.3509
 1368SOL    HW115737   2.543   2.805   2.552  0.4940  0.9281  0.5832
 1368SOL    HW215738   2.582   2.950   2.533  0.8200 -0.9601  2.0001
 1369SOL     OW15739   1.032   4.706   5.813 -0.4495  0.3071 -0.1671
 1369SOL    HW115740   1.000   4.635   5.756  0.4817  0.9935 -1.5200
 1369SOL    HW215741   1.025   0.040   5.751  1.5497  0.2872 -0.4019
 1370SOL     OW15742   2.944   2.643   6.587 -0.0795 -0.3163 -0.0645
 1370SOL    HW115743   2.903   2.613   6.506  0.3898  0.5973 -0.6430
 1370SOL    HW215744   3.004   2.706   6.546 -2.3872  1.6097 -0.4803
 1371SOL     OW15745   1.856   0.288   8.039 -0.1323 -0.1211 -0.2409
 1371SOL    HW115746   1.820   0.211   7.996  0.6329 -1.3409  1.2977
 1371SOL    HW215747   1.853   0.346   7.963  0.9752 -2.2256 -1.8860
 1372SOL     OW15748   1.193   0.994  12.674  0.1472  0.0979 -0.1737
 1372SOL    HW115749   1.212   1.086  12.659 -0.5342  0.0609 -1.2206
 1372SOL    HW215750   1.229   0.953  12.595  1.6540 -1.5196  1.3407
 1373SOL     OW15751   0.860   4.323  10.015 -0.1945  0.0409  0.0300
 1373SOL    HW115752   0.794   4.379   9.975 -1.7567 -0.0149  2.5153
 1373SOL    HW215753   0.912   4.309   9.936  0.2298  2.6267 -0.1354
 1374SOL     OW15754   0.237   3.373   7.863 -0.4979 -0.1281  0.1137
 1374SOL    HW115755   0.261   3.417   7.945 -1.6304 -0.6850  0.7503
 1374SOL    HW215756   0.151   3.404   7.834 -0.8045 -1.2441 -0.1886
 1375SOL     OW15757   1.732   2.498  17.361 -0.1857  0.2611  0.4221
 1375SOL    HW115758   1.828   2.488  17.362 -0.3683 -1.5637 -0.7925
 1375SOL    HW215759   1.715   2.542  17.444 -1.1500 -0.6108  0.6864
 1376SOL     OW15760   3.881   0.587  12.484  0.2152 -0.1928 -0.5203
 1376SOL    HW115761   3.892   0.507  12.433 -1.0541  0.8445 -2.4237
 1376SOL    HW215762   3.867   0.642  12.406 -0.8516  0.0513 -0.1536
 1377SOL     OW15763   1.990   4.731   4.902 -0.3025 -0.2710  0.0928
 1377SOL    HW115764   1.958   0.030   4.820 -0.6614 -0.6425  0.0698
 1377SOL    HW215765   2.061   0.057   4.911  1.9035 -2.7378  0.1083
 1378SOL     OW15766   3.264   2.269   1.207 -0.0479  0.0404 -0.2346
 1378SOL    HW115767   3.230   2.357   1.191 -1.5684 -0.5375 -0.1462
 1378SOL    HW215768   3.187   2.215   1.188 -0.2723  0.2095  0.2109
 1379SOL     OW15769   0.674   0.256  16.722  0.6434  0.2248  0.7453
 1379SOL    HW115770   0.613   0.192  16.685  1.3378 -0.6556  1.1354
 1379SOL    HW215771   0.749   0.233  16.667  0.0729 -3.0301  1.3644
 1380SOL     OW15772   2.985   4.078   6.515  0.1987 -0.6439  0.1431
 1380SOL    HW115773   2.913   4.139   6.532 -0.0878 -1.0176  0.2446
 1380SOL    HW215774   3.051   4.113   6.575 -0.2290  0.1789  0.1305
 1381SOL     OW15775   2.850   0.355   6.002  0.1363 -0.1293 -0.1245
 1381SOL    HW115776   2.773   0.396   5.962 -0.2832 -2.3276 -1.5616
 1381SOL    HW215777   2.849   0.378   6.094 -1.1871  0.5962 -0.3142
 1382SOL     OW15778   3.575   2.829  17.205  0.0473 -0.2672  0.8479
 1382SOL    HW115779   3.608   2.872  17.126 -0.7111  0.4204  0.8931
 1382SOL    HW215780   3.596   2.892  17.274 -1.3375  1.9151 -0.7119
 1383SOL     OW15781   1.103   1.820   7.010  0.0695 -0.2236  0.1325
 1383SOL    HW115782   1.103   1.856   7.098  0.8422  1.4856 -0.5724
 1383SOL    HW215783   1.171   1.753   7.019  1.6270  1.1684 -1.2379
 1384SOL     OW15784   1.080   0.205   2.828 -0.5186 -0.1215  0.0774
 1384SOL    HW115785   1.112   0.138   2.888 -1.3760  0.2573  0.9553
 1384SOL    HW215786   1.107   0.282   2.878  0.4246 -0.3789 -0.0458
 1385SOL     OW15787   1.182   0.788   4.816  0.0124 -0.5261  0.3207
 1385SOL    HW115788   1.222   0.723   4.759 -1.3222  0.2110 -1.4315
 1385SOL    HW215789   1.211   0.867   4.770 -1.3198 -1.4075 -1.9766
 1386SOL     OW15790   2.114   2.610   0.338 -0.0771  0.2542  0.1089
 1386SOL    HW115791   2.054   2.554   0.387  1.7163 -2.1219 -0.3753
 1386SOL    HW215792   2.194   2.595   0.390 -1.1559 -1.8400  1.1578
 1387SOL     OW15793   1.758   4.256   7.283  0.2768 -0.6272 -0.4977
 1387SOL    HW115794   1.827   4.253   7.348 -0.8957 -0.2857  0.7577
 1387SOL    HW215795   1.752   4.162   7.265 -0.1357 -0.9636  1.4109
 1388SOL     OW15796   3.170   4.662   3.050 -0.4411 -0.1868  0.0854
 1388SOL    HW115797   3.089   4.617   3.073 -1.1764  0.8885 -0.3941
 1388SOL    HW215798   3.150   4.709   2.969  2.6671  2.4519  0.8500
 1389SOL     OW15799   2.629   1.707  17.208 -0.1894  0.0462  0.5310
 1389SOL    HW115800   2.625   1.796  17.171  1.2021 -1.3998 -3.1485
 1389SOL    HW215801   2.536   1.687  17.211 -0.1257 -0.2301  0.6127
 1390SOL     OW15802   2.268   3.609   7.356  0.1620  0.5310  0.0443
 1390SOL    HW115803   2.210   3.615   7.432  0.3373 -1.5984  0.3477
 1390SOL    HW215804   2.356   3.613   7.393  0.2311  0.4768 -0.1142
 1391SOL     OW15805   0.121   4.187   1.722 -0.4737  0.3145  0.3655
 1391SOL    HW115806   0.079   4.221   1.801 -0.2370 -2.4063  1.6566
 1391SOL    HW215807   0.073   4.106   1.703  2.1766 -1.4493  1.2447
 1392SOL     OW15808   2.070   2.609   8.618  0.4137  0.5982  0.4140
 1392SOL    HW115809   1.977   2.619   8.596  0.0402 -1.4567  1.1234
 1392SOL    HW215810   2.086   2.533   8.561 -2.7490 -0.2624  0.6771
 1393SOL     OW15811   0.889   2.951   3.485 -0.3243 -0.0153  0.2767
 1393SOL    HW115812   0.857   2.864   3.460  0.1339  0.1960 -1.0276
 1393SOL    HW215813   0.959   2.921   3.544 -1.5833  0.2504  1.9126
 1394SOL     OW15814   2.683   0.161   6.541  0.2709 -0.5990 -0.2448
 1394SOL    HW115815   2.606   0.177   6.595  0.6856 -0.2394  0.2410
 1394SOL    HW215816   2.709   0.078   6.583 -2.5908 -1.5180 -0.3253
 1395SOL     OW15817   1.635   3.681   7.566 -0.6325 -0.1530  0.1233
 1395SOL    HW115818   1.565   3.617   7.552 -1.3346  0.7381 -0.4780
 1395SOL    HW215819   1.671   3.688   7.477  1.5012 -2.5126  0.8194
 1396SOL     OW15820   2.986   2.777   4.888 -0.9399 -0.1926 -0.0637
 1396SOL    HW115821   3.047   2.835   4.842 -1.0878 -1.6827 -2.1395
 1396SOL    HW215822   2.996   2.814   4.976 -1.2046 -0.8805  0.2524
 1397SOL     OW15823   0.915   3.630   6.165  0.2295  0.3145  0.0338
 1397SOL    HW115824   0.892   3.649   6.074 -1.4748 -1.3096  0.1370
 1397SOL    HW215825   0.830   3.634   6.208  0.6595  0.7171  0.8626
 1398SOL     OW15826   4.625   1.671   4.798  0.2921  0.8058 -0.0938
 1398SOL    HW115827   4.704   1.725   4.791  2.1293 -1.8511 -0.0799
 1398SOL    HW215828   4.565   1.735   4.761 -1.7095 -0.5026  0.8659
 1399SOL     OW15829   3.423   3.949   3.370 -0.4825  0.5775  0.2156
 1399SOL    HW115830   3.499   4.008   3.374 -0.7167  0.8887  0.0660
 1399SOL    HW215831   3.447   3.895   3.295  0.0515 -1.9373  2.1962
 1400SOL     OW15832   1.253   4.584  10.348 -0.1554 -0.1511  0.1845
 1400SOL    HW115833   1.158   4.573  10.360 -0.1201  0.1787  0.7505
 1400SOL    HW215834   1.276   4.656  10.406  1.8318  2.6047 -3.9771
 1401SOL     OW15835   2.116   4.648   1.120 -0.3400  0.3494  0.4688
 1401SOL    HW115836   2.143   4.558   1.104 -1.9016  0.2695 -1.7477
 1401SOL    HW215837   2.142   4.658   1.211  1.0107 -0.9478  0.2169
 1402SOL     OW15838   3.269   3.586   4.605 -0.1732 -0.5359  0.8615
 1402SOL    HW115839   3.197   3.522   4.614 -0.1318 -0.3253  2.6181
 1402SOL    HW215840   3.224   3.667   4.581  0.1917 -1.0492 -1.6302
 1403SOL     OW15841   4.648   0.845   7.323 -0.4734 -0.2709  0.1186
 1403SOL    HW115842   4.690   0.875   7.242 -1.9707  1.2474 -0.1087
 1403SOL    HW215843   4.681   0.756   7.332 -0.9798 -0.3311  1.4045
 1404SOL     OW15844   0.568   2.397   0.203 -0.2864  0.3951  0.0361
 1404SOL    HW115845   0.646   2.447   0.228  0.4720 -0.6804 -0.1903
 1404SOL    HW215846   0.623   2.352   0.140 -0.4913 -1.8980  1.5031
 1405SOL     OW15847   0.611   4.253   1.961  0.0294 -0.2715 -0.1448
 1405SOL    HW115848   0.567   4.256   1.876 -0.3842 -0.0590  0.0766
 1405SOL    HW215849   0.689   4.200   1.943 -0.2375 -0.6486 -0.1841
 1406SOL     OW15850   0.384   1.501   2.283 -0.4621 -0.1759 -0.4201
 1406SOL    HW115851   0.460   1.532   2.332  0.5204  0.1322 -2.1185
 1406SOL    HW215852   0.334   1.583   2.282 -0.8283 -0.3786  3.3865
 1407SOL     OW15853   0.942   2.912  15.762 -0.7352  0.0731  0.1070
 1407SOL    HW115854   0.854   2.944  15.741 -0.6319  1.5798  1.9914
 1407SOL    HW215855   0.992   2.922  15.681 -0.7598 -0.1639  0.0651
 1408SOL     OW15856   4.393   2.398   9.713  0.8184 -0.2952 -0.0432
 1408SOL    HW115857   4.396   2.488   9.746 -0.9284 -0.3387  0.2494
 1408SOL    HW215858   4.482   2.376   9.741  0.3108 -2.5906 -0.2336
 1409SOL     OW15859   4.563   4.402   8.875  0.5268  0.3776  0.3271
 1409SOL    HW115860   4.490   4.341   8.865 -0.1266  0.8311  2.3824
 1409SOL    HW215861   4.602   4.401   8.788  1.8726 -0.6454  0.9507
 1410SOL     OW15862   4.093   2.950  16.214  0.1622 -0.3466  0.0515
 1410SOL    HW115863   4.171   2.899  16.236  0.5407  0.0095 -0.4424
 1410SOL    HW215864   4.133   3.028  16.174 -0.2358 -1.0531 -1.7059
 1411SOL     OW15865   1.585   0.845   1.601 -0.4116 -0.5524  0.5888
 1411SOL    HW115866   1.627   0.924   1.636  1.6143 -0.4693 -1.9409
 1411SOL    HW215867   1.496   0.874   1.581 -0.6625 -1.1765  0.8194
 1412SOL     OW15868   2.581   2.603   0.006 -0.7943 -0.3339  0.5676
 1412SOL    HW115869   2.540   2.564   0.084 -0.0800  0.7867  1.5021
 1412SOL    HW215870   2.670   2.585   0.036 -0.9910 -0.2544  1.2073
 1413SOL     OW15871   4.381   3.182   0.605 -0.1849 -0.1666 -0.2075
 1413SOL    HW115872   4.411   3.145   0.522  0.1305  0.4245 -0.3621
 1413SOL    HW215873   4.372   3.098   0.649  0.0929  0.0999  0.3511
 1414SOL     OW15874   4.410   0.825   5.887 -0.0714  0.4048  0.1975
 1414SOL    HW115875   4.470   0.750   5.896 -0.3644  0.0647 -0.6227
 1414SOL    HW215876   4.339   0.796   5.831 -0.0310 -1.6503  1.2210
 1415SOL     OW15877   0.346   0.203   7.201  0.2889  0.1978 -0.4263
 1415SOL    HW115878   0.341   0.298   7.215 -0.6283  0.4623 -2.5072
 1415SOL    HW215879   0.390   0.169   7.278  1.0008  1.6893 -0.1591
 1416SOL     OW15880   2.457   0.118   8.452 -0.1394  0.2729  0.0338
 1416SOL    HW115881   2.495   0.038   8.416 -0.5496  0.1186 -0.0544
 1416SOL    HW215882   2.369   0.104   8.418 -0.2167 -0.1858  0.4286
 1417SOL     OW15883   0.116   3.764  13.665 -0.1326 -0.0176 -0.0130
 1417SOL    HW115884   0.140   3.854  13.644 -0.4712  0.4540  1.6391
 1417SOL    HW215885   0.055   3.782  13.736  0.9481  3.8044 -0.0507
 1418SOL     OW15886   2.441   1.117   8.444 -0.0408 -0.2061 -0.1359
 1418SOL    HW115887   2.386   1.181   8.400 -1.2217 -0.3143  1.1864
 1418SOL    HW215888   2.490   1.080   8.370 -1.2276 -3.0743  0.4953
 1419SOL     OW15889   1.727   3.584   8.191 -1.0315 -0.7890  0.0203
 1419SOL    HW115890   1.771   3.581   8.105  0.5973 -2.3683  0.9146
 1419SOL    HW215891   1.765   3.662   8.230  1.1094 -1.3235 -0.9953
 1420SOL     OW15892   2.670   3.185  13.410  0.2511 -0.4425 -0.0481
 1420SOL    HW115893   2.626   3.099  13.413 -0.6114 -0.0085 -0.1943
 1420SOL    HW215894   2.657   3.206  13.318 -0.5548 -1.9345 -0.2863
 1421SOL     OW15895   1.822   4.002   5.221 -0.0591 -0.5934 -0.0877
 1421SOL    HW115896   1.876   3.950   5.161  0.4459 -0.8281  0.5785
 1421SOL    HW215897   1.761   3.932   5.244 -1.8340  1.3421  1.1766
 1422SOL     OW15898   1.474   3.521  17.331 -0.3187 -0.2032 -0.0846
 1422SOL    HW115899   1.451   3.593  17.272 -2.6412 -1.6795 -1.0159
 1422SOL    HW215900   1.562   3.505  17.298 -1.0039 -4.4520  0.1588
 1423SOL     OW15901   0.013   2.887  15.709 -0.2270 -0.1893 -0.1162
 1423SOL    HW115902   0.002   2.815  15.647 -0.6664 -1.9751  2.0367
 1423SOL    HW215903   4.718   2.847  15.789 -0.3782 -0.9041 -0.5354
 1424SOL     OW15904   3.770   2.467   7.507  0.6558  0.1820 -0.1394
 1424SOL    HW115905   3.850   2.515   7.484  0.0962  0.1782 -2.0152
 1424SOL    HW215906   3.802   2.377   7.511 -2.0662 -0.7323  0.8014
 1425SOL     OW15907   1.278   2.207   7.079 -0.0971 -0.4266 -0.4140
 1425SOL    HW115908   1.253   2.219   7.171  0.4331  0.3316 -0.3753
 1425SOL    HW215909   1.359   2.156   7.088 -1.7793 -2.6033  2.7853
 1426SOL     OW15910   4.360   4.157  15.254 -0.0016  0.2526 -0.1484
 1426SOL    HW115911   4.386   4.219  15.322 -2.8029  1.2744 -0.0100
 1426SOL    HW215912   4.363   4.075  15.303 -0.9780  0.9773  1.1154
 1427SOL     OW15913   3.077   1.255  14.207  0.1025 -0.3874  0.4056
 1427SOL    HW115914   3.082   1.180  14.267 -0.3309  0.1163  1.0710
 1427SOL    HW215915   2.982   1.251  14.198  0.0553 -2.1747  1.5425
 1428SOL     OW15916   4.292   2.223   9.272 -0.2095  0.2860  0.2990
 1428SOL    HW115917   4.333   2.188   9.193 -1.1395  0.1396 -0.1260
 1428SOL    HW215918   4.230   2.153   9.294 -0.3953  1.1454  2.5264
 1429SOL     OW15919   2.414   0.276   7.376 -0.1803 -0.3041 -0.5482
 1429SOL    HW115920   2.464   0.354   7.353 -2.0855  1.3482  0.9140
 1429SOL    HW215921   2.375   0.263   7.289  0.5037  0.5405 -0.9837
 1430SOL     OW15922   0.135   1.744  14.105 -0.2834  0.2175  0.0411
 1430SOL    HW115923   0.110   1.653  14.123 -2.1155  0.9883  1.3411
 1430SOL    HW215924   0.081   1.791  14.168  1.2068  0.5248  1.1121
 1431SOL     OW15925   4.515   1.429   6.384  0.4173 -0.4650  0.1955
 1431SOL    HW115926   4.580   1.426   6.454  1.0567 -1.2602 -0.4330
 1431SOL    HW215927   4.430   1.409   6.424  0.2967 -1.4407 -0.5382
 1432SOL     OW15928   0.941   0.012   2.528 -0.6276 -0.0293  0.1313
 1432SOL    HW115929   0.997   0.083   2.559  0.3689 -0.2142 -1.2399
 1432SOL    HW215930   0.869   0.019   2.591  0.6355  1.5967  1.3934
 1433SOL     OW15931   4.333   1.289   6.094 -0.2319 -0.0796 -0.0118
 1433SOL    HW115932   4.425   1.310   6.108  0.3110 -2.3715 -0.2298
 1433SOL    HW215933   4.293   1.376   6.096  2.0045  0.8644  2.6809
 1434SOL     OW15934   2.873   3.229   7.022 -0.3264  0.5649 -0.8428
 1434SOL    HW115935   2.906   3.208   6.935  1.2644 -1.7800  0.3367
 1434SOL    HW215936   2.857   3.324   7.025  1.2655  0.8407 -1.0559
 1435SOL     OW15937   4.610   3.011   6.135 -0.3155  0.4587 -0.6958
 1435SOL    HW115938   4.569   2.967   6.209  1.8669 -2.5624 -1.2840
 1435SOL    HW215939   4.628   2.939   6.075 -0.9596  1.1147 -1.6795
 1436SOL     OW15940   3.370   0.481  17.144 -0.2354 -0.4684 -0.1064
 1436SOL    HW115941   3.439   0.493  17.209 -1.9591  2.2095  1.1938
 1436SOL    HW215942   3.409   0.411  17.091 -0.3287 -1.5557  1.2429
 1437SOL     OW15943   2.716   2.518   9.435 -0.2532 -0.1213  0.5706
 1437SOL    HW115944   2.728   2.571   9.513  0.6035 -0.1621  0.4689
 1437SOL    HW215945   2.639   2.465   9.456  0.7952 -0.7618  2.6959
 1438SOL     OW15946   2.196   0.411   6.752  0.4826  0.1540 -0.4265
 1438SOL    HW115947   2.200   0.504   6.772 -1.7835 -0.2502  1.8693
 1438SOL    HW215948   2.118   0.413   6.697 -0.9966 -2.2547  1.5906
 1439SOL     OW15949   3.310   0.922   6.453 -0.5414 -0.1145 -0.1781
 1439SOL    HW115950   3.314   0.868   6.532 -1.7323  1.6830  1.1226
 1439SOL    HW215951   3.398   0.958   6.449 -0.9872  0.9048 -0.8384
 1440SOL     OW15952   1.106   0.171  10.945  0.9279  0.2576  0.3121
 1440SOL    HW115953   1.053   0.129  10.878  0.3933 -0.6822  1.3450
 1440SOL    HW215954   1.098   0.111  11.019  1.7248  1.4138  1.3425
 1441SOL     OW15955   1.961   1.408  17.544  0.5594 -0.1916  0.3880
 1441SOL    HW115956   1.984   1.500  17.561  1.6737 -0.4995  0.5315
 1441SOL    HW215957   2.010   1.366  17.615 -2.3550 -0.5570  2.1823
 1442SOL     OW15958   0.341   3.345  13.870  0.5746  0.1243  0.4003
 1442SOL    HW115959   0.393   3.321  13.794 -2.4891 -1.0419 -1.3615
 1442SOL    HW215960   0.402   3.348  13.943 -1.3211 -2.2739  2.0528
 1443SOL     OW15961   4.089   0.159  15.711  0.6230 -0.3263 -0.2149
 1443SOL    HW115962   4.125   0.109  15.638 -0.1483 -3.9115  1.8752
 1443SOL    HW215963   4.002   0.177  15.677  0.2454 -0.8801  0.4808
 1444SOL     OW15964   1.950   0.139   9.144  0.0151 -0.3424 -0.1152
 1444SOL    HW115965   2.022   0.147   9.206  1.1650  0.6992 -1.6008
 1444SOL    HW215966   2.003   0.148   9.065 -0.0998  0.7379 -0.0601
 1445SOL     OW15967   2.065   0.532   2.208 -0.4965 -0.4839 -0.5102
 1445SOL    HW115968   2.028   0.611   2.169 -0.1684 -0.4694 -0.7966
 1445SOL    HW215969   2.059   0.559   2.300  0.3248 -2.0105  0.0006
 1446SOL     OW15970   3.713   3.455   9.934  0.4174  0.1132 -0.0895
 1446SOL    HW115971   3.621   3.480   9.923  0.6128  0.9986  0.2387
 1446SOL    HW215972   3.721   3.467  10.029 -0.0305  0.5144 -0.1008
 1447SOL     OW15973   0.669   2.758   0.747  0.0521  0.0431 -0.4262
 1447SOL    HW115974   0.590   2.705   0.760  0.8405 -1.1315 -0.4751
 1447SOL    HW215975   0.675   2.744   0.653 -1.6678  0.5558 -0.6191
 1448SOL     OW15976   4.539   0.114   3.088  0.3545 -0.3751 -0.1133
 1448SOL    HW115977   4.463   0.169   3.071  2.1923  1.1767 -3.4262
 1448SOL    HW215978   4.532   0.041   3.026 -0.6567 -1.2855  1.0691
 1449SOL     OW15979   4.407   1.007   6.488 -0.3350 -0.0477 -0.4344
 1449SOL    HW115980   4.388   0.921   6.451 -2.2503 -0.3193  1.1468
 1449SOL    HW215981   4.354   1.064   6.432 -0.2922  0.8813  0.4602
 1450SOL     OW15982   0.655   4.094  12.022 -0.1119  0.3658 -0.2406
 1450SOL    HW115983   0.688   4.035  12.090 -1.1903 -2.2683 -1.9790
 1450SOL    HW215984   0.705   4.069  11.944  0.5215 -0.5844  0.4774
 1451SOL     OW15985   4.186   0.708   9.950 -0.2768 -0.2278  0.3496
 1451SOL    HW115986   4.141   0.665   9.878  1.1491  1.9201 -1.8245
 1451SOL    HW215987   4.277   0.684   9.935 -0.8866 -2.4024  0.1937
 1452SOL     OW15988   1.760   4.322   3.133 -0.1710  0.2591  0.4061
 1452SOL    HW115989   1.703   4.384   3.180 -0.7090  1.4183 -1.7985
 1452SOL    HW215990   1.814   4.284   3.203  1.4389  1.3960 -0.2289
 1453SOL     OW15991   3.445   2.097   2.994 -0.0083  0.3139 -0.8062
 1453SOL    HW115992   3.515   2.163   2.997  3.0158 -2.9183  1.1534
 1453SOL    HW215993   3.406   2.106   3.081 -0.9516 -0.8308 -1.1093
 1454SOL     OW15994   3.426   3.922   7.605  0.1120  0.3577 -0.1438
 1454SOL    HW115995   3.432   3.841   7.656 -1.2390 -0.8232 -1.8462
 1454SOL    HW215996   3.423   3.893   7.513 -2.2952  2.0496 -0.6041
 1455SOL     OW15997   4.013   0.101   6.561  0.2150 -0.2370 -0.0381
 1455SOL    HW115998   4.038   0.008   6.565  0.7891 -0.0898 -0.1529
 1455SOL    HW215999   4.057   0.113   6.477  1.0819 -1.3897  0.2439
 1456SOL     OW16000   1.400   3.932   1.690  0.3310 -0.7607 -0.6445
 1456SOL    HW116001   1.451   4.013   1.699 -0.2959 -0.2547 -1.6863
 1456SOL    HW216002   1.472   3.870   1.699 -0.5330 -1.5311  0.8950
 1457SOL     OW16003   3.572   1.735   3.047 -0.3267  0.4272  0.1809
 1457SOL    HW116004   3.500   1.766   2.992  0.5190 -0.0821 -1.2160
 1457SOL    HW216005   3.648   1.746   2.990 -0.8267  0.1947 -0.5310
 1458SOL     OW16006   1.157   2.503   1.813 -0.1650 -0.1052  0.5541
 1458SOL    HW116007   1.163   2.597   1.829  1.5821  0.4767 -3.4479
 1458SOL    HW216008   1.072   2.477   1.846 -0.6643  0.0716 -0.6096
 1459SOL     OW16009   2.704   0.545   7.586  0.3626 -0.3206  0.0774
 1459SOL    HW116010   2.777   0.546   7.648 -0.7139  1.7110  1.3082
 1459SOL    HW216011   2.642   0.610   7.618  0.1141 -0.2090 -0.6307
 1460SOL     OW16012   3.574   0.662   4.275 -0.2527 -0.1950 -0.7285
 1460SOL    HW116013   3.548   0.602   4.345  0.4514  2.0147  1.3992
 1460SOL    HW216014   3.624   0.727   4.324  0.3820 -1.1627 -0.0931
 1461SOL     OW16015   1.599   2.583   1.936  0.2179  0.0012 -0.1860
 1461SOL    HW116016   1.526   2.628   1.894  0.6681 -0.7023 -1.7302
 1461SOL    HW216017   1.546   2.511   1.972 -2.7078  0.7907 -2.9039
 1462SOL     OW16018   2.755   2.772  11.056 -0.0830  0.5288 -0.3399
 1462SOL    HW116019   2.840   2.742  11.025 -0.0645 -0.3547  0.5446
 1462SOL    HW216020   2.780   2.862  11.079  2.5121 -0.7203  1.6456
 1463SOL     OW16021   2.398   3.049  15.866 -0.2311  0.5339 -0.4855
 1463SOL    HW116022   2.322   2.991  15.877 -0.5491  1.1277  0.3986
 1463SOL    HW216023   2.455   3.001  15.806  0.4454  0.3509  0.3101
 1464SOL     OW16024   2.053   4.287  16.189  0.5438 -0.7032 -0.2447
 1464SOL    HW116025   2.101   4.346  16.247  1.6959 -0.9307 -0.9718
 1464SOL    HW216026   1.977   4.343  16.172  1.7450  1.1873  0.6724
 1465SOL     OW16027   3.688   1.467   3.094 -0.2404 -0.5836  0.4793
 1465SOL    HW116028   3.646   1.552   3.085 -0.3782 -0.5240  1.6716
 1465SOL    HW216029   3.714   1.467   3.002  0.1843  3.3940  0.6280
 1466SOL     OW16030   0.482   0.235  15.759  0.0119 -0.4959 -0.2818
 1466SOL    HW116031   0.525   0.239  15.674 -1.2851 -0.9883 -0.9595
 1466SOL    HW216032   0.479   0.144  15.788 -0.5169 -0.7430 -1.1479
 1467SOL     OW16033   0.501   4.478   7.079 -0.1931 -0.2728 -0.1257
 1467SOL    HW116034   0.577   4.517   7.037  1.1127 -3.4340 -0.7112
 1467SOL    HW216035   0.535   4.456   7.166 -2.2369 -0.6303  0.5871
 1468SOL     OW16036   0.774   4.604   4.397 -0.0634  0.0684 -0.5364
 1468SOL    HW116037   0.725   4.563   4.325  0.6971 -1.3285 -0.2559
 1468SOL    HW216038   0.772   4.696   4.371  2.0642  0.2694  0.0612
 1469SOL     OW16039   1.815   0.788   8.704 -0.2489  0.3538 -0.1585
 1469SOL    HW116040   1.879   0.858   8.692  1.4342 -1.2522 -0.5031
 1469SOL    HW216041   1.871   0.717   8.735 -0.0458 -0.2149 -1.8340
 1470SOL     OW16042   1.919   3.684   1.408  0.3300 -0.4900  0.6343
 1470SOL    HW116043   1.901   3.748   1.477 -0.6004 -0.9016  0.7791
 1470SOL    HW216044   1.932   3.743   1.334 -0.4688 -1.4087 -0.2292
 1471SOL     OW16045   3.097   1.446   1.442 -0.0810 -0.3163  0.0214
 1471SOL    HW116046   3.052   1.401   1.513 -0.7194 -1.2013 -0.9364
 1471SOL    HW216047   3.190   1.446   1.467  0.0964  0.5856 -0.6183
 1472SOL     OW16048   1.183   0.164   6.143  0.5472 -0.6871 -0.1337
 1472SOL    HW116049   1.223   0.082   6.171 -3.6835 -3.0397 -0.8677
 1472SOL    HW216050   1.203   0.168   6.049 -0.4904  2.6585 -0.2200
 1473SOL     OW16051   2.706   3.033   5.710 -0.5348 -0.1558  0.0944
 1473SOL    HW116052   2.730   3.026   5.618 -0.7273  0.3298  0.0117
 1473SOL    HW216053   2.688   2.940   5.728  1.3340 -1.0181 -2.5300
 1474SOL     OW16054   2.195   4.300   6.722 -0.5167 -0.2269  0.2638
 1474SOL    HW116055   2.214   4.391   6.698  1.0775 -0.9217 -1.0568
 1474SOL    HW216056   2.247   4.251   6.659  1.1397  1.0846  0.6329
 1475SOL     OW16057   2.967   0.421   5.105 -0.2496 -0.4700 -0.8769
 1475SOL    HW116058   3.055   0.388   5.122 -0.0808  0.8205  0.7619
 1475SOL    HW216059   2.965   0.515   5.123 -0.6324 -0.4488 -1.0345
 1476SOL     OW16060   2.620   0.054   9.475 -0.0441 -0.5174 -0.1003
 1476SOL    HW116061   2.674   4.732   9.527  0.6781  1.7259  1.7129
 1476SOL    HW216062   2.575   4.728   9.420  1.8984 -0.0889 -2.1945
 1477SOL     OW16063   0.165   1.906   7.146  0.6569  0.2272  0.4734
 1477SOL    HW116064   0.156   1.840   7.077  0.8197  0.2705  0.4114
 1477SOL    HW216065   0.138   1.985   7.099  0.7380  0.8448  1.4616
 1478SOL     OW16066   3.118   0.465   6.082  0.0189  0.3308 -0.3549
 1478SOL    HW116067   3.037   0.462   6.133  0.7055 -1.2949  0.6229
 1478SOL    HW216068   3.076   0.471   5.996  0.6384 -1.2275 -0.7604
 1479SOL     OW16069   3.333   2.382   7.735  0.7382 -0.0679  0.1160
 1479SOL    HW116070   3.329   2.431   7.817 -0.7986 -0.1051  0.0589
 1479SOL    HW216071   3.424   2.352   7.734  0.1026 -2.0432  0.9310
 1480SOL     OW16072   1.641   3.811  11.147 -0.3147 -0.5970 -0.5618
 1480SOL    HW116073   1.643   3.822  11.052  1.8818 -0.1464 -0.4501
 1480SOL    HW216074   1.731   3.809  11.180 -0.4411 -2.4929 -0.2970
 1481SOL     OW16075   4.388   3.539   8.921 -0.2181  0.6925 -0.1743
 1481SOL    HW116076   4.335   3.614   8.949  0.8187  0.4323  2.4699
 1481SOL    HW216077   4.396   3.553   8.827  1.9536  0.4533 -0.0364
 1482SOL     OW16078   1.162   4.214   7.273  0.1997  0.4332 -0.2012
 1482SOL    HW116079   1.129   4.153   7.338  1.5540 -1.0255 -0.8873
 1482SOL    HW216080   1.203   4.147   7.219 -1.1746 -0.1687 -0.5060
 1483SOL     OW16081   0.612   2.466   9.281  0.2989  0.5034 -0.2724
 1483SOL    HW116082   0.703   2.441   9.268  0.6245  1.7435 -0.4098
 1483SOL    HW216083   0.613   2.525   9.205  0.7211  0.5348 -0.2442
 1484SOL     OW16084   1.617   1.671   6.799 -0.5077 -0.6577 -0.4488
 1484SOL    HW116085   1.570   1.601   6.844 -2.9145  1.0780 -0.2137
 1484SOL    HW216086   1.699   1.626   6.782  0.0181 -0.1329  0.6825
 1485SOL     OW16087   4.029   1.057   4.909 -0.0029 -0.0014 -0.3495
 1485SOL    HW116088   4.105   1.110   4.887  0.3274 -0.2931  0.0824
 1485SOL    HW216089   3.972   1.084   4.837 -0.5612  1.8557  0.7859
 1486SOL     OW16090   3.832   3.565   3.480 -0.2570 -0.1166 -0.3071
 1486SOL    HW116091   3.865   3.653   3.459 -1.4064  0.2943 -0.4126
 1486SOL    HW216092   3.904   3.522   3.527  1.6309 -0.9541 -3.9679
 1487SOL     OW16093   1.290   1.407  13.469  0.3681  0.0827  0.2416
 1487SOL    HW116094   1.381   1.395  13.497  0.1286  0.5133  1.2066
 1487SOL    HW216095   1.253   1.337  13.524  1.7837 -0.4357  0.5192
 1488SOL     OW16096   1.849   0.059   1.910 -0.1699 -0.4983 -0.6722
 1488SOL    HW116097   1.930   0.053   1.960  0.3629 -0.3529 -1.5160
 1488SOL    HW216098   1.813   0.138   1.949  0.1971 -0.5975 -0.1411
 1489SOL     OW16099   3.491   1.756   7.077  0.3215 -0.6144  0.3310
 1489SOL    HW116100   3.556   1.686   7.066  0.4732 -0.5462  0.8394
 1489SOL    HW216101   3.442   1.724   7.152 -0.4118 -1.4518 -0.4897
 1490SOL     OW16102   2.662   2.694   0.542 -0.5662 -0.6517 -0.3237
 1490SOL    HW116103   2.597   2.669   0.607  0.9754 -2.9150  0.3409
 1490SOL    HW216104   2.615   2.719   0.462  0.0682 -1.3811 -0.9384
 1491SOL     OW16105   3.687   0.099   8.411 -0.0278  0.2840 -0.2338
 1491SOL    HW116106   3.647   0.176   8.451  0.7279  0.9239 -0.6979
 1491SOL    HW216107   3.730   0.144   8.338  0.6485 -0.7512 -0.4614
 1492SOL     OW16108   0.919   3.258   2.484 -0.5970 -0.0275 -0.4667
 1492SOL    HW116109   0.862   3.199   2.533 -0.6165  0.9352  0.6923
 1492SOL    HW216110   0.967   3.189   2.439 -1.6011 -1.1871  0.2571
 1493SOL     OW16111   2.798   1.565   6.392 -0.2128  0.7560 -0.4201
 1493SOL    HW116112   2.756   1.606   6.467  2.6096  1.0077  0.9872
 1493SOL    HW216113   2.724   1.529   6.342  1.6271 -1.7617 -1.3455
 1494SOL     OW16114   4.017   0.609   3.695  0.0585  0.1955  0.7348
 1494SOL    HW116115   4.050   0.665   3.766 -0.6897 -2.9314  3.5937
 1494SOL    HW216116   3.934   0.655   3.683 -1.1637 -2.5613 -1.3196
 1495SOL     OW16117   1.269   2.477   0.934 -0.0229  0.2650  0.3237
 1495SOL    HW116118   1.177   2.453   0.926 -0.2439  0.7722  1.4347
 1495SOL    HW216119   1.268   2.559   0.983  1.3178  1.3656 -1.4540
 1496SOL     OW16120   0.234   2.248  16.593 -0.2954 -0.2253  0.1470
 1496SOL    HW116121   0.283   2.221  16.671  2.5843 -1.3759 -2.0491
 1496SOL    HW216122   0.153   2.282  16.630 -0.0683  1.7947 -1.1662
 1497SOL     OW16123   1.774   4.626   2.258 -0.2584 -0.5393 -0.4535
 1497SOL    HW116124   1.764   4.720   2.272 -2.7739 -0.3395 -3.7725
 1497SOL    HW216125   1.825   4.604   2.337  1.7537 -1.2561 -1.9465
 1498SOL     OW16126   0.744   3.187   3.424 -0.1225  0.4133  0.4623
 1498SOL    HW116127   0.830   3.200   3.463  0.8733 -1.5363 -1.1376
 1498SOL    HW216128   0.756   3.094   3.410 -0.7642  0.2351  1.0723
 1499SOL     OW16129   2.912   4.148   0.185  0.0809  0.7946 -0.0904
 1499SOL    HW116130   3.007   4.157   0.198  0.4610 -1.4348 -1.1483
 1499SOL    HW216131   2.906   4.101   0.101  1.4927 -0.6253  0.5989
 1500SOL     OW16132   0.677   4.005   2.804 -0.4509  0.0302  0.5572
 1500SOL    HW116133   0.635   4.058   2.736  0.1676 -0.2218 -0.0213
 1500SOL    HW216134   0.703   3.929   2.752  1.3015  1.0567 -0.0669
 1501SOL     OW16135   4.441   3.900  16.036  0.0784  0.1491 -0.0752
 1501SOL    HW116136   4.390   3.889  15.956  0.3910 -0.0132 -0.2492
 1501SOL    HW216137   4.506   3.831  16.023  0.2507 -0.1577  2.4021
 1502SOL     OW16138   1.814   0.461   4.603 -0.1583  0.2046 -0.1519
 1502SOL    HW116139   1.732   0.417   4.628  0.0436  0.4163  0.9033
 1502SOL    HW216140   1.797   0.489   4.513 -0.5270 -1.6353 -0.6507
 1503SOL     OW16141   1.165   0.729   6.020  0.1330 -0.0849  0.0646
 1503SOL    HW116142   1.189   0.805   6.072 -0.7094 -0.4850  1.0414
 1503SOL    HW216143   1.211   0.750   5.939  0.5330 -1.6564 -0.1155
 1504SOL     OW16144   2.195   2.754  11.431 -0.4126  0.0818 -0.1007
 1504SOL    HW116145   2.164   2.844  11.420  0.0871  0.5088  1.9322
 1504SOL    HW216146   2.232   2.761  11.519 -1.5402  1.6965  0.2483
 1505SOL     OW16147   3.238   3.275   9.263  0.4037 -0.2643 -0.1190
 1505SOL    HW116148   3.271   3.323   9.339  3.0250  0.9040 -1.9810
 1505SOL    HW216149   3.201   3.197   9.304  1.2317  1.1081  3.2027
 1506SOL     OW16150   2.507   1.561   9.231  0.1006  0.0842  0.0236
 1506SOL    HW116151   2.553   1.623   9.175  0.3937 -0.3502 -0.2182
 1506SOL    HW216152   2.509   1.482   9.176  0.9256 -1.3121  2.0344
 1507SOL     OW16153   2.264   3.779   2.182 -0.3420 -0.0032 -0.3178
 1507SOL    HW116154   2.351   3.758   2.150 -0.5081  0.0943 -0.8480
 1507SOL    HW216155   2.232   3.833   2.110 -2.2215 -2.6857 -1.5203
 1508SOL     OW16156   3.627   2.913   1.009 -0.5959  0.6239 -0.3081
 1508SOL    HW116157   3.717   2.928   0.980 -1.1078 -0.2843 -2.3950
 1508SOL    HW216158   3.607   2.839   0.952  0.2643  0.5137 -0.4579
 1509SOL     OW16159   3.268   1.843   5.299 -0.0885 -0.1870 -0.0796
 1509SOL    HW116160   3.284   1.851   5.205 -0.1428  1.2796  0.0313
 1509SOL    HW216161   3.284   1.749   5.310 -0.2985 -0.2034  0.0842
 1510SOL     OW16162   2.123   3.765   7.942 -0.2156  0.0339  0.6752
 1510SOL    HW116163   2.120   3.860   7.950 -0.6273  0.0769  0.0092
 1510SOL    HW216164   2.206   3.750   7.987 -0.4522  0.0619  1.1207
 1511SOL     OW16165   0.434   4.385   5.889 -0.7286  0.1647  0.0211
 1511SOL    HW116166   0.455   4.443   5.816  2.7457 -2.3874 -1.0330
 1511SOL    HW216167   0.481   4.423   5.964  0.0703 -2.8612  1.0849
 1512SOL     OW16168   2.053   2.257   3.745 -0.3984 -0.2961  0.1056
 1512SOL    HW116169   2.041   2.292   3.834  2.4592  3.5650 -1.0234
 1512SOL    HW216170   2.007   2.321   3.691 -0.7970 -0.0695  0.7065
 1513SOL     OW16171   2.299   2.035  10.874  0.5536 -0.0217 -0.0003
 1513SOL    HW116172   2.267   1.947  10.855 -0.4935 -0.1236  2.1785
 1513SOL    HW216173   2.360   2.013  10.944  1.1525 -0.9208 -0.8063
 1514SOL     OW16174   1.812   1.850  11.816 -0.0867  0.3374 -0.3233
 1514SOL    HW116175   1.790   1.888  11.900  1.7701 -2.2071  1.3278
 1514SOL    HW216176   1.852   1.925  11.771  0.7763 -0.0154 -0.1512
 1515SOL     OW16177   3.332   4.200   0.649 -0.2597  0.0880 -0.1687
 1515SOL    HW116178   3.246   4.159   0.637  1.0871 -2.4195 -1.0778
 1515SOL    HW216179   3.382   4.119   0.655  0.8079  0.8857  1.9438
 1516SOL     OW16180   1.847   1.540   6.899  0.6912 -0.1150 -0.2772
 1516SOL    HW116181   1.875   1.451   6.878 -0.8940 -0.6257 -0.2356
 1516SOL    HW216182   1.880   1.546   6.988  3.3961  1.5297 -1.3976
 1517SOL     OW16183   2.341   2.731  15.689  0.3769  0.0036  0.0832
 1517SOL    HW116184   2.377   2.786  15.620  1.5101  0.1883  0.8249
 1517SOL    HW216185   2.278   2.681  15.637  1.0773  0.1791 -0.9409
 1518SOL     OW16186   2.300   1.593  12.807 -0.1527  0.8013 -0.4382
 1518SOL    HW116187   2.322   1.608  12.899  0.3849  1.0350 -0.6039
 1518SOL    HW216188   2.266   1.503  12.808 -0.9106  1.1180  0.9721
 1519SOL     OW16189   2.832   2.627   3.770  0.1206  0.7485 -0.0329
 1519SOL    HW116190   2.892   2.587   3.833  1.5504  0.2817 -1.6869
 1519SOL    HW216191   2.795   2.702   3.817 -0.1963 -0.1470  1.1174
 1520SOL     OW16192   0.516   4.714   6.704 -0.0700 -0.0144  0.1799
 1520SOL    HW116193   0.443   4.653   6.711  0.0213 -0.6008 -3.8933
 1520SOL    HW216194   0.561   4.711   6.789  0.5191  2.1108 -0.0376
 1521SOL     OW16195   3.852   3.500   0.064 -0.1595  0.3364 -0.2745
 1521SOL    HW116196   3.786   3.558   0.102  0.9605  2.3679 -1.4294
 1521SOL    HW216197   3.911   3.495   0.139  0.0080  0.0117 -0.4285
 1522SOL     OW16198   0.379   3.278   6.543 -0.8383  0.6631 -0.0016
 1522SOL    HW116199   0.407   3.351   6.599 -0.6392  0.4832  0.1319
 1522SOL    HW216200   0.320   3.327   6.486  1.9661 -0.7107 -4.0741
 1523SOL     OW16201   4.566   2.513   2.154 -0.5165 -0.2571 -0.0995
 1523SOL    HW116202   4.559   2.495   2.248 -0.1234 -0.3753 -0.0894
 1523SOL    HW216203   4.608   2.599   2.156 -0.6686 -0.2163  1.0797
 1524SOL     OW16204   1.672   0.035   2.955 -0.2383 -1.0799 -0.2525
 1524SOL    HW116205   1.656   0.026   2.862 -3.9446 -0.3741  0.3231
 1524SOL    HW216206   1.764   0.008   2.955  0.8116  2.4040  2.3417
 1525SOL     OW16207   3.935   4.704   2.012  0.3981  0.2044  0.1936
 1525SOL    HW116208   3.985   0.040   1.976 -0.4234 -0.0945 -1.5772
 1525SOL    HW216209   3.843   4.728   2.001 -0.2743 -2.0652  0.7991
 1526SOL     OW16210   1.467   2.752   5.118 -0.2167 -0.1636  0.0843
 1526SOL    HW116211   1.504   2.840   5.121  2.0357 -1.1313  0.2538
 1526SOL    HW216212   1.449   2.748   5.212  0.6417 -0.7263  0.2237
 1527SOL     OW16213   4.655   3.733   4.116 -0.5343  0.3177  0.0625
 1527SOL    HW116214   4.733   3.678   4.117 -0.4652  0.5081  3.3050
 1527SOL    HW216215   4.653   3.742   4.020 -1.5324  0.6763  0.1176
 1528SOL     OW16216   3.857   1.913   4.275  0.2226  0.2817 -0.1572
 1528SOL    HW116217   3.887   2.001   4.254 -0.6926  1.1467  2.1192
 1528SOL    HW216218   3.791   1.932   4.341 -0.6401 -0.8376 -0.6855
 1529SOL     OW16219   3.180   0.707   4.246 -0.0385 -0.1187 -0.2452
 1529SOL    HW116220   3.135   0.645   4.303  1.3631 -1.0229 -0.1045
 1529SOL    HW216221   3.221   0.647   4.183  0.8088  0.1069  0.0927
 1530SOL     OW16222   1.933   0.667  15.703  0.1228  0.0805  0.3523
 1530SOL    HW116223   1.870   0.733  15.732 -1.1847 -1.9161  2.0209
 1530SOL    HW216224   2.004   0.670  15.767 -0.6363 -0.2746  1.2025
 1531SOL     OW16225   4.553   3.853   9.598 -0.7604  0.5505 -0.1021
 1531SOL    HW116226   4.550   3.762   9.568 -0.8847  0.7937 -0.8150
 1531SOL    HW216227   4.588   3.850   9.688  1.3727 -2.8502 -1.0365
 1532SOL     OW16228   2.392   4.047  16.301  0.2433  0.3752  0.0682
 1532SOL    HW116229   2.355   4.040  16.213  0.3491  0.8224 -0.0110
 1532SOL    HW216230   2.372   4.137  16.326  1.4288  1.7730 -4.1405
 1533SOL     OW16231   3.729   2.141   9.841  0.2840  0.3834  0.0551
 1533SOL    HW116232   3.705   2.065   9.894  0.2918  0.0214 -0.4467
 1533SOL    HW216233   3.821   2.114   9.842 -0.1996 -1.4983 -3.3200
 1534SOL     OW16234   3.953   2.485   8.567 -0.1505 -0.5036 -0.0077
 1534SOL    HW116235   3.939   2.393   8.589 -2.3621 -0.0481  0.4552
 1534SOL    HW216236   3.920   2.531   8.645  1.7574  0.3019  0.3265
 1535SOL     OW16237   2.338   2.942   6.662  0.1623 -0.4189  0.4369
 1535SOL    HW116238   2.362   2.850   6.671  0.4496 -0.5091 -1.1370
 1535SOL    HW216239   2.244   2.936   6.643  0.6603 -0.7290 -2.0321
 1536SOL     OW16240   2.000   1.756   6.833  0.1515  0.6388  0.4549
 1536SOL    HW116241   1.938   1.684   6.821  1.1460 -0.0801 -0.3458
 1536SOL    HW216242   2.070   1.744   6.769 -1.2615 -0.3376 -0.9058
 1537SOL     OW16243   0.510   2.233   8.687 -0.1923 -0.3210  0.0593
 1537SOL    HW116244   0.436   2.198   8.737  0.0098 -1.2925 -0.3230
 1537SOL    HW216245   0.490   2.327   8.685 -2.5038 -0.7481  2.8683
 1538SOL     OW16246   3.469   2.778   1.431  0.1715  0.0089 -0.1673
 1538SOL    HW116247   3.399   2.817   1.378  1.3923 -0.3185 -2.0123
 1538SOL    HW216248   3.416   2.743   1.502 -0.3666 -0.3641 -0.7563
 1539SOL     OW16249   4.039   4.583   5.324  0.2014 -0.6718 -0.2585
 1539SOL    HW116250   3.944   4.585   5.341  0.4760  0.4386  1.0967
 1539SOL    HW216251   4.038   4.640   5.247 -2.3288 -0.0770  0.1935
 1540SOL     OW16252   2.796   1.918   4.274 -0.3270 -0.1424 -0.1179
 1540SOL    HW116253   2.792   2.004   4.232  2.1848  0.9963  1.9501
 1540SOL    HW216254   2.711   1.881   4.251 -0.2563 -0.8249  0.7230
 1541SOL     OW16255   1.855   1.278   6.319  0.5112 -0.5142 -0.0044
 1541SOL    HW116256   1.840   1.362   6.276 -0.1154 -0.9634 -0.6823
 1541SOL    HW216257   1.809   1.222   6.256  0.2764 -0.1381 -0.1673
 1542SOL     OW16258   0.404   0.750   8.242  0.2203  0.2306  0.6222
 1542SOL    HW116259   0.399   0.659   8.212 -0.4727  0.2127  0.8074
 1542SOL    HW216260   0.493   0.779   8.222  0.2481 -0.5960 -0.4477
 1543SOL     OW16261   0.697   0.561   4.816 -0.5457 -0.2666  0.5568
 1543SOL    HW116262   0.758   0.589   4.884  0.8050  1.1137 -1.2421
 1543SOL    HW216263   0.687   0.469   4.842 -0.3308 -0.3913  0.1982
 1544SOL     OW16264   4.304   3.250   5.505  0.4796  0.2573  0.1188
 1544SOL    HW116265   4.218   3.259   5.544 -0.5179 -2.2931 -1.5130
 1544SOL    HW216266   4.301   3.161   5.471  1.9440  0.7406 -1.2709
 1545SOL     OW16267   3.895   4.123   5.825 -0.3394  0.2177 -0.2770
 1545SOL    HW116268   3.949   4.153   5.752  0.1882  1.4155  0.5916
 1545SOL    HW216269   3.837   4.064   5.777 -0.6252 -1.1322  1.6926
 1546SOL     OW16270   3.614   0.861  11.060  0.1204 -0.4656 -0.9599
 1546SOL    HW116271   3.689   0.802  11.071 -1.2967 -1.5549  3.0697
 1546SOL    HW216272   3.587   0.845  11.150 -2.5916 -0.2733 -1.7486
 1547SOL     OW16273   2.769   1.707  12.414  0.0577  0.1470 -0.7189
 1547SOL    HW116274   2.824   1.646  12.465  0.2550  0.9578  0.0279
 1547SOL    HW216275   2.697   1.647  12.394 -1.3766  1.3869  0.7265
 1548SOL     OW16276   3.150   1.079   8.539  0.5251  0.2273 -0.4465
 1548SOL    HW116277   3.160   1.173   8.553  0.9660  0.0861  0.1862
 1548SOL    HW216278   3.096   1.071   8.460 -1.8140 -2.4028  1.4069
 1549SOL     OW16279   4.587   2.636   9.625 -0.2061 -0.1729 -0.1001
 1549SOL    HW116280   4.674   2.607   9.654 -0.3717 -0.5057  0.0618
 1549SOL    HW216281   4.553   2.641   9.715 -1.5706 -0.7554 -0.5815
 1550SOL     OW16282   3.256   2.633   7.043 -0.0680 -0.6027  0.3600
 1550SOL    HW116283   3.336   2.583   7.058  0.0255 -0.5593  0.0196
 1550SOL    HW216284   3.289   2.707   6.992  1.5546 -1.3123  0.4021
 1551SOL     OW16285   3.980   0.329   0.704 -0.7310 -0.1512  0.2276
 1551SOL    HW116286   4.001   0.417   0.673 -2.2146  0.3340  0.6083
 1551SOL    HW216287   3.978   0.340   0.799  1.0026  2.3589 -0.0171
 1552SOL     OW16288   0.603   4.481  12.519 -0.4585  0.4318  0.1420
 1552SOL    HW116289   0.552   4.554  12.484  0.7873  1.0220 -0.4377
 1552SOL    HW216290   0.541   4.437  12.578  0.2520  0.0849  0.6253
 1553SOL     OW16291   4.301   4.702   8.903 -0.1530 -0.5113  0.2322
 1553SOL    HW116292   4.370   0.009   8.855 -0.4426  1.2383  1.4331
 1553SOL    HW216293   4.351   4.660   8.973 -0.2583 -0.5245  0.2994
 1554SOL     OW16294   0.874   0.416   9.350  0.3654  0.2937  0.3174
 1554SOL    HW116295   0.815   0.490   9.338 -0.5099 -0.3078  0.8792
 1554SOL    HW216296   0.944   0.443   9.290 -1.0276  1.1918 -0.8996
 1555SOL     OW16297   3.374   3.056   8.026 -0.1563 -0.3792  0.0696
 1555SOL    HW116298   3.456   3.058   7.977 -0.6424 -1.5746 -0.7916
 1555SOL    HW216299   3.365   2.961   8.028  1.8611 -0.6373 -2.7050
 1556SOL     OW16300   2.064   0.530   3.747  0.4250 -0.2562 -0.1495
 1556SOL    HW116301   1.977   0.566   3.734  1.5682  2.4541 -0.2784
 1556SOL    HW216302   2.089   0.503   3.658  0.4302  1.6893 -0.7233
 1557SOL     OW16303   3.151   4.376  15.376 -0.6143  0.2695  0.0936
 1557SOL    HW116304   3.075   4.320  15.394 -1.0425  0.4738 -1.0885
 1557SOL    HW216305   3.213   4.350  15.444  1.5225  2.2693 -1.0923
 1558SOL     OW16306   0.398   4.565  11.584 -0.6092  0.1506 -0.3074
 1558SOL    HW116307   0.358   4.649  11.604 -1.5774  0.1940 -2.4481
 1558SOL    HW216308   0.378   4.549  11.491 -2.9559 -2.4330  0.6232
 1559SOL     OW16309   2.632   2.827  15.453  0.5440  0.2340 -0.0756
 1559SOL    HW116310   2.551   2.878  15.443 -0.1865 -0.6461  1.3630
 1559SOL    HW216311   2.680   2.895  15.501  1.5755  0.4461 -1.4191
 1560SOL     OW16312   3.606   1.329  14.519 -0.3664 -0.3019 -0.1555
 1560SOL    HW116313   3.599   1.385  14.597 -0.9977  0.7918 -0.9945
 1560SOL    HW216314   3.515   1.320  14.491  0.1275 -1.6899 -1.2967
 1561SOL     OW16315   3.697   3.967   8.620  0.2843  0.4651  0.4218
 1561SOL    HW116316   3.765   3.903   8.640 -0.2478 -0.1666  0.2108
 1561SOL    HW216317   3.627   3.907   8.593  2.7438 -2.8788  1.4261
 1562SOL     OW16318   2.572   4.363   4.988  0.1862  0.4048 -0.2528
 1562SOL    HW116319   2.596   4.321   5.070 -1.3387 -1.4185 -0.7130
 1562SOL    HW216320   2.587   4.290   4.927 -0.9597  0.2094 -0.3044
 1563SOL     OW16321   1.745   3.172   8.812 -0.1286  0.2212  0.0597
 1563SOL    HW116322   1.696   3.224   8.876  0.6389 -0.3561  1.1233
 1563SOL    HW216323   1.738   3.085   8.852 -1.2853  0.8272  1.1799
 1564SOL     OW16324   0.187   4.264  12.599  0.7210  0.6070 -0.2435
 1564SOL    HW116325   0.161   4.325  12.531 -1.4228 -2.7672 -2.4698
 1564SOL    HW216326   0.176   4.178  12.557 -0.3655  1.8452 -2.5009
 1565SOL     OW16327   1.048   2.597   6.320  0.0458 -0.2480  0.4564
 1565SOL    HW116328   1.036   2.617   6.413  0.0619 -0.0069  0.4071
 1565SOL    HW216329   1.126   2.642   6.287  1.4748 -1.9630  1.5138
 1566SOL     OW16330   3.827   1.568   9.165  0.3478 -0.1223  0.5681
 1566SOL    HW116331   3.779   1.631   9.219  0.1896  0.2355  0.0206
 1566SOL    HW216332   3.906   1.558   9.218  1.3973  0.1694 -0.9352
 1567SOL     OW16333   0.331   1.474   2.611 -0.2000 -0.0789  0.2477
 1567SOL    HW116334   0.291   1.518   2.536  0.3984  1.6750  0.9420
 1567SOL    HW216335   0.315   1.382   2.590 -0.6013 -0.0440  0.3920
 1568SOL     OW16336   3.054   1.195   3.044 -0.8967  0.4320 -0.0573
 1568SOL    HW116337   3.084   1.172   3.132 -1.5204 -1.6436 -0.3846
 1568SOL    HW216338   3.124   1.156   2.992 -1.3266  2.3041 -2.0155
 1569SOL     OW16339   1.713   3.558   4.409  0.2194 -0.6820 -0.1738
 1569SOL    HW116340   1.628   3.577   4.367  0.6343  1.4923 -0.0252
 1569SOL    HW216341   1.748   3.486   4.358  1.0429  0.9761 -1.9686
 1570SOL     OW16342   2.778   3.097  17.639 -0.0107 -0.4755 -0.3530
 1570SOL    HW116343   2.737   3.020  17.679  2.2832 -1.0651  0.8166
 1570SOL    HW216344   2.857   3.112  17.690 -0.7642 -2.9712  1.5352
 1571SOL     OW16345   2.083   3.465   9.725  0.1016 -0.8595 -0.2586
 1571SOL    HW116346   2.124   3.488   9.808 -0.4926 -0.6402 -0.0240
 1571SOL    HW216347   2.022   3.539   9.718  0.3533 -0.4757  1.5840
 1572SOL     OW16348   1.117   2.675   1.431 -0.4196 -0.4975  0.5822
 1572SOL    HW116349   1.059   2.686   1.507 -1.3389 -0.6347 -0.1046
 1572SOL    HW216350   1.066   2.623   1.369 -2.0844  2.0555 -0.1857
 1573SOL     OW16351   1.186   1.225  12.212  0.6603 -0.0616  0.1247
 1573SOL    HW116352   1.269   1.187  12.181 -0.4638 -1.0325 -1.6749
 1573SOL    HW216353   1.204   1.314  12.241  0.7945  0.4740 -1.5748
 1574SOL     OW16354   3.879   1.233   9.084  0.5527  0.5913 -0.6250
 1574SOL    HW116355   3.842   1.254   9.169  0.3595  0.9741 -0.8051
 1574SOL    HW216356   3.972   1.258   9.085  0.7082 -0.1156  2.7725
 1575SOL     OW16357   0.182   0.583   7.125  0.0283 -0.2129 -0.0263
 1575SOL    HW116358   0.140   0.669   7.122 -2.5403 -1.5881 -3.3911
 1575SOL    HW216359   0.144   0.528   7.057 -0.7981  0.9110 -0.4856
 1576SOL     OW16360   1.663   3.116   4.915  0.0222  0.0148  0.1773
 1576SOL    HW116361   1.586   3.071   4.949  0.6512 -1.2596 -0.1092
 1576SOL    HW216362   1.711   3.142   4.994 -0.3028  2.6529 -0.5020
 1577SOL     OW16363   3.194   4.370  16.078  0.6103 -0.3424  0.2706
 1577SOL    HW116364   3.150   4.315  16.013 -0.3034  1.3252 -0.5373
 1577SOL    HW216365   3.200   4.458  16.040 -2.1575  0.3525  1.4371
 1578SOL     OW16366   1.763   3.471   4.985  0.4523 -0.3689 -0.4633
 1578SOL    HW116367   1.843   3.490   4.936  0.5225 -1.7942 -0.8853
 1578SOL    HW216368   1.772   3.384   5.023  1.6723 -0.6116 -1.2905
 1579SOL     OW16369   0.304   0.922  11.663 -0.7842 -0.0385  0.4796
 1579SOL    HW116370   0.346   1.007  11.650 -1.1744 -0.1834 -1.6903
 1579SOL    HW216371   0.374   0.883  11.716 -0.9894 -1.3800 -0.2167
 1580SOL     OW16372   0.809   0.003   5.299 -0.0179 -0.6517  0.0833
 1580SOL    HW116373   0.768   4.667   5.253 -0.4828 -0.4893  0.2437
 1580SOL    HW216374   0.903   4.720   5.302  0.0041 -0.3571  1.1575
 1581SOL     OW16375   2.451   3.881   1.995  0.3210 -0.0626  0.0856
 1581SOL    HW116376   2.504   3.810   1.960  0.0809  0.8501 -2.1245
 1581SOL    HW216377   2.416   3.925   1.917  1.3731 -2.6978 -1.8819
 1582SOL     OW16378   2.535   4.493   7.943 -0.5125 -0.2491 -0.3016
 1582SOL    HW116379   2.587   4.435   7.887  0.8003  0.9374 -0.3238
 1582SOL    HW216380   2.563   4.577   7.905  0.0253 -0.0908  0.4332
 1583SOL     OW16381   4.555   3.452   5.995 -0.5926  0.7608  0.1141
 1583SOL    HW116382   4.554   3.548   6.003 -0.0428  0.8117 -0.3836
 1583SOL    HW216383   4.463   3.442   5.971 -0.0760 -1.5495 -0.9310
 1584SOL     OW16384   0.407   1.544   4.132 -0.1407 -0.5732  0.1834
 1584SOL    HW116385   0.387   1.486   4.059 -1.2179 -0.0151  0.0260
 1584SOL    HW216386   0.353   1.503   4.199 -0.0676 -2.6070 -0.9960
 1585SOL     OW16387   3.237   0.428   8.750 -0.0750 -0.1280  0.1044
 1585SOL    HW116388   3.168   0.367   8.724 -1.0371  0.7992  0.4948
 1585SOL    HW216389   3.195   0.510   8.777  1.1704  0.5293  0.0659
 1586SOL     OW16390   0.901   3.695   6.480  0.2758  0.5773  0.4034
 1586SOL    HW116391   0.915   3.778   6.435 -0.5418  1.0104  0.9336
 1586SOL    HW216392   0.988   3.657   6.470 -0.5561 -1.5143  1.0642
 1587SOL     OW16393   2.194   2.539   0.798  0.3697 -0.3309 -0.2503
 1587SOL    HW116394   2.210   2.633   0.807  1.2597 -0.6880  1.9409
 1587SOL    HW216395   2.122   2.539   0.735  0.7240  0.9790 -0.6619
 1588SOL     OW16396   1.798   1.174   7.640 -0.7485  0.2199 -0.1297
 1588SOL    HW116397   1.874   1.231   7.652 -1.3402  1.0513 -0.4019
 1588SOL    HW216398   1.736   1.218   7.698 -1.1515 -1.6527  0.8635
 1589SOL     OW16399   4.706   0.179   2.455  0.1496  0.1956  0.0675
 1589SOL    HW116400   0.059   0.152   2.445 -0.4397 -1.2076 -1.4811
 1589SOL    HW216401   4.670   0.168   2.367  1.1109  0.8038 -0.3994
 1590SOL     OW16402   1.140   2.138   6.090  0.2068 -0.1514  0.4051
 1590SOL    HW116403   1.061   2.167   6.136 -0.5791 -1.4916 -0.0902
 1590SOL    HW216404   1.122   2.049   6.058 -1.3648  0.0657  0.6512
 1591SOL     OW16405   1.870   1.273  11.452 -0.2467  0.0526 -0.1641
 1591SOL    HW116406   1.787   1.251  11.410 -1.1654 -1.4625  2.3763
 1591SOL    HW216407   1.918   1.278  11.370  0.6070  0.9104  0.3945
 1592SOL     OW16408   4.365   4.041   1.431  0.3912  0.1001  0.1544
 1592SOL    HW116409   4.460   4.038   1.424  0.4336  2.2756 -0.0153
 1592SOL    HW216410   4.359   4.040   1.527  1.1723  1.9016  0.2171
 1593SOL     OW16411   0.413   3.715  16.487 -0.5161  0.0682  0.8183
 1593SOL    HW116412   0.348   3.675  16.430  1.4496 -1.1833 -0.5080
 1593SOL    HW216413   0.455   3.774  16.424  3.3143 -2.9229  0.5836
 1594SOL     OW16414   0.270   0.825   5.509 -0.2001 -0.1114 -0.0853
 1594SOL    HW116415   0.231   0.912   5.510  0.8420  0.3303  1.5967
 1594SOL    HW216416   0.202   0.772   5.468  0.6265 -3.0946  2.4371
 1595SOL     OW16417   1.922   4.654   2.979  0.1229 -0.1996  0.5954
 1595SOL    HW116418   1.926   4.563   3.010 -0.2611 -1.1706 -2.1913
 1595SOL    HW216419   2.004   4.685   3.017  2.0270 -2.2093 -1.8466
 1596SOL     OW16420   2.952   0.566   4.680  0.5161  0.5475 -0.4757
 1596SOL    HW116421   3.031   0.616   4.703  0.0398  0.9601  0.2416
 1596SOL    HW216422   2.895   0.605   4.746  1.0327 -0.5297  0.5988
 1597SOL     OW16423   4.202   1.278  11.583  0.0973 -0.4297 -0.0114
 1597SOL    HW116424   4.283   1.246  11.542  0.5184  0.2179  0.3139
 1597SOL    HW216425   4.190   1.228  11.664 -1.3763 -1.6067 -0.9546
 1598SOL     OW16426   1.274   1.742  13.778 -0.1970 -0.0477 -0.4878
 1598SOL    HW116427   1.198   1.753  13.720  1.2447  2.4797 -1.9157
 1598SOL    HW216428   1.280   1.647  13.780 -0.3300 -0.0635 -0.8390
 1599SOL     OW16429   3.546   0.731   8.528 -0.9014  0.1456 -0.4267
 1599SOL    HW116430   3.527   0.800   8.591  0.1725 -0.4099  0.5106
 1599SOL    HW216431   3.475   0.668   8.533 -0.7924  0.2546  2.5989
 1600SOL     OW16432   1.450   2.325   1.844  0.7942  0.1726  0.0764
 1600SOL    HW116433   1.503   2.247   1.861 -0.1917 -0.4066  0.5674
 1600SOL    HW216434   1.389   2.287   1.780 -0.0010  0.9938  0.3366
 1601SOL     OW16435   1.148   0.215   6.846 -0.9593 -0.2165  0.0417
 1601SOL    HW116436   1.109   0.280   6.905  0.4235  0.3267  0.3479
 1601SOL    HW216437   1.074   0.208   6.785 -0.0040 -2.2352 -0.8853
 1602SOL     OW16438   0.690   0.109   4.634  0.3421 -0.1758 -0.5699
 1602SOL    HW116439   0.625   0.177   4.616 -2.0215 -1.9581  1.2271
 1602SOL    HW216440   0.765   0.143   4.586  1.0649 -1.4613 -0.3201
 1603SOL     OW16441   4.491   2.630   4.391  0.1375  0.8099 -0.6561
 1603SOL    HW116442   4.406   2.608   4.429  0.2221  0.5320 -0.6250
 1603SOL    HW216443   4.471   2.705   4.334 -1.6296  1.5139  0.9100
 1604SOL     OW16444   2.863   4.449   5.061 -0.1629  0.1818  0.3792
 1604SOL    HW116445   2.880   4.398   5.140  1.5052 -1.6377 -1.1408
 1604SOL    HW216446   2.768   4.444   5.054 -0.3434  1.3483  1.9411
 1605SOL     OW16447   4.155   3.355  10.127 -0.1327  0.0379 -0.0640
 1605SOL    HW116448   4.068   3.327  10.154 -1.2387  1.0966 -2.4934
 1605SOL    HW216449   4.126   3.390  10.043 -0.2018  1.9028  0.7310
 1606SOL     OW16450   4.505   1.641  17.130 -0.7059  0.5294  0.2770
 1606SOL    HW116451   4.521   1.659  17.223  2.1458 -1.6221  0.1995
 1606SOL    HW216452   4.594   1.618  17.105 -0.0371  2.3546  1.0030
 1607SOL     OW16453   2.270   2.844   2.840  0.1704 -0.6485 -0.2862
 1607SOL    HW116454   2.216   2.799   2.904 -1.0831  2.0194  0.5328
 1607SOL    HW216455   2.213   2.918   2.821  2.1318  0.9504  0.0239
 1608SOL     OW16456   1.041   0.026  17.025  1.0420 -0.5929  0.2525
 1608SOL    HW116457   1.074   4.674  17.033  0.4832 -1.0490 -2.6488
 1608SOL    HW216458   1.086   0.065  17.100 -0.9666  0.5507  0.8779
 1609SOL     OW16459   0.657   4.414   8.484 -0.3673  0.5160  0.1562
 1609SOL    HW116460   0.669   4.351   8.555 -1.1285 -0.8190 -0.9119
 1609SOL    HW216461   0.581   4.374   8.442 -0.6569  0.1639  0.9964
 1610SOL     OW16462   2.452   1.535   5.256 -0.1953  0.3527 -0.3740
 1610SOL    HW116463   2.476   1.546   5.164 -0.5684 -1.4976 -0.6963
 1610SOL    HW216464   2.528   1.558   5.309  0.5762 -1.7441 -0.5901
 1611SOL     OW16465   1.506   1.917   5.585  0.4009 -0.1500  0.4283
 1611SOL    HW116466   1.447   1.990   5.565  0.6018 -0.2830 -0.6539
 1611SOL    HW216467   1.453   1.865   5.645  0.7423 -1.5636 -0.5127
 1612SOL     OW16468   3.928   3.761   2.551  0.3835  0.2497 -0.2798
 1612SOL    HW116469   3.848   3.771   2.603  1.6194 -3.4264  2.3087
 1612SOL    HW216470   3.949   3.673   2.580 -0.7159  0.6943  1.8668
 1613SOL     OW16471   3.902   0.966  17.726  0.3898  0.6210  0.0359
 1613SOL    HW116472   3.997   0.957  17.739  0.3809  4.1047  2.2654
 1613SOL    HW216473   3.869   0.894   0.031  1.1501 -0.9838 -1.6300
 1614SOL     OW16474   3.606   1.333   8.107 -0.7763  0.2145 -0.3710
 1614SOL    HW116475   3.679   1.285   8.068 -0.2878 -1.1129  2.1501
 1614SOL    HW216476   3.575   1.256   8.154 -0.7109 -1.4276 -2.9979
 1615SOL     OW16477   0.941   2.451   6.067 -0.2048 -0.1075 -0.4606
 1615SOL    HW116478   0.937   2.505   6.145 -3.2270  0.3274 -0.9385
 1615SOL    HW216479   0.921   2.374   6.120  1.5692 -0.2743 -0.0193
 1616SOL     OW16480   1.050   3.780  11.208 -0.1843 -0.5457 -0.3106
 1616SOL    HW116481   1.015   3.796  11.121  2.2998  3.0508 -0.6483
 1616SOL    HW216482   1.108   3.853  11.229  0.2862 -0.6897 -1.0935
 1617SOL     OW16483   2.864   1.969   6.484  0.6246 -1.1766  0.1073
 1617SOL    HW116484   2.770   1.965   6.504  0.6725 -1.5491  0.2471
 1617SOL    HW216485   2.873   2.050   6.433 -1.3195 -0.5538  0.7558
 1618SOL     OW16486   4.646   0.148   6.216 -0.0486 -0.2102 -0.3379
 1618SOL    HW116487   0.004   0.145   6.214  0.0880  2.3810  1.8437
 1618SOL    HW216488   4.637   0.094   6.295 -1.2813 -1.1115 -1.1039
 1619SOL     OW16489   3.831   0.288  13.585  0.4454 -0.7389  0.3966
 1619SOL    HW116490   3.743   0.325  13.587 -0.0580 -1.8735 -1.4303
 1619SOL    HW216491   3.806   0.198  13.567  1.0295 -0.8639  0.2151
 1620SOL     OW16492   0.847   2.730   9.217 -0.0557  0.1708  0.6023
 1620SOL    HW116493   0.798   2.668   9.163 -0.3788  1.6333 -0.8142
 1620SOL    HW216494   0.819   2.814   9.179  0.9136  0.8549  1.3876
 1621SOL     OW16495   0.739   2.142  16.405  0.5078 -0.1954 -0.0247
 1621SOL    HW116496   0.650   2.110  16.386 -0.3630  2.8360 -0.9150
 1621SOL    HW216497   0.774   2.066  16.453 -3.2933 -1.1861  1.2618
 1622SOL     OW16498   0.171   0.849   3.806 -0.1444  0.4476 -0.0250
 1622SOL    HW116499   0.250   0.857   3.859 -1.4837 -0.1749  2.0766
 1622SOL    HW216500   0.108   0.904   3.852 -2.1126 -0.0789 -2.0831
 1623SOL     OW16501   1.192   1.224   5.006 -0.7168  0.7357  0.2767
 1623SOL    HW116502   1.097   1.233   5.011 -0.9118  0.2328 -2.8107
 1623SOL    HW216503   1.205   1.134   5.036 -4.0822 -0.0918 -0.8143
 1624SOL     OW16504   2.195   3.556   6.959 -0.1440  0.4306  0.0489
 1624SOL    HW116505   2.277   3.604   6.953  0.3665 -0.2918  1.2206
 1624SOL    HW216506   2.124   3.619   6.970 -1.1386 -0.7184  0.2310
 1625SOL     OW16507   2.328   2.299  17.028  0.1035 -0.5303 -0.3880
 1625SOL    HW116508   2.240   2.263  17.040 -1.1126  2.0498 -1.7304
 1625SOL    HW216509   2.385   2.246  17.084 -1.4502 -1.1877  0.5775
 1626SOL     OW16510   2.485   4.211   1.249 -0.2632 -0.2609  0.4512
 1626SOL    HW116511   2.539   4.132   1.259 -0.6579 -0.5129  0.5930
 1626SOL    HW216512   2.405   4.159   1.241 -1.2165  1.2161  0.3359
 1627SOL     OW16513   2.716   3.908   7.777 -0.0040  0.4549 -0.2715
 1627SOL    HW116514   2.629   3.891   7.812  0.8387 -1.5871  0.8513
 1627SOL    HW216515   2.777   3.864   7.837 -0.9348  1.3860  1.3808
 1628SOL     OW16516   3.880   2.025   5.906 -0.2192  0.8526 -0.5025
 1628SOL    HW116517   3.813   1.958   5.894  1.8290 -1.3232  0.3480
 1628SOL    HW216518   3.930   2.017   5.825  0.1006  0.8189 -0.3009
 1629SOL     OW16519   1.673   2.312   5.324  0.1744  0.1549  0.1321
 1629SOL    HW116520   1.658   2.219   5.339 -1.8143  0.1578 -1.7308
 1629SOL    HW216521   1.648   2.338   5.412  0.4398 -1.7897  0.7580
 1630SOL     OW16522   3.509   1.516  16.442 -0.3998  0.0618  0.1395
 1630SOL    HW116523   3.461   1.547  16.365  2.8686  2.5797 -0.8775
 1630SOL    HW216524   3.470   1.428  16.442 -1.2283  0.4273  0.8252
 1631SOL     OW16525   2.174   0.128  15.007  0.2766 -0.4229 -0.8323
 1631SOL    HW116526   2.087   0.122  14.968  1.1715 -0.6740 -2.7753
 1631SOL    HW216527   2.220   0.173  14.937 -1.2295  0.8545 -0.9876
 1632SOL     OW16528   2.428   3.303   8.993  0.4391 -0.2642 -0.0756
 1632SOL    HW116529   2.368   3.261   9.055  1.9791 -0.5506  1.2447
 1632SOL    HW216530   2.367   3.370   8.963 -0.7952 -1.5072 -0.3813
 1633SOL     OW16531   3.089   1.358   6.295  0.0602 -0.3137  0.0887
 1633SOL    HW116532   3.037   1.390   6.369 -0.2880  0.7538 -0.6269
 1633SOL    HW216533   3.100   1.267   6.322  0.4764 -0.0452  0.8476
 1634SOL     OW16534   4.287   4.489  13.387  0.0608  0.0178  0.0120
 1634SOL    HW116535   4.367   4.446  13.417 -0.5695 -1.1383  0.0272
 1634SOL    HW216536   4.314   4.578  13.365 -3.0338  1.1143  0.6545
 1635SOL     OW16537   4.356   1.276  10.144  0.3990  0.2993  0.2729
 1635SOL    HW116538   4.421   1.206  10.153  2.4790  2.1229 -0.4102
 1635SOL    HW216539   4.350   1.284  10.048 -0.3859 -1.1861  0.1997
 1636SOL     OW16540   4.073   0.655   9.521 -0.6134 -0.2327 -0.0919
 1636SOL    HW116541   4.045   0.623   9.606 -0.7447 -0.4138 -0.2039
 1636SOL    HW216542   4.023   0.737   9.518  2.7553  1.8389  0.8933
 1637SOL     OW16543   0.280   2.158   8.796  0.0061 -0.0354  0.1211
 1637SOL    HW116544   0.262   2.198   8.882  0.5951  0.0987  0.1816
 1637SOL    HW216545   0.198   2.166   8.747 -0.0191 -1.1437 -0.0215
 1638SOL     OW16546   4.188   2.275   5.780  0.8362  0.1250  0.6669
 1638SOL    HW116547   4.202   2.359   5.737 -3.6638  0.6585  0.2041
 1638SOL    HW216548   4.092   2.280   5.785  0.9586  0.5869  2.5296
 1639SOL     OW16549   1.113   1.693   6.650  0.5135 -0.1238  0.5352
 1639SOL    HW116550   1.197   1.724   6.685  0.1098  3.4558 -1.6571
 1639SOL    HW216551   1.080   1.771   6.605  0.8313 -0.8756 -0.9824
 1640SOL     OW16552   4.317   1.182   7.406  0.1680  0.0528  0.1450
 1640SOL    HW116553   4.226   1.199   7.384  0.2497  1.4102  0.8387
 1640SOL    HW216554   4.353   1.199   7.318  0.5520 -1.1937  0.0630
 1641SOL     OW16555   3.354   0.385   5.990 -0.3811 -0.0651 -0.8644
 1641SOL    HW116556   3.276   0.438   6.006  1.2216  2.1760 -0.3084
 1641SOL    HW216557   3.394   0.380   6.077 -2.4287  2.9178  0.2617
 1642SOL     OW16558   0.078   4.055  14.247 -0.6428  0.0275  0.0103
 1642SOL    HW116559   0.112   3.991  14.184  0.8212  0.7583  0.0442
 1642SOL    HW216560   0.145   4.123  14.254 -1.6184  1.0457 -0.5113
 1643SOL     OW16561   4.719   3.661   2.011  0.5712  0.1687 -0.2538
 1643SOL    HW116562   0.004   3.754   2.013 -0.6467  0.3911  2.1452
 1643SOL    HW216563   0.003   3.649   1.918 -0.7384 -0.6930 -0.4331
 1644SOL     OW16564   2.548   2.108   4.199  0.0803  0.5700  0.5464
 1644SOL    HW116565   2.641   2.115   4.179 -0.1361 -0.0911 -0.6593
 1644SOL    HW216566   2.539   2.141   4.289  1.6535  1.3169  0.4196
 1645SOL     OW16567   2.254   3.601   3.843 -0.0674 -0.5048  0.1332
 1645SOL    HW116568   2.203   3.524   3.820  0.7338 -1.1885  0.6116
 1645SOL    HW216569   2.342   3.567   3.862  0.4570  0.9238  0.2683
 1646SOL     OW16570   2.042   4.424  14.059 -0.0063  0.2865  0.1813
 1646SOL    HW116571   2.093   4.395  13.983  1.0166 -1.1487  1.3996
 1646SOL    HW216572   1.985   4.349  14.075 -0.0678 -0.1502 -2.0277
 1647SOL     OW16573   3.083   3.054   9.379  0.5360  0.3433 -0.4509
 1647SOL    HW116574   3.058   2.962   9.388  1.2419  0.2839  0.9257
 1647SOL    HW216575   3.021   3.083   9.312  0.4788  1.1971 -0.0335
 1648SOL     OW16576   0.943   0.927   3.938  0.0077 -0.5859 -0.0833
 1648SOL    HW116577   0.878   0.869   3.977 -0.9401  0.7328  0.3053
 1648SOL    HW216578   0.984   0.975   4.011 -2.0928  0.5361  0.3547
 1649SOL     OW16579   1.715   3.525  17.146 -0.3977  0.0445 -0.7603
 1649SOL    HW116580   1.796   3.565  17.115  0.4094 -0.7245  0.3348
 1649SOL    HW216581   1.700   3.469  17.070  1.1103 -2.9042  1.0798
 1650SOL     OW16582   1.544   0.341   4.200 -0.2366  0.1332 -0.4365
 1650SOL    HW116583   1.636   0.361   4.184 -0.1992  0.8793  0.6596
 1650SOL    HW216584   1.540   0.248   4.224  0.8365  0.3537  0.5974
 1651SOL     OW16585   3.879   3.532   3.769 -0.2380  0.3612  0.1857
 1651SOL    HW116586   3.805   3.580   3.731 -1.0766  2.1176  4.0651
 1651SOL    HW216587   3.873   3.551   3.863 -1.3658  1.7717 -0.1652
 1652SOL     OW16588   2.977   4.536   5.388 -0.1990  0.0014  0.4295
 1652SOL    HW116589   3.059   4.519   5.434 -0.8174  2.9596  2.5892
 1652SOL    HW216590   2.918   4.484   5.442 -1.2094 -0.2492 -0.9120
 1653SOL     OW16591   0.728   1.728   3.269 -0.2704  0.5346  0.5229
 1653SOL    HW116592   0.650   1.699   3.222  1.4102  0.3754 -2.1584
 1653SOL    HW216593   0.805   1.704   3.219 -0.6199 -0.4952  0.4834
 1654SOL     OW16594   2.257   0.043   7.599  0.7405 -0.8070  0.3754
 1654SOL    HW116595   2.260   0.020   7.507  0.3372 -0.6630  0.3248
 1654SOL    HW216596   2.337   0.093   7.609 -1.1110  2.8583 -3.0256
 1655SOL     OW16597   4.659   3.528   6.611 -0.0492 -0.6171  0.5175
 1655SOL    HW116598   4.691   3.618   6.623  1.1925 -1.1910  1.4336
 1655SOL    HW216599   4.704   3.491   6.535  1.1858  0.4605  0.7274
 1656SOL     OW16600   1.915   1.183   2.947  0.0033  0.8496  0.3493
 1656SOL    HW116601   1.905   1.135   3.029 -0.8753  0.1426 -0.1675
 1656SOL    HW216602   1.848   1.248   2.969 -0.4229  0.7857 -0.7679
 1657SOL     OW16603   2.833   3.602  12.639  0.3457  0.2502 -0.2804
 1657SOL    HW116604   2.771   3.674  12.650 -0.1908 -0.2939  0.2771
 1657SOL    HW216605   2.858   3.628  12.551  0.4113 -0.3387 -0.4374
 1658SOL     OW16606   2.519   2.484   6.129 -0.2512  0.2521 -0.2811
 1658SOL    HW116607   2.502   2.435   6.210  0.9085  2.2872  1.2116
 1658SOL    HW216608   2.560   2.415   6.078  0.2366  0.2072  0.1686
 1659SOL     OW16609   0.015   3.284   5.495 -0.1715  0.1720 -0.4343
 1659SOL    HW116610   4.712   3.308   5.578  0.2178  3.5774 -1.2429
 1659SOL    HW216611   4.679   3.302   5.436 -0.9394  0.3598  0.5632
 1660SOL     OW16612   2.305   0.735   2.324 -0.7025  0.5984 -0.2138
 1660SOL    HW116613   2.356   0.785   2.387 -0.7761  0.8562 -0.3575
 1660SOL    HW216614   2.231   0.701   2.374  0.6193 -0.3176  1.0730
 1661SOL     OW16615   3.039   1.115  13.675  0.3176  0.1248  0.2872
 1661SOL    HW116616   2.981   1.054  13.720  1.0121 -1.0579 -0.3756
 1661SOL    HW216617   2.998   1.197  13.700  1.3994  0.3130  1.4450
 1662SOL     OW16618   3.599   2.955  14.131 -0.2618 -0.2779 -0.2603
 1662SOL    HW116619   3.513   2.940  14.170 -0.2983  1.4970  0.3261
 1662SOL    HW216620   3.642   3.014  14.193  2.5989  1.2824 -3.7579
 1663SOL     OW16621   0.200   3.632  14.943  0.9714 -0.0228  0.0185
 1663SOL    HW116622   0.217   3.666  15.031  0.1454 -2.0321  0.9470
 1663SOL    HW216623   0.290   3.611  14.916  0.7913 -1.2037  0.3186
 1664SOL     OW16624   1.625   2.835   8.614  0.6574 -0.1822  0.1328
 1664SOL    HW116625   1.563   2.762   8.615 -0.5468  0.8399 -1.0994
 1664SOL    HW216626   1.580   2.889   8.549 -1.5426 -1.9291  0.2207
 1665SOL     OW16627   3.312   1.147  13.641  0.0787 -0.5002 -0.3242
 1665SOL    HW116628   3.226   1.107  13.631 -0.3335 -0.0090  1.4368
 1665SOL    HW216629   3.368   1.071  13.657 -1.5623 -1.4351  0.9265
 1666SOL     OW16630   3.897   1.004   3.059 -0.5136  0.1558  0.4030
 1666SOL    HW116631   3.854   1.078   3.102 -0.7294 -0.1381  0.6959
 1666SOL    HW216632   3.873   1.017   2.967 -0.7609  0.0153  0.4475
 1667SOL     OW16633   2.473   3.365   7.138 -0.0596 -0.1934  0.1283
 1667SOL    HW116634   2.551   3.419   7.150 -0.9201  0.5940  2.1909
 1667SOL    HW216635   2.407   3.416   7.186  0.8419 -0.0334  1.1795
 1668SOL     OW16636   4.382   2.885   3.235  0.5075 -0.2639  0.4591
 1668SOL    HW116637   4.415   2.798   3.260  0.5022 -0.3828  0.0520
 1668SOL    HW216638   4.452   2.951   3.234 -1.2642  1.5501 -1.7028
 1669SOL     OW16639   2.131   3.664   2.615  0.2384  0.1470  0.3864
 1669SOL    HW116640   2.057   3.628   2.663  1.3067  0.8306  2.6053
 1669SOL    HW216641   2.096   3.693   2.531  1.0889 -0.4953 -0.1901
 1670SOL     OW16642   3.320   3.924   2.324 -0.9597 -0.3862  0.0441
 1670SOL    HW116643   3.387   3.992   2.328  0.6974 -1.9849 -0.9716
 1670SOL    HW216644   3.260   3.958   2.391 -1.7950  0.9402 -1.3890
 1671SOL     OW16645   0.491   3.755  13.954  0.3609  0.4720  0.3173
 1671SOL    HW116646   0.430   3.719  13.890  3.6132 -0.0682 -2.5175
 1671SOL    HW216647   0.483   3.705  14.035  1.7637  2.5716  1.7371
 1672SOL     OW16648   0.830   2.165   2.920  0.0758 -0.5060  0.1543
 1672SOL    HW116649   0.853   2.085   2.967 -0.7943 -0.0681  1.3581
 1672SOL    HW216650   0.875   2.162   2.836  1.7289  0.0824  1.0268
 1673SOL     OW16651   1.717   1.275   8.775 -0.1757 -0.4649 -0.4754
 1673SOL    HW116652   1.770   1.230   8.842  0.8168 -1.4453 -1.9161
 1673SOL    HW216653   1.642   1.301   8.827  0.0324  0.4962 -0.6557
 1674SOL     OW16654   3.092   2.654   2.904 -0.2091 -0.0352  0.4105
 1674SOL    HW116655   3.151   2.579   2.900  0.4561  0.5407 -0.7504
 1674SOL    HW216656   3.010   2.623   2.942 -0.3501 -0.5597 -0.3304
 1675SOL     OW16657   0.306   2.785   9.356 -0.2699  1.3582  0.7011
 1675SOL    HW116658   0.356   2.725   9.411  0.5473  1.0931 -0.3532
 1675SOL    HW216659   0.363   2.794   9.280  1.3432  1.6926  1.9544
 1676SOL     OW16660   0.055   0.749   8.941 -0.5009  0.6119 -0.6106
 1676SOL    HW116661   4.719   0.806   8.923  0.2998  1.9421  0.3300
 1676SOL    HW216662   0.022   0.687   9.007 -0.1297  2.4413  1.3072
 1677SOL     OW16663   0.919   1.290   6.853 -0.1734 -0.2006 -0.0877
 1677SOL    HW116664   0.866   1.254   6.782 -2.0387 -0.7930  1.6439
 1677SOL    HW216665   0.934   1.375   6.811  1.5515 -0.0453  0.8467
 1678SOL     OW16666   4.478   0.184   0.359 -0.0824 -0.1534  0.1884
 1678SOL    HW116667   4.393   0.226   0.375 -0.4535 -1.3482  1.4293
 1678SOL    HW216668   4.487   0.216   0.269  2.2152 -2.1190 -0.2652
 1679SOL     OW16669   2.509   1.535  14.212  0.0463  0.1801  0.4734
 1679SOL    HW116670   2.540   1.605  14.154 -0.6299 -0.6577 -0.8802
 1679SOL    HW216671   2.424   1.514  14.173 -0.5443 -0.9207  2.3279
 1680SOL     OW16672   3.041   0.288   2.240 -0.8289  0.2562  0.6957
 1680SOL    HW116673   2.965   0.299   2.297 -1.7680  1.4962 -0.7967
 1680SOL    HW216674   3.021   0.342   2.164  1.1907 -2.9562 -2.1530
 1681SOL     OW16675   4.472   3.812  11.568 -0.3083  0.0414  0.0497
 1681SOL    HW116676   4.410   3.884  11.583 -1.1063 -0.6037 -0.1596
 1681SOL    HW216677   4.423   3.733  11.592  2.4843 -1.6044  0.3058
 1682SOL     OW16678   1.090   1.805   2.639  0.5256 -0.0206 -0.1293
 1682SOL    HW116679   1.110   1.899   2.646 -1.2242  0.4980 -1.9646
 1682SOL    HW216680   1.008   1.816   2.686  1.3562 -1.8259  1.7056
 1683SOL     OW16681   1.038   2.778   8.108 -0.3982 -0.1234 -0.0243
 1683SOL    HW116682   0.975   2.736   8.050 -1.0634  0.7837  0.0465
 1683SOL    HW216683   1.040   2.868   8.076  1.5661 -0.1744 -0.0458
 1684SOL     OW16684   4.068   3.048  12.492  0.2330  0.2284  0.2469
 1684SOL    HW116685   4.061   2.980  12.424  1.2941  2.2699 -1.9022
 1684SOL    HW216686   4.014   3.113  12.448 -0.8228 -1.2338 -0.6254
 1685SOL     OW16687   0.130   0.329   0.878 -0.0091  0.5548 -0.2522
 1685SOL    HW116688   0.110   0.263   0.813 -0.4401  1.9669 -1.5624
 1685SOL    HW216689   0.225   0.321   0.876 -0.3170 -3.2066  0.8123
 1686SOL     OW16690   2.657   2.434   8.109 -0.0585  0.0875 -0.2356
 1686SOL    HW116691   2.612   2.378   8.046 -0.8975  1.3317 -0.7500
 1686SOL    HW216692   2.737   2.383   8.118  0.2180  0.7110  0.8625
 1687SOL     OW16693   0.843   1.428   2.770 -0.4777  0.2640  0.0768
 1687SOL    HW116694   0.855   1.521   2.791 -2.3461  0.4341  0.4062
 1687SOL    HW216695   0.870   1.392   2.854 -0.7262  1.2000  0.5483
 1688SOL     OW16696   2.221   4.026   5.957 -0.4517  0.1725 -0.5289
 1688SOL    HW116697   2.234   3.967   6.031 -1.8387  0.2804 -0.1990
 1688SOL    HW216698   2.265   4.104   5.991 -1.0598  1.0392 -1.6965
 1689SOL     OW16699   1.057   0.539   5.819  0.3527  1.1934 -0.3183
 1689SOL    HW116700   1.144   0.511   5.793 -0.0822 -1.2816  0.8501
 1689SOL    HW216701   1.068   0.562   5.912  1.7568 -0.8919  0.0342
 1690SOL     OW16702   3.260   4.606   8.237 -0.2239 -0.7956  0.2245
 1690SOL    HW116703   3.314   4.677   8.204 -1.1721  0.3336  1.1065
 1690SOL    HW216704   3.191   4.650   8.287 -0.7160 -0.6795 -0.5672
 1691SOL     OW16705   3.223   2.360   8.887  0.1337  0.0669  0.6939
 1691SOL    HW116706   3.263   2.447   8.878  1.2177 -0.4292  0.6244
 1691SOL    HW216707   3.212   2.348   8.981 -1.2236  0.2454  0.5550
 1692SOL     OW16708   2.636   1.614   9.472  0.4340  0.0241  0.0720
 1692SOL    HW116709   2.567   1.656   9.524  0.5094 -1.6169  1.5018
 1692SOL    HW216710   2.588   1.564   9.406  0.0101 -0.0467  0.4312
 1693SOL     OW16711   3.346   0.662   3.389  0.0809  0.0310 -0.5082
 1693SOL    HW116712   3.422   0.641   3.443 -0.1895 -1.9911 -0.8930
 1693SOL    HW216713   3.383   0.637   3.305  0.7228 -0.0683 -0.1939
 1694SOL     OW16714   2.921   1.881   7.984  0.0309 -0.2756  0.3990
 1694SOL    HW116715   2.924   1.800   7.933 -1.3187 -0.8690  1.2624
 1694SOL    HW216716   2.831   1.890   8.017  0.4858  4.7443  0.2847
 1695SOL     OW16717   3.421   2.048  14.551 -0.1755 -0.1806 -0.3044
 1695SOL    HW116718   3.342   1.995  14.565 -0.4861  0.0369 -1.2354
 1695SOL    HW216719   3.444   2.086  14.635 -0.5103 -1.6523  0.4509
 1696SOL     OW16720   1.248   4.471   9.176  0.1305  0.6027  0.2766
 1696SOL    HW116721   1.250   4.496   9.268 -3.0857 -2.8370  1.3020
 1696SOL    HW216722   1.340   4.489   9.159 -0.8284  1.7847 -3.7471
 1697SOL     OW16723   0.634   0.072   7.250  0.6134 -0.7336 -0.4421
 1697SOL    HW116724   0.687   4.733   7.270 -0.7378 -1.3826  0.7191
 1697SOL    HW216725   0.620   0.099   7.341 -0.2194  0.4831 -0.9347
 1698SOL     OW16726   0.654   3.626   8.228 -0.1973  0.2201  0.6606
 1698SOL    HW116727   0.746   3.614   8.250 -0.3976 -0.6686  1.0176
 1698SOL    HW216728   0.657   3.609   8.133  2.8780  2.5108  0.3511
 1699SOL     OW16729   3.317   1.571   5.283 -0.0336  0.0203  0.0743
 1699SOL    HW116730   3.409   1.597   5.294  0.7058 -1.1854 -3.2579
 1699SOL    HW216731   3.309   1.502   5.349 -0.9321 -0.5806 -0.6840
 1700SOL     OW16732   2.428   3.740   8.810  0.2710 -0.4641 -0.1782
 1700SOL    HW116733   2.345   3.742   8.858  0.8170  0.0962  0.7134
 1700SOL    HW216734   2.396   3.773   8.726  0.6322  0.7869  0.1804
 1701SOL     OW16735   4.568   3.287   1.712  0.4312  0.3604 -0.0499
 1701SOL    HW116736   4.522   3.286   1.796 -1.7504  0.7281 -1.2286
 1701SOL    HW216737   4.624   3.209   1.718  0.0725  0.0445 -0.8019
 1702SOL     OW16738   2.452   3.301  17.367  1.1460  0.2812  0.3336
 1702SOL    HW116739   2.526   3.240  17.372  0.9634  0.1463  1.3285
 1702SOL    HW216740   2.495   3.386  17.377  1.4803  0.2310 -0.6279
 1703SOL     OW16741   3.513   3.736  16.628 -0.0140 -0.0009  0.2182
 1703SOL    HW116742   3.433   3.709  16.583 -0.3839 -2.3299  2.2570
 1703SOL    HW216743   3.572   3.702  16.560  1.7485  0.2772  1.6051
 1704SOL     OW16744   4.273   4.380  12.684  0.1029 -0.0173 -0.1281
 1704SOL    HW116745   4.268   4.476  12.682  2.4328  0.0591 -2.3167
 1704SOL    HW216746   4.232   4.356  12.768 -0.1955 -3.8347 -1.3744
 1705SOL     OW16747   3.379   1.390   6.561  0.3929 -0.1006 -0.7058
 1705SOL    HW116748   3.365   1.383   6.466 -1.1505 -0.1470 -0.4852
 1705SOL    HW216749   3.319   1.462   6.583  5.4881  3.7929  0.4368
 1706SOL     OW16750   4.027   3.207   7.357  0.4419 -0.4663 -0.3181
 1706SOL    HW116751   4.012   3.276   7.422  1.7785  0.7579 -1.3281
 1706SOL    HW216752   4.064   3.137   7.411  4.0725 -0.3780 -2.6915
 1707SOL     OW16753   1.127   2.503  16.936  0.0878  0.6282 -0.1319
 1707SOL    HW116754   1.193   2.526  16.871  0.1821 -0.4603 -0.4229
 1707SOL    HW216755   1.050   2.514  16.880  1.0814  3.7096 -0.8755
 1708SOL     OW16756   0.401   0.348  11.982  0.2152  0.4928  0.4280
 1708SOL    HW116757   0.329   0.405  12.010  0.0119  0.9160 -0.9740
 1708SOL    HW216758   0.453   0.354  12.062  0.0532  1.4293  0.4610
 1709SOL     OW16759   2.053   3.940  15.886 -0.1364  0.4729  0.3916
 1709SOL    HW116760   2.081   3.906  15.801 -0.8581  1.2547 -0.1663
 1709SOL    HW216761   1.985   3.878  15.912  0.2118 -0.1858 -0.2758
 1710SOL     OW16762   3.521   3.336   1.466  0.3455  0.1804  0.6769
 1710SOL    HW116763   3.536   3.362   1.375  0.2706  0.9401  0.8822
 1710SOL    HW216764   3.509   3.241   1.460  0.1216  0.2766 -0.4575
 1711SOL     OW16765   1.966   3.965  17.726 -0.0662 -0.5206  0.1193
 1711SOL    HW116766   1.986   3.918   0.058 -0.8133  0.6187  0.9659
 1711SOL    HW216767   1.906   3.904  17.684 -0.4785  1.1025 -1.6398
 1712SOL     OW16768   1.507   1.587   6.538 -0.0917  0.2982 -0.5277
 1712SOL    HW116769   1.551   1.518   6.589 -3.3530 -0.8055  0.7841
 1712SOL    HW216770   1.538   1.661   6.590 -1.1338 -0.0162  0.5391
 1713SOL     OW16771   2.580   2.423   1.718  0.2314  0.2472 -0.2501
 1713SOL    HW116772   2.655   2.482   1.729  0.2670  0.2438 -0.4725
 1713SOL    HW216773   2.510   2.483   1.693  0.0201 -0.4205 -1.2796
 1714SOL     OW16774   1.475   2.200   4.920  0.1015  0.5402  0.2978
 1714SOL    HW116775   1.524   2.177   4.841  0.2294  1.2984  0.1591
 1714SOL    HW216776   1.542   2.250   4.967  0.7091  1.5202 -1.5933
 1715SOL     OW16777   0.107   3.964   3.130  0.4011 -0.0121 -0.0500
 1715SOL    HW116778   0.100   3.875   3.164  0.5155 -0.5985 -1.5415
 1715SOL    HW216779   0.200   3.964   3.108  0.7965 -3.6235  1.7522
 1716SOL     OW16780   3.427   0.404   4.726 -0.3425  0.4265 -0.0128
 1716SOL    HW116781   3.367   0.461   4.678  0.8452  1.9331  0.2694
 1716SOL    HW216782   3.367   0.334   4.751  3.3249 -2.1615  1.4466
 1717SOL     OW16783   2.107   1.798   7.892  0.5451  0.4388 -0.1535
 1717SOL    HW116784   2.104   1.848   7.811 -0.7286  0.3302 -0.1842
 1717SOL    HW216785   2.201   1.800   7.910  1.1368 -2.1247 -3.1292
 1718SOL     OW16786   0.682   1.815  11.735 -0.0883  0.7372  0.4051
 1718SOL    HW116787   0.632   1.783  11.809  2.7335 -0.3602  1.8657
 1718SOL    HW216788   0.704   1.900  11.772 -0.1155  0.9138  0.0118
 1719SOL     OW16789   1.220   0.520   7.151 -0.6147  0.4537  0.0283
 1719SOL    HW116790   1.299   0.566   7.126 -1.2053  1.5877  0.2671
 1719SOL    HW216791   1.251   0.446   7.204 -1.3739 -0.1181 -0.3188
 1720SOL     OW16792   0.884   4.418   2.790  0.3254 -0.1758  0.2957
 1720SOL    HW116793   0.897   4.390   2.699 -1.4995 -0.8777  0.2541
 1720SOL    HW216794   0.815   4.482   2.772  1.0947  0.2313 -1.2544
 1721SOL     OW16795   1.445   2.826   3.541 -0.7865 -0.3801 -0.2154
 1721SOL    HW116796   1.394   2.759   3.493 -2.3496 -1.0145  2.3491
 1721SOL    HW216797   1.497   2.866   3.471  0.1302  1.8723  1.7816
 1722SOL     OW16798   2.237   3.195   4.173  0.3855  0.2718  0.1911
 1722SOL    HW116799   2.252   3.121   4.114 -3.3928 -0.3941  0.0716
 1722SOL    HW216800   2.247   3.268   4.113 -0.8563  1.2161  1.1278
 1723SOL     OW16801   3.449   0.291   7.311 -0.1269  0.1046  0.2871
 1723SOL    HW116802   3.464   0.384   7.331  0.5543 -0.3274  1.7754
 1723SOL    HW216803   3.529   0.271   7.263 -0.8194  0.6173 -1.0946
 1724SOL     OW16804   3.558   4.652   3.836 -0.0416 -0.7451  0.2146
 1724SOL    HW116805   3.630   4.702   3.874  0.5653  0.9856 -3.1471
 1724SOL    HW216806   3.565   4.668   3.742  2.6349 -0.2897  0.4884
 1725SOL     OW16807   2.685   2.325   9.777  0.0685 -0.0061  0.0189
 1725SOL    HW116808   2.644   2.411   9.790  1.9477  0.5064  2.5327
 1725SOL    HW216809   2.777   2.347   9.765  0.3323 -1.5634 -0.8563
 1726SOL     OW16810   2.658   4.116  11.304  0.3351  0.5566 -0.5311
 1726SOL    HW116811   2.654   4.172  11.227 -2.0770 -0.6065 -1.2476
 1726SOL    HW216812   2.680   4.037  11.255 -3.5493 -1.4946  0.9643
 1727SOL     OW16813   3.124   0.968  15.727 -0.9702  0.2019 -0.2397
 1727SOL    HW116814   3.128   0.878  15.760 -0.9824 -0.1299 -1.1312
 1727SOL    HW216815   3.214   0.995  15.746 -0.5731 -0.8109 -0.6649
 1728SOL     OW16816   3.493   2.246   8.068 -0.7153 -0.0333 -0.7779
 1728SOL    HW116817   3.588   2.242   8.058 -0.7921  1.6151 -2.1622
 1728SOL    HW216818   3.467   2.155   8.061  2.2555 -1.2413  3.7548
 1729SOL     OW16819   0.739   4.236  11.652 -0.6979  0.0008  0.1117
 1729SOL    HW116820   0.667   4.277  11.603  0.8421  0.1281 -2.0398
 1729SOL    HW216821   0.809   4.244  11.588 -0.1825 -1.7123  0.4461
 1730SOL     OW16822   3.449   3.131   5.811 -0.2175 -0.2116  0.3104
 1730SOL    HW116823   3.522   3.181   5.774 -0.5718 -1.2290 -1.7594
 1730SOL    HW216824   3.401   3.202   5.855 -1.5049 -1.4051  0.8228
 1731SOL     OW16825   2.878   2.804   3.393 -0.1804 -0.8912 -0.3374
 1731SOL    HW116826   2.865   2.709   3.399 -0.2588 -1.0986 -3.6118
 1731SOL    HW216827   2.963   2.808   3.348  0.0643 -1.3770  0.0909
 1732SOL     OW16828   0.853   4.626   1.862  0.3949  0.1715  0.3146
 1732SOL    HW116829   0.907   4.656   1.789 -0.7376 -0.3425 -0.7196
 1732SOL    HW216830   0.893   4.539   1.872  1.2283  0.4523 -0.5474
 1733SOL     OW16831   0.855   2.721   3.380  0.2547  0.2455  0.4145
 1733SOL    HW116832   0.765   2.695   3.359  0.3815 -0.0421  0.2237
 1733SOL    HW216833   0.906   2.656   3.330  1.0823  0.7566  0.5967
 1734SOL     OW16834   0.197   3.371   2.199 -0.0929  0.5959 -0.4181
 1734SOL    HW116835   0.218   3.414   2.282 -2.6640  2.4679 -0.7291
 1734SOL    HW216836   0.283   3.366   2.157 -0.1398  1.6848 -0.6452
 1735SOL     OW16837   2.933   1.124  10.763  0.5871  0.2209 -0.3933
 1735SOL    HW116838   2.851   1.076  10.763  0.2545  0.7871 -0.1259
 1735SOL    HW216839   2.994   1.053  10.742 -0.0286 -0.3686 -0.1568
 1736SOL     OW16840   0.243   1.750   9.406 -0.1554  0.6098  0.2655
 1736SOL    HW116841   0.276   1.835   9.437 -0.7472 -0.0647  2.7271
 1736SOL    HW216842   0.307   1.696   9.453 -0.2976  0.5034  0.3364
 1737SOL     OW16843   0.043   0.311  13.695 -0.3078 -0.4596  0.2549
 1737SOL    HW116844   0.121   0.263  13.668 -0.3142  1.1391 -2.5832
 1737SOL    HW216845   0.066   0.401  13.671 -1.0900 -0.0912  0.9011
 1738SOL     OW16846   2.568   0.229  14.426  0.6205  0.0496 -0.2876
 1738SOL    HW116847   2.544   0.205  14.516 -0.0364 -0.5783 -0.6296
 1738SOL    HW216848   2.482   0.242  14.388 -0.0803  0.8140  1.5924
 1739SOL     OW16849   1.508   3.043   7.231 -0.1580 -0.0325  0.2580
 1739SOL    HW116850   1.575   2.992   7.277 -2.7516 -3.8956 -0.2851
 1739SOL    HW216851   1.552   3.127   7.220  1.1323 -0.5653  1.2915
 1740SOL     OW16852   1.651   4.297   8.939  0.5800  0.2465  0.4996
 1740SOL    HW116853   1.589   4.369   8.944 -1.1869 -0.9555 -3.5460
 1740SOL    HW216854   1.683   4.303   9.029  1.1646  1.9255  0.1739
 1741SOL     OW16855   3.652   4.411   3.348  0.7946 -0.7041 -0.3587
 1741SOL    HW116856   3.577   4.442   3.399  1.1807 -1.5866  0.7521
 1741SOL    HW216857   3.616   4.393   3.262  0.9276  0.4576 -0.6498
 1742SOL     OW16858   3.278   1.301   7.674  0.0351 -0.0805 -0.2552
 1742SOL    HW116859   3.337   1.263   7.739  0.5916  1.6440  0.2589
 1742SOL    HW216860   3.232   1.223   7.644 -0.4929 -0.2410  0.9969
 1743SOL     OW16861   3.234   1.162   4.734 -0.1300 -0.1637  0.2459
 1743SOL    HW116862   3.292   1.162   4.659  0.4240  0.2266  0.6706
 1743SOL    HW216863   3.305   1.155   4.797  2.2255 -1.2985 -2.5672
 1744SOL     OW16864   3.227   2.357   9.966 -0.2683 -0.1590 -0.0282
 1744SOL    HW116865   3.189   2.269   9.967  1.2091 -0.8111 -0.5340
 1744SOL    HW216866   3.322   2.349   9.966 -0.2665 -0.1470  1.1948
 1745SOL     OW16867   4.061   3.155   9.820  0.0962  0.3209  0.5506
 1745SOL    HW116868   4.047   3.248   9.835  1.7718  0.1919  2.8025
 1745SOL    HW216869   3.988   3.138   9.761 -0.1500  0.6716  0.7562
 1746SOL     OW16870   0.508   2.309  13.319  0.5555 -0.1645 -0.5651
 1746SOL    HW116871   0.577   2.266  13.267  0.6344 -1.0259  0.2697
 1746SOL    HW216872   0.431   2.261  13.289  1.3563 -0.9552 -1.3504
 1747SOL     OW16873   1.281   2.283  13.929 -0.2525  0.2399 -0.2120
 1747SOL    HW116874   1.221   2.237  13.870 -0.1950 -0.1145  0.0038
 1747SOL    HW216875   1.361   2.283  13.877 -0.0976  1.0354  0.0252
 1748SOL     OW16876   1.363   4.632   6.798  0.3035  0.5489  0.0781
 1748SOL    HW116877   1.357   4.624   6.702 -0.6924  2.7095 -0.0227
 1748SOL    HW216878   1.384   4.543   6.826  0.0376  1.1514  2.1852
 1749SOL     OW16879   2.962   2.991   5.061 -0.1819  0.0945  0.0039
 1749SOL    HW116880   3.030   3.057   5.049 -0.4120 -0.0509 -2.0628
 1749SOL    HW216881   2.890   3.046   5.031 -0.9804 -1.6409 -1.2457
 1750SOL     OW16882   0.321   0.529   6.365 -0.7116  0.2037 -0.0548
 1750SOL    HW116883   0.367   0.457   6.407 -1.1796  0.1898  0.4294
 1750SOL    HW216884   0.380   0.545   6.292 -1.3606 -3.3333 -1.3138
 1751SOL     OW16885   1.995   3.649   0.658 -0.0574 -0.5778  0.1820
 1751SOL    HW116886   1.932   3.680   0.723  1.0581  3.4404 -0.6073
 1751SOL    HW216887   2.048   3.726   0.638  0.3067 -0.7362  0.5448
 1752SOL     OW16888   4.721   1.152   2.869 -0.0794  0.0066  0.2514
 1752SOL    HW116889   0.009   1.231   2.822  2.3852 -0.1263  1.3740
 1752SOL    HW216890   4.627   1.162   2.886  0.2427  0.9839  1.4573
 1753SOL     OW16891   0.596   2.925   8.852 -0.1271 -0.0977  0.4963
 1753SOL    HW116892   0.581   2.831   8.862 -0.7569  0.0439  0.8488
 1753SOL    HW216893   0.526   2.948   8.792  1.2823  2.3392 -0.2561
 1754SOL     OW16894   2.802   1.507   1.695  0.0731 -0.4339  0.4442
 1754SOL    HW116895   2.895   1.493   1.713  0.7505  0.7486 -2.1671
 1754SOL    HW216896   2.793   1.600   1.673 -1.1616 -0.6919 -0.1850
 1755SOL     OW16897   1.599   0.632   9.086 -0.9899  0.1035  0.0448
 1755SOL    HW116898   1.640   0.696   9.143 -0.7196  1.3358 -1.5256
 1755SOL    HW216899   1.541   0.585   9.146 -1.4154  0.2029 -0.2893
 1756SOL     OW16900   4.524   2.700  15.234 -0.2118  0.2611  0.3616
 1756SOL    HW116901   4.574   2.639  15.289 -3.5365 -3.3324 -0.6578
 1756SOL    HW216902   4.588   2.763  15.203 -0.7042  2.3529  3.5567
 1757SOL     OW16903   4.110   0.274   5.172 -0.2797  0.3489  0.0996
 1757SOL    HW116904   4.124   0.349   5.115 -2.5716 -0.7883 -1.9476
 1757SOL    HW216905   4.067   0.311   5.249 -0.2961  1.9014 -0.6522
 1758SOL     OW16906   3.579   4.707   1.519  0.1484 -0.0153 -0.6008
 1758SOL    HW116907   3.603   0.031   1.588  2.1007 -1.3564 -0.0935
 1758SOL    HW216908   3.523   0.029   1.469  0.1605  0.9497  0.5241
 1759SOL     OW16909   3.050   2.957  14.945 -0.3773  0.4856  0.2092
 1759SOL    HW116910   3.082   2.920  14.863 -0.7026  1.3071 -0.2900
 1759SOL    HW216911   2.982   2.895  14.969  2.1680 -3.1468 -2.0431
 1760SOL     OW16912   0.471   1.485  11.440  0.4495  0.0149 -0.1731
 1760SOL    HW116913   0.378   1.504  11.445 -0.0291 -2.0895 -1.2878
 1760SOL    HW216914   0.508   1.570  11.464 -0.9422  0.0868  1.6331
 1761SOL     OW16915   0.762   3.324   4.571  0.3565  0.4502  0.2177
 1761SOL    HW116916   0.847   3.356   4.539  0.1689 -0.4784 -1.2100
 1761SOL    HW216917   0.785   3.245   4.619  0.0603  0.1431 -0.1501
 1762SOL     OW16918   3.484   4.119   1.789  0.6850  0.2199  0.0557
 1762SOL    HW116919   3.486   4.212   1.766 -1.1710 -0.4845 -2.9222
 1762SOL    HW216920   3.392   4.097   1.773  0.6619  0.9913 -0.8942
 1763SOL     OW16921   1.322   2.775   9.266 -0.1759  0.3502  0.1597
 1763SOL    HW116922   1.253   2.713   9.241 -0.3290  1.2366 -1.6368
 1763SOL    HW216923   1.271   2.839   9.316 -1.1297  1.5215 -2.2887
 1764SOL     OW16924   1.003   4.271   8.462  0.5224 -0.6542 -0.3664
 1764SOL    HW116925   1.094   4.287   8.486  0.4465  0.0698 -0.5474
 1764SOL    HW216926   0.972   4.282   8.552 -1.6563 -0.6056 -1.1129
 1765SOL     OW16927   3.003   3.260   4.995  0.0404  0.5122  0.4579
 1765SOL    HW116928   2.961   3.335   4.952 -2.5393 -1.5197 -0.5540
 1765SOL    HW216929   3.084   3.258   4.944 -0.3707 -0.2619 -0.1578
 1766SOL     OW16930   2.897   1.618   7.892  0.3121  0.1288 -0.0855
 1766SOL    HW116931   2.948   1.562   7.832  2.3983  1.0884  0.8110
 1766SOL    HW216932   2.820   1.617   7.835  2.2344 -1.5480 -2.7049
 1767SOL     OW16933   4.732   1.081   7.522 -0.2720 -0.4401  0.0567
 1767SOL    HW116934   4.732   1.062   7.615 -0.2184  1.6476  0.4935
 1767SOL    HW216935   0.048   1.010   7.487  0.7804  0.1670  0.4406
 1768SOL     OW16936   1.145   1.339   6.639 -0.8681 -0.5708  0.0883
 1768SOL    HW116937   1.083   1.412   6.640 -0.8611 -0.5355 -2.4540
 1768SOL    HW216938   1.087   1.268   6.610 -0.4241 -1.0471  0.3832
 1769SOL     OW16939   2.757   2.935   4.081 -0.4120 -0.1429  0.9076
 1769SOL    HW116940   2.806   2.873   4.135 -2.4828 -2.6745 -0.0794
 1769SOL    HW216941   2.741   2.882   4.003 -1.3914  0.5372  0.6506
 1770SOL     OW16942   0.467   1.617   4.768 -0.4109  0.3750  0.2494
 1770SOL    HW116943   0.421   1.534   4.781 -2.6624  1.6041  0.0551
 1770SOL    HW216944   0.409   1.687   4.797  1.2673  0.9699  2.1938
 1771SOL     OW16945   3.797   1.575   2.870 -0.3987 -0.1498 -0.2175
 1771SOL    HW116946   3.771   1.523   2.794  0.5940  2.7276 -2.5430
 1771SOL    HW216947   3.848   1.642   2.825 -1.3711  0.5763 -0.2400
 1772SOL     OW16948   1.392   0.130   3.862 -0.4616  0.1586 -0.7424
 1772SOL    HW116949   1.485   0.127   3.886 -0.5251 -1.0536 -0.6158
 1772SOL    HW216950   1.357   0.041   3.870 -1.1991  0.4584 -0.6484
 1773SOL     OW16951   3.358   2.351   9.607  0.5672 -0.0415  0.0748
 1773SOL    HW116952   3.345   2.281   9.671  2.0249  0.6255  1.1133
 1773SOL    HW216953   3.354   2.429   9.662 -0.4027 -1.4990  2.0571
 1774SOL     OW16954   0.016   1.217   4.203  0.5749 -0.0681  0.0398
 1774SOL    HW116955   0.053   1.228   4.291 -1.9889  0.9374  0.9791
 1774SOL    HW216956   4.721   1.127   4.205  1.2978 -0.3711 -1.2710
 1775SOL     OW16957   4.374   0.016  13.846  0.2670 -0.5051  0.3013
 1775SOL    HW116958   4.449   0.072  13.825 -2.3750  2.0139 -2.4199
 1775SOL    HW216959   4.408   4.667  13.823 -2.0826 -1.2340 -0.4132
 1776SOL     OW16960   0.966   2.781   5.922 -0.4136  0.0702  0.2270
 1776SOL    HW116961   0.960   2.812   6.012 -0.0957 -2.1344  1.0089
 1776SOL    HW216962   1.053   2.742   5.926 -0.9538 -0.9628  2.2588
 1777SOL     OW16963   1.668   4.228  10.609 -0.4927 -0.3791 -0.7452
 1777SOL    HW116964   1.708   4.174  10.677  0.6000  2.2870  0.6989
 1777SOL    HW216965   1.752   4.268  10.584 -1.3919  1.0629 -1.4151
 1778SOL     OW16966   0.241   4.275   8.152  0.2496 -0.1399 -0.0874
 1778SOL    HW116967   0.282   4.270   8.066 -0.1137  0.5435 -0.3074
 1778SOL    HW216968   0.217   4.367   8.166  3.3480  0.8659 -1.2283
 1779SOL     OW16969   4.718   4.375   6.390  0.0133 -0.2273 -0.1569
 1779SOL    HW116970   0.008   4.285   6.371 -0.0523 -0.2516 -0.1381
 1779SOL    HW216971   0.021   4.399   6.473  0.0805 -1.2586  0.1052
 1780SOL     OW16972   3.954   2.561   9.081  0.5896  0.4021 -0.1458
 1780SOL    HW116973   3.916   2.481   9.117 -1.1834 -0.1145 -3.1570
 1780SOL    HW216974   4.037   2.567   9.127  1.0796 -3.1316 -0.6235
 1781SOL     OW16975   3.779   4.102  12.622 -0.8513 -0.2338  0.1283
 1781SOL    HW116976   3.711   4.039  12.647  1.1129 -2.4128 -0.0335
 1781SOL    HW216977   3.858   4.049  12.633 -0.2715  1.0089  1.9211
 1782SOL     OW16978   3.372   2.149   5.291 -0.4087  0.3340 -0.0298
 1782SOL    HW116979   3.331   2.075   5.337  0.2565  0.4858  0.8110
 1782SOL    HW216980   3.458   2.115   5.268 -0.5500 -0.7295  0.9551
 1783SOL     OW16981   0.127   0.976   8.433 -0.3469  0.0199 -0.5805
 1783SOL    HW116982   0.114   0.930   8.350  0.8580  0.1789 -0.8462
 1783SOL    HW216983   0.050   0.938   8.477 -0.2309  1.9331  1.3172
 1784SOL     OW16984   0.552   3.387   8.799 -0.0890  0.2629  0.1330
 1784SOL    HW116985   0.513   3.412   8.883 -1.6541 -1.0071 -0.2182
 1784SOL    HW216986   0.646   3.403   8.812  0.1116 -2.5416  2.0710
 1785SOL     OW16987   0.945   4.056   1.969 -0.1974  0.4928  0.5551
 1785SOL    HW116988   1.004   4.105   2.026  2.2492  0.7246 -2.1541
 1785SOL    HW216989   0.877   4.033   2.032 -0.3268  2.1523  1.0172
 1786SOL     OW16990   3.180   2.617   1.384  0.0531  0.0242 -0.4763
 1786SOL    HW116991   3.092   2.653   1.393 -0.7383 -1.6177 -1.7014
 1786SOL    HW216992   3.230   2.686   1.341 -0.2052  0.7545  0.3914
 1787SOL     OW16993   1.164   2.460   6.676  0.3238  0.4484  0.2389
 1787SOL    HW116994   1.230   2.497   6.618  1.8696 -2.3376  0.2065
 1787SOL    HW216995   1.229   2.437   6.742 -0.8331 -1.2654  0.7963
 1788SOL     OW16996   3.977   2.094   9.478 -0.7674 -0.1453 -0.6384
 1788SOL    HW116997   4.046   2.120   9.539 -2.2364 -3.3689  2.4291
 1788SOL    HW216998   3.931   2.175   9.457  0.3100  1.1966  2.3137
 1789SOL     OW16999   2.983   4.049  15.631 -0.1121  0.4081 -0.3308
 1789SOL    HW117000   3.058   4.058  15.572 -0.8537  1.6756 -1.0880
 1789SOL    HW217001   2.994   3.957  15.654 -0.1063  0.9023  1.6151
 1790SOL     OW17002   4.134   4.307  13.246 -0.3132 -0.5511  0.2672
 1790SOL    HW117003   4.182   4.370  13.299 -1.0442 -1.7472  2.3415
 1790SOL    HW217004   4.141   4.342  13.157  0.9463 -0.6788  0.3187
 1791SOL     OW17005   1.785   1.533   3.154  0.1465  0.0029 -0.0249
 1791SOL    HW117006   1.863   1.584   3.175  0.7349 -0.6261 -0.6763
 1791SOL    HW217007   1.833   1.450   3.152  1.2280  0.6287 -0.2935
 1792SOL     OW17008   1.966   2.258   8.239  0.7149  0.0903  0.1183
 1792SOL    HW117009   2.013   2.195   8.185  0.9567 -0.0117  0.4444
 1792SOL    HW217010   1.957   2.321   8.167 -1.7433 -1.5962 -1.0045
 1793SOL     OW17011   0.018   4.478   1.568 -0.3259 -0.0493 -0.4537
 1793SOL    HW117012   4.705   4.406   1.605  1.4397 -0.4778  1.1288
 1793SOL    HW217013   0.019   4.544   1.638 -1.2543 -1.6197  1.0454
 1794SOL     OW17014   1.513   0.831  16.800  0.5105  0.0355 -0.2555
 1794SOL    HW117015   1.451   0.784  16.856 -1.1684  2.0651 -0.4171
 1794SOL    HW217016   1.594   0.793  16.832 -0.2579  0.4836  2.2320
 1795SOL     OW17017   0.450   1.946  12.389  0.4761 -0.3760 -0.2156
 1795SOL    HW117018   0.469   1.927  12.481  0.1749 -0.4426 -0.1672
 1795SOL    HW217019   0.399   2.025  12.405 -1.1194 -1.4735  0.1621
 1796SOL     OW17020   3.096   0.572   8.121 -0.3605  0.1949  0.1056
 1796SOL    HW117021   3.081   0.634   8.192  0.6654  0.9994 -0.3906
 1796SOL    HW217022   3.041   0.500   8.153  0.7892  0.6756  3.0858
 1797SOL     OW17023   3.241   4.338   8.186  0.1142 -0.5412  0.1068
 1797SOL    HW117024   3.314   4.315   8.243  2.1145 -0.0639 -2.2932
 1797SOL    HW217025   3.251   4.433   8.183  0.5304 -0.4866  3.7468
 1798SOL     OW17026   3.861   3.712   5.318 -0.6676 -0.0100 -0.2004
 1798SOL    HW117027   3.939   3.765   5.338 -0.5802  0.1416 -0.9402
 1798SOL    HW217028   3.826   3.705   5.407 -0.2952  0.2559 -0.0328
 1799SOL     OW17029   1.376   3.004   9.810 -0.0019  0.4461 -0.2513
 1799SOL    HW117030   1.402   3.028   9.721 -0.9445 -0.2755 -0.7238
 1799SOL    HW217031   1.460   2.983   9.851 -0.7452  0.5359  1.2986
 1800SOL     OW17032   1.396   2.328  13.533  0.2411 -0.6398  0.3614
 1800SOL    HW117033   1.321   2.351  13.588 -0.0811  2.3265 -1.2862
 1800SOL    HW217034   1.386   2.391  13.462  0.0128  0.2623  1.1901
 1801SOL     OW17035   2.888   0.094   3.118  0.0147 -0.3025 -0.2291
 1801SOL    HW117036   2.883   0.037   3.195  0.7127  1.8787  1.4447
 1801SOL    HW217037   2.855   0.021   3.065 -1.2232 -0.5452  0.8638
 1802SOL     OW17038   4.625   4.219  16.924 -0.2926  0.5302  0.3874
 1802SOL    HW117039   4.579   4.196  16.843 -0.2078 -1.2270  0.8499
 1802SOL    HW217040   4.568   4.293  16.946  0.5437  1.5673 -0.9117
 1803SOL     OW17041   0.944   3.530  13.513 -0.3273  0.3521  0.0878
 1803SOL    HW117042   0.966   3.611  13.559 -1.4920 -0.3731  1.9232
 1803SOL    HW217043   0.921   3.564  13.427  4.6897  1.5887 -0.7789
 1804SOL     OW17044   1.593   0.982   8.138  0.3979  0.3364  0.3509
 1804SOL    HW117045   1.558   1.045   8.201 -0.6427 -0.2755  0.3915
 1804SOL    HW217046   1.542   0.999   8.059  0.6428 -3.3372 -0.5999
 1805SOL     OW17047   1.107   2.244   3.128  0.1683  0.7087 -0.5371
 1805SOL    HW117048   1.085   2.200   3.046  1.4990 -0.3618 -0.3213
 1805SOL    HW217049   1.174   2.307   3.103  0.2476  1.8790  2.6030
 1806SOL     OW17050   3.808   4.637   9.234 -0.0210  0.7307  0.4529
 1806SOL    HW117051   3.717   4.661   9.252  0.7949  2.4319  2.2451
 1806SOL    HW217052   3.823   4.555   9.280  0.4657 -0.0714 -1.1302
 1807SOL     OW17053   0.863   2.357   9.236  0.7757 -0.1458  0.4153
 1807SOL    HW117054   0.949   2.394   9.216 -0.0587  0.8149 -1.4012
 1807SOL    HW217055   0.853   2.316   9.150  0.3726 -0.1209  0.4484
 1808SOL     OW17056   4.323   2.746  15.835 -0.5320 -0.0915 -0.3759
 1808SOL    HW117057   4.308   2.819  15.776  1.4421  0.2549 -0.4756
 1808SOL    HW217058   4.387   2.787  15.894  1.3567 -1.3453 -1.5526
 1809SOL     OW17059   1.846   0.510   5.142 -0.5975  0.1771  0.1111
 1809SOL    HW117060   1.862   0.423   5.104  1.7594  0.9553 -0.6635
 1809SOL    HW217061   1.815   0.558   5.065  1.8346 -1.6939 -2.0750
 1810SOL     OW17062   0.929   2.529   1.270 -0.7724  0.3916 -0.1524
 1810SOL    HW117063   0.857   2.467   1.272 -0.6788  0.3246  0.9841
 1810SOL    HW217064   0.900   2.586   1.199 -0.9539 -1.2014 -1.3526
 1811SOL     OW17065   2.228   1.697   2.732  0.0467 -0.6079 -0.3600
 1811SOL    HW117066   2.141   1.679   2.695  0.3088  0.5572 -1.5608
 1811SOL    HW217067   2.253   1.778   2.687  1.5873 -0.2527  1.1881
 1812SOL     OW17068   1.858   1.821   3.473  0.1373 -0.2733  0.4244
 1812SOL    HW117069   1.911   1.835   3.395 -0.8459 -0.7965 -0.3441
 1812SOL    HW217070   1.899   1.879   3.537  1.8614 -1.9234  0.8085
 1813SOL     OW17071   3.508   2.101   5.543  0.4121 -0.2131 -0.8489
 1813SOL    HW117072   3.463   2.185   5.556  1.1395  0.2339 -1.1656
 1813SOL    HW217073   3.433   2.043   5.532 -0.3690  0.5416  0.5127
 1814SOL     OW17074   2.127   3.736   6.686 -0.2220 -0.4136  0.1933
 1814SOL    HW117075   2.157   3.646   6.674  1.9068  0.2495  0.5496
 1814SOL    HW217076   2.119   3.748   6.780  1.8562 -1.7223  0.5387
 1815SOL     OW17077   0.008   0.628   3.965 -0.3248 -0.0664  0.6376
 1815SOL    HW117078   0.046   0.690   4.027  1.9700 -0.6308 -0.2037
 1815SOL    HW217079   0.066   0.638   3.889  0.4583  0.3308  1.2823
 1816SOL     OW17080   0.738   1.897   9.257 -0.1156 -0.2468 -0.0298
 1816SOL    HW117081   0.828   1.888   9.226 -0.4851 -2.7962 -0.3996
 1816SOL    HW217082   0.738   1.946   9.339  0.3123 -0.1109 -0.1133
 1817SOL     OW17083   1.226   0.683   1.910 -0.5764 -0.0967  0.8505
 1817SOL    HW117084   1.145   0.678   1.960  0.4288  0.6468  2.5347
 1817SOL    HW217085   1.206   0.605   1.857 -0.6135  0.2550  0.3493
 1818SOL     OW17086   1.748   0.982  14.248 -0.1183  0.2913  0.4821
 1818SOL    HW117087   1.681   0.953  14.186  1.4328 -0.2968 -0.9157
 1818SOL    HW217088   1.750   0.908  14.308  1.4299  0.3961  0.5708
 1819SOL     OW17089   3.059   4.233   5.792  0.4567  0.1993 -1.0300
 1819SOL    HW117090   3.134   4.202   5.842  0.1581  0.3904 -0.4670
 1819SOL    HW217091   3.073   4.324   5.818  2.1515  0.0383 -1.3628
 1820SOL     OW17092   2.110   3.944  12.680 -0.2078  0.1004  0.0186
 1820SOL    HW117093   2.097   4.016  12.618 -2.3735 -0.2120  0.1081
 1820SOL    HW217094   2.097   3.870  12.621  0.7126 -0.5688  0.6559
 1821SOL     OW17095   0.898   3.609   2.644  0.4781  0.2497 -0.1818
 1821SOL    HW117096   0.914   3.694   2.604 -0.0279  1.1618  1.5349
 1821SOL    HW217097   0.977   3.556   2.644  0.4753  0.2430  0.7546
 1822SOL     OW17098   4.084   1.282   9.343 -0.1622  0.3862 -0.1912
 1822SOL    HW117099   4.103   1.290   9.249 -0.2670 -1.5957 -0.3806
 1822SOL    HW217100   4.040   1.363   9.367 -0.7804 -0.5826  2.0082
 1823SOL     OW17101   0.544   4.446   9.580  0.0896  0.0982  0.4692
 1823SOL    HW117102   0.610   4.434   9.648 -0.4525 -0.5422  0.8860
 1823SOL    HW217103   0.520   4.538   9.593 -0.2513  0.0693  0.0250
 1824SOL     OW17104   1.586   3.319   7.166  0.1037  0.6826  0.0070
 1824SOL    HW117105   1.579   3.414   7.152  2.6400  0.6180 -1.8918
 1824SOL    HW217106   1.503   3.288   7.132  1.3920 -2.3410 -0.3386
 1825SOL     OW17107   2.825   0.269   7.801  0.3551  0.4753  0.2201
 1825SOL    HW117108   2.794   0.186   7.837  1.5838 -0.0143  0.1275
 1825SOL    HW217109   2.803   0.254   7.709  1.6575  0.3711 -0.0780
 1826SOL     OW17110   0.904   3.598   8.329  0.6509 -0.0197 -0.1282
 1826SOL    HW117111   0.975   3.557   8.278 -0.3550 -1.0705 -0.7059
 1826SOL    HW217112   0.959   3.626   8.402  1.5064 -0.8447 -0.4535
 1827SOL     OW17113   4.284   0.982   8.024  0.0503 -0.4575  0.5896
 1827SOL    HW117114   4.380   0.977   8.023  0.1677  1.7902  0.0116
 1827SOL    HW217115   4.267   0.931   7.945  0.7989  1.0741 -0.5608
 1828SOL     OW17116   4.513   3.249   5.104 -0.4687 -0.0247  0.0148
 1828SOL    HW117117   4.513   3.296   5.188  2.5316 -0.1816  0.0999
 1828SOL    HW217118   4.543   3.161   5.129  2.9419  0.6495 -1.7601
 1829SOL     OW17119   3.029   4.099  17.392  0.3779 -0.2483 -0.4736
 1829SOL    HW117120   3.108   4.102  17.339 -0.6919  1.0807 -2.0254
 1829SOL    HW217121   3.036   4.019  17.445 -0.1588  0.3466  0.5058
 1830SOL     OW17122   0.622   4.419  11.455  0.5879 -0.2373  0.3000
 1830SOL    HW117123   0.537   4.418  11.412  1.0955 -0.7820 -0.6714
 1830SOL    HW217124   0.620   4.509  11.488  0.1129 -0.1959  0.1627
 1831SOL     OW17125   0.552   0.937   2.727  0.0185  1.1483  0.1371
 1831SOL    HW117126   0.625   0.984   2.687  0.2793  2.4695  2.1287
 1831SOL    HW217127   0.491   1.009   2.743 -0.4284  0.5165  1.3328
 1832SOL     OW17128   3.725   0.856   6.278 -0.3459  0.2436 -0.1538
 1832SOL    HW117129   3.676   0.775   6.291 -0.8473  0.2118 -2.1779
 1832SOL    HW217130   3.691   0.908   6.351  1.3391  0.0054  0.7971
 1833SOL     OW17131   4.100   0.387   6.249  0.3809  0.1167 -0.0268
 1833SOL    HW117132   4.162   0.439   6.198  0.9653  0.6968  1.2773
 1833SOL    HW217133   4.020   0.438   6.237  0.5091 -0.3597 -2.7450
 1834SOL     OW17134   4.487   0.086   8.173 -0.2463 -0.6092 -0.0389
 1834SOL    HW117135   4.555   0.018   8.182  0.5694  0.1191 -0.7736
 1834SOL    HW217136   4.475   0.128   8.258  1.0952  1.5702 -0.9243
 1835SOL     OW17137   3.953   0.725  10.734 -0.4723 -0.4166 -0.2842
 1835SOL    HW117138   3.923   0.796  10.790 -1.5528 -1.4533  0.4384
 1835SOL    HW217139   3.957   0.768  10.648 -0.5434  0.0160 -0.0731
 1836SOL     OW17140   1.651   2.968   6.786 -0.3975  0.0479  0.0880
 1836SOL    HW117141   1.700   2.886   6.790 -0.2099  0.2605  2.5816
 1836SOL    HW217142   1.626   2.979   6.695  1.0774  1.6336 -0.1321
 1837SOL     OW17143   1.592   3.945   6.593 -0.5495 -0.1431  0.2973
 1837SOL    HW117144   1.629   4.020   6.546  0.2797 -0.2212  0.8128
 1837SOL    HW217145   1.670   3.913   6.638 -0.4377  2.1740  1.7892
 1838SOL     OW17146   1.968   2.285   5.398 -0.5766 -0.3812  0.2810
 1838SOL    HW117147   2.047   2.238   5.374  0.9335  1.3283  1.9180
 1838SOL    HW217148   1.966   2.356   5.334 -0.0475  1.9404  2.8155
 1839SOL     OW17149   1.185   1.477   3.758 -0.0438 -0.3027  1.0055
 1839SOL    HW117150   1.147   1.391   3.772 -1.0772  0.1394  0.8842
 1839SOL    HW217151   1.229   1.500   3.840 -1.8875  0.1117  1.8635
 1840SOL     OW17152   1.696   3.279  11.082  0.1695 -0.5040  0.1339
 1840SOL    HW117153   1.783   3.253  11.114  1.0119  0.8813 -1.0319
 1840SOL    HW217154   1.711   3.368  11.049 -1.1799  0.0224  0.9502
 1841SOL     OW17155   4.469   1.365   5.550 -0.3010 -0.1884  0.2201
 1841SOL    HW117156   4.424   1.287   5.516 -1.7414  0.7280  0.0557
 1841SOL    HW217157   4.445   1.360   5.643  1.4512 -3.3832  0.5121
 1842SOL     OW17158   3.910   2.014   3.104 -0.6364 -0.5104  0.8442
 1842SOL    HW117159   3.983   2.063   3.141 -0.8117 -0.3295  0.9501
 1842SOL    HW217160   3.968   1.941   3.082 -0.2588  0.3644 -1.0692
 1843SOL     OW17161   1.145   3.843   4.014 -0.2129 -0.1437  0.2760
 1843SOL    HW117162   1.139   3.884   3.927  0.6667 -1.0994 -0.2356
 1843SOL    HW217163   1.222   3.788   4.005 -0.9967 -1.5335  2.1788
 1844SOL     OW17164   0.339   3.831   2.163 -0.0355  0.4858  0.0014
 1844SOL    HW117165   0.302   3.895   2.102  2.0883  0.1183 -1.6500
 1844SOL    HW217166   0.269   3.839   2.228  0.1901 -1.7912  0.5266
 1845SOL     OW17167   3.919   0.654   4.988 -0.4183  0.2549 -0.4445
 1845SOL    HW117168   3.832   0.688   4.968 -0.2018  1.7847  1.1740
 1845SOL    HW217169   3.969   0.682   4.911 -0.8919  0.3813 -0.7061
 1846SOL     OW17170   3.772   3.013   3.292 -0.1650  0.4169  0.1745
 1846SOL    HW117171   3.790   3.047   3.204  1.6004  1.0328  0.7707
 1846SOL    HW217172   3.704   3.070   3.328 -0.1435  0.6307 -0.1254
 1847SOL     OW17173   0.910   4.174   1.548 -0.1322  0.1007 -0.3125
 1847SOL    HW117174   0.888   4.230   1.623 -1.4073 -0.6672 -0.1046
 1847SOL    HW217175   1.005   4.168   1.550 -0.2732 -1.8393  0.4882
 1848SOL     OW17176   4.250   4.705  13.017  0.2885  0.2608  0.0484
 1848SOL    HW117177   4.171   0.015  12.990 -0.3297 -0.3876  0.6978
 1848SOL    HW217178   4.270   4.669  12.930 -0.8233 -0.4467  0.0864
 1849SOL     OW17179   2.653   4.446   3.302 -0.5466 -0.2359 -0.4992
 1849SOL    HW117180   2.663   4.351   3.297 -0.0730 -0.1749 -0.7105
 1849SOL    HW217181   2.699   4.486   3.229 -0.3644 -0.8826 -0.7358
 1850SOL     OW17182   4.376   4.586   1.672  0.1787  0.3508 -0.1755
 1850SOL    HW117183   4.365   4.588   1.767  0.5139 -2.7263 -0.0865
 1850SOL    HW217184   4.428   4.507   1.656 -0.1019  0.7368 -2.9877
 1851SOL     OW17185   1.654   3.448   4.650  0.1869  0.0333  0.2339
 1851SOL    HW117186   1.661   3.486   4.562 -1.4719 -0.6520 -0.2080
 1851SOL    HW217187   1.696   3.509   4.710 -1.4598 -0.0794  1.4943
 1852SOL     OW17188   4.344   0.359   5.477  0.0686 -0.9846 -0.1498
 1852SOL    HW117189   4.383   0.279   5.513  0.7356 -2.1770 -3.5412
 1852SOL    HW217190   4.258   0.344   5.516 -0.3015 -0.2421 -0.6784
 1853SOL     OW17191   0.360   1.993   7.687  0.2101 -0.0266 -0.6012
 1853SOL    HW117192   0.333   1.908   7.722 -1.0136  1.4425  2.0359
 1853SOL    HW217193   0.331   1.988   7.596 -1.1966 -1.4888 -0.0893
 1854SOL     OW17194   4.550   3.660  14.936 -0.2416  0.6292  0.1792
 1854SOL    HW117195   4.507   3.615  14.864 -4.3332  2.2687  1.6222
 1854SOL    HW217196   4.643   3.645  14.916 -0.7756 -0.4491 -1.4410
 1855SOL     OW17197   3.166   2.632   6.021  0.0636  0.1102 -0.1530
 1855SOL    HW117198   3.161   2.543   5.987  0.2599  0.5155 -1.2496
 1855SOL    HW217199   3.255   2.648   6.052 -0.5586  1.8933  0.6954
 1856SOL     OW17200   2.710   1.213   1.811 -0.0711 -0.0706  0.4357
 1856SOL    HW117201   2.681   1.300   1.784 -1.0601 -1.1726 -2.0490
 1856SOL    HW217202   2.804   1.230   1.812  0.5984 -4.0052  1.6316
 1857SOL     OW17203   1.857   0.397   5.492  0.1881  0.3394 -0.1428
 1857SOL    HW117204   1.818   0.408   5.579 -0.4761  1.7783 -0.6155
 1857SOL    HW217205   1.845   0.483   5.451 -0.4486  0.4828  0.3453
 1858SOL     OW17206   3.363   0.368   2.201  0.7020 -0.2432  0.4247
 1858SOL    HW117207   3.451   0.401   2.216  0.7673 -0.5837  0.7988
 1858SOL    HW217208   3.353   0.312   2.278  1.4798  1.9170  2.0987
 1859SOL     OW17209   3.434   1.159  14.838  0.3347  0.2739 -0.2363
 1859SOL    HW117210   3.470   1.148  14.926  0.8702  1.5381 -0.2993
 1859SOL    HW217211   3.470   1.241  14.804 -1.7319  2.4180  2.7760
 1860SOL     OW17212   2.966   3.563  14.291  0.0993 -0.0550 -0.1836
 1860SOL    HW117213   3.013   3.495  14.339  0.7968  1.2706  1.0181
 1860SOL    HW217214   3.037   3.617  14.256 -0.4493  0.3804 -0.6252
 1861SOL     OW17215   3.023   2.184   6.296  0.3299 -0.0108  0.3518
 1861SOL    HW117216   3.059   2.270   6.318  1.4374 -0.4870  0.3886
 1861SOL    HW217217   3.095   2.123   6.307  1.2975  0.9667 -0.5672
 1862SOL     OW17218   0.881   3.541  12.066 -0.0174  0.1096  0.2370
 1862SOL    HW117219   0.942   3.589  12.010 -1.8744  0.7949 -1.1821
 1862SOL    HW217220   0.942   3.476  12.101 -2.4315 -1.4597  1.5142
 1863SOL     OW17221   0.873   4.557   8.559 -0.2616 -0.3688  0.2747
 1863SOL    HW117222   0.810   4.502   8.512  0.5982  0.1692 -1.4650
 1863SOL    HW217223   0.858   4.641   8.517  0.6741  0.6469  1.9835
 1864SOL     OW17224   3.554   1.662   5.355  0.4549 -0.2818  0.1131
 1864SOL    HW117225   3.620   1.625   5.297 -0.7307 -1.5347 -0.4284
 1864SOL    HW217226   3.587   1.635   5.441 -0.1312 -0.0038  0.4241
 1865SOL     OW17227   1.061   1.074   4.491  0.3962  0.0879 -0.0425
 1865SOL    HW117228   1.046   0.979   4.488  1.0220  0.0012 -0.4096
 1865SOL    HW217229   1.155   1.064   4.501  0.3672  0.2352  0.3693
 1866SOL     OW17230   3.921   1.669   7.865  0.5881 -0.2519  0.1319
 1866SOL    HW117231   3.961   1.672   7.779  1.2814  2.3875  0.5472
 1866SOL    HW217232   3.914   1.574   7.878  3.1323 -0.6969 -1.8310
 1867SOL     OW17233   2.902   4.160   4.050  0.2504  0.0222 -0.2679
 1867SOL    HW117234   2.843   4.144   4.125 -0.4428  0.0921 -0.7965
 1867SOL    HW217235   2.868   4.096   3.988 -1.8779 -0.8736  1.7976
 1868SOL     OW17236   4.298   2.499   8.106  0.3481  1.0059  0.5556
 1868SOL    HW117237   4.284   2.404   8.109  0.1484  1.0050 -0.5411
 1868SOL    HW217238   4.212   2.538   8.095 -0.0540  0.4192  1.6402
 1869SOL     OW17239   3.345   4.650   6.421 -0.0918 -0.1085  0.0077
 1869SOL    HW117240   3.403   4.726   6.424 -0.1102 -0.1530  1.3131
 1869SOL    HW217241   3.319   4.636   6.512  3.7343 -1.6482  0.8594
 1870SOL     OW17242   3.916   3.592   7.868  0.0107 -0.1419  0.0750
 1870SOL    HW117243   3.955   3.504   7.868 -0.1925 -0.2480 -1.8263
 1870SOL    HW217244   3.833   3.573   7.824  0.2778 -0.3727 -0.3406
 1871SOL     OW17245   1.609   0.536   2.257 -0.1338 -0.4615  0.0980
 1871SOL    HW117246   1.694   0.493   2.261 -0.9593 -2.0951  0.0334
 1871SOL    HW217247   1.587   0.527   2.165 -0.4044 -3.1125  0.4374
 1872SOL     OW17248   4.642   0.956   4.206 -0.2671 -0.4760 -0.2220
 1872SOL    HW117249   4.622   0.947   4.299 -0.0556 -1.1410 -0.2407
 1872SOL    HW217250   4.571   0.903   4.171  0.3478 -0.3395 -1.6681
 1873SOL     OW17251   0.094   2.031   1.949 -0.2915  0.3877  0.7619
 1873SOL    HW117252   0.065   2.087   2.020 -1.0948 -0.1360  0.8518
 1873SOL    HW217253   0.189   2.038   1.953 -0.1395 -1.6589  0.9358
 1874SOL     OW17254   3.555   2.824  11.216  0.3782 -0.6194 -0.4232
 1874SOL    HW117255   3.573   2.894  11.154 -0.4665  0.0441  0.0843
 1874SOL    HW217256   3.649   2.813  11.234  0.3277  0.3739  0.4117
 1875SOL     OW17257   2.001   1.851   9.075 -0.4459 -0.4992 -0.0508
 1875SOL    HW117258   1.959   1.929   9.039  0.4440 -0.4124 -0.8733
 1875SOL    HW217259   2.067   1.832   9.009 -1.3208 -0.0413 -1.0666
 1876SOL     OW17260   0.083   2.744   9.055 -0.0779 -0.1042  0.1843
 1876SOL    HW117261   0.039   2.662   9.031  0.4705 -0.7043  1.2645
 1876SOL    HW217262   0.083   2.746   9.150 -1.3693  0.5317  0.1676
 1877SOL     OW17263   3.035   4.084   8.805 -0.0128  0.2095 -0.3330
 1877SOL    HW117264   3.060   4.169   8.841 -0.0091  0.3885 -0.7497
 1877SOL    HW217265   2.983   4.121   8.733 -0.3934 -0.1145 -0.2278
 1878SOL     OW17266   4.646   0.810  12.292  0.1348 -0.2885 -0.2321
 1878SOL    HW117267   4.669   0.727  12.334  0.8672  2.1830  4.2530
 1878SOL    HW217268   4.578   0.846  12.349 -1.5626 -4.0948  0.1588
 1879SOL     OW17269   2.042   4.658   2.739 -0.0172  0.4396 -0.5272
 1879SOL    HW117270   2.001   4.647   2.825 -1.9475  1.4504 -1.3205
 1879SOL    HW217271   2.127   4.621   2.761  0.0259  1.5746  1.1689
 1880SOL     OW17272   0.447   3.841   1.419 -0.3477 -0.1237  0.0642
 1880SOL    HW117273   0.498   3.828   1.498 -1.2919  1.5936  0.9703
 1880SOL    HW217274   0.519   3.857   1.358 -0.0196 -0.5234  0.3542
 1881SOL     OW17275   0.076   2.970   4.823  0.2287 -0.0236 -0.1130
 1881SOL    HW117276   0.104   2.909   4.891  1.5198  1.0537  0.3051
 1881SOL    HW217277   0.057   3.042   4.883  0.5597  2.6594 -3.2638
 1882SOL     OW17278   0.452   1.866   8.933 -0.9608 -0.0626  0.2928
 1882SOL    HW117279   0.419   1.906   9.014 -0.0302  1.0995  0.1032
 1882SOL    HW217280   0.493   1.788   8.969 -0.7400 -0.1284 -0.1090
 1883SOL     OW17281   0.948   0.695   8.164  0.5045 -0.4126  0.4420
 1883SOL    HW117282   1.015   0.722   8.227  0.2229  0.4886  0.3613
 1883SOL    HW217283   0.967   0.752   8.089  3.0695 -0.8256  0.7733
 1884SOL     OW17284   4.193   1.456   8.205 -0.1076 -0.0429  0.2858
 1884SOL    HW117285   4.223   1.514   8.275  1.6896 -0.2573 -0.2896
 1884SOL    HW217286   4.099   1.441   8.216 -0.1642  0.3982  0.3921
 1885SOL     OW17287   2.335   3.684   4.651 -0.5849 -0.3411 -0.4522
 1885SOL    HW117288   2.307   3.776   4.645 -1.5249 -0.8005 -2.8323
 1885SOL    HW217289   2.256   3.638   4.676 -0.2834 -1.1079 -0.9305
 1886SOL     OW17290   3.347   1.577   6.930 -0.5781 -0.2495  0.0719
 1886SOL    HW117291   3.294   1.651   6.902  0.3855  0.5060  0.2626
 1886SOL    HW217292   3.413   1.623   6.981  0.8482 -0.8446 -1.2374
 1887SOL     OW17293   1.640   4.358   4.132 -0.2801 -1.1259  0.8195
 1887SOL    HW117294   1.647   4.437   4.186 -1.7350  1.1805 -2.3519
 1887SOL    HW217295   1.732   4.343   4.111 -0.2766  0.6584 -0.4736
 1888SOL     OW17296   2.999   4.133   5.547  0.1101  0.2419 -0.2314
 1888SOL    HW117297   3.018   4.180   5.628  1.5273 -0.4404 -0.1493
 1888SOL    HW217298   2.920   4.172   5.511  0.0803  0.2072 -0.2034
 1889SOL     OW17299   3.986   2.306   8.029 -0.1279 -1.0498  0.3994
 1889SOL    HW117300   3.901   2.279   8.065 -0.3886 -0.6900  0.0578
 1889SOL    HW217301   3.975   2.372   7.960 -0.1102 -3.3391 -1.7781
 1890SOL     OW17302   3.062   4.701   6.386 -0.3231 -0.3320 -0.1827
 1890SOL    HW117303   3.059   4.646   6.464  1.5181  0.2675  0.3051
 1890SOL    HW217304   3.156   4.695   6.368  0.0384 -0.8262  1.8794
 1891SOL     OW17305   3.443   3.227   7.431 -0.4225  0.0075 -0.0521
 1891SOL    HW117306   3.464   3.267   7.347  0.0146  1.6121  0.8097
 1891SOL    HW217307   3.494   3.146   7.431 -0.8999 -0.2896  1.9498
 1892SOL     OW17308   2.622   1.636   6.025 -0.0697  0.1135  0.0492
 1892SOL    HW117309   2.603   1.567   6.089  0.4933  1.2123  1.4173
 1892SOL    HW217310   2.634   1.713   6.080 -0.6779  2.0174 -2.4711
 1893SOL     OW17311   3.017   2.766  12.610 -0.0599  0.3673 -0.3421
 1893SOL    HW117312   3.092   2.729  12.563  0.3965  1.6595 -0.6117
 1893SOL    HW217313   3.056   2.756  12.697 -0.2721 -1.1385 -0.4202
 1894SOL     OW17314   1.213   2.103   2.401 -0.3009 -0.0756  0.3403
 1894SOL    HW117315   1.231   2.017   2.364  0.5355  0.1837  0.1409
 1894SOL    HW217316   1.180   2.143   2.320 -0.0205 -1.8928 -0.6697
 1895SOL     OW17317   0.590   3.584  11.639 -0.6525 -0.4339 -0.1315
 1895SOL    HW117318   0.663   3.624  11.686  0.7035 -1.7170 -1.1514
 1895SOL    HW217319   0.566   3.538  11.719  0.4659  3.1102  2.2175
 1896SOL     OW17320   2.289   4.298  17.464 -0.4904  0.1931 -0.9675
 1896SOL    HW117321   2.332   4.303  17.379  1.5187 -0.4222  0.0234
 1896SOL    HW217322   2.220   4.234  17.443  0.1530 -0.5113 -0.9208
 1897SOL     OW17323   3.484   0.910   7.176 -0.8209  0.1278  0.3439
 1897SOL    HW117324   3.396   0.905   7.139  0.2087 -3.4895 -1.7005
 1897SOL    HW217325   3.533   0.934   7.097 -1.0530  0.7595  0.3936
 1898SOL     OW17326   2.848   0.484   7.330  0.3316 -0.1012  0.3006
 1898SOL    HW117327   2.853   0.487   7.425 -0.2544 -0.2154  0.3374
 1898SOL    HW217328   2.753   0.489   7.318  0.5658 -0.5604 -1.7129
 1899SOL     OW17329   2.914   1.545   4.538 -0.6153  0.0747  0.4011
 1899SOL    HW117330   2.953   1.487   4.473 -0.8448  1.7003 -1.1992
 1899SOL    HW217331   2.986   1.527   4.599  0.0769 -3.3027 -1.4424
 1900SOL     OW17332   4.700   0.433   2.345  0.7615  0.5235  0.0079
 1900SOL    HW117333   4.696   0.503   2.410  0.6240 -0.1608  0.7306
 1900SOL    HW217334   4.709   0.357   2.402  3.0831  0.9776  0.2446
 1901SOL     OW17335   3.469   4.441   7.906  0.3497  0.0253  0.5419
 1901SOL    HW117336   3.563   4.441   7.886  0.7824  0.5657  2.5817
 1901SOL    HW217337   3.482   4.446   8.001  2.1736  1.1537  0.2355
 1902SOL     OW17338   4.164   0.883   5.087  0.0334  0.2318 -0.6254
 1902SOL    HW117339   4.128   0.932   5.161 -2.1945 -0.7145 -1.0760
 1902SOL    HW217340   4.107   0.914   5.017  0.2135  2.1162  0.0745
 1903SOL     OW17341   0.300   2.045   3.436  0.5129 -0.1504  0.0318
 1903SOL    HW117342   0.277   1.977   3.372  0.2141 -1.0204  1.0738
 1903SOL    HW217343   0.393   2.025   3.448  0.9056  0.2980 -2.2378
 1904SOL     OW17344   2.033   3.884   4.091 -0.3108 -0.2745  0.1745
 1904SOL    HW117345   2.125   3.898   4.070 -0.3144  0.0115  0.3512
 1904SOL    HW217346   2.011   3.843   4.007  1.0644 -0.6869  0.0192
 1905SOL     OW17347   4.295   1.405  16.752  0.1948 -0.0854 -1.2346
 1905SOL    HW117348   4.361   1.343  16.721 -0.1923  0.4261 -3.0743
 1905SOL    HW217349   4.252   1.356  16.823  0.5627 -0.4310 -1.2509
 1906SOL     OW17350   2.899   2.650   2.599  0.4006  0.6298 -0.1736
 1906SOL    HW117351   2.954   2.572   2.611 -1.1360 -0.7079 -1.7610
 1906SOL    HW217352   2.868   2.657   2.689 -0.9754 -1.4027 -0.4726
 1907SOL     OW17353   3.963   2.167  15.352 -0.4519  0.5336 -0.6786
 1907SOL    HW117354   4.037   2.167  15.291  0.3041 -0.0656  0.2339
 1907SOL    HW217355   4.011   2.146  15.432 -0.0835  0.1097 -1.0101
 1908SOL     OW17356   3.085   1.282  15.656 -0.1879  0.3317 -0.3918
 1908SOL    HW117357   3.121   1.197  15.680 -0.2653  0.3659 -0.1510
 1908SOL    HW217358   3.141   1.311  15.584  1.8320 -0.1489  0.9734
 1909SOL     OW17359   3.130   1.229   1.274 -0.4279  0.1344 -0.4250
 1909SOL    HW117360   3.078   1.166   1.324 -1.0380  1.4111  0.5334
 1909SOL    HW217361   3.078   1.307   1.291 -2.9815 -1.7430  0.2535
 1910SOL     OW17362   1.732   4.133  12.992 -0.0665  0.0373 -0.2117
 1910SOL    HW117363   1.776   4.215  12.972 -1.9581  1.3083  0.7778
 1910SOL    HW217364   1.794   4.068  12.959  0.8605  0.3438  0.9250
 1911SOL     OW17365   4.197   4.705   4.580 -0.5683 -0.2182  0.0272
 1911SOL    HW117366   4.197   4.697   4.485 -0.3383  1.0249 -0.0778
 1911SOL    HW217367   4.171   0.060   4.582 -2.7063 -0.8508  1.7391
 1912SOL     OW17368   2.915   3.705   3.414  0.2606 -0.2595  0.0094
 1912SOL    HW117369   2.853   3.682   3.483  0.7290 -0.2922  0.4206
 1912SOL    HW217370   2.989   3.741   3.464  0.5014  1.5671 -1.6558
 1913SOL     OW17371   1.776   3.466   6.923  0.3394  0.6834  0.0052
 1913SOL    HW117372   1.854   3.484   6.871 -0.0586 -2.0334 -1.5336
 1913SOL    HW217373   1.798   3.377   6.950  1.8504  1.0472  0.0160
 1914SOL     OW17374   1.154   3.604   7.606 -0.7452 -0.2228 -0.0874
 1914SOL    HW117375   1.148   3.560   7.691 -0.7423  0.9818  0.5397
 1914SOL    HW217376   1.098   3.546   7.554 -1.1113 -0.0317  0.0898
 1915SOL     OW17377   0.585   4.179   5.843 -0.1438  0.5590 -0.2082
 1915SOL    HW117378   0.536   4.121   5.901 -4.8404  1.0173 -3.7039
 1915SOL    HW217379   0.540   4.260   5.867 -0.8318  0.1644 -0.1623
 1916SOL     OW17380   0.367   4.286  11.297 -0.0555  0.2098  0.0218
 1916SOL    HW117381   0.274   4.280  11.278  0.0655  2.1266 -1.1587
 1916SOL    HW217382   0.379   4.193  11.315  0.1164  0.1812 -0.2316
 1917SOL     OW17383   0.028   1.680   5.375  0.1744 -0.2531  0.8386
 1917SOL    HW117384   4.703   1.636   5.317  0.8944 -0.4178  0.1887
 1917SOL    HW217385   4.730   1.769   5.378 -2.1486 -1.1443 -0.5313
 1918SOL     OW17386   3.374   4.608   9.214  0.3627 -0.0691  0.2738
 1918SOL    HW117387   3.418   4.525   9.226  0.7522  0.3017  1.4281
 1918SOL    HW217388   3.423   4.660   9.278  0.9020 -2.3992  1.7436
 1919SOL     OW17389   0.320   4.564   4.192  0.2064 -0.1818  0.8662
 1919SOL    HW117390   0.307   4.530   4.281  0.4300 -0.0309  0.9531
 1919SOL    HW217391   0.286   4.653   4.200  0.9143  0.2701 -1.2177
 1920SOL     OW17392   4.487   3.146   6.662 -0.2281 -0.5098  0.6585
 1920SOL    HW117393   4.454   3.199   6.589  1.4576 -2.5452 -1.5846
 1920SOL    HW217394   4.445   3.063   6.640 -0.7177  0.5054 -2.3137
 1921SOL     OW17395   2.635   3.164   3.092 -0.2254  0.4836 -0.8296
 1921SOL    HW117396   2.625   3.075   3.059  0.4443 -0.0161  0.2822
 1921SOL    HW217397   2.709   3.149   3.151  0.6332  0.9018 -1.8005
 1922SOL     OW17398   1.461   2.606   8.613 -0.6339 -0.0039  0.0571
 1922SOL    HW117399   1.371   2.598   8.646  0.4591 -2.8600  2.2637
 1922SOL    HW217400   1.452   2.571   8.524  0.0248 -1.5139  0.6023
 1923SOL     OW17401   3.497   2.539   7.287  0.5288  0.2821 -0.3034
 1923SOL    HW117402   3.478   2.593   7.364 -1.6168  0.0465 -0.6519
 1923SOL    HW217403   3.453   2.459   7.314  1.5035 -0.7316 -1.7400
 1924SOL     OW17404   2.107   0.875   6.209  0.6176  0.1644 -0.8849
 1924SOL    HW117405   2.095   0.831   6.293 -0.1675  2.3570  0.1555
 1924SOL    HW217406   2.121   0.965   6.238 -0.6328  0.4216 -1.0605
 1925SOL     OW17407   1.692   3.789   6.910  0.2906 -0.4556 -0.8726
 1925SOL    HW117408   1.746   3.840   6.970  1.3225  0.9146 -2.9363
 1925SOL    HW217409   1.745   3.792   6.831  0.1132  1.4611 -0.9414
 1926SOL     OW17410   0.099   2.324   8.061 -0.2197  0.0766  0.0797
 1926SOL    HW117411   0.141   2.266   7.997  2.3734  0.8716  1.0598
 1926SOL    HW217412   0.122   2.407   8.020 -0.6758  0.0611 -0.2045
 1927SOL     OW17413   1.277   2.057   2.960 -0.1059  1.0049  0.5339
 1927SOL    HW117414   1.226   2.078   2.882  2.7452 -0.5329 -1.7324
 1927SOL    HW217415   1.364   2.030   2.931 -0.7407  0.6175 -1.0065
 1928SOL     OW17416   2.866   4.524   5.861 -0.4240  0.1374  0.7439
 1928SOL    HW117417   2.847   4.617   5.853  3.5155  0.9919  1.3306
 1928SOL    HW217418   2.941   4.528   5.802  0.1063  1.3173  1.4980
 1929SOL     OW17419   1.091   3.787  10.562 -0.6063  0.2798 -0.0208
 1929SOL    HW117420   1.021   3.839  10.522  0.9169  1.8505 -0.6463
 1929SOL    HW217421   1.073   3.803  10.655  1.1649 -0.7027  0.4877
 1930SOL     OW17422   2.230   1.343   8.545  0.0918  0.2258  0.1306
 1930SOL    HW117423   2.289   1.401   8.593  1.3057 -2.5240  1.9399
 1930SOL    HW217424   2.217   1.275   8.610  0.2452  0.3657  0.3067
 1931SOL     OW17425   4.146   3.794  15.602 -0.0585 -0.6107  0.2321
 1931SOL    HW117426   4.128   3.740  15.679 -0.2107 -0.1559  0.5164
 1931SOL    HW217427   4.059   3.792  15.561  0.2636 -0.5541 -0.4618
 1932SOL     OW17428   3.489   0.291   8.844  0.2396  0.0905 -0.3897
 1932SOL    HW117429   3.420   0.291   8.910  1.6035 -2.7506  1.0521
 1932SOL    HW217430   3.470   0.372   8.797 -2.6857 -0.6793 -0.5292
 1933SOL     OW17431   1.832   2.802  17.597  0.1843  0.1144 -0.2935
 1933SOL    HW117432   1.890   2.878  17.592  0.5407 -0.1187  0.2686
 1933SOL    HW217433   1.743   2.832  17.580  0.2353 -0.3622 -1.4108
 1934SOL     OW17434   3.469   1.808   4.533 -0.4301  0.3123  0.6993
 1934SOL    HW117435   3.516   1.740   4.579  0.9217  1.3595  0.8565
 1934SOL    HW217436   3.457   1.773   4.444 -0.0579 -2.3995  1.7451
 1935SOL     OW17437   4.093   4.164   5.599  0.4895 -0.3263 -0.6612
 1935SOL    HW117438   4.108   4.233   5.535 -0.4798  1.7997  1.3793
 1935SOL    HW217439   4.179   4.131   5.625 -1.0743 -2.4767  1.7729
 1936SOL     OW17440   1.955   4.657  12.217  0.7580 -0.1088  0.6651
 1936SOL    HW117441   1.979   0.008  12.244 -1.3074  0.6810 -0.0599
 1936SOL    HW217442   2.030   4.633  12.163  0.6469  0.2595  0.3449
 1937SOL     OW17443   4.233   0.245  13.955 -0.7758  0.3648 -0.3828
 1937SOL    HW117444   4.280   0.252  14.038  1.5501  1.1063 -1.7756
 1937SOL    HW217445   4.279   0.167  13.925  1.3966  1.5987 -0.2447
 1938SOL     OW17446   2.603   4.222   5.212 -0.7485  0.4277 -0.1561
 1938SOL    HW117447   2.535   4.209   5.279  0.7997 -0.3338  1.2799
 1938SOL    HW217448   2.635   4.132   5.207  2.3495  1.5487 -0.2391
 1939SOL     OW17449   1.264   3.825   4.471  0.3714 -0.5604 -0.4014
 1939SOL    HW117450   1.250   3.747   4.524  0.8228 -0.2122  0.2208
 1939SOL    HW217451   1.191   3.823   4.408  1.6196 -0.2573 -1.8586
 1940SOL     OW17452   1.919   0.166  10.648  0.1833 -0.7478 -0.5101
 1940SOL    HW117453   2.006   0.158  10.688  0.1247 -2.0764 -0.6295
 1940SOL    HW217454   1.898   0.077  10.620 -0.1211 -1.1792  1.1069
 1941SOL     OW17455   1.056   4.479   2.023 -0.0788  0.0077  0.2982
 1941SOL    HW117456   1.050   4.517   2.111 -0.8460  3.1850 -1.1248
 1941SOL    HW217457   1.073   4.553   1.965  0.6437 -1.0746 -0.8697
 1942SOL     OW17458   0.100   2.164  10.510 -0.0218  0.2405  0.2804
 1942SOL    HW117459   0.071   2.084  10.467 -1.1779  2.0234 -2.1922
 1942SOL    HW217460   0.054   2.215  10.444  0.3863  0.5474  0.2368
 1943SOL     OW17461   1.507   4.550   7.561  0.5571  0.3918  0.4109
 1943SOL    HW117462   1.532   4.477   7.617  0.7216  0.6015  0.6134
 1943SOL    HW217463   1.588   4.568   7.514  0.4780 -0.2731  0.0302
 1944SOL     OW17464   0.510   3.098   2.057 -0.2773 -0.6822 -0.2777
 1944SOL    HW117465   0.451   3.027   2.082  0.4621 -1.3706 -0.4975
 1944SOL    HW217466   0.594   3.072   2.093 -0.2564 -0.4789 -0.1798
 1945SOL     OW17467   1.966   0.233   4.343  0.2702 -0.0801 -0.7713
 1945SOL    HW117468   2.042   0.282   4.312  0.8096 -1.3734 -1.4718
 1945SOL    HW217469   1.983   0.238   4.437 -0.1416  0.9003 -0.7387
 1946SOL     OW17470   4.483   2.249  15.792  0.1599  0.8250  0.0380
 1946SOL    HW117471   4.514   2.337  15.814  0.8823  0.2632  1.2909
 1946SOL    HW217472   4.530   2.238  15.709  1.7686  2.7474  0.6941
 1947SOL     OW17473   2.357   2.990   8.906 -0.4955 -0.0548  0.0280
 1947SOL    HW117474   2.396   3.076   8.921  0.2711 -0.5118  0.6253
 1947SOL    HW217475   2.268   3.019   8.883 -0.9723 -2.2996 -0.9599
 1948SOL     OW17476   3.313   2.095   2.732  0.0075 -0.4824 -0.1872
 1948SOL    HW117477   3.341   2.065   2.819  0.8949 -0.5700 -0.5022
 1948SOL    HW217478   3.290   2.006   2.705  0.1361 -1.2401  2.1914
 1949SOL     OW17479   1.089   2.334   5.028  0.3812 -0.0513  0.0721
 1949SOL    HW117480   1.008   2.351   4.980  2.0111  2.0735 -1.9652
 1949SOL    HW217481   1.127   2.266   4.972 -0.1960 -0.9001  0.7071
 1950SOL     OW17482   4.370   1.929   7.598  0.7205 -0.3746 -0.3783
 1950SOL    HW117483   4.390   1.921   7.691 -1.5086 -0.1983  0.1180
 1950SOL    HW217484   4.336   2.017   7.587 -0.1728 -0.5856  0.7413
 1951SOL     OW17485   3.493   2.711   2.048  0.2692 -0.5636 -0.4776
 1951SOL    HW117486   3.585   2.723   2.022  0.6603 -2.0517  0.2522
 1951SOL    HW217487   3.448   2.699   1.964 -0.1178 -1.6270 -0.1185
 1952SOL     OW17488   0.828   4.562  11.217  0.2475 -0.0737 -0.0379
 1952SOL    HW117489   0.868   4.537  11.300  1.0837 -1.4804 -0.8738
 1952SOL    HW217490   0.865   4.490  11.167  2.0089  0.6589  0.2008
 1953SOL     OW17491   0.712   2.587   9.038 -0.6418  0.0962  0.1277
 1953SOL    HW117492   0.690   2.615   8.950  0.3750 -1.5294 -0.6452
 1953SOL    HW217493   0.743   2.499   9.016 -0.9950  0.4840 -1.8284
 1954SOL     OW17494   2.031   3.982   9.149  0.6723 -0.4315 -0.2747
 1954SOL    HW117495   2.045   4.076   9.158  1.9818 -0.6227 -0.3632
 1954SOL    HW217496   2.084   3.970   9.070  0.5477 -2.3427 -0.0651
 1955SOL     OW17497   1.694   2.496  17.103 -0.7466  0.4556 -0.3598
 1955SOL    HW117498   1.778   2.504  17.058 -0.5355  0.9675  0.1296
 1955SOL    HW217499   1.718   2.523  17.191  1.3399  2.6305 -1.6187
 1956SOL     OW17500   1.978   3.352   8.717 -0.2731 -0.1212 -0.2778
 1956SOL    HW117501   2.045   3.304   8.669  0.5065 -1.5228  2.2236
 1956SOL    HW217502   1.910   3.284   8.723  0.7311 -0.8458  2.6016
 1957SOL     OW17503   2.481   2.950  16.637  0.4033  0.1580 -0.1859
 1957SOL    HW117504   2.571   2.929  16.660  0.1998  1.0513  1.4197
 1957SOL    HW217505   2.481   3.041  16.606 -2.3429 -0.1085 -1.0042
 1958SOL     OW17506   3.153   4.537  14.332 -0.2272  0.3611 -0.1493
 1958SOL    HW117507   3.115   4.573  14.412 -1.1543 -3.1611  1.0349
 1958SOL    HW217508   3.229   4.589  14.309  1.3562 -2.3913 -1.1408
 1959SOL     OW17509   1.299   1.340   4.023 -0.0585 -0.0594  0.1206
 1959SOL    HW117510   1.345   1.422   4.006 -0.2303 -0.0902 -0.4726
 1959SOL    HW217511   1.335   1.280   3.959  1.7344  0.6636  0.4385
 1960SOL     OW17512   3.711   2.241   6.455 -0.1168  0.1394 -0.2913
 1960SOL    HW117513   3.745   2.167   6.403  0.8438 -0.5134  1.2713
 1960SOL    HW217514   3.713   2.194   6.538  2.9448  0.6002 -0.1029
 1961SOL     OW17515   2.857   3.723   6.406  0.4599  1.3971  0.0684
 1961SOL    HW117516   2.839   3.695   6.316 -0.6603  0.6491  0.5376
 1961SOL    HW217517   2.871   3.818   6.402  0.9192  1.3214 -0.1373
 1962SOL     OW17518   4.672   4.094   0.373  0.5196  0.0262 -0.0400
 1962SOL    HW117519   4.580   4.069   0.384  0.1987  0.9989 -0.5386
 1962SOL    HW217520   4.681   4.077   0.279  0.6177 -3.4820  0.6093
 1963SOL     OW17521   2.817   2.878   8.007  0.8258 -0.3517 -0.2770
 1963SOL    HW117522   2.770   2.870   7.924 -0.0041 -0.9836  0.2530
 1963SOL    HW217523   2.907   2.865   7.979  0.6891 -0.5881 -0.6115
 1964SOL     OW17524   1.930   4.589   4.158  0.1756 -0.2108  0.5710
 1964SOL    HW117525   1.926   4.641   4.078 -2.3757 -0.3113  0.6293
 1964SOL    HW217526   1.914   4.496   4.143 -1.4155  0.2617 -0.5813
 1965SOL     OW17527   4.182   2.279   8.203  0.5053  0.4150  0.1501
 1965SOL    HW117528   4.160   2.345   8.269  1.5762  0.7040  0.2188
 1965SOL    HW217529   4.104   2.283   8.146 -0.1349 -2.5489  0.8015
 1966SOL     OW17530   4.088   3.297   5.739  0.2566 -0.4285 -0.3864
 1966SOL    HW117531   4.091   3.262   5.828  0.9917  0.7499  0.0547
 1966SOL    HW217532   4.075   3.390   5.756  2.8120 -0.3709  1.2712
 1967SOL     OW17533   0.594   1.943   6.562 -0.0661 -0.3475  0.2175
 1967SOL    HW117534   0.524   1.959   6.498 -1.1949  2.0873  2.0791
 1967SOL    HW217535   0.536   1.911   6.632 -3.9286  2.7610 -1.5527
 1968SOL     OW17536   2.037   0.339   7.792  0.4705 -0.0918 -0.0107
 1968SOL    HW117537   1.992   0.276   7.736 -1.3993  2.4941 -1.4696
 1968SOL    HW217538   2.032   0.422   7.743  0.5822 -0.7840 -1.2007
 1969SOL     OW17539   1.830   0.186   4.093 -0.5767  0.3582 -0.3006
 1969SOL    HW117540   1.823   0.274   4.055  0.6209  1.2483  1.5167
 1969SOL    HW217541   1.876   0.201   4.176 -2.4148  0.8490  0.6291
 1970SOL     OW17542   2.890   4.117   2.763  0.1912 -0.8231  0.3559
 1970SOL    HW117543   2.913   4.184   2.698  2.6328 -0.5564  1.4772
 1970SOL    HW217544   2.912   4.166   2.843 -0.7983 -1.7583  1.2097
 1971SOL     OW17545   2.505   2.792   2.022 -0.6271 -0.0313 -0.4734
 1971SOL    HW117546   2.454   2.847   2.082  0.8588  1.4630 -0.5948
 1971SOL    HW217547   2.573   2.765   2.084  0.4435  0.2416 -1.5569
 1972SOL     OW17548   1.464   1.650   4.496 -0.3594  0.6074 -0.0141
 1972SOL    HW117549   1.521   1.718   4.531 -0.3465  1.0400 -0.8716
 1972SOL    HW217550   1.440   1.614   4.581  0.3845 -0.7878 -0.4060
 1973SOL     OW17551   1.052   0.177   1.817 -0.2525  0.0647  0.3045
 1973SOL    HW117552   1.020   0.102   1.767  0.6540 -0.6546  0.7976
 1973SOL    HW217553   1.088   0.126   1.890 -0.7093  0.9911  1.1816
 1974SOL     OW17554   4.311   1.876   5.550 -0.2150  0.0060 -0.3444
 1974SOL    HW117555   4.323   1.939   5.480 -0.0042 -0.9101 -1.1386
 1974SOL    HW217556   4.339   1.802   5.495  1.2483  0.2429  0.0782
 1975SOL     OW17557   2.945   3.662   4.390 -0.1070  0.0755  0.3460
 1975SOL    HW117558   2.865   3.641   4.438 -0.3094  1.0754  0.4349
 1975SOL    HW217559   2.967   3.578   4.349  1.3934 -0.1949  1.7258
 1976SOL     OW17560   2.247   0.754   8.179 -0.3432  0.2181  0.0777
 1976SOL    HW117561   2.241   0.706   8.096  1.3463 -2.5278  1.5616
 1976SOL    HW217562   2.252   0.846   8.152 -1.2925 -0.2014 -1.5000
 1977SOL     OW17563   4.280   3.848   2.463 -0.4576  0.3962  0.5740
 1977SOL    HW117564   4.236   3.787   2.522  0.5827 -1.6752 -0.8052
 1977SOL    HW217565   4.350   3.791   2.430 -0.4099  1.2461 -0.7839
 1978SOL     OW17566   0.790   0.725   9.331 -0.2900  0.2734 -0.0246
 1978SOL    HW117567   0.852   0.754   9.398  3.0481 -2.1963 -1.9933
 1978SOL    HW217568   0.783   0.806   9.280 -0.8049 -0.5118 -1.2263
 1979SOL     OW17569   2.607   4.121   4.851  0.1766  0.8684  0.4118
 1979SOL    HW117570   2.691   4.103   4.895 -1.1591  2.6851  3.6695
 1979SOL    HW217571   2.584   4.035   4.815  3.1579 -0.6909  2.1659
 1980SOL     OW17572   4.353   0.763   9.577  0.3171 -0.1831  0.2653
 1980SOL    HW117573   4.277   0.711   9.551  1.1675 -1.5188  0.4664
 1980SOL    HW217574   4.379   0.712   9.653 -1.1415  0.7757  1.4005
 1981SOL     OW17575   0.318   0.661   9.698  0.3987  0.3686  0.0958
 1981SOL    HW117576   0.345   0.609   9.774  1.2645  0.0785 -0.4009
 1981SOL    HW217577   0.289   0.595   9.636  0.8113  0.5862 -0.3229
 1982SOL     OW17578   0.545   2.787  10.018  0.4587  0.3371 -0.7629
 1982SOL    HW117579   0.469   2.800  10.074  1.7496 -0.0233  1.0564
 1982SOL    HW217580   0.602   2.757  10.089 -1.6467  1.8159  1.5196
 1983SOL     OW17581   2.504   0.242   4.104  0.9870 -0.5489 -0.2829
 1983SOL    HW117582   2.450   0.168   4.132 -1.6926  1.9997  1.3480
 1983SOL    HW217583   2.553   0.268   4.181 -1.1371  0.8650  0.6128
 1984SOL     OW17584   3.855   1.162   5.980 -0.0526  0.2973 -0.4838
 1984SOL    HW117585   3.879   1.163   6.073 -0.2780  0.8843 -0.4326
 1984SOL    HW217586   3.761   1.178   5.976  0.5245  3.9576  0.6622
 1985SOL     OW17587   1.636   2.060  10.990 -0.5472 -0.3050 -0.1239
 1985SOL    HW117588   1.567   2.082  11.052  0.6175  1.3258  0.5972
 1985SOL    HW217589   1.660   2.142  10.946 -3.1936  1.1710  1.2280
 1986SOL     OW17590   0.382   2.869  10.995 -0.0899  0.3583  0.4315
 1986SOL    HW117591   0.419   2.828  10.917 -0.8657 -0.8381  0.6917
 1986SOL    HW217592   0.454   2.910  11.042  2.0241 -1.4828 -1.2254
 1987SOL     OW17593   2.052   2.525   5.232 -0.4362  0.0248 -0.2996
 1987SOL    HW117594   2.072   2.524   5.139  1.0579  1.5750  0.0190
 1987SOL    HW217595   2.136   2.556   5.267 -0.6172  0.7143 -0.4846
 1988SOL     OW17596   2.883   0.648   2.752 -0.0091 -0.3419 -0.0277
 1988SOL    HW117597   2.889   0.730   2.801  1.2617  1.5750 -3.3398
 1988SOL    HW217598   2.880   0.675   2.660 -0.2610 -1.0040 -0.2155
 1989SOL     OW17599   2.262   1.380   5.624 -0.3085  0.1792 -0.6609
 1989SOL    HW117600   2.194   1.447   5.614  0.7516  1.6552  1.9203
 1989SOL    HW217601   2.340   1.433   5.606  0.0859  1.3818  4.5975
 1990SOL     OW17602   2.332   3.591   1.954 -0.4371  0.2755 -0.1220
 1990SOL    HW117603   2.344   3.521   2.018  0.6064  1.3898  0.9015
 1990SOL    HW217604   2.416   3.625   1.923 -0.1090  0.8111  1.3833
 1991SOL     OW17605   3.796   2.078  16.649 -0.3013  0.5203  0.1913
 1991SOL    HW117606   3.839   2.035  16.575  0.0710  2.2754 -0.6248
 1991SOL    HW217607   3.844   2.041  16.723 -1.1446  0.4304  0.6909
 1992SOL     OW17608   4.641   2.952   8.004  0.2061 -0.4499  0.4609
 1992SOL    HW117609   4.570   2.894   8.032 -0.5421  0.8369  1.2884
 1992SOL    HW217610   4.717   2.923   8.054  1.3060 -0.3467 -1.1607
 1993SOL     OW17611   0.819   1.881   2.676 -0.8798  0.4185  0.4574
 1993SOL    HW117612   0.772   1.856   2.756 -2.1203 -1.4983 -0.8582
 1993SOL    HW217613   0.769   1.958   2.648 -2.2016 -0.8688 -0.7363
 1994SOL     OW17614   3.625   2.415   8.742 -0.1539 -0.2771  0.8886
 1994SOL    HW117615   3.580   2.489   8.701  2.0960  1.1914  1.0638
 1994SOL    HW217616   3.677   2.462   8.807  0.4255 -0.1680  0.3463
 1995SOL     OW17617   3.252   4.125   3.205 -1.0652 -0.4364  0.3640
 1995SOL    HW117618   3.297   4.046   3.236 -0.4721 -1.0910 -2.2134
 1995SOL    HW217619   3.176   4.092   3.156  0.0093  0.8984 -2.2114
 1996SOL     OW17620   0.596   0.280   3.797 -0.6757 -0.2460 -0.2391
 1996SOL    HW117621   0.646   0.249   3.872  3.0705  1.2344 -2.1273
 1996SOL    HW217622   0.653   0.282   3.720 -2.3045 -0.7988 -1.4612
 1997SOL     OW17623   2.983   3.568   1.732  0.2184  0.0743  0.0600
 1997SOL    HW117624   3.078   3.575   1.742  0.0178  0.2899  1.6932
 1997SOL    HW217625   2.949   3.626   1.799 -2.4201 -0.9388 -0.4112
 1998SOL     OW17626   4.701   3.787   0.766  0.5032  0.5605 -0.0372
 1998SOL    HW117627   4.726   3.823   0.851  0.4230  3.3051 -1.1619
 1998SOL    HW217628   4.717   3.865   0.712 -0.1412  0.5989 -0.1709
 1999SOL     OW17629   1.055   1.839   7.913 -0.1021 -0.1194 -0.0648
 1999SOL    HW117630   0.977   1.803   7.873 -0.0710  1.8763 -1.9358
 1999SOL    HW217631   1.071   1.787   7.992 -1.7096  1.6617  1.4255
 2000SOL     OW17632   1.794   2.523   2.649 -0.2218  0.0808  0.1364
 2000SOL    HW117633   1.850   2.599   2.663  1.4374 -1.0433 -0.4191
 2000SOL    HW217634   1.857   2.451   2.650 -0.2278  0.0752  0.0697
 2001SOL     OW17635   0.810   4.266   9.282 -0.3358  0.2151 -0.0077
 2001SOL    HW117636   0.767   4.249   9.199 -1.7846 -0.2769  0.8500
 2001SOL    HW217637   0.889   4.314   9.256  0.4839 -0.8932  0.4628
 2002SOL     OW17638   1.946   2.403   6.775  0.3616  0.4566  0.4688
 2002SOL    HW117639   2.037   2.427   6.791  1.1795 -2.7790  0.6397
 2002SOL    HW217640   1.937   2.310   6.798 -0.8174  0.2581 -0.8133
 2003SOL     OW17641   2.264   4.088   1.171  0.1946 -0.3767 -0.1918
 2003SOL    HW117642   2.206   4.029   1.220  1.6368 -0.7837  1.0185
 2003SOL    HW217643   2.287   4.030   1.099  2.6105  2.2392 -1.5196
 2004SOL     OW17644   2.622   2.974  10.322 -0.3225  0.3799 -0.1882
 2004SOL    HW117645   2.653   2.950  10.235  1.1579  0.4642  0.3292
 2004SOL    HW217646   2.581   2.892  10.351  0.8635  0.1936  0.9879
 2005SOL     OW17647   3.619   2.348   7.714  0.4082 -0.2592  0.5994
 2005SOL    HW117648   3.639   2.391   7.631  1.7144 -0.5573  0.7627
 2005SOL    HW217649   3.699   2.297   7.726  0.9577  0.9970  2.2806
 2006SOL     OW17650   3.433   4.314  11.008 -0.2635  0.5308 -0.2217
 2006SOL    HW117651   3.425   4.256  11.084 -2.2227 -1.1620 -1.7573
 2006SOL    HW217652   3.486   4.269  10.942 -0.8915  0.0707 -0.4112
 2007SOL     OW17653   2.929   1.422   1.057  0.7429  0.0725  0.0730
 2007SOL    HW117654   2.983   1.402   0.980 -2.2065 -0.3323 -1.9079
 2007SOL    HW217655   2.912   1.338   1.100  3.0052 -1.8227 -2.7266
 2008SOL     OW17656   3.253   0.379   5.158 -0.4540 -0.1770 -0.2040
 2008SOL    HW117657   3.313   0.362   5.231 -0.5484  2.3899  0.4795
 2008SOL    HW217658   3.279   0.309   5.098 -0.2445  0.2930 -0.6531
 2009SOL     OW17659   1.264   4.448   6.112 -0.2200 -0.2468 -0.4692
 2009SOL    HW117660   1.278   4.516   6.045 -2.6756 -0.7308 -1.4660
 2009SOL    HW217661   1.251   4.502   6.190 -1.0338  0.2543 -0.9540
 2010SOL     OW17662   1.827   1.753   2.376  0.5193 -0.2552 -0.2393
 2010SOL    HW117663   1.840   1.663   2.347  0.2935 -1.2225  2.6282
 2010SOL    HW217664   1.844   1.801   2.295 -1.5078 -0.2261 -0.6515
 2011SOL     OW17665   0.443   1.581   5.916 -0.1281 -0.2959  0.2467
 2011SOL    HW117666   0.521   1.605   5.966 -0.7246 -1.1241  1.5596
 2011SOL    HW217667   0.375   1.575   5.983 -0.5767 -0.7797 -0.2510
 2012SOL     OW17668   3.843   2.763  11.241  0.4309  0.3728 -0.0975
 2012SOL    HW117669   3.934   2.740  11.261 -0.6078 -0.1332  4.0011
 2012SOL    HW217670   3.842   2.854  11.270 -0.1845  0.1231  0.6681
 2013SOL     OW17671   2.451   4.426   4.514 -0.6302 -0.1226 -0.0042
 2013SOL    HW117672   2.467   4.519   4.526 -2.2689  0.4614 -2.4142
 2013SOL    HW217673   2.422   4.394   4.599 -1.3349 -2.8671 -1.2712
 2014SOL     OW17674   1.313   2.926   5.478 -0.1980 -0.1923  0.2369
 2014SOL    HW117675   1.258   2.981   5.535  0.2124 -0.6208  1.0556
 2014SOL    HW217676   1.392   2.936   5.531  1.0630  2.3536 -2.2119
 2015SOL     OW17677   3.595   1.202   8.985 -0.2360 -0.3493 -1.0808
 2015SOL    HW117678   3.689   1.221   8.986 -0.0750 -1.2640  1.0246
 2015SOL    HW217679   3.554   1.271   9.038  0.7972 -1.2137  0.8342
 2016SOL     OW17680   2.277   1.344   7.915 -0.4247  0.0366 -0.8832
 2016SOL    HW117681   2.210   1.313   7.976  0.3639 -0.8189 -0.4596
 2016SOL    HW217682   2.285   1.434   7.948  2.1446 -1.0108  1.3400
 2017SOL     OW17683   3.628   3.420  11.605  0.7912  0.0257 -0.0959
 2017SOL    HW117684   3.563   3.487  11.583  2.4382  1.5126 -0.3812
 2017SOL    HW217685   3.599   3.377  11.686  0.3368 -0.0549 -0.2969
 2018SOL     OW17686   2.474   3.202   2.739  0.0394  0.4862 -0.2233
 2018SOL    HW117687   2.494   3.291   2.713  1.2425 -0.0665 -1.1987
 2018SOL    HW217688   2.490   3.156   2.656  0.8992 -2.0709  1.3682
 2019SOL     OW17689   0.249   4.212   6.697 -0.0694  0.2774  0.0498
 2019SOL    HW117690   0.344   4.206   6.708 -0.0914  0.6264  0.4112
 2019SOL    HW217691   0.215   4.173   6.777 -0.8042  0.7475 -0.0332
 2020SOL     OW17692   3.561   1.114   6.088  0.7025  0.2635 -0.8863
 2020SOL    HW117693   3.465   1.109   6.081  0.5833  1.2339 -0.0528
 2020SOL    HW217694   3.577   1.044   6.151  0.2442  0.0494 -1.0051
 2021SOL     OW17695   1.332   3.815  11.836 -0.3581  0.1932  0.1349
 2021SOL    HW117696   1.387   3.787  11.909 -0.7730  0.6562  0.6208
 2021SOL    HW217697   1.281   3.886  11.874  1.0069  1.5216 -0.5326
 2022SOL     OW17698   0.400   4.612   7.674  0.0388 -0.4010  0.1105
 2022SOL    HW117699   0.448   4.580   7.750 -1.5126 -3.0590 -0.0189
 2022SOL    HW217700   0.471   4.625   7.612 -2.2399  0.4726 -2.3380
 2023SOL     OW17701   2.634   2.154  13.984 -0.1328  0.5396 -0.3793
 2023SOL    HW117702   2.575   2.102  14.038  0.0441 -0.9366 -1.6274
 2023SOL    HW217703   2.652   2.089  13.917 -0.9571  0.0940 -0.1619
 2024SOL     OW17704   4.634   3.953   5.343 -0.3848  0.7353 -0.3246
 2024SOL    HW117705   4.611   4.010   5.416  1.0108  0.4100  0.3601
 2024SOL    HW217706   4.689   3.887   5.384 -1.1393  0.4689  0.2493
 2025SOL     OW17707   0.844   3.549   3.329  0.5103  0.1261 -0.0785
 2025SOL    HW117708   0.769   3.555   3.271  1.4485  0.1482 -1.2935
 2025SOL    HW217709   0.873   3.458   3.321  3.0743  1.1576 -2.2330
 2026SOL     OW17710   0.857   1.719   7.295 -0.0619 -0.1764 -0.2658
 2026SOL    HW117711   0.833   1.735   7.204  1.8267 -1.4652 -0.9812
 2026SOL    HW217712   0.948   1.744   7.283  0.8950 -2.5503  1.9670
 2027SOL     OW17713   4.673   4.092   5.106  0.1369  0.0670  0.6038
 2027SOL    HW117714   4.620   4.063   5.032 -0.2723  1.3258  0.3930
 2027SOL    HW217715   4.656   4.029   5.176 -1.9804  0.6284  0.5840
 2028SOL     OW17716   4.076   3.553  12.312 -0.4087 -0.1045  0.7527
 2028SOL    HW117717   4.159   3.598  12.300 -0.8776  0.4377 -0.4309
 2028SOL    HW217718   4.022   3.621  12.352  3.8880  3.1822  0.9795
 2029SOL     OW17719   4.590   2.557   6.188  0.0422 -0.4684  0.0083
 2029SOL    HW117720   4.650   2.632   6.185 -0.3923 -0.0398  1.8301
 2029SOL    HW217721   4.611   2.515   6.105  0.2484  1.4710 -0.9165
 2030SOL     OW17722   3.718   0.019   2.526  0.0107  0.1811  0.0973
 2030SOL    HW117723   3.748   4.676   2.485 -2.1820 -0.9882  0.7847
 2030SOL    HW217724   3.624   4.737   2.527 -0.1239  0.8158 -0.4144
 2031SOL     OW17725   0.296   0.662   1.525  0.2402  0.6950 -0.5229
 2031SOL    HW117726   0.301   0.585   1.469 -0.9095  1.4888 -1.7105
 2031SOL    HW217727   0.322   0.728   1.461  1.7760  0.7967  0.2000
 2032SOL     OW17728   4.631   2.295   6.388  0.0327 -0.1652 -0.5177
 2032SOL    HW117729   4.612   2.389   6.388  1.4353  0.1160  1.1417
 2032SOL    HW217730   4.541   2.266   6.372 -0.5474  1.8057 -0.8109
 2033SOL     OW17731   1.570   0.218   6.090  0.0801 -0.3451 -0.5177
 2033SOL    HW117732   1.475   0.231   6.093  0.0081 -1.0277  0.2919
 2033SOL    HW217733   1.596   0.280   6.158 -1.4075  0.5358 -0.7556
 2034SOL     OW17734   1.298   4.219   3.824 -0.2558 -0.0309  0.4505
 2034SOL    HW117735   1.260   4.274   3.756  1.6402  0.3537 -0.3084
 2034SOL    HW217736   1.357   4.280   3.868 -2.3268  2.6676 -0.4934
 2035SOL     OW17737   3.363   4.682   4.638  0.3993 -0.2311  0.8518
 2035SOL    HW117738   3.304   4.654   4.708  0.2914  0.7323  1.1393
 2035SOL    HW217739   3.411   4.603   4.613 -0.5763 -0.4838 -0.2516
 2036SOL     OW17740   2.592   1.881  11.776 -0.6572  0.4953 -0.3151
 2036SOL    HW117741   2.578   1.970  11.809  0.4267  0.0701  1.3015
 2036SOL    HW217742   2.618   1.890  11.685 -0.7647 -2.2737 -0.6185
 2037SOL     OW17743   3.787   2.767   9.422  0.0682 -0.3890 -0.4899
 2037SOL    HW117744   3.771   2.790   9.513  0.2998 -2.8075  0.1815
 2037SOL    HW217745   3.883   2.764   9.416 -0.1341 -0.5661 -3.7170
 2038SOL     OW17746   3.276   0.843   9.608  0.9198 -0.2626 -0.4282
 2038SOL    HW117747   3.290   0.798   9.525  0.6997 -1.4369  0.1629
 2038SOL    HW217748   3.310   0.784   9.675 -0.4597  0.5922  1.0417
 2039SOL     OW17749   1.606   2.090   1.841 -0.0406  0.6658  0.3182
 2039SOL    HW117750   1.595   2.001   1.807 -2.4807  0.9966  0.2108
 2039SOL    HW217751   1.692   2.101   1.880  0.0362  3.7065 -0.6815
 2040SOL     OW17752   3.663   1.544   7.071 -0.2006 -0.3177 -0.2126
 2040SOL    HW117753   3.731   1.499   7.121  0.7898  1.2291 -0.1735
 2040SOL    HW217754   3.711   1.569   6.992 -0.2181  0.8773  0.1515
 2041SOL     OW17755   3.400   4.539   6.146  0.4872 -0.4331 -0.7022
 2041SOL    HW117756   3.371   4.553   6.236  0.8329 -2.0307 -0.3344
 2041SOL    HW217757   3.472   4.601   6.148  0.6572 -0.6987  1.5514
 2042SOL     OW17758   0.643   3.356   6.836  0.1728  0.1568  0.0789
 2042SOL    HW117759   0.666   3.313   6.918  1.6220  4.2487  1.8119
 2042SOL    HW217760   0.708   3.309   6.784  0.6418 -0.3753  1.1580
 2043SOL     OW17761   2.153   4.318   4.879 -0.3357  0.5203 -0.3740
 2043SOL    HW117762   2.238   4.295   4.843  0.7331  0.7034  2.0409
 2043SOL    HW217763   2.161   4.297   4.972 -5.6910 -3.0303 -0.7063
 2044SOL     OW17764   4.568   3.637   5.647  0.4516  0.4411  0.3371
 2044SOL    HW117765   4.542   3.695   5.718 -0.9224  1.6385 -1.1419
 2044SOL    HW217766   4.492   3.647   5.589  1.0654  1.8864 -0.1955
 2045SOL     OW17767   1.349   2.584   1.539  0.2769 -0.3783  0.3053
 2045SOL    HW117768   1.320   2.503   1.580  1.2002 -0.3891  0.9396
 2045SOL    HW217769   1.273   2.609   1.486  0.9199  1.1988  0.1390
 2046SOL     OW17770   4.141   1.581   5.820  0.0263  0.6080 -0.1268
 2046SOL    HW117771   4.115   1.490   5.825 -1.9748  1.1760 -0.3487
 2046SOL    HW217772   4.207   1.582   5.890 -1.1634 -2.4370  0.9921
 2047SOL     OW17773   3.523   3.893   3.846 -0.3187 -0.4038 -0.6269
 2047SOL    HW117774   3.612   3.889   3.812  0.5423  0.9006  1.5080
 2047SOL    HW217775   3.476   3.932   3.772  0.6991  1.0782 -0.4829
 2048SOL     OW17776   0.976   3.716   1.484  0.2284 -0.3171 -0.1808
 2048SOL    HW117777   0.919   3.761   1.422  0.9459 -1.2576 -1.5297
 2048SOL    HW217778   0.982   3.787   1.548 -0.2720 -1.5349  1.2170
 2049SOL     OW17779   2.774   0.603   4.435 -0.2140 -0.3486  0.0822
 2049SOL    HW117780   2.773   0.698   4.438 -0.8838 -0.3751  0.6761
 2049SOL    HW217781   2.770   0.586   4.529  1.5498  0.8603  0.3618
 2050SOL     OW17782   0.554   3.579   3.612  0.2042  0.4345 -0.0810
 2050SOL    HW117783   0.528   3.603   3.523  0.8549  0.5946 -0.2256
 2050SOL    HW217784   0.630   3.524   3.592 -2.9404 -4.2074  0.7198
 2051SOL     OW17785   2.476   2.220   8.566 -0.9134 -0.1895 -0.0420
 2051SOL    HW117786   2.481   2.205   8.472 -0.2205 -0.3477  0.0149
 2051SOL    HW217787   2.488   2.315   8.566  2.2733 -0.5911 -1.5430
 2052SOL     OW17788   3.949   3.914  12.726  0.2512  0.2736  0.6022
 2052SOL    HW117789   3.935   3.844  12.662 -0.1523  0.2964  0.6638
 2052SOL    HW217790   3.985   3.862  12.798  0.0035 -2.3415 -1.1653
 2053SOL     OW17791   3.282   3.599   9.391 -0.1673  0.1838 -0.1391
 2053SOL    HW117792   3.223   3.672   9.370 -0.7908 -0.5727 -0.9997
 2053SOL    HW217793   3.221   3.566   9.458  0.5097  0.1139  0.4474
 2054SOL     OW17794   3.003   3.290  17.427  0.2835  0.0124  0.5550
 2054SOL    HW117795   3.035   3.326  17.344 -0.1567  0.8596  0.7632
 2054SOL    HW217796   2.981   3.202  17.397  2.3436 -0.7129  1.1209
 2055SOL     OW17797   4.193   3.884   6.976  0.1560  0.3819 -0.2705
 2055SOL    HW117798   4.167   3.964   6.930 -2.4136  0.0354  0.5898
 2055SOL    HW217799   4.155   3.815   6.923 -0.3029  0.4311 -0.0065
 2056SOL     OW17800   1.622   3.403   1.451 -0.1163 -0.0904 -0.0546
 2056SOL    HW117801   1.600   3.496   1.460  0.9474 -0.0773  2.1946
 2056SOL    HW217802   1.578   3.362   1.525  3.0353  1.0668  2.4344
 2057SOL     OW17803   3.159   4.031  17.066  0.0328  0.0934  0.4138
 2057SOL    HW117804   3.227   3.967  17.087  0.2628  0.3470  0.4556
 2057SOL    HW217805   3.151   4.027  16.971 -1.8211  1.5911  0.5067
 2058SOL     OW17806   0.851   3.197   5.068  0.2162  0.9106 -0.4795
 2058SOL    HW117807   0.907   3.167   4.997  1.8379  0.0218  1.1877
 2058SOL    HW217808   0.798   3.260   5.019  0.8133 -0.0558 -2.3531
 2059SOL     OW17809   4.415   0.450   9.679  0.1077 -0.4504  0.1241
 2059SOL    HW117810   4.378   0.362   9.672  0.4785 -0.6734  1.0307
 2059SOL    HW217811   4.408   0.474   9.587 -2.2624 -3.5220 -0.4919
 2060SOL     OW17812   3.954   4.055   2.612 -0.6085  0.1048 -0.0637
 2060SOL    HW117813   4.020   4.089   2.552 -1.2351 -1.0279 -1.4097
 2060SOL    HW217814   3.964   3.963   2.590  0.6975  0.3642 -0.5203
 2061SOL     OW17815   1.389   3.007   9.529  0.2605  0.0999 -0.1780
 2061SOL    HW117816   1.314   3.034   9.474 -0.5844 -1.4205  0.2184
 2061SOL    HW217817   1.469   3.024   9.480 -0.1651  0.8336 -0.6293
 2062SOL     OW17818   4.086   0.112   6.271 -0.2028 -0.2201  0.3217
 2062SOL    HW117819   4.134   0.103   6.188  0.3831  2.1295  0.3967
 2062SOL    HW217820   4.064   0.205   6.266  0.6892 -0.0377 -0.2634
 2063SOL     OW17821   2.209   3.603   9.460 -0.1280 -0.0830  0.9301
 2063SOL    HW117822   2.273   3.608   9.531 -1.9726  1.7614  2.4788
 2063SOL    HW217823   2.142   3.547   9.501  1.3055 -2.9890 -0.7233
 2064SOL     OW17824   3.541   1.621   8.952  0.0153  0.4231  0.5026
 2064SOL    HW117825   3.531   1.712   8.923  0.5418  0.2403 -0.2313
 2064SOL    HW217826   3.636   1.620   8.960  0.2481  2.5947 -1.9152
 2065SOL     OW17827   4.584   4.634   7.825  0.0002  0.0882  0.1336
 2065SOL    HW117828   4.528   4.568   7.864 -0.2148  1.0128  1.3724
 2065SOL    HW217829   4.622   4.674   7.903 -0.5727  0.5850  0.1536
 2066SOL     OW17830   3.146   4.703   2.063  0.4695  0.3391  0.1596
 2066SOL    HW117831   3.068   4.648   2.065 -0.5618  1.8307  0.8948
 2066SOL    HW217832   3.207   4.645   2.017 -0.1421 -1.2761  1.4002
 2067SOL     OW17833   1.182   0.700   3.852  0.1559  0.1423  0.1519
 2067SOL    HW117834   1.111   0.764   3.847 -0.2344 -0.3966 -1.1773
 2067SOL    HW217835   1.192   0.671   3.943  1.0093  1.0036  0.3472
 2068SOL     OW17836   4.494   3.934   8.429  0.8441  0.5282 -0.2620
 2068SOL    HW117837   4.465   3.856   8.382  0.8530 -0.0507  0.6930
 2068SOL    HW217838   4.535   3.896   8.506  0.4105  1.1168  0.2653
 2069SOL     OW17839   1.699   1.054   5.262 -0.2015  0.1291 -0.8220
 2069SOL    HW117840   1.632   1.123   5.265  1.1105  1.3739 -0.1588
 2069SOL    HW217841   1.699   1.030   5.169  1.0259  0.7461 -0.9881
 2070SOL     OW17842   2.202   2.651   5.545  0.6609  0.1597  0.6969
 2070SOL    HW117843   2.113   2.637   5.577  0.5866 -1.2342 -0.0945
 2070SOL    HW217844   2.218   2.564   5.508 -2.3371 -0.2922  0.5150
 2071SOL     OW17845   0.978   0.650   2.065  0.0524  0.0723 -0.2059
 2071SOL    HW117846   0.884   0.644   2.080 -0.3580  2.6218 -1.7184
 2071SOL    HW217847   1.010   0.560   2.062 -1.8006 -0.6014  0.2283
 2072SOL     OW17848   4.073   1.559  11.189  0.3281 -0.7799 -0.2089
 2072SOL    HW117849   4.095   1.533  11.278 -1.1827 -1.7648 -0.1166
 2072SOL    HW217850   4.026   1.639  11.213  2.4645 -0.1013  1.6115
 2073SOL     OW17851   4.155   2.753   7.265 -0.1525  0.0460  0.0390
 2073SOL    HW117852   4.089   2.806   7.220 -0.3487 -0.8874 -0.7510
 2073SOL    HW217853   4.183   2.821   7.327  0.4574 -1.1021  1.0243
 2074SOL     OW17854   4.370   3.889   3.793  0.0348  0.0298  0.2584
 2074SOL    HW117855   4.453   3.932   3.771 -0.0332 -0.2028 -0.4366
 2074SOL    HW217856   4.340   3.934   3.872  2.6803 -0.0155  1.2936
 2075SOL     OW17857   2.386   0.030   5.305 -0.3345  0.3336  0.1649
 2075SOL    HW117858   2.418   0.099   5.363  1.6193  0.0145 -0.5521
 2075SOL    HW217859   2.465   0.000   5.260  0.7474  1.6888  1.1698
 2076SOL     OW17860   0.392   0.535   6.782  0.3038 -0.3605  0.1223
 2076SOL    HW117861   0.408   0.627   6.761 -1.1315  0.1640  1.3210
 2076SOL    HW217862   0.415   0.485   6.704 -0.9205  0.9712 -1.0872
 2077SOL     OW17863   2.268   2.449   0.050 -0.0514  0.1956  0.4693
 2077SOL    HW117864   2.212   2.523   0.026 -1.3891 -1.2270 -0.7790
 2077SOL    HW217865   2.198   2.390   0.077  1.0246 -0.9973  0.6514
 2078SOL     OW17866   2.753   1.077   3.389 -0.5632 -0.2839 -0.3686
 2078SOL    HW117867   2.730   1.024   3.465  1.5502  1.3449  1.3889
 2078SOL    HW217868   2.674   1.086   3.335 -1.4181 -2.6647  0.4796
 2079SOL     OW17869   0.255   1.794   7.834 -0.1112 -0.0429  0.2924
 2079SOL    HW117870   0.250   1.840   7.918 -0.0846 -0.1076  0.3294
 2079SOL    HW217871   0.239   1.705   7.865  2.2806 -1.2911 -2.0631
 2080SOL     OW17872   4.140   3.221  11.984  0.4138  0.2895 -0.3569
 2080SOL    HW117873   4.163   3.160  12.054  0.0928  0.5908  0.0126
 2080SOL    HW217874   4.056   3.254  12.018 -0.5043  0.7486 -3.0991
 2081SOL     OW17875   0.317   2.877   8.984  0.2888  0.1359  0.0849
 2081SOL    HW117876   0.228   2.864   9.016  1.0275  0.3631  2.2729
 2081SOL    HW217877   0.315   2.973   8.978 -1.2055 -0.0776 -2.5815
 2082SOL     OW17878   1.948   2.859   2.129  0.6002  0.2665 -0.5032
 2082SOL    HW117879   1.989   2.869   2.042  1.1628 -0.7043 -0.3634
 2082SOL    HW217880   1.986   2.777   2.163  0.4230 -0.0271 -1.0011
 2083SOL     OW17881   1.804   0.362   6.248 -0.3873  0.1360  0.1267
 2083SOL    HW117882   1.817   0.272   6.280  0.6140  0.5185  0.8039
 2083SOL    HW217883   1.890   0.398   6.270  0.0554 -1.5756  1.2149
 2084SOL     OW17884   0.252   0.497   2.541  0.4381  0.5879 -0.0504
 2084SOL    HW117885   0.166   0.537   2.528  0.5666 -0.1441 -3.1035
 2084SOL    HW217886   0.301   0.565   2.588  0.5935  0.7048 -0.3848
 2085SOL     OW17887   0.093   2.359   2.301  0.4522  0.5615 -0.2592
 2085SOL    HW117888   0.084   2.441   2.351 -1.0365  0.4204 -0.2889
 2085SOL    HW217889   0.187   2.364   2.282  0.1335  1.9743 -1.4201
 2086SOL     OW17890   1.200   2.028   5.748 -0.2676  0.7653  0.2255
 2086SOL    HW117891   1.110   2.011   5.776  0.7434 -1.6056  2.0583
 2086SOL    HW217892   1.252   1.971   5.804 -1.2139 -2.0993 -1.8206
 2087SOL     OW17893   1.355   2.491   5.721 -0.5626  0.3499 -0.3733
 2087SOL    HW117894   1.298   2.425   5.761 -1.8145  0.4452 -2.0289
 2087SOL    HW217895   1.300   2.566   5.699  0.3112  1.1251  0.0468
 2088SOL     OW17896   1.361   2.217   6.213  0.3317  0.1366 -0.4067
 2088SOL    HW117897   1.424   2.178   6.153 -0.2366 -0.3783 -0.6652
 2088SOL    HW217898   1.278   2.189   6.175 -0.1799  1.8715 -0.5625
 2089SOL     OW17899   4.704   1.354   8.529  0.0860  0.2093  0.0022
 2089SOL    HW117900   0.037   1.373   8.466  1.4873  0.6269  1.7018
 2089SOL    HW217901   4.631   1.402   8.491 -0.0046 -0.6363 -0.8999
 2090SOL     OW17902   3.651   1.806  16.545 -0.0411 -1.2060 -0.1005
 2090SOL    HW117903   3.594   1.882  16.542  1.5847 -0.0068 -0.8412
 2090SOL    HW217904   3.739   1.833  16.516 -0.0703 -2.1336 -1.0585
 2091SOL     OW17905   0.051   1.524   7.611 -0.5659 -0.2664  0.0238
 2091SOL    HW117906   0.090   1.453   7.662 -2.6009 -0.5053  1.2546
 2091SOL    HW217907   0.001   1.576   7.674  1.0008  0.5058  0.6299
 2092SOL     OW17908   1.928   4.171  14.037 -0.0735  0.5839 -0.0753
 2092SOL    HW117909   1.948   4.128  13.954 -1.1659  0.2281 -0.1640
 2092SOL    HW217910   1.864   4.103  14.060 -0.5804  0.8816 -0.5812
 2093SOL     OW17911   2.993   2.388   7.956 -0.5252  0.0038  0.3283
 2093SOL    HW117912   3.008   2.296   7.937  1.8711  0.3133  0.7217
 2093SOL    HW217913   3.078   2.417   7.988 -0.5479 -0.4019  0.7480
 2094SOL     OW17914   0.947   3.582   5.128 -0.2556 -0.0043  0.1545
 2094SOL    HW117915   0.981   3.549   5.045 -0.7425 -0.9795  0.3370
 2094SOL    HW217916   0.865   3.613   5.090  0.1750  0.0437 -0.7289
 2095SOL     OW17917   1.745   2.563   2.373  0.0392 -0.0954 -0.1237
 2095SOL    HW117918   1.742   2.565   2.468  1.4960  2.4413 -0.1346
 2095SOL    HW217919   1.755   2.655   2.348 -1.7823 -0.2901 -1.5134
 2096SOL     OW17920   3.633   0.269   7.648 -0.8882 -0.1538 -0.7206
 2096SOL    HW117921   3.546   0.233   7.627 -1.3973 -0.0957  1.2775
 2096SOL    HW217922   3.646   0.241   7.739 -3.2020  0.0419 -0.3268
 2097SOL     OW17923   1.901   4.396   2.868  0.1125 -0.3615  0.9703
 2097SOL    HW117924   1.890   4.301   2.875  0.6067 -0.4675  0.2524
 2097SOL    HW217925   1.818   4.431   2.899  0.3542  1.6456 -0.7272
 2098SOL     OW17926   0.413   4.361   9.234  0.3556 -0.3316 -0.1642
 2098SOL    HW117927   0.471   4.437   9.240  0.3670 -0.3495 -0.0429
 2098SOL    HW217928   0.346   4.381   9.300 -0.5837 -0.5640 -1.0427
 2099SOL     OW17929   0.200   4.066   6.169 -0.0131 -0.5540 -0.1522
 2099SOL    HW117930   0.178   3.973   6.177  1.4170 -0.9492 -0.7292
 2099SOL    HW217931   0.149   4.097   6.244  1.3256  3.2640 -0.8081
 2100SOL     OW17932   2.490   3.074  11.475  0.3250 -0.1166 -0.1486
 2100SOL    HW117933   2.473   3.106  11.387 -1.4421  1.2822  0.7179
 2100SOL    HW217934   2.581   3.047  11.465  0.4001 -0.0428  0.3186
 2101SOL     OW17935   1.090   3.688   9.989  0.4229  0.7020 -0.4146
 2101SOL    HW117936   1.046   3.701   9.905  0.9344  1.1593 -0.6126
 2101SOL    HW217937   1.145   3.612   9.967  0.7502  1.2841 -1.6247
 2102SOL     OW17938   4.046   4.107   4.360 -0.0872  0.6940  0.2131
 2102SOL    HW117939   4.139   4.105   4.381 -0.2308 -1.8770  0.6109
 2102SOL    HW217940   4.032   4.184   4.305  1.0576  0.3138 -0.6032
 2103SOL     OW17941   2.068   2.962  10.437  0.0532  0.2326  0.5238
 2103SOL    HW117942   2.049   2.922  10.352  0.3760  1.2715 -0.0406
 2103SOL    HW217943   1.989   2.936  10.484  0.2091 -1.9657 -0.4025
 2104SOL     OW17944   4.073   3.200   6.000  0.0509  0.4907  0.3065
 2104SOL    HW117945   4.098   3.196   6.092  1.9774  3.2224 -0.0798
 2104SOL    HW217946   3.988   3.240   6.015 -0.6205 -0.6184 -0.4888
 2105SOL     OW17947   1.573   0.541  12.746 -0.2065 -0.3032 -0.1451
 2105SOL    HW117948   1.581   0.449  12.719  0.7976  0.2550 -1.7520
 2105SOL    HW217949   1.571   0.532  12.841 -2.3478  0.1781 -0.1380
 2106SOL     OW17950   2.324   4.071  12.786  0.5864 -0.4943 -0.1772
 2106SOL    HW117951   2.246   4.016  12.781  1.0487 -1.4328  3.1897
 2106SOL    HW217952   2.317   4.106  12.875  2.7776  1.1540 -0.6571
 2107SOL     OW17953   2.253   0.312  14.817 -0.4059  0.6905 -0.8304
 2107SOL    HW117954   2.318   0.321  14.747 -0.8808 -3.0244 -1.7490
 2107SOL    HW217955   2.179   0.350  14.771 -1.0601 -0.0599 -0.3939
 2108SOL     OW17956   3.787   0.609   0.772  0.4828  0.1569  0.4990
 2108SOL    HW117957   3.759   0.625   0.862  1.4862 -0.2067  0.8771
 2108SOL    HW217958   3.882   0.605   0.781  0.4021  2.2466  1.9853
 2109SOL     OW17959   2.305   0.375   3.984  0.1242  0.1410 -0.1956
 2109SOL    HW117960   2.333   0.429   3.911 -0.1972 -0.9689 -1.1387
 2109SOL    HW217961   2.391   0.354   4.021  0.0108 -1.7269 -0.9885
 2110SOL     OW17962   3.065   2.128   5.718  0.6887 -0.2925  0.3205
 2110SOL    HW117963   3.062   2.034   5.738  0.1555 -0.1115  1.0609
 2110SOL    HW217964   3.133   2.126   5.650 -0.4569 -1.4703 -0.7959
 2111SOL     OW17965   4.368   0.087   4.280  0.6047  0.1138  0.3770
 2111SOL    HW117966   4.295   0.026   4.277  1.2936 -0.5518 -2.4934
 2111SOL    HW217967   4.340   0.153   4.344  1.1529 -0.1241  0.8657
 2112SOL     OW17968   2.848   1.994   9.665 -0.5478 -0.2064  0.3381
 2112SOL    HW117969   2.807   2.080   9.654  0.0909  0.0420 -0.1787
 2112SOL    HW217970   2.886   1.980   9.578 -0.7799 -1.6813  0.4754
 2113SOL     OW17971   2.476   0.817   8.319 -0.0575 -0.3874  0.3775
 2113SOL    HW117972   2.397   0.797   8.269  0.1735  0.3853 -0.2800
 2113SOL    HW217973   2.530   0.846   8.246  0.1236  0.4504  0.8442
 2114SOL     OW17974   2.241   2.461   1.937 -0.2231 -0.2046  0.8482
 2114SOL    HW117975   2.286   2.486   1.856  1.5210 -1.0573  1.5776
 2114SOL    HW217976   2.215   2.376   1.903 -0.0864  0.0253  0.1622
 2115SOL     OW17977   1.412   3.636   5.912  0.2122 -0.0062  0.5372
 2115SOL    HW117978   1.348   3.690   5.866  0.1272 -0.6796 -0.1346
 2115SOL    HW217979   1.389   3.545   5.891 -0.9537  0.3443  0.2701
 2116SOL     OW17980   1.595   0.867  13.977  0.2460 -0.6091 -0.6175
 2116SOL    HW117981   1.673   0.842  14.027  1.1075 -0.3422 -1.8355
 2116SOL    HW217982   1.519   0.845  14.032  1.5536 -1.4583  0.8403
 2117SOL     OW17983   1.295   0.878   4.330 -0.2450 -0.3329  0.6768
 2117SOL    HW117984   1.328   0.921   4.251 -2.4317 -0.9952 -0.6179
 2117SOL    HW217985   1.339   0.937   4.391 -0.9350  0.8885 -0.0123
 2118SOL     OW17986   1.415   1.762   2.250 -0.3906 -0.0008 -0.0912
 2118SOL    HW117987   1.338   1.816   2.268  0.8430  1.4209  0.9116
 2118SOL    HW217988   1.486   1.810   2.292 -1.2070 -1.6440  3.1987
 2119SOL     OW17989   2.427   4.273   3.385  0.1047 -0.1990  0.0950
 2119SOL    HW117990   2.380   4.292   3.466  1.4429 -0.2188  0.8819
 2119SOL    HW217991   2.474   4.355   3.368 -1.5415  0.2238 -2.4391
 2120SOL     OW17992   2.498   0.631   8.794 -0.2492 -0.2642  0.2651
 2120SOL    HW117993   2.511   0.537   8.808 -2.3828 -0.4401  1.0478
 2120SOL    HW217994   2.489   0.634   8.699  0.4252 -0.8230  0.1772
 2121SOL     OW17995   4.368   2.736   2.825  0.5147  0.0254 -0.8168
 2121SOL    HW117996   4.276   2.743   2.852  0.9053  1.5189  0.1657
 2121SOL    HW217997   4.406   2.677   2.890  0.3961 -1.0399 -1.7296
 2122SOL     OW17998   3.648   0.105   8.950  0.6391  0.1883  0.6549
 2122SOL    HW117999   3.612   0.020   8.924  1.0234  0.2729 -0.1387
 2122SOL    HW218000   3.588   0.162   8.902 -0.8993 -2.2006 -0.2351
 2123SOL     OW18001   4.422   1.869   7.893  0.8711 -0.1127 -0.1714
 2123SOL    HW118002   4.457   1.813   7.962  1.9916  2.7884  1.5701
 2123SOL    HW218003   4.430   1.956   7.930 -1.0781  1.2143 -2.8347
 2124SOL     OW18004   2.585   4.560   6.214 -0.4654  0.4583  0.4901
 2124SOL    HW118005   2.566   4.486   6.272  3.1802 -0.3242  0.6757
 2124SOL    HW218006   2.666   4.601   6.244  0.7201  0.0595 -2.1650
 2125SOL     OW18007   3.858   2.540   6.282  0.2555  0.5702  0.3863
 2125SOL    HW118008   3.798   2.602   6.323 -1.2352 -2.0147  2.1677
 2125SOL    HW218009   3.921   2.598   6.240  1.3144  0.4127  1.7412
 2126SOL     OW18010   4.721   3.521   9.648  0.3358 -0.1118 -0.4703
 2126SOL    HW118011   4.642   3.540   9.598 -0.2504 -1.9654 -0.2518
 2126SOL    HW218012   0.054   3.550   9.590  0.8404  1.1639  0.7811
 2127SOL     OW18013   1.548   0.408   1.643 -0.5415 -0.1587 -0.1921
 2127SOL    HW118014   1.511   0.493   1.669 -1.6785 -0.7719  0.1750
 2127SOL    HW218015   1.526   0.342   1.709  1.3091 -2.5669 -1.9971
 2128SOL     OW18016   3.800   1.586   2.069 -0.4632 -0.2491 -0.2784
 2128SOL    HW118017   3.858   1.518   2.105 -1.1863 -0.4870  0.4374
 2128SOL    HW218018   3.866   1.654   2.084  0.3706 -0.7721 -1.6165
 2129SOL     OW18019   0.942   2.755   1.663  0.3901  0.0555 -0.8713
 2129SOL    HW118020   0.861   2.756   1.714  0.4729  2.4191 -0.7940
 2129SOL    HW218021   0.960   2.849   1.660  0.8433  0.0317  0.7366
 2130SOL     OW18022   3.686   2.307   5.557 -0.6701  0.0236 -0.1345
 2130SOL    HW118023   3.776   2.291   5.588 -1.2159 -3.0640 -0.1329
 2130SOL    HW218024   3.642   2.222   5.563 -3.2485  1.5042  1.6793
 2131SOL     OW18025   2.359   0.124   9.972 -0.0847 -0.1344  0.2316
 2131SOL    HW118026   2.435   0.133   9.915  1.2671 -0.5440  1.9389
 2131SOL    HW218027   2.416   0.145  10.047  0.1707  0.1475 -0.0426
 2132SOL     OW18028   3.931   4.617   2.258 -0.2807 -0.1915  0.1718
 2132SOL    HW118029   3.929   4.662   2.174 -1.9358 -0.8723 -0.1601
 2132SOL    HW218030   3.846   4.572   2.255  0.3364 -1.4415  1.1069
 2133SOL     OW18031   4.136   1.016   6.708 -0.1386 -0.3363  0.4058
 2133SOL    HW118032   4.062   1.008   6.769 -0.5846  0.2134 -0.0553
 2133SOL    HW218033   4.183   1.092   6.744 -0.7959 -0.1298  0.8504
 2134SOL     OW18034   3.829   3.011   8.337 -0.2260 -0.3195 -0.2161
 2134SOL    HW118035   3.822   2.975   8.426 -1.3551  1.5069  0.4249
 2134SOL    HW218036   3.924   3.000   8.331 -0.3307 -0.4562 -1.6243
 2135SOL     OW18037   3.477   4.525   7.450 -0.6473  0.0649  0.0155
 2135SOL    HW118038   3.530   4.515   7.371 -0.9559  1.9778 -0.4413
 2135SOL    HW218039   3.462   4.434   7.475  4.2652 -0.4746  0.8873
 2136SOL     OW18040   3.892   0.274   3.638  0.1618 -0.2312  0.0196
 2136SOL    HW118041   3.956   0.344   3.631 -0.4233  0.1877 -1.2743
 2136SOL    HW218042   3.942   0.200   3.603  0.1679 -0.0898 -0.2778
 2137SOL     OW18043   4.520   1.478   4.985  0.7578  0.2962  0.2426
 2137SOL    HW118044   4.556   1.554   4.939 -4.4089  1.0420 -2.6368
 2137SOL    HW218045   4.436   1.473   4.938  1.0708 -0.6915 -0.2147
 2138SOL     OW18046   0.331   1.737   2.440 -0.1996 -0.5490 -0.3941
 2138SOL    HW118047   0.423   1.738   2.469 -0.8489 -2.7120  1.7699
 2138SOL    HW218048   0.281   1.787   2.504  0.4384 -0.3242 -0.0689
 2139SOL     OW18049   0.622   2.201   5.488  0.0184  0.5297  0.7191
 2139SOL    HW118050   0.670   2.260   5.546 -1.5797  1.6494  0.8867
 2139SOL    HW218051   0.600   2.132   5.551  1.5384 -0.2457  0.4031
 2140SOL     OW18052   3.884   2.741  12.498 -0.7078  1.1809  0.1085
 2140SOL    HW118053   3.851   2.784  12.419 -1.4238 -1.8658 -1.2291
 2140SOL    HW218054   3.844   2.798  12.564 -0.7932 -0.9299  1.8685
 2141SOL     OW18055   2.911   3.861   4.804 -0.1092 -0.6397  0.4911
 2141SOL    HW118056   2.910   3.916   4.882 -2.3682 -0.3399  0.2493
 2141SOL    HW218057   2.819   3.847   4.784  0.0896 -1.3308  0.0676
 2142SOL     OW18058   2.786   3.764  12.232 -0.2415 -0.1995 -0.1015
 2142SOL    HW118059   2.738   3.682  12.243  0.1717 -0.3423  0.6887
 2142SOL    HW218060   2.856   3.747  12.295 -0.3601  2.5183  0.7652
 2143SOL     OW18061   3.133   2.610  15.423  0.3392 -0.3410 -0.7799
 2143SOL    HW118062   3.057   2.557  15.403  1.9292 -2.8035 -0.2567
 2143SOL    HW218063   3.120   2.616  15.518 -1.0020 -0.1898 -0.9773
 2144SOL     OW18064   4.233   3.662  14.503  0.4468 -0.0633 -0.5423
 2144SOL    HW118065   4.138   3.676  14.501  0.3368 -1.0823 -3.1602
 2144SOL    HW218066   4.238   3.575  14.540  0.1662 -0.0638 -0.5017
 2145SOL     OW18067   1.643   3.914  17.447 -0.5215 -0.1153 -0.0372
 2145SOL    HW118068   1.693   3.963  17.382  0.4094 -2.5534 -1.1672
 2145SOL    HW218069   1.599   3.987  17.490  1.8680  0.8437  0.7450
 2146SOL     OW18070   3.198   0.548   7.251 -0.2708  0.3516  0.0277
 2146SOL    HW118071   3.139   0.596   7.192  0.9346  1.1478 -0.5250
 2146SOL    HW218072   3.280   0.548   7.203 -1.5126  2.6156 -2.0664
 2147SOL     OW18073   3.599   2.417   3.467  0.0182 -0.5068  1.0606
 2147SOL    HW118074   3.523   2.471   3.449 -0.8766 -2.3569 -0.7562
 2147SOL    HW218075   3.667   2.470   3.428 -0.2595 -0.4774  0.6241
 2148SOL     OW18076   1.510   1.645   8.354  0.3720  0.1956 -0.0620
 2148SOL    HW118077   1.544   1.575   8.298  0.1923  0.3133 -0.3180
 2148SOL    HW218078   1.518   1.722   8.297  1.5872 -0.1493 -0.3560
 2149SOL     OW18079   4.663   2.110   3.227 -0.2361 -0.4021 -0.0063
 2149SOL    HW118080   4.684   2.029   3.179 -0.3334 -0.6567  0.3772
 2149SOL    HW218081   0.012   2.141   3.254 -0.5845 -0.9314  1.7387
 2150SOL     OW18082   4.055   4.282   3.404  0.3889 -0.3392  0.0265
 2150SOL    HW118083   3.999   4.312   3.476  1.5710  0.3173  0.6797
 2150SOL    HW218084   4.117   4.355   3.396  2.9143 -2.4400  0.6994
 2151SOL     OW18085   4.365   4.362   6.952  0.3081 -0.0678  0.4953
 2151SOL    HW118086   4.339   4.347   7.043 -0.2297 -2.6162 -0.0995
 2151SOL    HW218087   4.424   4.289   6.933  1.8423  0.3851  3.5891
 2152SOL     OW18088   1.206   0.220   6.487  0.1606 -0.0504 -0.2812
 2152SOL    HW118089   1.181   0.310   6.508  0.5743  0.3339 -1.4771
 2152SOL    HW218090   1.148   0.171   6.546 -0.2909  2.6854  1.5382
 2153SOL     OW18091   3.593   4.502  13.296 -0.2980  0.5244 -0.3209
 2153SOL    HW118092   3.554   4.582  13.331  0.6811  0.1621  1.6071
 2153SOL    HW218093   3.599   4.536  13.207  0.7582  1.1319 -0.0186
 2154SOL     OW18094   0.046   1.400   2.729 -0.0837 -0.5032  0.0040
 2154SOL    HW118095   0.090   1.468   2.779  0.3512 -0.0889 -0.9415
 2154SOL    HW218096   0.101   1.403   2.651 -0.9226 -2.2916 -0.6718
 2155SOL     OW18097   2.998   4.245  16.237 -0.3179 -0.5890  0.3346
 2155SOL    HW118098   2.965   4.206  16.157  0.2988 -1.3782  0.4563
 2155SOL    HW218099   3.068   4.299  16.199 -0.8133 -1.0553 -1.2403
 2156SOL     OW18100   3.601   3.285   2.613 -0.3473 -0.2627  0.4548
 2156SOL    HW118101   3.613   3.207   2.559  2.7480  1.4719 -1.3372
 2156SOL    HW218102   3.506   3.289   2.615 -0.2707  1.8806 -0.5295
 2157SOL     OW18103   2.274   4.592   1.718  0.0899  0.5324 -0.0493
 2157SOL    HW118104   2.185   4.587   1.684 -0.2018 -0.2400  0.8107
 2157SOL    HW218105   2.287   4.500   1.742  2.2780  1.1410  1.1120
 2158SOL     OW18106   3.851   0.653   7.061 -0.0276  0.5337 -0.4148
 2158SOL    HW118107   3.920   0.653   7.128 -2.1172  1.3410  1.7809
 2158SOL    HW218108   3.796   0.726   7.091 -0.3019 -0.4876  1.5956
 2159SOL     OW18109   1.433   3.357  16.512  0.0531  0.4920 -0.6017
 2159SOL    HW118110   1.437   3.361  16.416 -0.4794 -1.1604 -0.6967
 2159SOL    HW218111   1.416   3.263  16.522 -1.4502  0.8853  0.6523
 2160SOL     OW18112   3.068   2.839   0.887 -0.6914 -0.3592  0.0354
 2160SOL    HW118113   3.114   2.919   0.860  0.8117 -0.7450  1.4743
 2160SOL    HW218114   3.139   2.777   0.871 -0.9447 -0.9018  1.0286
 2161SOL     OW18115   3.578   0.281   8.580 -0.1702 -0.4157  0.1070
 2161SOL    HW118116   3.539   0.231   8.652  0.0950 -0.1736  0.4185
 2161SOL    HW218117   3.524   0.359   8.571  1.4983  0.5458 -1.5437
 2162SOL     OW18118   2.774   1.714   8.344  0.3289  0.2548  0.4676
 2162SOL    HW118119   2.713   1.746   8.410  1.7512  1.8259  1.0273
 2162SOL    HW218120   2.814   1.799   8.324 -1.2121  1.1720  1.2948
 2163SOL     OW18121   1.990   1.920   8.692 -0.0142 -0.1361 -0.1217
 2163SOL    HW118122   1.905   1.878   8.711 -1.2240  1.7977 -1.2885
 2163SOL    HW218123   2.046   1.855   8.735 -0.7370 -0.1940  0.7561
 2164SOL     OW18124   3.238   4.666   1.656 -0.0404  0.3724  0.1843
 2164SOL    HW118125   3.253   4.621   1.572  1.4990 -0.4798  0.9196
 2164SOL    HW218126   3.318   4.657   1.707 -0.3751  2.1149  1.0008
 2165SOL     OW18127   4.048   4.294   6.447  0.7595 -0.5127  0.4331
 2165SOL    HW118128   4.126   4.270   6.497  0.1053 -0.1384  1.6485
 2165SOL    HW218129   4.036   4.226   6.382 -0.9482  1.5982 -1.4632
 2166SOL     OW18130   2.272   1.966   3.900  0.2655 -0.0440 -0.2597
 2166SOL    HW118131   2.315   1.907   3.837  0.0448  0.7693 -1.1686
 2166SOL    HW218132   2.182   1.961   3.869 -0.2100  0.0069  1.1280
 2167SOL     OW18133   0.725   3.837   5.296  0.1143  0.0169  0.4540
 2167SOL    HW118134   0.652   3.777   5.311 -1.0687  1.0173 -1.4040
 2167SOL    HW218135   0.712   3.883   5.214  2.2877 -0.2336 -0.0439
 2168SOL     OW18136   0.025   1.588  13.831 -0.3164 -0.1851 -0.0356
 2168SOL    HW118137   4.668   1.585  13.841 -0.4127 -1.5217 -1.2917
 2168SOL    HW218138   0.054   1.551  13.914  0.9550  0.8430 -0.0135
 2169SOL     OW18139   3.750   1.773   0.867  0.3397 -0.1834  0.7351
 2169SOL    HW118140   3.842   1.751   0.876  0.5081  0.1239 -0.2521
 2169SOL    HW218141   3.734   1.737   0.780  0.0895 -0.0489  0.7257
 2170SOL     OW18142   3.508   3.508   6.676 -0.1749 -0.0706 -0.7796
 2170SOL    HW118143   3.590   3.532   6.633  0.6531 -0.1339  0.7440
 2170SOL    HW218144   3.445   3.485   6.608 -0.0239  0.0141 -0.9482
 2171SOL     OW18145   2.561   1.697   4.271  0.2271  0.3880  0.1565
 2171SOL    HW118146   2.622   1.652   4.213  2.9928 -0.0529  3.3674
 2171SOL    HW218147   2.490   1.705   4.208  0.3422 -0.3927 -0.0631
 2172SOL     OW18148   4.071   2.710   2.853  0.3763 -0.2987  0.5676
 2172SOL    HW118149   4.038   2.726   2.942 -0.4210  0.3406  0.1591
 2172SOL    HW218150   4.000   2.657   2.818 -0.5243  0.3416  1.4019
 2173SOL     OW18151   1.206   3.667   6.827 -0.0306 -0.1885  0.2905
 2173SOL    HW118152   1.209   3.738   6.763  0.1288  0.9004  1.4846
 2173SOL    HW218153   1.299   3.644   6.822  0.0411  0.0779  0.3903
 2174SOL     OW18154   0.594   1.093   6.068 -0.1780 -0.0852  0.1186
 2174SOL    HW118155   0.636   1.167   6.024 -0.2443 -1.6853 -2.6383
 2174SOL    HW218156   0.509   1.131   6.090 -0.1224 -0.6145  1.2381
 2175SOL     OW18157   0.393   0.103   9.947 -0.1964  0.0279 -0.0563
 2175SOL    HW118158   0.349   0.102   9.862  1.3001 -2.0713 -0.7765
 2175SOL    HW218159   0.376   0.193   9.975  0.1308 -0.3542  1.3692
 2176SOL     OW18160   3.571   2.668   6.987 -0.4556  0.3041  0.2194
 2176SOL    HW118161   3.575   2.760   6.962  0.5409 -0.0863 -1.0899
 2176SOL    HW218162   3.622   2.678   7.067  0.5984 -0.0402 -0.3942
 2177SOL     OW18163   0.818   1.318   3.845 -0.0104 -0.1352 -0.0972
 2177SOL    HW118164   0.790   1.295   3.934  0.2239  0.2497  0.0750
 2177SOL    HW218165   0.909   1.287   3.852  1.2479  3.8878  1.1720
 2178SOL     OW18166   4.642   4.259   2.663 -0.2514  0.1014  0.2386
 2178SOL    HW118167   4.723   4.310   2.664 -0.3255  0.2039  1.5503
 2178SOL    HW218168   4.581   4.319   2.707  0.0824 -0.5427  1.5598
 2179SOL     OW18169   4.567   0.700   5.215 -0.5320 -0.2095 -0.1454
 2179SOL    HW118170   4.548   0.625   5.159  0.8900 -0.0928 -0.7998
 2179SOL    HW218171   4.662   0.692   5.228 -0.8062 -2.3886  0.4157
 2180SOL     OW18172   4.446   3.617   2.380  0.0066 -0.0691 -0.2589
 2180SOL    HW118173   4.532   3.603   2.341  0.2083  3.6603 -1.1269
 2180SOL    HW218174   4.387   3.587   2.311 -0.0974 -0.2368 -0.0944
 2181SOL     OW18175   1.819   3.806  11.352  0.4609 -0.1540 -0.0277
 2181SOL    HW118176   1.725   3.796  11.366  0.7309  1.0370  2.6200
 2181SOL    HW218177   1.826   3.902  11.354  2.5352 -0.3433  2.6229
 2182SOL     OW18178   4.400   1.667  13.655  0.2224 -0.2330 -0.0191
 2182SOL    HW118179   4.430   1.755  13.632 -1.4689  0.0479 -1.1410
 2182SOL    HW218180   4.354   1.644  13.574 -0.7076  2.0374 -0.1315
 2183SOL     OW18181   0.755   3.291  11.985 -0.3517 -0.1512  0.0555
 2183SOL    HW118182   0.799   3.273  12.068 -1.7358 -0.8284  0.6269
 2183SOL    HW218183   0.823   3.337  11.935 -2.2646  2.6324 -0.0360
 2184SOL     OW18184   2.463   0.524  11.921  0.3380 -0.0022  0.3936
 2184SOL    HW118185   2.444   0.548  12.011  0.0631 -0.2331  0.3991
 2184SOL    HW218186   2.495   0.434  11.930 -1.1249 -0.9156 -3.1331
 2185SOL     OW18187   1.922   1.619   7.763 -0.1200  0.9241  0.1197
 2185SOL    HW118188   1.984   1.668   7.817  0.4041  0.1799  0.2015
 2185SOL    HW218189   1.907   1.534   7.806 -2.1595  0.6553 -1.1354
 2186SOL     OW18190   1.268   3.312   7.440 -0.1737 -0.1573  0.0199
 2186SOL    HW118191   1.326   3.236   7.433 -1.0567 -0.7191 -1.2159
 2186SOL    HW218192   1.181   3.272   7.431 -0.0618 -0.3663 -0.1273
 2187SOL     OW18193   3.640   4.470   5.990  0.3094 -0.2400 -0.1999
 2187SOL    HW118194   3.624   4.443   5.900  0.4470  0.3028 -0.3868
 2187SOL    HW218195   3.552   4.484   6.027  0.0415 -0.7235 -0.6526
 2188SOL     OW18196   2.037   2.967  13.677  0.6034  0.2356 -0.6615
 2188SOL    HW118197   2.021   3.002  13.589 -4.9333 -0.7802 -0.0082
 2188SOL    HW218198   2.125   2.932  13.660  0.7122  0.7141 -1.1039
 2189SOL     OW18199   2.848   3.331   9.005 -0.3775 -0.4757  0.3126
 2189SOL    HW118200   2.794   3.410   9.011  2.1418  1.1848  0.7026
 2189SOL    HW218201   2.863   3.313   8.913 -1.4180 -1.7902  0.3917
 2190SOL     OW18202   4.489   3.281  15.375 -0.4878 -0.0426 -0.4007
 2190SOL    HW118203   4.480   3.361  15.323 -0.9195 -0.7793 -1.4388
 2190SOL    HW218204   4.401   3.282  15.414 -1.0027 -1.4922 -1.5394
 2191SOL     OW18205   1.749   2.180   6.044 -0.0045 -0.8899  0.6965
 2191SOL    HW118206   1.810   2.144   5.980  1.6306  2.9011  0.1419
 2191SOL    HW218207   1.660   2.148   6.029  0.9398 -3.7466  1.0420
 2192SOL     OW18208   1.626   1.331   3.854 -0.3846  0.8348 -0.5924
 2192SOL    HW118209   1.644   1.361   3.765  1.0694 -1.2507 -1.0061
 2192SOL    HW218210   1.558   1.265   3.838 -0.9216  1.1331  0.4368
 2193SOL     OW18211   1.690   4.576   8.251 -0.1792 -0.0390 -0.1551
 2193SOL    HW118212   1.671   4.492   8.293  1.6627 -0.3407  0.0947
 2193SOL    HW218213   1.603   4.589   8.213 -0.5466 -0.1658  0.6440
 2194SOL     OW18214   1.642   0.900  13.717  0.0816  0.4920  0.3849
 2194SOL    HW118215   1.647   0.995  13.706 -0.4622  0.5879  0.9723
 2194SOL    HW218216   1.615   0.894  13.809  1.4134 -2.0171  0.6125
 2195SOL     OW18217   0.357   3.928   8.017 -0.7746 -0.1788  0.2480
 2195SOL    HW118218   0.329   3.976   8.095 -0.6886  1.0145 -0.4556
 2195SOL    HW218219   0.452   3.933   8.027 -0.7981 -3.0461  2.0831
 2196SOL     OW18220   0.717   2.957   8.168 -0.4791 -0.0793 -0.0076
 2196SOL    HW118221   0.735   2.939   8.076  0.2536  2.4247 -0.3378
 2196SOL    HW218222   0.634   2.912   8.183 -0.0404 -1.1661 -0.8124
 2197SOL     OW18223   2.602   0.876   8.077 -0.3310 -0.1816  0.0582
 2197SOL    HW118224   2.685   0.834   8.054 -1.2575 -1.6566 -0.6042
 2197SOL    HW218225   2.577   0.923   7.997 -0.1772  0.0241  0.1282
 2198SOL     OW18226   0.800   4.623   8.832  0.3296  0.5598 -0.3021
 2198SOL    HW118227   0.811   4.602   8.739 -0.0930  0.4316 -0.3225
 2198SOL    HW218228   0.890   4.655   8.845 -0.0035  0.6843  1.5489
 2199SOL     OW18229   0.482   2.260   2.086  0.6216 -0.1140 -0.3277
 2199SOL    HW118230   0.554   2.219   2.038  0.3075 -1.3539  0.2474
 2199SOL    HW218231   0.428   2.184   2.109 -1.5742  2.2539  2.4210
 2200SOL     OW18232   1.597   1.191  11.380 -0.1465  0.3126 -0.6884
 2200SOL    HW118233   1.552   1.149  11.454 -0.9139  0.2535 -1.1951
 2200SOL    HW218234   1.536   1.183  11.307  0.6542  2.0750 -1.5373
 2201SOL     OW18235   2.304   1.381   1.790 -0.1067 -0.5484  0.1299
 2201SOL    HW118236   2.351   1.335   1.859  3.0718  0.3982 -1.4234
 2201SOL    HW218237   2.221   1.338   1.813  0.0590 -1.2921 -0.6253
 2202SOL     OW18238   1.643   2.416  11.989  0.6716  0.2488  0.6411
 2202SOL    HW118239   1.712   2.466  12.032 -0.2126 -0.2555  2.6446
 2202SOL    HW218240   1.588   2.485  11.951  0.3332  1.4219  3.2520
 2203SOL     OW18241   0.089   3.676   8.987  0.0818 -0.0832 -0.3909
 2203SOL    HW118242   0.103   3.618   9.062  0.0463 -2.6557 -2.3779
 2203SOL    HW218243   0.025   3.721   9.043 -0.0126 -0.9427  0.1854
 2204SOL     OW18244   2.610   2.970   4.474  0.2602 -0.1641 -0.7787
 2204SOL    HW118245   2.678   3.018   4.520  1.3996 -1.3598 -1.2278
 2204SOL    HW218246   2.536   3.030   4.483 -0.2810 -0.9450  0.0801
 2205SOL     OW18247   4.071   4.309   4.187 -0.1533  0.3238  1.1598
 2205SOL    HW118248   4.145   4.349   4.142  0.9286 -0.8640  1.8698
 2205SOL    HW218249   3.999   4.337   4.131  0.1470 -1.9710 -0.3516
 2206SOL     OW18250   1.178   3.060   5.654 -0.0436  0.1754 -0.3928
 2206SOL    HW118251   1.197   3.046   5.747 -1.4911 -2.0609 -0.4278
 2206SOL    HW218252   1.140   3.148   5.654 -0.0593  0.1663  0.1558
 2207SOL     OW18253   3.537   3.562   5.312  0.1852  0.2968  0.1895
 2207SOL    HW118254   3.478   3.496   5.274  1.4255 -1.9557  2.1426
 2207SOL    HW218255   3.592   3.505   5.366 -0.7123 -0.8071 -0.0674
 2208SOL     OW18256   1.963   1.544   2.814  0.3435  0.5878 -0.0032
 2208SOL    HW118257   1.947   1.638   2.819  0.3779  0.6894 -2.0351
 2208SOL    HW218258   2.021   1.522   2.887  0.1717  2.0208  0.5625
 2209SOL     OW18259   0.471   1.089   3.893  0.2395  0.4337 -0.0781
 2209SOL    HW118260   0.481   1.003   3.934  2.8648  0.8846  0.2214
 2209SOL    HW218261   0.381   1.085   3.860 -0.3283 -1.1604  1.6948
 2210SOL     OW18262   4.505   3.859   6.758  0.2717  0.4172 -0.2717
 2210SOL    HW118263   4.415   3.877   6.729 -0.6602  1.1541  3.0407
 2210SOL    HW218264   4.521   3.939   6.808 -0.7984 -0.4869  1.5064
 2211SOL     OW18265   4.081   3.709   1.090 -0.2729 -0.1493  0.3535
 2211SOL    HW118266   4.068   3.716   1.184 -1.2592 -0.2877  0.2244
 2211SOL    HW218267   4.129   3.627   1.077  0.1022 -0.1331  1.6507
 2212SOL     OW18268   1.943   1.452   4.703 -0.3853  0.1373 -0.2444
 2212SOL    HW118269   2.030   1.411   4.703  0.1782  1.3361 -0.0446
 2212SOL    HW218270   1.896   1.422   4.626 -0.4573 -1.5661  0.4516
 2213SOL     OW18271   2.062   3.154  16.473 -0.4971  0.1728  0.3594
 2213SOL    HW118272   2.100   3.112  16.396  0.6617 -0.2756  1.1737
 2213SOL    HW218273   2.132   3.216  16.492  0.1286 -0.6102  0.6108
 2214SOL     OW18274   3.424   2.774   1.773  0.3163  0.5556 -0.4877
 2214SOL    HW118275   3.423   2.869   1.769  1.4919  0.5529 -0.9596
 2214SOL    HW218276   3.517   2.756   1.761  0.1096  0.8825 -2.6637
 2215SOL     OW18277   3.656   2.324  13.100 -0.4007  0.4447 -0.1858
 2215SOL    HW118278   3.697   2.328  13.187 -0.8444 -0.3585  0.0558
 2215SOL    HW218279   3.696   2.245  13.064 -1.9100  0.5692 -2.1410
 2216SOL     OW18280   3.944   3.137   8.899  0.3373  0.1949  0.1484
 2216SOL    HW118281   3.957   3.143   8.994  0.4318  1.0570  0.0876
 2216SOL    HW218282   3.895   3.216   8.877  1.4642  0.9036  0.1820
 2217SOL     OW18283   2.340   4.516   5.040  0.7809  0.2505 -0.4208
 2217SOL    HW118284   2.421   4.467   5.029  1.2265  0.5189  1.7883
 2217SOL    HW218285   2.287   4.445   5.077 -0.7192  1.6826  0.1657
 2218SOL     OW18286   4.516   2.558   2.991 -0.1204  0.1990 -0.2250
 2218SOL    HW118287   4.590   2.601   3.033  0.2545  1.7494 -2.5024
 2218SOL    HW218288   4.510   2.473   3.035 -1.4126 -0.6960 -2.1279
 2219SOL     OW18289   4.566   4.204   4.060  0.1801 -0.5911  0.0771
 2219SOL    HW118290   4.626   4.246   3.998  1.2818 -2.0120  0.1804
 2219SOL    HW218291   4.482   4.216   4.015  0.4516 -0.0466 -0.2840
 2220SOL     OW18292   0.500   4.180   1.725  0.1783  1.1558 -0.0504
 2220SOL    HW118293   0.530   4.223   1.645  1.0118 -0.2629 -0.4927
 2220SOL    HW218294   0.413   4.155   1.694  0.1176  1.8767 -0.4526
 2221SOL     OW18295   2.493   2.222   8.298 -0.0217 -0.0889  0.6108
 2221SOL    HW118296   2.413   2.198   8.250 -0.9774 -0.2680  2.3117
 2221SOL    HW218297   2.520   2.297   8.244  0.6647 -1.0454 -0.3814
 2222SOL     OW18298   4.642   3.145   7.794  0.1058  0.2801  0.3762
 2222SOL    HW118299   4.665   3.078   7.729 -1.0307 -1.4242  1.7345
 2222SOL    HW218300   4.650   3.098   7.877  2.2287  1.1260  0.6408
 2223SOL     OW18301   2.003   3.524   4.824  0.1490  0.0711  0.2412
 2223SOL    HW118302   2.093   3.524   4.791  0.8480  1.5146  2.1667
 2223SOL    HW218303   1.958   3.565   4.750 -0.2952 -0.6701  0.1065
 2224SOL     OW18304   4.613   4.660   1.426 -0.1857  0.4957 -0.1467
 2224SOL    HW118305   4.534   4.625   1.387  0.7578 -2.2014  0.3971
 2224SOL    HW218306   4.637   4.589   1.485 -0.1428  0.6609  0.0344
 2225SOL     OW18307   3.050   2.774  17.142  0.0321 -0.1880  0.4080
 2225SOL    HW118308   2.993   2.721  17.198  0.1664 -1.1845 -0.4172
 2225SOL    HW218309   3.123   2.713  17.133  1.4988  1.7603 -0.8426
 2226SOL     OW18310   2.202   1.534  15.970 -0.2609 -0.0929 -0.3729
 2226SOL    HW118311   2.297   1.534  15.982 -0.1533  0.8904 -1.2010
 2226SOL    HW218312   2.190   1.627  15.951 -0.5541  0.4140  2.2079
 2227SOL     OW18313   3.281   4.129   0.960 -0.0858 -0.1951  0.0493
 2227SOL    HW118314   3.318   4.216   0.976 -0.0523 -0.2510  0.2731
 2227SOL    HW218315   3.277   4.132   0.864  1.0097  0.0812  0.0072
 2228SOL     OW18316   3.317   2.034  17.635  0.1557 -0.1806  0.1519
 2228SOL    HW118317   3.282   2.025  17.546  1.2508 -1.0128 -0.1876
 2228SOL    HW218318   3.242   1.988  17.672 -0.5500  0.6805 -0.1985
 2229SOL     OW18319   1.870   4.069   4.195 -0.0684 -0.3028 -0.4370
 2229SOL    HW118320   1.840   4.007   4.261 -3.0279  2.2342  0.6103
 2229SOL    HW218321   1.946   4.022   4.161  1.1666  1.9329 -0.7360
 2230SOL     OW18322   2.581   1.979   6.527  0.1302 -0.2418  0.4275
 2230SOL    HW118323   2.529   2.009   6.602 -0.1127 -0.6529  0.4197
 2230SOL    HW218324   2.519   2.002   6.458  0.8330  0.3453 -0.0009
 2231SOL     OW18325   3.953   3.611   6.018  0.7027 -0.6069  0.0107
 2231SOL    HW118326   4.001   3.687   6.053 -0.9534  0.1917  0.5630
 2231SOL    HW218327   3.866   3.623   6.056 -0.0220  0.5948 -2.0564
 2232SOL     OW18328   0.231   3.689   8.375 -0.0608 -0.3641  0.1632
 2232SOL    HW118329   0.252   3.678   8.467 -2.6613 -1.1230  0.6551
 2232SOL    HW218330   0.284   3.618   8.339 -0.0922 -0.8691  1.1464
 2233SOL     OW18331   1.194   1.296   6.263  0.0449 -0.6684 -0.2921
 2233SOL    HW118332   1.194   1.378   6.313  0.4643 -0.7626 -0.1372
 2233SOL    HW218333   1.145   1.321   6.185 -0.8367  3.0570  1.4422
 2234SOL     OW18334   2.979   4.354   6.251  0.0469  0.0393 -0.2079
 2234SOL    HW118335   2.947   4.440   6.278  1.0671  0.2127  0.4546
 2234SOL    HW218336   2.906   4.294   6.269 -0.0062 -0.0013 -0.5647
 2235SOL     OW18337   3.582   3.858   6.506  0.3801  0.1269 -0.3212
 2235SOL    HW118338   3.598   3.907   6.426 -0.9038  0.6284 -0.2732
 2235SOL    HW218339   3.513   3.908   6.549  2.4350  1.1147  1.8783
 2236SOL     OW18340   3.782   2.503   6.757  0.6050  0.3571  0.3383
 2236SOL    HW118341   3.692   2.482   6.783  0.7699  1.4871  1.8653
 2236SOL    HW218342   3.767   2.594   6.732  0.3375  0.5647  1.2447
 2237SOL     OW18343   0.298   4.674  11.165  0.1681 -0.1669  0.2704
 2237SOL    HW118344   0.252   4.649  11.245  0.6718  0.1376  0.6546
 2237SOL    HW218345   0.377   4.624  11.188 -0.1114 -1.5206 -1.7367
 2238SOL     OW18346   2.409   0.609   5.403 -0.3959  0.3065  0.4916
 2238SOL    HW118347   2.408   0.560   5.321  0.4416  1.2349 -0.0703
 2238SOL    HW218348   2.355   0.687   5.396 -1.0937 -0.0026  2.3224
 2239SOL     OW18349   4.223   1.231   9.594 -0.0217  0.1036 -0.3678
 2239SOL    HW118350   4.156   1.226   9.527 -1.4197  1.3288  0.9351
 2239SOL    HW218351   4.280   1.158   9.570  1.7852  0.9525  1.3275
 2240SOL     OW18352   1.160   1.705   5.268  0.1562 -0.0472  0.6932
 2240SOL    HW118353   1.065   1.710   5.253  0.4007  0.2016 -0.6886
 2240SOL    HW218354   1.160   1.618   5.308  3.0178 -0.0767  0.6001
 2241SOL     OW18355   3.902   3.784   8.613 -0.2582 -0.2047  0.1343
 2241SOL    HW118356   3.969   3.768   8.546 -0.9666 -1.2275 -0.3363
 2241SOL    HW218357   3.849   3.705   8.614  0.7000 -0.8503  0.5580
 2242SOL     OW18358   3.268   3.597   6.290 -0.3025 -0.7375 -0.0211
 2242SOL    HW118359   3.246   3.687   6.268  1.8091 -0.1107  0.4551
 2242SOL    HW218360   3.196   3.564   6.236 -1.2802  1.2783  0.0753
 2243SOL     OW18361   4.514   2.373   5.766 -0.0153 -0.6074 -0.1833
 2243SOL    HW118362   4.490   2.325   5.845  1.7359 -0.7454  0.2668
 2243SOL    HW218363   4.434   2.425   5.763  0.6954  0.4078 -1.8933
 2244SOL     OW18364   1.999   3.023  17.575 -0.5534 -0.0803  0.1312
 2244SOL    HW118365   1.995   3.119  17.570  0.4034 -0.0091  0.7460
 2244SOL    HW218366   2.078   2.997  17.528 -0.9586 -1.7889  0.3907
 2245SOL     OW18367   3.255   4.187   7.950 -0.2276 -0.0025  0.2685
 2245SOL    HW118368   3.348   4.181   7.971 -0.6693  1.2996  2.5633
 2245SOL    HW218369   3.226   4.240   8.024 -2.3429  1.4151 -1.5682
 2246SOL     OW18370   0.598   2.220   1.060 -0.4292 -0.0302  0.0491
 2246SOL    HW118371   0.581   2.130   1.031 -1.6207  0.0555  0.4832
 2246SOL    HW218372   0.570   2.269   0.982 -0.1202  1.6602  1.0088
 2247SOL     OW18373   3.908   2.934   7.292  0.3124 -0.2922 -0.8700
 2247SOL    HW118374   3.932   3.026   7.282 -0.1222 -0.2213 -1.2914
 2247SOL    HW218375   3.822   2.938   7.250  1.1859  0.2277 -2.6204
 2248SOL     OW18376   0.430   2.193   2.474 -0.1513 -0.0900 -0.1221
 2248SOL    HW118377   0.414   2.122   2.411 -1.2342  1.8706 -2.0244
 2248SOL    HW218378   0.350   2.240   2.453  0.6530  2.2292  1.9986
 2249SOL     OW18379   3.547   4.435   1.499 -0.7003 -0.3922 -0.2149
 2249SOL    HW118380   3.628   4.391   1.474  1.2441  2.7436  0.6390
 2249SOL    HW218381   3.575   4.525   1.487 -1.2652  0.1529  2.5895
 2250SOL     OW18382   1.266   4.586   3.837 -0.0283 -0.3893 -0.2805
 2250SOL    HW118383   1.204   4.555   3.902  0.7628  2.1190  1.6455
 2250SOL    HW218384   1.346   4.560   3.883 -0.4847 -0.7137  0.3219
 2251SOL     OW18385   1.427   2.187   7.470 -0.1264 -0.5873  0.1956
 2251SOL    HW118386   1.462   2.099   7.454  1.9902  0.5623 -1.5707
 2251SOL    HW218387   1.363   2.162   7.537  1.3837 -2.0458  1.1116
 2252SOL     OW18388   0.207   0.928   9.616 -0.0106 -0.3440 -0.6454
 2252SOL    HW118389   0.116   0.903   9.628  0.3507 -1.7001 -0.6710
 2252SOL    HW218390   0.264   0.863   9.657  0.8515  0.7616 -0.0900
 2253SOL     OW18391   1.601   2.517  11.272  0.2623 -0.5843 -0.1695
 2253SOL    HW118392   1.601   2.591  11.212 -0.6319 -0.2521  0.2257
 2253SOL    HW218393   1.522   2.547  11.318  1.1689  1.1393  0.2487
 2254SOL     OW18394   4.688   2.767   2.238 -0.4310 -0.3712 -0.3510
 2254SOL    HW118395   4.724   2.780   2.326  0.9358 -3.7113 -0.4353
 2254SOL    HW218396   4.686   2.854   2.197  1.1816  0.8352  2.1127
 2255SOL     OW18397   3.347   1.684   2.468  0.1503 -0.4526  0.6234
 2255SOL    HW118398   3.326   1.642   2.384 -2.1390  1.4523  0.2427
 2255SOL    HW218399   3.361   1.610   2.526  1.3938 -0.1509  0.7100
 2256SOL     OW18400   2.744   2.778   0.226  0.0080 -0.3096 -0.1616
 2256SOL    HW118401   2.809   2.818   0.168 -0.0215  1.1349  0.8007
 2256SOL    HW218402   2.755   2.684   0.209  1.5924  0.0238 -0.9891
 2257SOL     OW18403   1.970   0.569  12.656 -0.5029  0.4532  0.1690
 2257SOL    HW118404   1.981   0.663  12.645  1.7510  0.3974  2.1395
 2257SOL    HW218405   1.971   0.543  12.564 -0.3128 -1.2959  0.6697
 2258SOL     OW18406   0.774   0.594   3.629  0.1939 -0.1888 -0.3810
 2258SOL    HW118407   0.792   0.643   3.710 -1.9752 -0.1355  0.0733
 2258SOL    HW218408   0.749   0.504   3.649 -1.7910  0.2525 -0.8205
 2259SOL     OW18409   0.041   3.746  12.636 -0.3002 -0.0439  0.3129
 2259SOL    HW118410   0.112   3.808  12.651 -0.3532 -0.2284  1.3767
 2259SOL    HW218411   4.711   3.797  12.682 -1.1423 -0.2290 -0.7180
 2260SOL     OW18412   1.010   2.007   3.291  0.5535 -0.2450 -0.2700
 2260SOL    HW118413   1.090   2.058   3.285  1.4652 -1.4020  1.9671
 2260SOL    HW218414   1.039   1.948   3.362 -1.0228  0.4083  0.9242
 2261SOL     OW18415   3.978   3.569   7.129  0.4560 -0.0581 -0.4036
 2261SOL    HW118416   3.932   3.580   7.045 -0.8627 -0.1861  0.2936
 2261SOL    HW218417   3.918   3.509   7.174  3.3821 -2.6413 -0.0186
 2262SOL     OW18418   1.587   1.064   4.830 -0.0525  0.2896 -0.3261
 2262SOL    HW118419   1.645   1.014   4.888 -0.6301 -1.7385 -1.4689
 2262SOL    HW218420   1.557   1.140   4.878 -1.3165  0.7908 -1.9100
 2263SOL     OW18421   2.298   1.607   8.020  0.5749 -0.6076  0.5891
 2263SOL    HW118422   2.340   1.692   8.035 -0.1788 -0.1085 -0.1220
 2263SOL    HW218423   2.257   1.584   8.104  1.0076 -0.1806  0.9190
 2264SOL     OW18424   1.036   3.172   4.870 -0.3360  0.2070 -0.6756
 2264SOL    HW118425   1.075   3.107   4.811  2.6449  0.1486  1.4164
 2264SOL    HW218426   1.093   3.246   4.850  0.4358  0.2582  1.8500
 2265SOL     OW18427   2.680   1.421  14.372  0.3971  0.6470  0.0517
 2265SOL    HW118428   2.611   1.452  14.313  0.0767 -1.3964 -0.6416
 2265SOL    HW218429   2.645   1.339  14.406  0.7993 -0.8059 -3.0210
 2266SOL     OW18430   3.315   1.288   9.249 -0.4517  0.4096 -0.1518
 2266SOL    HW118431   3.263   1.259   9.174 -1.6415  3.2425 -0.4192
 2266SOL    HW218432   3.373   1.343   9.197 -0.8532  2.2579  1.3294
 2267SOL     OW18433   1.482   0.628   1.771 -0.4559  0.2128 -0.4090
 2267SOL    HW118434   1.400   0.662   1.806 -0.7856 -1.7415  0.7211
 2267SOL    HW218435   1.492   0.698   1.706  0.1336 -0.8816 -1.4889
 2268SOL     OW18436   4.037   0.738   5.915  0.1104  0.1653  0.2660
 2268SOL    HW118437   4.061   0.704   6.002 -2.6803  0.7100  1.2372
 2268SOL    HW218438   3.953   0.694   5.904  0.3273  0.0226 -0.7935
 2269SOL     OW18439   0.064   4.631   3.666  0.2736 -0.3944  0.7739
 2269SOL    HW118440   4.733   4.638   3.731 -1.0634 -0.9208 -0.5837
 2269SOL    HW218441   0.131   4.588   3.720  0.4161 -2.3543 -0.9356
 2270SOL     OW18442   1.798   0.684   3.753 -0.8142 -0.8494  0.0476
 2270SOL    HW118443   1.706   0.674   3.729 -0.4499 -0.5674 -1.4614
 2270SOL    HW218444   1.828   0.734   3.677  0.2827 -2.5562 -0.6363
 2271SOL     OW18445   2.943   4.107   2.126 -0.1172  0.0919 -0.0326
 2271SOL    HW118446   2.852   4.080   2.124 -0.1310  0.0044  1.8567
 2271SOL    HW218447   2.970   4.027   2.079 -0.3769  0.5507 -0.9537
 2272SOL     OW18448   2.385   1.985   0.656  0.8304 -0.0155 -0.2967
 2272SOL    HW118449   2.446   2.022   0.720 -0.2042 -1.9111  1.7964
 2272SOL    HW218450   2.416   1.895   0.647 -0.7769 -0.4891 -0.9963
 2273SOL     OW18451   1.512   0.644   1.409  0.5985  0.5997 -0.0909
 2273SOL    HW118452   1.582   0.659   1.345  3.1018 -0.0126  2.4928
 2273SOL    HW218453   1.531   0.713   1.473  0.7791 -0.8537  1.4174
 2274SOL     OW18454   1.719   0.046  13.577 -0.2428 -0.1360  0.0720
 2274SOL    HW118455   1.768   0.064  13.657  2.2231 -0.1919 -1.4473
 2274SOL    HW218456   1.671   4.704  13.603 -1.7286  0.2258 -1.5395
 2275SOL     OW18457   3.345   3.200  16.915  0.2671 -0.3942  0.3270
 2275SOL    HW118458   3.370   3.252  16.838 -0.2479  1.4251  1.3769
 2275SOL    HW218459   3.290   3.131  16.878  0.3456  1.0747 -2.5291
 2276SOL     OW18460   2.394   2.396   2.907  0.0674 -0.2417  0.4172
 2276SOL    HW118461   2.344   2.329   2.954  0.9907 -0.9635  0.3927
 2276SOL    HW218462   2.482   2.385   2.944  1.0391  1.5996 -1.3872
 2277SOL     OW18463   3.497   4.399   6.900  0.3310  0.1786 -0.5467
 2277SOL    HW118464   3.486   4.340   6.975 -0.6268  2.2567  0.9585
 2277SOL    HW218465   3.545   4.473   6.938 -1.4006  0.2518  1.5609
 2278SOL     OW18466   1.605   0.661   4.041  0.4319  0.7113  0.0480
 2278SOL    HW118467   1.568   0.697   3.961 -1.6578  0.8310  1.0588
 2278SOL    HW218468   1.631   0.747   4.074  2.9918 -0.7139  1.6945
 2279SOL     OW18469   3.037   2.820   3.942 -0.2008 -0.8028  0.4250
 2279SOL    HW118470   2.986   2.796   4.019  0.5475 -3.3167  0.1390
 2279SOL    HW218471   3.128   2.816   3.973  0.9801 -0.2069 -2.9590
 2280SOL     OW18472   1.205   1.438   8.207 -0.7059 -0.0331  0.0410
 2280SOL    HW118473   1.220   1.530   8.229  0.5654 -0.1505 -0.3133
 2280SOL    HW218474   1.296   1.408   8.198  0.4872  3.0334  1.6770
 2281SOL     OW18475   0.797   4.037  15.346  0.1035 -0.0232 -0.4668
 2281SOL    HW118476   0.872   4.077  15.391  1.6045 -2.0210 -1.1713
 2281SOL    HW218477   0.765   3.975  15.412  1.1325  3.3844  3.2396
 2282SOL     OW18478   0.439   3.631   4.915 -1.1868  0.0640  0.3962
 2282SOL    HW118479   0.441   3.705   4.854  0.5392 -0.7020 -0.4915
 2282SOL    HW218480   0.382   3.575   4.861 -4.1134  2.4116  1.1151
 2283SOL     OW18481   2.857   4.225   2.486  0.4222 -0.4577  0.0202
 2283SOL    HW118482   2.768   4.258   2.474  0.2023 -1.4767 -1.0856
 2283SOL    HW218483   2.905   4.300   2.452 -0.1319 -1.2477 -2.5053
 2284SOL     OW18484   2.937   4.019   5.191  0.3391  0.1333  0.2552
 2284SOL    HW118485   2.846   4.010   5.221  0.3115  2.2628  0.8338
 2284SOL    HW218486   2.974   3.938   5.226  2.3880 -0.3606 -3.0942
 2285SOL     OW18487   3.318   1.044   9.791 -0.1795 -0.0762  0.1966
 2285SOL    HW118488   3.310   0.966   9.735  1.3393 -0.9639  1.2197
 2285SOL    HW218489   3.387   1.092   9.746 -2.4539  2.5313 -0.5095
 2286SOL     OW18490   2.251   3.820  17.627 -0.4245  0.2138  0.7406
 2286SOL    HW118491   2.201   3.835  17.547  0.8404  0.6294  0.0216
 2286SOL    HW218492   2.344   3.834  17.611 -0.8118  1.3092 -0.5976
 2287SOL     OW18493   3.118   2.411   9.140 -0.0681 -0.0184 -0.3417
 2287SOL    HW118494   3.099   2.497   9.103  0.6168  0.4858  0.4704
 2287SOL    HW218495   3.170   2.431   9.218  1.0307 -2.3157 -0.4790
 2288SOL     OW18496   1.627   2.873   7.421 -0.3215  0.2415 -0.2147
 2288SOL    HW118497   1.703   2.929   7.411  1.5525 -2.0139  1.4404
 2288SOL    HW218498   1.611   2.875   7.516 -0.1264 -1.2924 -0.1504
 2289SOL     OW18499   1.908   2.495   0.928  0.4127 -0.0157 -0.7392
 2289SOL    HW118500   1.896   2.470   0.836  0.3822 -0.8428 -0.5171
 2289SOL    HW218501   1.944   2.411   0.959 -1.1524 -0.8682 -1.2178
 2290SOL     OW18502   0.157   3.850  16.188 -0.2166 -0.2052  0.0576
 2290SOL    HW118503   0.188   3.894  16.109  0.8157 -2.4470 -0.7910
 2290SOL    HW218504   0.062   3.849  16.173 -0.4275  1.9596  1.2053
 2291SOL     OW18505   1.166   0.958   8.182 -0.0652  0.7901  0.0817
 2291SOL    HW118506   1.177   0.897   8.109 -0.2536  0.2554  0.4976
 2291SOL    HW218507   1.254   0.953   8.218  0.7370  0.5963 -1.9302
 2292SOL     OW18508   2.701   4.442   0.441  0.6404  0.1150  0.7358
 2292SOL    HW118509   2.730   4.376   0.503  0.1740 -0.7967 -0.0213
 2292SOL    HW218510   2.734   4.399   0.362  1.7507  3.3174 -0.5556
 2293SOL     OW18511   4.022   0.518  13.379 -0.1163  0.8992  0.2341
 2293SOL    HW118512   4.074   0.581  13.430  1.9028 -1.0585  0.5759
 2293SOL    HW218513   4.034   0.544  13.288 -0.0144 -1.7951 -0.5066
 2294SOL     OW18514   2.624   1.818  10.837  0.5074  0.4531  0.7469
 2294SOL    HW118515   2.683   1.744  10.851 -0.1393  0.4249  3.3361
 2294SOL    HW218516   2.557   1.787  10.776  2.0651 -1.9069  0.2431
 2295SOL     OW18517   1.466   3.132   7.729 -0.0285 -0.4119 -0.6377
 2295SOL    HW118518   1.407   3.133   7.654 -1.1291  0.9442  0.2603
 2295SOL    HW218519   1.498   3.042   7.721 -0.4044 -0.6174  0.1691
 2296SOL     OW18520   3.561   2.790   4.555  0.1156 -0.1942  0.1114
 2296SOL    HW118521   3.553   2.709   4.506 -2.4081 -0.2017  0.5185
 2296SOL    HW218522   3.601   2.847   4.490 -0.4840  1.2177  0.9691
 2297SOL     OW18523   3.414   1.332  10.549 -0.4254  0.5499  0.2433
 2297SOL    HW118524   3.327   1.298  10.571 -0.9487  1.0832 -0.9904
 2297SOL    HW218525   3.415   1.414  10.598 -1.1668  0.0275  1.1410
 2298SOL     OW18526   2.456   1.524  14.657  0.2309 -0.4972 -0.1294
 2298SOL    HW118527   2.479   1.439  14.619  3.3104  1.2163 -2.1758
 2298SOL    HW218528   2.435   1.500  14.747  0.7779 -0.3650  0.0308
 2299SOL     OW18529   2.612   1.246   5.476 -0.5863 -0.2447 -0.6899
 2299SOL    HW118530   2.549   1.232   5.547 -0.2303  0.4581 -0.2441
 2299SOL    HW218531   2.663   1.317   5.514 -1.0246 -0.5057  0.3947
 2300SOL     OW18532   3.559   3.024   7.771  0.1957 -0.7867  0.1227
 2300SOL    HW118533   3.557   2.932   7.743  0.5414 -0.8327  0.2491
 2300SOL    HW218534   3.482   3.059   7.725  2.1927  2.5203 -0.6882
 2301SOL     OW18535   3.175   1.207   9.939  0.8367  0.1339 -0.6406
 2301SOL    HW118536   3.173   1.258   9.858 -0.2639  0.5510 -0.3520
 2301SOL    HW218537   3.232   1.136   9.910  1.7472  0.6831 -0.1662
 2302SOL     OW18538   0.860   4.246   6.683 -0.0347  0.1310  0.1463
 2302SOL    HW118539   0.864   4.251   6.779 -0.1684 -1.0494  0.2078
 2302SOL    HW218540   0.945   4.215   6.652  0.0543 -0.5220  1.0399
 2303SOL     OW18541   1.179   3.290   4.502  0.0982 -0.2142 -0.3702
 2303SOL    HW118542   1.128   3.364   4.469  1.2334  0.5983 -0.3029
 2303SOL    HW218543   1.241   3.289   4.429 -0.7716 -1.2250 -1.0837
 2304SOL     OW18544   3.506   0.083  10.098 -0.0616 -0.0846  0.2520
 2304SOL    HW118545   3.579   0.141  10.120  0.0060  0.1639 -0.6232
 2304SOL    HW218546   3.541   0.047  10.017 -0.3187  1.3886 -0.5136
 2305SOL     OW18547   0.589   0.303   3.510 -0.2803 -0.0625 -0.3248
 2305SOL    HW118548   0.650   0.269   3.444 -1.4464 -0.6304 -1.1152
 2305SOL    HW218549   0.569   0.216   3.543 -2.0686  0.3419 -0.3762
 2306SOL     OW18550   3.218   3.421  10.037 -0.0724  0.1694  0.0166
 2306SOL    HW118551   3.181   3.472  10.109  0.2173  0.0621  0.2423
 2306SOL    HW218552   3.147   3.364  10.007 -0.5242  0.7840 -0.0584
 2307SOL     OW18553   2.218   2.305   7.197  0.2336 -0.6139 -0.5151
 2307SOL    HW118554   2.244   2.214   7.189 -0.6133 -0.8953 -0.0852
 2307SOL    HW218555   2.215   2.308   7.292 -1.0791 -1.5043 -0.5232
 2308SOL     OW18556   3.620   1.804   9.429  0.0390 -0.1107 -0.4998
 2308SOL    HW118557   3.567   1.882   9.446  1.2067  0.3273  1.0632
 2308SOL    HW218558   3.647   1.832   9.341  2.3554  1.1215  0.6180
 2309SOL     OW18559   0.678   0.810  11.187 -0.2272 -0.5874  0.2359
 2309SOL    HW118560   0.711   0.899  11.173  0.4541 -0.9374 -0.3798
 2309SOL    HW218561   0.646   0.799  11.097 -2.0846  2.5935  0.4790
 2310SOL     OW18562   0.940   2.878   6.942  0.8683 -0.2984 -0.7328
 2310SOL    HW118563   1.013   2.818   6.927  0.7318 -0.0984 -2.2698
 2310SOL    HW218564   0.999   2.954   6.938 -0.3754  0.6110 -2.0245
 2311SOL     OW18565   4.277   3.034   5.916  0.4533  0.5548  0.1738
 2311SOL    HW118566   4.207   3.088   5.952  0.3765  0.0668  0.7425
 2311SOL    HW218567   4.333   3.095   5.867 -2.0334  3.3662  0.8452
 2312SOL     OW18568   1.749   3.948   3.956  0.5951 -0.6156  0.4170
 2312SOL    HW118569   1.778   3.857   3.956  0.8558 -0.5304  0.1893
 2312SOL    HW218570   1.818   3.998   4.000  1.2126 -1.4955  0.4336
 2313SOL     OW18571   2.478   0.389  14.122  0.0087 -0.3179  0.1494
 2313SOL    HW118572   2.409   0.430  14.175  0.9309  0.2567  0.9107
 2313SOL    HW218573   2.433   0.312  14.087 -0.5714 -0.1247  0.4528
 2314SOL     OW18574   3.259   3.349   5.573  0.1231 -0.5051 -0.1446
 2314SOL    HW118575   3.300   3.348   5.487 -0.9845  1.5871 -0.7136
 2314SOL    HW218576   3.223   3.437   5.586 -1.7884 -1.2103 -0.5918
 2315SOL     OW18577   0.140   3.138   6.545  0.3417  0.7953  0.4424
 2315SOL    HW118578   0.230   3.142   6.579  0.3582  2.5776  0.1878
 2315SOL    HW218579   0.138   3.051   6.504 -0.9838  1.6469 -1.2754
 2316SOL     OW18580   4.093   3.766   3.733 -0.5335  0.4655  0.0662
 2316SOL    HW118581   4.081   3.672   3.716  3.6265  0.2560 -1.6823
 2316SOL    HW218582   4.146   3.798   3.660 -0.2334  1.5906  0.7770
 2317SOL     OW18583   2.164   2.279  10.864 -0.4408 -0.1198 -0.0238
 2317SOL    HW118584   2.119   2.286  10.948 -0.3909  1.2369 -0.1221
 2317SOL    HW218585   2.210   2.196  10.876  0.4146  0.4353  0.4827
 2318SOL     OW18586   2.547   3.680  11.327  0.2715  0.1909  0.0533
 2318SOL    HW118587   2.527   3.732  11.405 -0.1843 -0.0690  0.1123
 2318SOL    HW218588   2.504   3.733  11.261  0.2518 -1.0673 -0.9537
 2319SOL     OW18589   0.326   3.403   7.175  0.2022 -0.8426  0.3699
 2319SOL    HW118590   0.355   3.371   7.089  2.4158  1.3591  0.2990
 2319SOL    HW218591   0.234   3.422   7.156  0.7679 -1.2627 -2.8735
 2320SOL     OW18592   1.548   2.265   4.243 -0.1738  0.0031 -0.4035
 2320SOL    HW118593   1.522   2.264   4.335  1.7602  0.2125  0.1547
 2320SOL    HW218594   1.558   2.359   4.230  5.5595 -0.4585  0.5639
 2321SOL     OW18595   4.610   0.925   6.639 -0.2294  0.1615 -0.0526
 2321SOL    HW118596   4.653   0.849   6.598  1.5148 -0.4175  2.8606
 2321SOL    HW218597   4.557   0.967   6.571  1.6564  0.2646 -1.4446
 2322SOL     OW18598   0.248   0.311   7.852 -0.1945  0.1763 -0.1048
 2322SOL    HW118599   0.262   0.234   7.796  1.3497 -0.0532  0.5723
 2322SOL    HW218600   0.329   0.356   7.830 -0.4858  1.1897  0.9172
 2323SOL     OW18601   0.415   2.447   1.152 -0.0796 -0.1490  0.0423
 2323SOL    HW118602   0.387   2.379   1.091 -0.7686  1.3840 -1.3617
 2323SOL    HW218603   0.496   2.409   1.186  1.1262  1.0919 -1.4369
 2324SOL     OW18604   2.503   1.063  13.479 -0.1308  1.2333  0.1483
 2324SOL    HW118605   2.561   1.081  13.404 -2.3321 -0.9800 -2.1042
 2324SOL    HW218606   2.560   1.005  13.530  0.5997 -0.7380 -2.9029
 2325SOL     OW18607   2.962   2.785   2.381  0.1098  0.2730 -0.4097
 2325SOL    HW118608   3.037   2.831   2.418 -0.3067  0.6912 -0.0863
 2325SOL    HW218609   2.946   2.733   2.460 -0.3859  1.3711  0.2054
 2326SOL     OW18610   2.998   0.114   6.035 -0.2104  0.1989 -0.3481
 2326SOL    HW118611   2.953   0.094   5.953  0.1218 -3.2728  0.3119
 2326SOL    HW218612   2.973   0.206   6.043  0.0273  0.3505 -1.3873
 2327SOL     OW18613   2.107   2.482   7.029 -0.2664 -0.1281  0.2604
 2327SOL    HW118614   2.165   2.423   7.076  2.2133  0.2894 -2.2679
 2327SOL    HW218615   2.036   2.496   7.093 -0.1352  1.3995  0.0833
 2328SOL     OW18616   2.924   1.348   3.657  0.4320 -0.0669  0.1723
 2328SOL    HW118617   2.994   1.413   3.661  1.7795 -1.5224  0.2019
 2328SOL    HW218618   2.893   1.360   3.568  0.3068 -2.8164 -0.1627
 2329SOL     OW18619   0.733   3.349   5.532  0.1112 -0.4801 -0.4948
 2329SOL    HW118620   0.770   3.265   5.505  0.8105  0.2720 -1.9267
 2329SOL    HW218621   0.701   3.386   5.449 -1.5117 -0.0775  0.3188
 2330SOL     OW18622   2.118   3.117   0.528  0.1748  0.2105  0.1893
 2330SOL    HW118623   2.126   3.027   0.497 -0.0758  1.4191 -3.3461
 2330SOL    HW218624   2.124   3.162   0.444  1.2388  0.5449  0.4430
 2331SOL     OW18625   1.560   0.022   8.392 -0.5763 -0.2273 -0.0602
 2331SOL    HW118626   1.634   4.712   8.355 -1.2976 -0.8436 -0.6951
 2331SOL    HW218627   1.555   0.081   8.317  0.4133 -0.1797 -0.0927
 2332SOL     OW18628   2.546   3.587   2.468  1.0126  0.2740  0.3629
 2332SOL    HW118629   2.484   3.536   2.416 -2.0580  1.7224  2.6627
 2332SOL    HW218630   2.508   3.672   2.489 -0.2633 -0.2444  0.1102
 2333SOL     OW18631   1.065   3.119  14.243  0.4027 -0.3998 -0.0132
 2333SOL    HW118632   1.062   3.119  14.339 -2.4025 -0.8643 -0.1007
 2333SOL    HW218633   1.151   3.079  14.232  0.7290 -0.0060  1.0526
 2334SOL     OW18634   3.669   1.110   3.613  0.5371 -0.5243 -0.5413
 2334SOL    HW118635   3.598   1.054   3.644 -0.1746  0.7749  0.1791
 2334SOL    HW218636   3.633   1.195   3.639  0.4636 -1.3282  1.9156
 2335SOL     OW18637   3.087   4.519   5.709 -0.7004 -0.0856  0.2995
 2335SOL    HW118638   3.167   4.552   5.750 -1.2792 -1.0248  2.1604
 2335SOL    HW218639   3.117   4.515   5.618 -2.1013  1.3700 -0.2361
 2336SOL     OW18640   1.365   3.751   8.978  0.1735  0.5828 -0.2013
 2336SOL    HW118641   1.269   3.754   8.981  0.1362 -1.8946  1.1340
 2336SOL    HW218642   1.394   3.668   8.939 -0.8629 -0.2914  0.9049
 2337SOL     OW18643   2.263   2.420   8.788  0.3110 -0.2514  0.1550
 2337SOL    HW118644   2.345   2.441   8.742 -0.1641 -0.5915 -0.8481
 2337SOL    HW218645   2.193   2.461   8.737 -0.0258  0.8845  1.5299
 2338SOL     OW18646   3.201   4.018  14.392 -0.9961 -0.2085 -0.0243
 2338SOL    HW118647   3.112   4.032  14.425 -0.9419  0.2748 -0.0834
 2338SOL    HW218648   3.213   4.081  14.321 -0.9028  1.0383  1.0950
 2339SOL     OW18649   0.143   0.505   5.116  0.0409 -0.0699 -0.5393
 2339SOL    HW118650   0.126   0.431   5.174  1.2798  0.9998  1.1477
 2339SOL    HW218651   0.238   0.511   5.118 -0.2076  1.7122  4.5048
 2340SOL     OW18652   1.114   2.286   9.117 -0.4108 -0.0205 -0.0106
 2340SOL    HW118653   1.084   2.196   9.128 -0.8623  0.4667  2.6322
 2340SOL    HW218654   1.191   2.301   9.172  1.2773 -3.3043 -1.4635
 2341SOL     OW18655   1.206   3.340  11.643  0.1718 -0.7351  0.1611
 2341SOL    HW118656   1.221   3.401  11.715  4.0053 -1.5935  0.1224
 2341SOL    HW218657   1.148   3.377  11.576  1.1945  0.2735 -0.1825
 2342SOL     OW18658   1.887   1.378   5.800  0.0020 -0.0936  0.1687
 2342SOL    HW118659   1.939   1.397   5.722  0.6203  0.2361  0.6571
 2342SOL    HW218660   1.810   1.348   5.751  0.7918 -1.5361 -0.1707
 2343SOL     OW18661   2.492   0.762  12.713  0.2263  0.2017  0.1797
 2343SOL    HW118662   2.568   0.740  12.658  0.6978  1.1540  0.4449
 2343SOL    HW218663   2.425   0.784  12.648  2.3266 -2.2441 -2.8269
 2344SOL     OW18664   1.684   2.975   0.967  0.3814 -0.0101  0.5071
 2344SOL    HW118665   1.655   2.978   0.876 -0.4395 -3.6473  0.6767
 2344SOL    HW218666   1.599   2.961   1.008 -0.5435  1.1143 -1.0190
 2345SOL     OW18667   3.647   3.300   6.845  0.3940  0.1203 -0.5594
 2345SOL    HW118668   3.585   3.228   6.838  0.0253  0.4641 -0.8670
 2345SOL    HW218669   3.629   3.345   6.762 -0.7465 -2.3171 -1.6171
 2346SOL     OW18670   2.321   4.222  11.860 -0.5540  0.1468  0.3181
 2346SOL    HW118671   2.333   4.299  11.915  0.2609  0.8982 -0.8966
 2346SOL    HW218672   2.307   4.155  11.926 -1.7536 -0.5072 -0.6133
 2347SOL     OW18673   2.416   1.627   2.493  0.1801  0.0055 -0.1242
 2347SOL    HW118674   2.498   1.675   2.508  1.3791 -1.0274 -3.4559
 2347SOL    HW218675   2.416   1.552   2.553 -2.0566 -0.2424 -0.4477
 2348SOL     OW18676   3.287   0.112   6.018 -0.1695  0.4280 -0.5960
 2348SOL    HW118677   3.284   0.187   5.958 -0.3238  2.3089  1.7743
 2348SOL    HW218678   3.205   0.129   6.065 -0.3665 -0.2997 -0.6664
 2349SOL     OW18679   3.004   3.474  12.319  0.3022  0.4483  0.3517
 2349SOL    HW118680   2.949   3.423  12.378  1.7159  0.5250  1.7151
 2349SOL    HW218681   2.988   3.557  12.364  1.9792 -0.1221  1.9635
 2350SOL     OW18682   1.881   3.689   7.997  0.4425  0.2926  0.6900
 2350SOL    HW118683   1.973   3.710   7.979 -0.3922  1.3339 -2.2166
 2350SOL    HW218684   1.861   3.617   7.938  1.1113 -0.6255  1.5749
 2351SOL     OW18685   0.779   0.970   2.932  0.4824 -0.0273 -0.1358
 2351SOL    HW118686   0.758   0.994   3.022 -0.0657 -0.0201 -0.2676
 2351SOL    HW218687   0.690   0.954   2.900 -0.0875  0.0125  1.4314
 2352SOL     OW18688   1.858   3.589   8.818  0.0655  0.0977  0.5962
 2352SOL    HW118689   1.922   3.655   8.847 -0.6685  0.0141  2.4478
 2352SOL    HW218690   1.914   3.514   8.797 -3.2686 -2.2878  0.3063
 2353SOL     OW18691   0.802   3.525   0.100 -0.4480  0.4012 -0.4784
 2353SOL    HW118692   0.752   3.605   0.084  0.2089  0.8514 -0.2782
 2353SOL    HW218693   0.852   3.530   0.018 -2.9559  2.0040 -1.9384
 2354SOL     OW18694   4.100   0.760   9.071  0.0014 -0.8095  0.2316
 2354SOL    HW118695   4.103   0.806   8.987  0.8205 -1.3374 -0.0228
 2354SOL    HW218696   4.052   0.825   9.121 -3.0212 -2.2641 -0.7930
 2355SOL     OW18697   1.135   1.146   7.336 -0.3659 -0.2269 -0.4228
 2355SOL    HW118698   1.079   1.201   7.391 -0.7636  0.5497 -1.6083
 2355SOL    HW218699   1.187   1.216   7.296  0.2531 -0.6241 -0.3112
 2356SOL     OW18700   2.229   2.328   7.892 -0.3219  0.3602 -0.4789
 2356SOL    HW118701   2.209   2.421   7.880  0.6959  0.1786 -3.5743
 2356SOL    HW218702   2.182   2.299   7.813 -1.4496 -1.2777  0.7968
 2357SOL     OW18703   0.020   3.219  16.186 -0.2918  0.2775  0.0040
 2357SOL    HW118704   0.037   3.144  16.242  1.5608 -0.0651 -1.0116
 2357SOL    HW218705   0.100   3.216  16.133 -0.4966  0.7977 -0.3327
 2358SOL     OW18706   1.675   2.878  13.540  0.2578 -0.0053  0.4594
 2358SOL    HW118707   1.699   2.895  13.631  0.7845  0.0691  0.3071
 2358SOL    HW218708   1.760   2.847  13.510  0.0546 -0.1880  0.0690
 2359SOL     OW18709   2.733   4.073   8.073  0.3521  0.5619 -0.1183
 2359SOL    HW118710   2.818   4.114   8.086  0.4873  0.3373 -0.2921
 2359SOL    HW218711   2.704   4.096   7.985  0.1970  0.1706 -0.1729
 2360SOL     OW18712   0.520   1.774  12.190 -0.5976  0.5592 -0.4922
 2360SOL    HW118713   0.493   1.838  12.255  1.3281 -0.9193  1.7412
 2360SOL    HW218714   0.563   1.832  12.128  1.7069  3.2366  3.6242
 2361SOL     OW18715   4.494   1.086   5.869  0.7925  0.2673 -0.7686
 2361SOL    HW118716   4.511   1.112   5.959  1.4684 -0.7182 -0.6082
 2361SOL    HW218717   4.455   0.999   5.871  0.3220  0.4586 -1.6090
 2362SOL     OW18718   4.129   4.049   1.280 -0.4165 -0.3661 -0.1303
 2362SOL    HW118719   4.103   3.957   1.272  2.2587 -1.1726  0.3568
 2362SOL    HW218720   4.206   4.051   1.338 -0.0765 -2.1280 -0.5079
 2363SOL     OW18721   3.817   3.859   3.769 -0.2778  0.1573 -0.1910
 2363SOL    HW118722   3.897   3.807   3.767 -1.1542 -1.2024  0.1093
 2363SOL    HW218723   3.832   3.952   3.751 -2.8435  0.8150  1.0863
 2364SOL     OW18724   2.426   4.443   0.068  0.0594 -0.5778  0.3863
 2364SOL    HW118725   2.490   4.372   0.069 -0.9013 -1.4285  1.6223
 2364SOL    HW218726   2.389   4.431  17.730  1.2598  1.9133 -0.4699
 2365SOL     OW18727   4.719   0.337   9.023 -0.3641 -0.3292 -0.1946
 2365SOL    HW118728   0.045   0.345   8.952  1.2052 -1.2977  1.0830
 2365SOL    HW218729   4.639   0.317   8.975 -0.1294  0.8806 -1.0859
 2366SOL     OW18730   3.293   3.547  13.648 -0.2833 -0.0358  0.3745
 2366SOL    HW118731   3.280   3.453  13.648 -1.4755  0.1201 -1.4789
 2366SOL    HW218732   3.219   3.571  13.592  0.3480  0.5896 -0.2003
 2367SOL     OW18733   4.200   0.256   8.510  0.5953 -0.0187  0.8665
 2367SOL    HW118734   4.107   0.279   8.509  0.1119 -1.9709  2.0548
 2367SOL    HW218735   4.225   0.315   8.439 -0.3073 -1.3533 -0.5608
 2368SOL     OW18736   3.261   1.993  15.718  0.0370  0.0958 -0.1978
 2368SOL    HW118737   3.230   1.902  15.714 -1.0057  0.3813  1.6272
 2368SOL    HW218738   3.179   2.042  15.726 -0.5337 -0.6869 -1.2551
 2369SOL     OW18739   0.005   0.817   4.672  0.7939 -0.2224  0.1836
 2369SOL    HW118740   0.084   0.871   4.674  1.5670 -1.3803  1.1246
 2369SOL    HW218741   0.046   0.740   4.712 -0.2783  0.1499  1.9684
 2370SOL     OW18742   1.793   1.993   3.867  0.4658 -0.2416 -0.8733
 2370SOL    HW118743   1.798   1.997   3.963  0.1191 -1.3345 -0.8063
 2370SOL    HW218744   1.705   1.960   3.852  0.3508  0.2833 -1.3557
 2371SOL     OW18745   1.747   0.296  11.179  0.1415 -0.0131  0.1164
 2371SOL    HW118746   1.821   0.356  11.170  0.6312 -0.9952 -2.3495
 2371SOL    HW218747   1.770   0.263  11.266 -1.7257  0.5352  0.8246
 2372SOL     OW18748   4.521   4.544  13.693 -0.2941  0.2304  0.3200
 2372SOL    HW118749   4.584   4.584  13.753  0.4187  0.6535 -0.7009
 2372SOL    HW218750   4.526   4.613  13.626  1.1385  0.8908  1.0808
 2373SOL     OW18751   0.038   2.902  17.449 -0.0400  0.5479  0.3799
 2373SOL    HW118752   0.049   2.938  17.537  1.5352 -0.2878  0.5180
 2373SOL    HW218753   4.680   2.903  17.443  0.0521  1.8981 -0.7722
 2374SOL     OW18754   3.932   1.164  13.616  0.4095  0.3321  0.0893
 2374SOL    HW118755   3.882   1.092  13.654  2.5678 -0.2532  1.8312
 2374SOL    HW218756   3.880   1.242  13.635 -0.0902 -0.6083  2.6052
 2375SOL     OW18757   0.441   3.020   6.830  0.3144  0.2006  1.2662
 2375SOL    HW118758   0.526   2.997   6.791 -0.8751 -0.9509 -0.6091
 2375SOL    HW218759   0.392   2.950   6.787  0.3243  0.8369  0.2215
 2376SOL     OW18760   2.837   4.165   5.929 -0.1535 -0.2971  0.2943
 2376SOL    HW118761   2.860   4.255   5.905  1.4596 -0.9584 -0.6829
 2376SOL    HW218762   2.871   4.121   5.851  0.7908 -1.9135  1.6337
 2377SOL     OW18763   0.173   2.301   7.140 -0.2668 -0.0688 -0.0138
 2377SOL    HW118764   0.224   2.337   7.068 -1.6000 -0.5670 -1.1941
 2377SOL    HW218765   0.147   2.215   7.109  1.7654 -0.9320  0.6737
 2378SOL     OW18766   4.705   4.212   7.865  0.0888  0.4238 -0.4732
 2378SOL    HW118767   0.020   4.144   7.822  0.8948  0.7438  0.0230
 2378SOL    HW218768   0.007   4.217   7.952 -0.1450  1.1279 -0.4096
 2379SOL     OW18769   3.262   0.963   7.620  0.0669 -0.2291 -0.6332
 2379SOL    HW118770   3.269   1.024   7.546 -2.6555  2.7653  1.6108
 2379SOL    HW218771   3.291   0.877   7.587 -1.9375 -0.5402 -1.5661
 2380SOL     OW18772   3.816   3.580   4.011 -0.1590  0.0631 -0.4072
 2380SOL    HW118773   3.818   3.540   4.097 -0.8083  0.1764 -0.3375
 2380SOL    HW218774   3.793   3.668   4.040  0.0305  0.2244 -0.7396
 2381SOL     OW18775   0.909   2.786   8.823 -0.2880 -0.4356 -0.2259
 2381SOL    HW118776   0.864   2.714   8.779  0.5689 -1.9815  1.4222
 2381SOL    HW218777   0.882   2.770   8.914  1.0108  1.0287  0.4123
 2382SOL     OW18778   1.212   0.146  10.646 -0.0383 -0.6113 -0.1150
 2382SOL    HW118779   1.254   0.127  10.562  4.0330 -0.3136  1.8212
 2382SOL    HW218780   1.263   0.092  10.706  2.2796  1.4387 -0.2352
 2383SOL     OW18781   4.252   3.598   6.565 -0.6143  0.0593 -0.0753
 2383SOL    HW118782   4.274   3.549   6.644 -2.2618 -1.6531 -0.6655
 2383SOL    HW218783   4.175   3.649   6.593 -0.7447 -0.1239 -0.0983
 2384SOL     OW18784   0.634   4.261   8.149  0.1157 -0.0617 -0.2931
 2384SOL    HW118785   0.675   4.343   8.174 -1.1980  0.3449  0.5356
 2384SOL    HW218786   0.651   4.202   8.223 -0.8955 -0.6352 -0.5178
 2385SOL     OW18787   2.495   2.512   9.950  0.4698  0.6134 -0.8176
 2385SOL    HW118788   2.471   2.423   9.977 -1.0863  1.7967  1.6539
 2385SOL    HW218789   2.409   2.552   9.944 -0.3616 -1.2130 -1.0936
 2386SOL     OW18790   2.178   2.754   9.457 -0.1086  0.0773 -0.0491
 2386SOL    HW118791   2.216   2.842   9.463  0.1617  0.1033 -1.9258
 2386SOL    HW218792   2.087   2.769   9.431 -0.2933 -0.1116  0.5041
 2387SOL     OW18793   2.005   1.087  13.423  0.1714 -0.3095  0.0102
 2387SOL    HW118794   2.088   1.065  13.381  2.3286  3.5799  2.2296
 2387SOL    HW218795   2.035   1.068  13.512 -1.1314 -1.0683  0.2784
 2388SOL     OW18796   3.879   0.046  17.656  0.1312  0.1107  0.5121
 2388SOL    HW118797   3.826   0.097  17.717  0.6914  1.5128 -0.1995
 2388SOL    HW218798   3.855   0.086  17.573 -1.3635 -1.2783  0.2744
 2389SOL     OW18799   2.695   0.217   5.666 -0.2224 -0.3557 -0.3406
 2389SOL    HW118800   2.610   0.199   5.707  0.9525 -2.4117  1.1802
 2389SOL    HW218801   2.661   0.274   5.597  0.3110  1.6014  0.9990
 2390SOL     OW18802   3.269   0.805   7.029  0.0173  0.2952 -0.0148
 2390SOL    HW118803   3.176   0.784   7.039  0.5572 -1.5168  1.1927
 2390SOL    HW218804   3.259   0.889   6.985 -2.2910 -0.7209 -1.4077
 2391SOL     OW18805   0.732   4.679  15.859  0.0219  0.0992  0.3458
 2391SOL    HW118806   0.653   4.734  15.862  0.5894  0.9608 -0.3182
 2391SOL    HW218807   0.726   4.637  15.774 -1.4802  0.7877  0.1095
 2392SOL     OW18808   0.374   3.832   6.576 -0.1227  0.0573 -0.2083
 2392SOL    HW118809   0.464   3.823   6.542 -0.2157  1.1611 -0.7360
 2392SOL    HW218810   0.396   3.832   6.670  0.7680 -0.7110 -0.4082
 2393SOL     OW18811   3.776   1.160  13.915 -0.1094  0.4883 -0.6571
 2393SOL    HW118812   3.791   1.137  14.007 -1.3457 -2.8870 -1.2882
 2393SOL    HW218813   3.855   1.132  13.869  0.7206  1.3537  0.2695
 2394SOL     OW18814   2.348   1.646  14.440  0.1734 -0.0455  0.1547
 2394SOL    HW118815   2.381   1.615  14.525  2.2657 -1.8703 -1.3022
 2394SOL    HW218816   2.392   1.591  14.375  3.4281  0.7898  1.6122
 2395SOL     OW18817   2.049   3.969   4.429  0.2514  0.2075  0.0676
 2395SOL    HW118818   2.116   3.981   4.361  0.2343 -0.2125 -0.0251
 2395SOL    HW218819   1.998   4.050   4.435 -0.2995 -0.2394  1.5236
 2396SOL     OW18820   4.130   1.449   1.457  0.1347 -0.5032  0.0064
 2396SOL    HW118821   4.082   1.490   1.529  1.1988 -0.9583  0.9700
 2396SOL    HW218822   4.098   1.502   1.384 -3.1985 -2.4990  0.0042
 2397SOL     OW18823   2.578   0.819   4.174  0.3879  0.7847  0.0042
 2397SOL    HW118824   2.663   0.861   4.165  0.8754 -0.9222 -3.0846
 2397SOL    HW218825   2.520   0.878   4.125  1.3671  0.3757 -1.6150
 2398SOL     OW18826   4.403   2.951  12.343  0.3336 -0.2169  0.3722
 2398SOL    HW118827   4.462   2.883  12.312  0.7770 -0.3333  1.4574
 2398SOL    HW218828   4.465   3.012  12.383 -0.4333  1.5637 -1.1623
 2399SOL     OW18829   3.328   1.526  15.288  0.8024 -0.1325 -0.5347
 2399SOL    HW118830   3.362   1.443  15.323 -1.0693 -0.1784  1.1832
 2399SOL    HW218831   3.269   1.496  15.219 -0.9515  0.5241  0.6640
 2400SOL     OW18832   3.360   1.648  15.029 -0.7167  0.0677 -0.1348
 2400SOL    HW118833   3.413   1.632  15.107  0.7775  0.8692 -0.9968
 2400SOL    HW218834   3.317   1.563  15.019 -2.8663  0.6781  3.6067
 2401SOL     OW18835   0.303   1.363   1.329  0.3912  0.2923  0.2037
 2401SOL    HW118836   0.369   1.294   1.327  1.5017  1.4657 -3.2650
 2401SOL    HW218837   0.315   1.415   1.249  0.3856 -2.1445 -1.3773
 2402SOL     OW18838   4.347   0.451  10.536  0.2364  0.5135  0.0966
 2402SOL    HW118839   4.287   0.485  10.471  0.6580  0.9112 -0.0797
 2402SOL    HW218840   4.402   0.523  10.565 -1.2145  1.9761 -0.8054
 2403SOL     OW18841   2.564   4.617   8.335  0.0157  0.1682  0.4061
 2403SOL    HW118842   2.588   4.662   8.254 -0.9019 -0.8470 -0.4311
 2403SOL    HW218843   2.540   4.535   8.291 -1.0676  0.3583  0.6343
 2404SOL     OW18844   1.888   1.715   6.310 -0.1565  0.0313  0.0180
 2404SOL    HW118845   1.869   1.655   6.238  0.1131  0.1481 -0.1477
 2404SOL    HW218846   1.798   1.744   6.329  0.3956  0.3628  2.1852
 2405SOL     OW18847   2.371   3.943   5.235  0.0862 -0.1770 -0.1771
 2405SOL    HW118848   2.336   3.947   5.324  3.5828  0.8308  1.1625
 2405SOL    HW218849   2.424   3.864   5.246 -0.3604 -0.9672 -3.5665
 2406SOL     OW18850   0.457   3.822   6.290  0.9207 -0.0697 -0.2610
 2406SOL    HW118851   0.493   3.760   6.226 -0.8894  0.6346 -1.9825
 2406SOL    HW218852   0.371   3.781   6.297  1.0882 -0.5087 -0.8019
 2407SOL     OW18853   2.566   0.685   5.121 -0.3314 -0.0071  0.2820
 2407SOL    HW118854   2.533   0.758   5.173 -0.7880 -0.0761  0.0887
 2407SOL    HW218855   2.484   0.637   5.119 -1.2245  1.5146  0.4986
 2408SOL     OW18856   1.847   2.276   9.811  0.2526 -0.3000  0.0382
 2408SOL    HW118857   1.832   2.324   9.730 -0.0252 -3.0125 -1.5187
 2408SOL    HW218858   1.807   2.190   9.795  3.4147 -1.9764  1.1401
 2409SOL     OW18859   4.631   0.194   3.678 -0.3549  0.2110 -0.4218
 2409SOL    HW118860   4.617   0.138   3.602  1.7395  1.6335 -1.8770
 2409SOL    HW218861   4.580   0.271   3.653  0.4208  1.7824  2.8438
 2410SOL     OW18862   4.713   2.015   2.445 -0.0883 -0.1198 -0.1424
 2410SOL    HW118863   4.736   1.992   2.355  1.7785 -0.1087  0.3429
 2410SOL    HW218864   4.641   2.072   2.418 -0.9794 -0.9909  0.3758
 2411SOL     OW18865   0.841   2.381   4.917  0.1861  0.3932 -0.2397
 2411SOL    HW118866   0.831   2.427   5.000 -0.2747 -0.1039 -0.0192
 2411SOL    HW218867   0.777   2.312   4.934  1.1505 -0.3813  0.2616
 2412SOL     OW18868   1.644   0.479   6.454  0.2583  0.0473 -0.1004
 2412SOL    HW118869   1.684   0.442   6.375  1.8038 -0.4516  0.9098
 2412SOL    HW218870   1.667   0.572   6.456 -0.7842  0.3248 -1.2161
 2413SOL     OW18871   1.342   3.678   4.806 -0.3478  0.4573  0.6408
 2413SOL    HW118872   1.276   3.651   4.742 -1.1531 -0.6392  1.9512
 2413SOL    HW218873   1.373   3.596   4.843  0.7184  0.7160  0.3464
 2414SOL     OW18874   4.252   3.307   0.860  0.4299 -0.0946  0.2723
 2414SOL    HW118875   4.296   3.267   0.785  0.5249 -2.5844  1.6349
 2414SOL    HW218876   4.313   3.380   0.875  1.4717 -0.9930  0.4546
 2415SOL     OW18877   1.389   0.034  10.469 -0.0354 -0.0676 -0.0692
 2415SOL    HW118878   1.423   0.070  10.388 -2.3492 -0.1174 -1.0748
 2415SOL    HW218879   1.462   0.035  10.531 -0.1351  0.7279  0.0360
 2416SOL     OW18880   1.925   2.873   3.670 -0.1033  0.4287 -0.4956
 2416SOL    HW118881   1.921   2.888   3.575 -0.1047  1.0399 -0.3990
 2416SOL    HW218882   1.857   2.806   3.682  1.0084 -1.2446 -3.5530
 2417SOL     OW18883   1.351   0.357  16.504 -0.0058 -0.2123  0.4429
 2417SOL    HW118884   1.313   0.269  16.498 -0.3759 -0.0639  0.6159
 2417SOL    HW218885   1.443   0.344  16.523  0.1684  0.3596 -0.0165
 2418SOL     OW18886   4.141   2.493   8.374 -0.0291  0.5349  0.2973
 2418SOL    HW118887   4.150   2.579   8.332  1.6776 -0.6551 -1.7750
 2418SOL    HW218888   4.066   2.503   8.432  0.0772 -1.5890  0.8055
 2419SOL     OW18889   4.332   1.401   3.208  0.2626  0.4544 -0.4493
 2419SOL    HW118890   4.239   1.417   3.194  0.2129  0.0551 -0.5903
 2419SOL    HW218891   4.331   1.322   3.262 -0.9243  1.6849  1.3107
 2420SOL     OW18892   0.726   3.238   9.662  0.8424 -0.2359  0.0372
 2420SOL    HW118893   0.804   3.183   9.649  1.1856  0.4030 -0.6243
 2420SOL    HW218894   0.693   3.233   9.751 -1.3135 -1.2371 -0.8207
 2421SOL     OW18895   0.102   1.175   6.057 -0.0631  0.3226  0.0660
 2421SOL    HW118896   0.178   1.180   6.115 -0.5037 -1.0139  0.7618
 2421SOL    HW218897   0.070   1.088   6.083  0.9347 -0.2477 -0.6140
 2422SOL     OW18898   2.348   4.183  17.682 -0.1257  0.2087  0.8447
 2422SOL    HW118899   2.421   4.131  17.648 -0.8198  0.8521 -1.6243
 2422SOL    HW218900   2.319   4.230  17.604 -2.8832 -1.9804  0.5536
 2423SOL     OW18901   1.891   4.011   7.002 -0.1702 -1.0849  0.0513
 2423SOL    HW118902   1.955   4.067   7.047 -0.5924 -0.5685  0.0046
 2423SOL    HW218903   1.835   4.077   6.963 -0.1289 -0.8713  0.3509
 2424SOL     OW18904   2.872   3.293   4.374 -0.0742 -0.3412  0.2934
 2424SOL    HW118905   2.871   3.240   4.454 -2.5571  0.0729  0.5181
 2424SOL    HW218906   2.874   3.231   4.302 -1.2311  2.4209 -2.1210
 2425SOL     OW18907   4.235   2.434   7.210 -0.1280  0.2724 -0.0067
 2425SOL    HW118908   4.263   2.466   7.296  1.1818  3.0138 -1.4507
 2425SOL    HW218909   4.260   2.341   7.208  1.2762  0.6153  1.2379
 2426SOL     OW18910   2.375   4.246   4.719  0.3126  0.3025 -0.0198
 2426SOL    HW118911   2.461   4.225   4.755 -0.5575 -1.1401  1.2125
 2426SOL    HW218912   2.365   4.170   4.661  2.8712 -1.5379  1.9247
 2427SOL     OW18913   4.702   2.540   7.502  0.0051 -0.2881  0.5899
 2427SOL    HW118914   4.686   2.550   7.408 -0.4326  4.4479  1.1908
 2427SOL    HW218915   0.059   2.550   7.511  0.2295 -0.3604 -1.6802
 2428SOL     OW18916   2.773   4.064   3.375 -0.2817 -0.0315 -0.0127
 2428SOL    HW118917   2.717   3.995   3.409  1.4844 -0.5416  1.8891
 2428SOL    HW218918   2.839   4.006   3.336 -0.3287  0.2471 -0.5026
 2429SOL     OW18919   4.674   2.050   4.531 -0.3637 -0.7061  0.0370
 2429SOL    HW118920   0.014   2.060   4.587 -1.0903  2.9715  0.3553
 2429SOL    HW218921   4.638   2.139   4.533  1.4306 -0.0372  2.5877
 2430SOL     OW18922   3.233   2.798  14.749  0.6201 -0.0712  0.5547
 2430SOL    HW118923   3.313   2.843  14.777 -0.0352  2.3845 -1.4838
 2430SOL    HW218924   3.253   2.707  14.768  1.4360  0.4267  2.0711
 2431SOL     OW18925   2.882   2.560   6.848 -0.3986  0.2375 -0.2956
 2431SOL    HW118926   2.959   2.560   6.905 -0.5111 -1.0748 -0.1467
 2431SOL    HW218927   2.918   2.579   6.761  0.6756 -0.0311  0.0959
 2432SOL     OW18928   4.566   2.960   4.685  0.3371 -0.4349  0.0789
 2432SOL    HW118929   4.648   2.941   4.731  1.0477 -0.5017 -1.2138
 2432SOL    HW218930   4.511   2.890   4.722  2.3963 -1.9006  0.3902
 2433SOL     OW18931   4.295   4.151   4.463  0.1987 -0.2079  0.1082
 2433SOL    HW118932   4.337   4.214   4.405 -0.6283  0.1150 -0.1331
 2433SOL    HW218933   4.361   4.081   4.462 -2.2637 -2.4955 -1.4514
 2434SOL     OW18934   0.602   0.702  12.840  0.6310 -0.0676 -0.0144
 2434SOL    HW118935   0.659   0.639  12.795  0.2895  0.6693 -1.5090
 2434SOL    HW218936   0.610   0.787  12.796 -3.2033 -0.4460 -1.4558
 2435SOL     OW18937   2.016   2.611   1.190  0.9866  0.2253 -0.3814
 2435SOL    HW118938   1.997   2.597   1.097 -0.8083 -0.9862  0.1844
 2435SOL    HW218939   1.973   2.694   1.210  0.0043 -0.4201  0.1690
 2436SOL     OW18940   3.750   1.493  14.111 -0.3576 -0.2273  0.3241
 2436SOL    HW118941   3.731   1.406  14.148 -0.5014 -0.1893  0.3416
 2436SOL    HW218942   3.713   1.486  14.023 -2.6079  3.3514  0.9784
 2437SOL     OW18943   0.755   1.657   2.095 -0.5950  0.4217  0.6022
 2437SOL    HW118944   0.699   1.719   2.048 -0.0082  2.1563  2.2031
 2437SOL    HW218945   0.739   1.579   2.042 -0.2607  1.3110 -0.8065
 2438SOL     OW18946   0.050   2.392   3.667  0.1718  0.2427 -0.2387
 2438SOL    HW118947   0.142   2.409   3.684 -0.3211  4.2294 -1.4823
 2438SOL    HW218948   0.053   2.297   3.656  1.2680  0.6113 -3.1769
 2439SOL     OW18949   0.468   3.810   6.850  0.9249 -0.0381  0.2804
 2439SOL    HW118950   0.532   3.875   6.823 -2.0941  2.7961 -0.0835
 2439SOL    HW218951   0.531   3.747   6.885  0.6641 -1.0528 -1.0519
 2440SOL     OW18952   4.102   0.013   4.861  0.2483 -0.4293 -0.2797
 2440SOL    HW118953   4.062   0.088   4.819  0.0586 -0.8016 -0.7604
 2440SOL    HW218954   4.139   4.703   4.787 -0.1712  2.1573 -2.1372
 2441SOL     OW18955   0.370   1.349   5.494  0.0849  0.2557 -0.0773
 2441SOL    HW118956   0.407   1.348   5.582 -2.3422  1.5984  0.9617
 2441SOL    HW218957   0.337   1.439   5.487  0.4327  0.4509  0.7775
 2442SOL     OW18958   4.709   0.398   4.089  0.3762  0.4539  0.3540
 2442SOL    HW118959   0.031   0.355   4.028 -1.4116 -0.0765 -1.0091
 2442SOL    HW218960   4.710   0.488   4.056 -1.8858  0.8382  1.3639
 2443SOL     OW18961   0.977   0.798  16.823 -0.0711 -0.0789  0.5870
 2443SOL    HW118962   0.932   0.722  16.785  0.9558 -0.0092 -0.7762
 2443SOL    HW218963   1.011   0.841  16.745  0.8474  0.7359  1.4304
 2444SOL     OW18964   0.881   4.360   8.230 -0.2005  0.2627 -0.6473
 2444SOL    HW118965   0.907   4.333   8.318  0.8972  0.0079 -1.0438
 2444SOL    HW218966   0.928   4.443   8.223  2.3837 -0.9350  2.5805
 2445SOL     OW18967   2.730   2.167  11.098  0.0925  0.4006  0.0697
 2445SOL    HW118968   2.820   2.191  11.118 -0.5049 -0.4762  3.6703
 2445SOL    HW218969   2.751   2.111  11.023  1.2051  2.7314 -1.3685
 2446SOL     OW18970   3.909   1.623   5.444 -0.0320  0.3534 -0.1193
 2446SOL    HW118971   3.963   1.667   5.509  0.3468 -0.9382  0.4343
 2446SOL    HW218972   3.938   1.532   5.438  1.7934  1.0874 -2.2434
 2447SOL     OW18973   3.196   1.685   3.028 -0.1326  0.5691  0.2975
 2447SOL    HW118974   3.259   1.620   2.997  1.4406  1.6078  1.3534
 2447SOL    HW218975   3.232   1.759   2.979  0.2357  0.0571 -0.1979
 2448SOL     OW18976   2.617   2.826  10.042 -0.4349  1.0135 -0.0284
 2448SOL    HW118977   2.530   2.804  10.007  0.8468 -3.4396 -0.4398
 2448SOL    HW218978   2.665   2.835   9.960 -1.0949 -1.1495 -0.6587
 2449SOL     OW18979   3.374   0.498  14.295  0.6026  0.2238  0.2770
 2449SOL    HW118980   3.416   0.428  14.246  2.4153  0.7978  1.0000
 2449SOL    HW218981   3.296   0.517  14.243 -0.0791  1.0344  1.5819
 2450SOL     OW18982   0.918   3.376   9.884  0.1277  0.0519  0.3845
 2450SOL    HW118983   0.943   3.331   9.964 -0.3288 -1.5029 -0.3419
 2450SOL    HW218984   0.823   3.368   9.880  0.1566 -0.2439  0.2689
 2451SOL     OW18985   0.914   1.659  10.837 -0.7387  0.2863 -0.0484
 2451SOL    HW118986   0.857   1.585  10.821  1.3764 -1.7375  1.6498
 2451SOL    HW218987   0.894   1.721  10.767 -1.1948  1.6503  1.2932
 2452SOL     OW18988   2.070   3.728  12.543 -0.9623 -0.4232 -0.3285
 2452SOL    HW118989   2.093   3.656  12.485  0.0244  0.4992 -1.0765
 2452SOL    HW218990   1.989   3.696  12.583 -0.3346 -0.8572  0.5925
 2453SOL     OW18991   3.248   3.657   1.712 -0.0829  0.6238  0.1078
 2453SOL    HW118992   3.327   3.654   1.657  1.8952 -1.2382  3.0794
 2453SOL    HW218993   3.291   3.641   1.796  1.6849  1.6654 -0.5961
 2454SOL     OW18994   4.170   4.622   4.307  0.2066  0.1635  0.6193
 2454SOL    HW118995   4.082   4.625   4.268  0.8068  0.5856 -0.6893
 2454SOL    HW218996   4.205   4.535   4.287 -0.8481  0.3764 -2.2819
 2455SOL     OW18997   1.275   1.080   9.496  0.2696  0.9858  0.2080
 2455SOL    HW118998   1.247   1.077   9.588 -2.2694 -1.1476 -0.6599
 2455SOL    HW218999   1.335   1.155   9.496  0.8993  0.4695 -1.5002
 2456SOL     OW19000   0.629   4.400   3.251  0.1113  0.1959  0.4696
 2456SOL    HW119001   0.626   4.495   3.263 -0.0170  0.1964  0.4402
 2456SOL    HW219002   0.547   4.387   3.202  0.3393 -0.7788  0.3423
 2457SOL     OW19003   2.124   0.817   8.440  0.9777  0.0691  1.0107
 2457SOL    HW119004   2.165   0.798   8.355 -1.3531 -0.3869  0.0013
 2457SOL    HW219005   2.198   0.847   8.493  0.8265  2.1509  0.0341
 2458SOL     OW19006   2.178   0.485   8.357  0.0563  0.2747 -0.2108
 2458SOL    HW119007   2.130   0.407   8.329  0.0235 -0.2146  1.2321
 2458SOL    HW219008   2.102   0.538   8.378  0.5199  0.9628 -0.2639
 2459SOL     OW19009   3.093   0.136   5.617  0.1813  0.3431  0.0293
 2459SOL    HW119010   3.102   0.111   5.525 -1.9492 -1.7711  0.3976
 2459SOL    HW219011   3.187   0.144   5.634 -0.1630  0.2404  1.9618
 2460SOL     OW19012   1.250   3.270  13.987  0.2246  0.2928 -0.3754
 2460SOL    HW119013   1.331   3.321  13.994  1.7711 -2.5087  2.2572
 2460SOL    HW219014   1.183   3.314  14.040 -0.2738 -0.1792 -0.6147
 2461SOL     OW19015   1.692   1.193   2.690 -0.3565 -0.0288 -0.2151
 2461SOL    HW119016   1.733   1.231   2.768 -1.0818 -1.1295  0.6964
 2461SOL    HW219017   1.737   1.109   2.678 -1.1855 -0.5932  0.6782
 2462SOL     OW19018   2.299   3.675   8.551  0.4608 -0.1145  0.2982
 2462SOL    HW119019   2.343   3.690   8.468  1.2453 -1.3530  0.4914
 2462SOL    HW219020   2.228   3.734   8.527  0.5199 -0.8185 -1.5736
 2463SOL     OW19021   4.286   2.534  15.355 -0.0888  0.7673 -0.2517
 2463SOL    HW119022   4.354   2.565  15.296 -1.8063  0.2761 -2.5167
 2463SOL    HW219023   4.326   2.568  15.435  1.0087 -0.9598 -0.0622
 2464SOL     OW19024   2.956   2.540   4.383 -0.5427 -0.1985  0.5830
 2464SOL    HW119025   3.024   2.486   4.423  0.6585  0.1773 -0.9674
 2464SOL    HW219026   2.927   2.489   4.307 -0.9544  0.6273  0.1919
 2465SOL     OW19027   1.901   0.391   7.022  0.8026  0.3260  0.4450
 2465SOL    HW119028   1.966   0.430   7.081  2.8789  0.0980 -1.6754
 2465SOL    HW219029   1.834   0.458   7.014 -0.5048 -1.0736 -0.3542
 2466SOL     OW19030   4.133   3.537   4.141 -0.2555 -0.5570  0.0077
 2466SOL    HW119031   4.221   3.538   4.177 -0.1681 -1.1233 -0.1956
 2466SOL    HW219032   4.132   3.622   4.096 -2.8933  0.1412  1.3855
 2467SOL     OW19033   4.665   2.998  15.104  0.1758 -0.5316  0.3862
 2467SOL    HW119034   4.734   3.031  15.047 -0.1199  0.1180  0.3974
 2467SOL    HW219035   4.713   2.978  15.185  0.7598 -0.8328 -0.0372
 2468SOL     OW19036   4.467   2.188   1.794  0.1098 -0.3024  0.3689
 2468SOL    HW119037   4.474   2.184   1.889 -0.6110  1.4914  0.5071
 2468SOL    HW219038   4.541   2.131   1.772  0.9838 -0.1149  2.8229
 2469SOL     OW19039   4.160   2.140   7.880  0.8587 -0.3195  0.4129
 2469SOL    HW119040   4.093   2.200   7.913  2.5786  2.0634 -0.4163
 2469SOL    HW219041   4.161   2.074   7.949  0.1764 -2.1598 -1.3332
 2470SOL     OW19042   0.732   0.658   8.964  0.8266  0.1077 -0.1621
 2470SOL    HW119043   0.736   0.753   8.960  1.3852  0.1582  1.6261
 2470SOL    HW219044   0.756   0.633   8.875  0.6480  2.4674 -0.8553
 2471SOL     OW19045   2.904   0.179   1.216  0.1418  0.2143 -0.0590
 2471SOL    HW119046   2.924   0.132   1.135 -1.6719  0.5574 -0.7003
 2471SOL    HW219047   2.811   0.198   1.205 -0.2006 -1.6507 -0.3072
 2472SOL     OW19048   3.366   1.309   1.143  0.1165 -0.7017 -0.5310
 2472SOL    HW119049   3.280   1.273   1.167  0.4554 -1.3183 -0.2457
 2472SOL    HW219050   3.414   1.282   1.221 -1.7596  0.8929  1.1968
 2473SOL     OW19051   0.715   2.472   6.864  0.6764  0.5386 -1.1070
 2473SOL    HW119052   0.806   2.448   6.884  1.5231  1.7794 -3.4350
 2473SOL    HW219053   0.701   2.557   6.906  2.4227  1.0560 -1.5307
 2474SOL     OW19054   3.702   3.405  11.208  0.6362  0.1783  0.1130
 2474SOL    HW119055   3.774   3.441  11.261  1.6753 -1.0613 -0.4556
 2474SOL    HW219056   3.694   3.326  11.261  0.2478  1.3646  1.8480
 2475SOL     OW19057   1.949   2.256  17.609  0.6228  0.2097 -1.0816
 2475SOL    HW119058   1.922   2.346  17.593 -0.5541 -0.2438 -1.7214
 2475SOL    HW219059   1.994   2.270  17.692  0.9824 -1.3994 -0.9945
 2476SOL     OW19060   3.572   3.961   4.127  0.3526 -0.2935  0.0488
 2476SOL    HW119061   3.536   4.049   4.119  2.1042  0.3327 -0.7011
 2476SOL    HW219062   3.586   3.935   4.036  2.2224  1.2040 -0.0751
 2477SOL     OW19063   1.776   2.503   4.622 -1.0684 -0.0263 -0.3335
 2477SOL    HW119064   1.799   2.433   4.683  0.2133  0.5090 -0.2052
 2477SOL    HW219065   1.681   2.503   4.621 -1.0724 -0.3773 -0.1039
 2478SOL     OW19066   0.653   1.642   4.223  0.3207  0.1532  0.2619
 2478SOL    HW119067   0.577   1.589   4.202  0.3263  0.9023 -1.6600
 2478SOL    HW219068   0.665   1.700   4.148 -1.8872 -2.3367 -2.0151
 2479SOL     OW19069   2.275   3.963   4.600  0.0521 -0.3571  0.5455
 2479SOL    HW119070   2.317   4.019   4.535 -1.2578  1.7727  1.5193
 2479SOL    HW219071   2.181   3.967   4.585  0.2242 -0.1478 -0.4891
 2480SOL     OW19072   1.113   1.789   2.953 -0.3829 -0.3054  0.1158
 2480SOL    HW119073   1.141   1.717   2.897 -1.2824  0.6325 -1.5567
 2480SOL    HW219074   1.191   1.804   3.006  1.6631  0.5290 -3.1407
 2481SOL     OW19075   3.886   3.048   4.184 -0.2258  0.0829  0.6723
 2481SOL    HW119076   3.847   3.135   4.173 -0.9539 -0.5673 -1.8045
 2481SOL    HW219077   3.957   3.081   4.239 -0.6490  0.9703  0.6862
 2482SOL     OW19078   4.565   4.128   6.892  0.5425  0.2535 -0.1957
 2482SOL    HW119079   4.593   4.115   6.983  0.5870 -1.5499 -0.4574
 2482SOL    HW219080   4.649   4.093   6.863  0.1739 -0.0958 -0.8367
 2483SOL     OW19081   0.070   0.712   3.607 -0.3499 -0.1273 -0.2609
 2483SOL    HW119082   0.111   0.762   3.678 -2.3141  0.2111  0.6228
 2483SOL    HW219083   0.101   0.623   3.621 -1.4280 -0.4344  0.1746
 2484SOL     OW19084   2.565   0.502   7.253 -0.4267 -0.0184 -0.3496
 2484SOL    HW119085   2.534   0.593   7.259  0.7091  0.4092 -0.9456
 2484SOL    HW219086   2.524   0.463   7.176 -2.1790 -0.4155  0.7823
 2485SOL     OW19087   3.313   1.777  14.021  0.5316 -0.2533 -0.2196
 2485SOL    HW119088   3.305   1.732  13.937 -2.0924 -1.4442  0.6691
 2485SOL    HW219089   3.323   1.867  13.991  1.2113  0.0367  0.9013
 2486SOL     OW19090   1.160   1.332   2.601 -0.3712 -0.0929  0.0688
 2486SOL    HW119091   1.253   1.325   2.624 -0.3085  0.0548 -0.1360
 2486SOL    HW219092   1.148   1.255   2.547  0.7225 -2.0369  2.5837
 2487SOL     OW19093   4.455   0.703   9.282 -0.8187  0.5720  0.6512
 2487SOL    HW119094   4.424   0.761   9.351 -0.4499 -1.2594  2.3645
 2487SOL    HW219095   4.433   0.616   9.315  0.7420 -0.4513 -0.9999
 2488SOL     OW19096   0.216   0.083   9.469  0.0839 -0.1888 -0.0774
 2488SOL    HW119097   0.274   0.102   9.395  0.9703 -0.6899  0.4870
 2488SOL    HW219098   0.168   0.164   9.484 -2.2751 -2.3497  4.1704
 2489SOL     OW19099   4.568   1.210   6.244 -0.0499  0.0894  0.2858
 2489SOL    HW119100   4.660   1.230   6.226  0.1997 -1.5471 -0.2546
 2489SOL    HW219101   4.547   1.288   6.296  1.3464  0.9955 -0.5052
 2490SOL     OW19102   1.593   4.468   1.863 -0.0329 -0.1632 -0.2079
 2490SOL    HW119103   1.645   4.540   1.828 -2.5715  0.7054 -2.1631
 2490SOL    HW219104   1.627   4.469   1.952 -0.7722  0.2564  0.0730
 2491SOL     OW19105   3.180   3.203   0.539 -0.7856 -0.1652  0.1063
 2491SOL    HW119106   3.197   3.286   0.582  1.1107  0.2469 -1.3991
 2491SOL    HW219107   3.090   3.202   0.507 -1.0094  0.7485  0.7083
 2492SOL     OW19108   1.147   3.049   3.392  0.4404  0.0865  0.0308
 2492SOL    HW119109   1.139   3.079   3.483  3.4610 -1.6652  0.8567
 2492SOL    HW219110   1.069   2.995   3.387  0.0040  0.5554  1.5035
 2493SOL     OW19111   4.167   2.912   6.145  0.8485  0.2523 -0.5319
 2493SOL    HW119112   4.219   2.930   6.223 -0.2700  2.6170 -0.3198
 2493SOL    HW219113   4.229   2.940   6.078  0.6012 -0.2900 -0.9812
 2494SOL     OW19114   2.146   2.460   9.261  0.2820 -0.2695  0.4161
 2494SOL    HW119115   2.081   2.397   9.294  1.1340 -0.8010  1.0673
 2494SOL    HW219116   2.095   2.515   9.201  0.7696  3.2142  3.1834
 2495SOL     OW19117   1.322   4.302  17.727 -0.5463  0.2398 -0.1627
 2495SOL    HW119118   1.389   4.368  17.746  0.8849 -1.7076  1.5433
 2495SOL    HW219119   1.323   4.243   0.053  0.2430  0.3759 -0.0593
 2496SOL     OW19120   4.252   4.472   3.426  0.2428 -0.1064 -0.6812
 2496SOL    HW119121   4.322   4.428   3.474  0.0375 -2.4277 -2.4946
 2496SOL    HW219122   4.282   4.517   3.347 -0.2400  2.1773  0.4434
 2497SOL     OW19123   2.990   0.443   8.456  0.2171 -0.4819 -0.0648
 2497SOL    HW119124   3.084   0.441   8.441  0.3367 -1.7115  0.8819
 2497SOL    HW219125   2.968   0.433   8.364  0.9098 -0.5409 -0.2258
 2498SOL     OW19126   1.808   1.345  16.157  0.1313 -0.3466  0.4970
 2498SOL    HW119127   1.805   1.379  16.247  0.1109  1.5041 -0.1853
 2498SOL    HW219128   1.753   1.267  16.153 -0.5578  0.2742 -2.4937
 2499SOL     OW19129   3.688   3.253   1.104 -0.8867  0.4475 -0.5627
 2499SOL    HW119130   3.778   3.285   1.116 -1.4309  1.4000  0.8599
 2499SOL    HW219131   3.705   3.201   1.025 -0.0655 -0.7287  0.3982
 2500SOL     OW19132   3.042   1.149   9.580 -0.4337  0.0302  0.1986
 2500SOL    HW119133   3.077   1.217   9.522  0.9138 -1.1394 -0.3669
 2500SOL    HW219134   3.083   1.177   9.661  0.3855  0.6478 -0.4283
 2501SOL     OW19135   0.348   2.499   2.818  0.2019 -1.2091  0.8297
 2501SOL    HW119136   0.410   2.499   2.745  1.2335 -0.4839  1.7040
 2501SOL    HW219137   0.279   2.448   2.778 -0.2084  0.6888 -0.9079
 2502SOL     OW19138   0.214   1.110   5.529  0.4187  0.0483  0.2976
 2502SOL    HW119139   0.291   1.161   5.502 -0.3832  0.7689 -0.6089
 2502SOL    HW219140   0.169   1.164   5.593 -0.6168 -1.7924  1.1226
 2503SOL     OW19141   4.013   3.755  13.475  0.2181 -0.0649  0.3792
 2503SOL    HW119142   3.971   3.670  13.479 -1.5347  0.8292  1.0600
 2503SOL    HW219143   3.961   3.802  13.540 -1.9423  1.1156 -2.2134
 2504SOL     OW19144   2.797   3.532   6.171 -0.2161  0.3469  0.9522
 2504SOL    HW119145   2.762   3.446   6.196  1.3058  0.0711  2.1438
 2504SOL    HW219146   2.756   3.527   6.085  0.9958  1.6027  0.3056
 2505SOL     OW19147   3.149   0.679  11.055 -0.1856  0.3617  0.4617
 2505SOL    HW119148   3.185   0.754  11.102  2.2984 -0.6876  0.2005
 2505SOL    HW219149   3.177   0.619  11.124 -3.7096 -1.0273  0.7173
 2506SOL     OW19150   2.454   1.561   5.560 -0.5904  0.0037  0.4794
 2506SOL    HW119151   2.477   1.652   5.577  1.3591 -0.1623 -1.2972
 2506SOL    HW219152   2.538   1.519   5.577 -1.1549 -1.0770  0.6168
 2507SOL     OW19153   3.680   3.400   9.161 -0.3503 -0.4100 -0.3809
 2507SOL    HW119154   3.639   3.466   9.218  0.4634 -1.2558  1.1912
 2507SOL    HW219155   3.697   3.322   9.214 -1.7897  1.1544  2.3810
 2508SOL     OW19156   2.427   0.076   1.697 -0.2670 -0.2546  0.2644
 2508SOL    HW119157   2.372   4.736   1.695 -0.8364  0.2012 -2.0756
 2508SOL    HW219158   2.376   0.131   1.757 -0.8745 -1.0870  0.5165
 2509SOL     OW19159   0.850   3.723  11.379  0.1695 -0.0216 -0.0500
 2509SOL    HW119160   0.924   3.746  11.323 -0.0270 -0.7938 -0.6165
 2509SOL    HW219161   0.793   3.697  11.307 -0.8287 -0.7775  1.0124
 2510SOL     OW19162   4.677   0.827   2.724  0.4190 -0.8844 -0.1513
 2510SOL    HW119163   4.676   0.899   2.787 -1.4482 -0.2391 -0.8822
 2510SOL    HW219164   4.623   0.763   2.770 -1.4999  2.0198  1.6632
 2511SOL     OW19165   2.579   3.998   8.610 -0.6541 -0.5720 -0.1097
 2511SOL    HW119166   2.619   3.911   8.604  0.9165  0.2186 -1.0397
 2511SOL    HW219167   2.570   4.021   8.518  0.0646  1.3498  0.3018
 2512SOL     OW19168   1.687   2.865  15.594 -0.4228  0.1072 -1.0453
 2512SOL    HW119169   1.748   2.916  15.648 -1.1705 -0.8947  0.7745
 2512SOL    HW219170   1.658   2.923  15.524 -2.0638 -0.7908 -1.1078
 2513SOL     OW19171   4.579   4.097   2.445 -0.1383 -0.6842 -0.0348
 2513SOL    HW119172   4.501   4.148   2.469  0.4725  0.3778 -0.2746
 2513SOL    HW219173   4.633   4.125   2.519 -0.0254 -0.5071 -0.1851
 2514SOL     OW19174   1.656   3.889   2.911  0.6160 -0.5650  0.1004
 2514SOL    HW119175   1.564   3.864   2.905  0.4042  0.4343 -0.7357
 2514SOL    HW219176   1.642   3.981   2.936 -2.8345 -0.8803 -0.6647
 2515SOL     OW19177   2.363   1.180   6.857  0.1061 -0.3822 -0.5422
 2515SOL    HW119178   2.353   1.086   6.865  1.8653 -0.6386 -1.2275
 2515SOL    HW219179   2.451   1.192   6.893 -0.5079  0.5119  0.6584
 2516SOL     OW19180   3.246   1.908   4.703 -0.4048  0.5465 -0.6060
 2516SOL    HW119181   3.326   1.893   4.653 -0.6504  1.1979 -1.1866
 2516SOL    HW219182   3.272   1.973   4.768  1.9962  0.7902 -1.8056
 2517SOL     OW19183   4.543   2.139   8.299 -0.2050 -0.1960  0.2392
 2517SOL    HW119184   4.548   2.220   8.248 -0.2585  0.8794  1.9399
 2517SOL    HW219185   4.634   2.127   8.326 -0.5914 -1.6085  0.9057
 2518SOL     OW19186   2.706   0.604   2.139 -0.2389  0.3731  0.0430
 2518SOL    HW119187   2.643   0.543   2.176  0.2005 -2.0172 -3.1130
 2518SOL    HW219188   2.769   0.537   2.113 -1.7844 -0.4727 -1.4559
 2519SOL     OW19189   0.876   3.883  10.333 -0.1807  0.2501 -0.4639
 2519SOL    HW119190   0.785   3.904  10.355  0.0910  0.1766  0.7591
 2519SOL    HW219191   0.916   3.951  10.388 -1.9430 -1.5944  3.1386
 2520SOL     OW19192   1.768   2.637  12.536  0.3381  0.0958 -0.0393
 2520SOL    HW119193   1.772   2.548  12.571  0.4529  0.0648 -0.1310
 2520SOL    HW219194   1.741   2.624  12.445  3.0888 -1.0369 -0.6957
 2521SOL     OW19195   1.272   0.093   2.618  0.4099  0.0986 -0.0719
 2521SOL    HW119196   1.237   0.105   2.706  0.5636  0.3111 -0.0418
 2521SOL    HW219197   1.216   0.152   2.567  0.7404 -0.2033 -0.7837
 2522SOL     OW19198   3.234   3.223   4.559 -0.1649  0.0181 -0.0253
 2522SOL    HW119199   3.189   3.199   4.477 -2.4124 -0.6808  1.4093
 2522SOL    HW219200   3.325   3.204   4.537  0.3819  0.7400  1.6082
 2523SOL     OW19201   0.018   1.799   3.767 -0.4122  0.1086  0.0299
 2523SOL    HW119202   4.674   1.838   3.798 -0.8192 -0.2661 -0.5598
 2523SOL    HW219203   0.001   1.762   3.680  0.1032 -0.0503 -0.0028
 2524SOL     OW19204   1.742   1.783   5.160 -0.6851  0.0590 -0.1518
 2524SOL    HW119205   1.654   1.818   5.147 -1.8350 -1.9844  2.0656
 2524SOL    HW219206   1.789   1.843   5.218  0.0256  1.2270 -1.9634
 2525SOL     OW19207   0.313   1.757  11.739 -0.1135  0.2374 -0.0143
 2525SOL    HW119208   0.387   1.720  11.788 -1.3150  0.8137  2.1954
 2525SOL    HW219209   0.258   1.785  11.812 -1.2102  0.3705 -0.9032
 2526SOL     OW19210   2.774   0.197   4.600 -0.2508  0.0433  0.0664
 2526SOL    HW119211   2.831   0.197   4.677  0.9427  3.0459 -0.8544
 2526SOL    HW219212   2.698   0.155   4.641 -0.7873  0.2826 -0.6740
 2527SOL     OW19213   0.237   1.229   8.414  0.0532 -0.1106  0.4247
 2527SOL    HW119214   0.283   1.235   8.498  2.3704  1.8463 -0.9700
 2527SOL    HW219215   0.182   1.152   8.427 -0.7312  0.2571 -0.7284
 2528SOL     OW19216   1.362   0.118   2.063 -0.2393  0.2377  0.0432
 2528SOL    HW119217   1.327   0.139   2.150 -0.9113  1.1697 -0.4513
 2528SOL    HW219218   1.424   0.048   2.082 -1.0160 -0.1992  0.9605
 2529SOL     OW19219   0.011   4.123   4.649  0.0183  0.3233  0.1298
 2529SOL    HW119220   0.068   4.047   4.662 -0.7907 -0.4697 -1.0006
 2529SOL    HW219221   4.730   4.099   4.559  0.6785  0.5022 -0.0592
 2530SOL     OW19222   4.064   0.493  17.202 -0.2679 -0.0341  0.4590
 2530SOL    HW119223   4.016   0.559  17.252  0.4100 -0.5078  1.7134
 2530SOL    HW219224   4.040   0.526  17.115  2.3786  2.8881  0.8502
 2531SOL     OW19225   2.164   4.552  12.082  0.1760  0.0001 -0.1077
 2531SOL    HW119226   2.244   4.510  12.049 -0.4816 -1.5743  0.3217
 2531SOL    HW219227   2.112   4.475  12.104  2.1639 -0.7960  1.8339
 2532SOL     OW19228   0.011   1.684   4.449  0.1264  0.4032  0.0165
 2532SOL    HW119229   0.046   1.720   4.531  1.6576 -0.0053 -0.4507
 2532SOL    HW219230   0.087   1.635   4.416  0.3362 -0.5364  1.8641
 2533SOL     OW19231   2.354   2.035   8.701  0.5936  0.2618 -0.4793
 2533SOL    HW119232   2.435   2.015   8.747  0.5164  0.2821 -0.3332
 2533SOL    HW219233   2.381   2.109   8.647 -2.3711  1.4629 -0.3178
 2534SOL     OW19234   3.216   4.235   6.090  0.4668 -0.3289  0.0761
 2534SOL    HW119235   3.257   4.304   6.142 -1.0286 -0.9998  2.1507
 2534SOL    HW219236   3.124   4.258   6.105  0.8090  0.8628  0.3779
 2535SOL     OW19237   3.346   0.328   7.706 -0.3611  0.7588  0.1543
 2535SOL    HW119238   3.280   0.372   7.653  0.1284 -1.2089 -2.1075
 2535SOL    HW219239   3.404   0.402   7.721 -0.8773  0.9832  1.0068
 2536SOL     OW19240   2.521   2.439   5.174  0.2728 -0.4798 -0.0774
 2536SOL    HW119241   2.507   2.345   5.163 -0.5090 -0.5529  1.4815
 2536SOL    HW219242   2.525   2.434   5.270  2.3430  1.7634 -0.0622
 2537SOL     OW19243   4.606   2.453   0.782 -0.2060  0.4425  0.1968
 2537SOL    HW119244   4.686   2.444   0.833 -1.2627  1.5610  2.0509
 2537SOL    HW219245   4.610   2.545   0.756  0.3508  0.7899  1.5132
 2538SOL     OW19246   1.672   1.014   0.519  0.3070  0.2525  0.0891
 2538SOL    HW119247   1.755   1.019   0.473  1.0350 -0.6889  1.3080
 2538SOL    HW219248   1.666   1.105   0.548 -1.3513 -0.2871  1.4657
 2539SOL     OW19249   2.948   2.809   1.700 -1.0604  0.0516  0.3812
 2539SOL    HW119250   2.941   2.842   1.790 -1.1136 -1.6649  0.9900
 2539SOL    HW219251   3.015   2.742   1.712 -0.7736  0.2558 -0.0624
 2540SOL     OW19252   3.663   1.085   7.850  0.3317  0.3160 -0.2736
 2540SOL    HW119253   3.731   1.107   7.914 -0.3076  0.6866  0.2697
 2540SOL    HW219254   3.714   1.034   7.786  2.6590  0.3248  1.5597
 2541SOL     OW19255   1.505   2.267   6.446 -0.1318  0.0343  0.0096
 2541SOL    HW119256   1.423   2.272   6.397  0.9046 -1.3357 -1.8299
 2541SOL    HW219257   1.572   2.242   6.383  0.1818 -2.9977  1.5397
 2542SOL     OW19258   1.847   1.417  16.876 -0.4475 -0.6514  0.8583
 2542SOL    HW119259   1.840   1.506  16.841  1.0800 -0.3952  1.2380
 2542SOL    HW219260   1.791   1.429  16.953 -0.2092  1.7565  0.6573
 2543SOL     OW19261   0.922   2.542   5.810 -0.1570 -0.1128  0.4432
 2543SOL    HW119262   0.934   2.632   5.840  0.0456  0.7051 -2.0883
 2543SOL    HW219263   0.932   2.489   5.889  0.3008 -1.1597 -0.3311
 2544SOL     OW19264   4.513   4.566  17.696 -0.7850  0.3720  0.2503
 2544SOL    HW119265   4.478   4.477  17.692 -1.1421  0.4716  1.0485
 2544SOL    HW219266   4.563   4.562   0.029 -1.6977  3.1258  0.9402
 2545SOL     OW19267   4.538   3.691   7.184 -0.4087  0.6438 -0.1955
 2545SOL    HW119268   4.550   3.664   7.093 -1.6041  1.7487 -0.6754
 2545SOL    HW219269   4.448   3.723   7.185 -1.0369 -1.1771  0.9510
 2546SOL     OW19270   4.513   0.102   5.982 -0.0286 -0.1318 -0.3745
 2546SOL    HW119271   4.590   0.095   5.925  0.2962 -0.8346  0.1565
 2546SOL    HW219272   4.557   0.107   6.067 -0.7924  1.5863 -0.0818
 2547SOL     OW19273   3.337   1.176   5.711  0.4853  0.2282 -0.0654
 2547SOL    HW119274   3.323   1.095   5.760  1.4956 -0.5744 -1.0949
 2547SOL    HW219275   3.429   1.172   5.686 -0.2794 -0.9320 -2.7092
 2548SOL     OW19276   3.769   1.240   7.500  0.1607 -0.2714 -0.2783
 2548SOL    HW119277   3.745   1.277   7.585 -1.3515 -1.0210 -0.3795
 2548SOL    HW219278   3.680   1.237   7.464  1.2348  1.5711 -3.1162
 2549SOL     OW19279   3.471   3.449   1.032  0.2427  0.3054 -0.2329
 2549SOL    HW119280   3.512   3.477   0.950  2.3266 -1.7376  0.1253
 2549SOL    HW219281   3.538   3.389   1.062 -1.3214  0.4915  3.6698
 2550SOL     OW19282   3.670   4.534   2.987  0.1547  0.4217  0.5258
 2550SOL    HW119283   3.745   4.575   3.030  2.4545 -1.4434 -1.6984
 2550SOL    HW219284   3.601   4.600   2.989  0.0364  0.3127 -0.0065
 2551SOL     OW19285   1.518   2.292  15.409  0.3660 -0.6326 -0.5779
 2551SOL    HW119286   1.477   2.366  15.454  2.2961 -1.0494  1.8829
 2551SOL    HW219287   1.475   2.216  15.448  1.5711  0.0421  2.0608
 2552SOL     OW19288   3.321   1.031   6.142  0.2324 -0.0255 -0.4019
 2552SOL    HW119289   3.293   0.942   6.119  0.8367 -0.4566  0.5329
 2552SOL    HW219290   3.280   1.045   6.227 -1.3081 -2.6102 -0.7080
 2553SOL     OW19291   3.793   4.523   7.014 -0.2649  0.3660  0.4374
 2553SOL    HW119292   3.887   4.517   6.999 -0.4826 -1.1438 -0.3407
 2553SOL    HW219293   3.761   4.551   6.928  0.6304 -0.2838 -0.1033
 2554SOL     OW19294   1.416   2.054   3.940  0.2631  0.4253  0.0537
 2554SOL    HW119295   1.356   1.980   3.930 -2.1954  2.4536 -0.1451
 2554SOL    HW219296   1.474   2.037   3.866 -1.0770 -1.7783 -0.5036
 2555SOL     OW19297   2.990   2.204   2.862  0.5131  0.1708 -0.2257
 2555SOL    HW119298   3.068   2.165   2.823  1.3679  2.3649 -0.7105
 2555SOL    HW219299   2.953   2.261   2.795 -4.2612 -1.4977  1.0263
 2556SOL     OW19300   4.338   0.599   5.344 -0.2193 -0.1596  0.0118
 2556SOL    HW119301   4.427   0.624   5.322 -0.5957  1.2040  0.0305
 2556SOL    HW219302   4.355   0.533   5.411  2.6904  0.1808 -0.4031
 2557SOL     OW19303   4.006   0.158  14.397 -0.0476 -0.6054  0.1344
 2557SOL    HW119304   4.041   0.245  14.419 -0.0836 -0.3931 -0.6639
 2557SOL    HW219305   4.077   0.114  14.445 -1.1910 -1.6622  0.8443
 2558SOL     OW19306   0.813   1.897  11.385 -0.4507 -0.5990  0.1043
 2558SOL    HW119307   0.905   1.907  11.411  0.3981 -1.0311 -2.7252
 2558SOL    HW219308   0.823   1.858  11.298  0.6290 -0.3441  0.1141
 2559SOL     OW19309   1.734   0.316   2.375  0.2029 -0.0274  0.2116
 2559SOL    HW119310   1.688   0.235   2.353 -1.0856  0.4551  1.0690
 2559SOL    HW219311   1.768   0.287   2.459 -2.3597  0.2906  1.3638
 2560SOL     OW19312   3.404   1.994   6.950  0.4577  0.0189 -0.0368
 2560SOL    HW119313   3.395   1.959   6.861 -0.7217  1.5149 -0.5125
 2560SOL    HW219314   3.431   1.916   6.997 -0.1788 -0.2492 -0.1083
 2561SOL     OW19315   2.225   0.874  14.418 -0.1661 -0.7925 -0.1649
 2561SOL    HW119316   2.209   0.969  14.419 -1.9623 -1.0702 -0.9106
 2561SOL    HW219317   2.311   0.872  14.460 -1.2701  0.5559  2.1547
 2562SOL     OW19318   0.606   0.301   5.663 -0.3379 -0.4123  0.3843
 2562SOL    HW119319   0.564   0.379   5.627 -1.5978 -0.6553  1.3409
 2562SOL    HW219320   0.681   0.338   5.709  0.6361  1.4715 -2.7027
 2563SOL     OW19321   0.942   1.584   3.179 -0.9115  0.0532  0.3310
 2563SOL    HW119322   1.038   1.586   3.175 -0.8503 -1.2933  1.2624
 2563SOL    HW219323   0.928   1.498   3.141  0.6541  0.1773 -0.5640
 2564SOL     OW19324   4.147   2.145   2.908 -0.2893  0.1762 -0.5638
 2564SOL    HW119325   4.134   2.051   2.922  0.4827  0.3258  1.0584
 2564SOL    HW219326   4.117   2.156   2.817 -1.7826 -1.5136 -0.2784
 2565SOL     OW19327   4.537   3.120   3.179  0.0612  0.0770 -0.4023
 2565SOL    HW119328   4.458   3.173   3.168  0.2990  0.4160 -0.4885
 2565SOL    HW219329   4.544   3.147   3.271  0.2928  2.2166 -1.0450
 2566SOL     OW19330   3.491   4.412  16.250  0.9779  0.3421 -0.1810
 2566SOL    HW119331   3.570   4.359  16.243  1.4806  1.0534  0.0911
 2566SOL    HW219332   3.511   4.473  16.179  5.3645 -0.0908  0.7198
 2567SOL     OW19333   1.414   3.526   7.535 -0.6526 -0.4512 -0.0613
 2567SOL    HW119334   1.333   3.573   7.515  0.1780  0.3038 -1.6854
 2567SOL    HW219335   1.390   3.446   7.487 -1.5639 -1.0657  1.4425
 2568SOL     OW19336   2.574   1.505   4.746  0.1015  0.1405 -0.1954
 2568SOL    HW119337   2.627   1.581   4.724  0.6546 -0.3438 -0.5262
 2568SOL    HW219338   2.503   1.516   4.683 -0.3789  1.6026  0.6069
 2569SOL     OW19339   0.749   3.707   9.697 -0.0107  0.4708  0.0682
 2569SOL    HW119340   0.774   3.638   9.636 -1.4526 -0.6282  0.7268
 2569SOL    HW219341   0.672   3.744   9.653 -0.2925 -0.5094 -0.2608
 2570SOL     OW19342   2.340   1.311   8.273  0.3131 -0.2892 -0.1846
 2570SOL    HW119343   2.348   1.390   8.328 -0.6309 -0.9469  0.9086
 2570SOL    HW219344   2.408   1.326   8.207 -1.6701  1.9711 -1.7252
 2571SOL     OW19345   1.851   2.236   5.637 -0.0991  0.0876 -0.1147
 2571SOL    HW119346   1.893   2.256   5.554 -1.4061  0.3348 -0.7147
 2571SOL    HW219347   1.762   2.270   5.628  0.2289  0.7031 -0.9521
 2572SOL     OW19348   4.426   1.482   7.717  0.2397 -0.2704 -0.5596
 2572SOL    HW119349   4.468   1.407   7.758 -0.2723  0.3781  1.1600
 2572SOL    HW219350   4.379   1.514   7.795 -0.3379  0.0101 -1.0249
 2573SOL     OW19351   1.143   3.780  14.455 -0.4368 -0.0569  0.6352
 2573SOL    HW119352   1.133   3.841  14.528  0.8063 -1.0799  1.6609
 2573SOL    HW219353   1.056   3.747  14.434 -0.2677  0.7958 -1.4704
 2574SOL     OW19354   2.603   4.113   2.760 -0.1017  0.1402 -0.1439
 2574SOL    HW119355   2.604   4.189   2.817 -1.3984  1.2453 -1.5801
 2574SOL    HW219356   2.696   4.113   2.736  0.4009  0.1195  1.8163
 2575SOL     OW19357   3.228   2.073   1.827 -0.1165  0.7768  0.8088
 2575SOL    HW119358   3.212   2.102   1.737 -0.5012  1.0682  0.9686
 2575SOL    HW219359   3.140   2.042   1.849  0.0527 -0.1044  0.2379
 2576SOL     OW19360   4.688   4.659   3.256 -0.4371 -0.2891  0.2497
 2576SOL    HW119361   4.640   4.681   3.336  1.3651  1.9814  0.6828
 2576SOL    HW219362   4.648   4.717   3.192 -0.9461 -0.3084  0.5511
 2577SOL     OW19363   0.907   2.804  12.898 -0.2560  0.2361  0.2130
 2577SOL    HW119364   0.843   2.732  12.904  1.3643 -1.1639  0.6635
 2577SOL    HW219365   0.867   2.854  12.827  0.5256  1.1424  0.4114
 2578SOL     OW19366   2.815   0.524  12.795  0.1831 -0.2583  0.6062
 2578SOL    HW119367   2.722   0.504  12.801 -0.3692  1.5371 -1.9984
 2578SOL    HW219368   2.810   0.573  12.713 -1.3164  0.0637  0.8866
 2579SOL     OW19369   1.319   4.089   9.212  0.6438 -0.3238  0.2112
 2579SOL    HW119370   1.302   3.995   9.212 -1.0233 -0.0004 -3.1655
 2579SOL    HW219371   1.397   4.091   9.156  0.9516 -0.2663  0.6406
 2580SOL     OW19372   2.131   2.096   8.540 -0.5415 -0.5434 -0.0770
 2580SOL    HW119373   2.049   2.057   8.570  0.5621 -1.5479  1.6291
 2580SOL    HW219374   2.195   2.076   8.608 -0.3930 -0.5008 -0.2038
 2581SOL     OW19375   3.240   3.131   2.797 -0.0632  0.3587 -0.4396
 2581SOL    HW119376   3.174   3.066   2.820 -0.7207  1.1889  0.0381
 2581SOL    HW219377   3.191   3.202   2.755 -1.0308  1.3372  2.3181
 2582SOL     OW19378   1.320   0.497   5.867  0.3679  0.2902 -0.2007
 2582SOL    HW119379   1.348   0.514   5.957  2.6789 -0.0166 -0.8645
 2582SOL    HW219380   1.398   0.506   5.813 -0.5340  1.2686 -1.3318
 2583SOL     OW19381   0.425   3.095   8.008  0.2519 -0.0689  0.2530
 2583SOL    HW119382   0.421   3.154   8.084 -1.3680 -0.6824  0.6489
 2583SOL    HW219383   0.401   3.016   8.055 -0.0997 -0.4728 -0.6140
 2584SOL     OW19384   1.464   2.350   3.956  0.0179 -0.6803  0.0320
 2584SOL    HW119385   1.462   2.271   4.010  0.8216  1.0471  2.5351
 2584SOL    HW219386   1.553   2.355   3.921  0.6751  1.3389  2.0514
 2585SOL     OW19387   2.851   3.791   2.261 -0.0146  0.0620  0.1099
 2585SOL    HW119388   2.912   3.734   2.214  2.2564  2.2931  0.3263
 2585SOL    HW219389   2.810   3.823   2.180 -2.5596 -0.6716  1.1206
 2586SOL     OW19390   2.649   0.027   8.116  0.0529 -0.3017 -0.0368
 2586SOL    HW119391   2.681   0.019   8.026  0.3124  0.4058 -0.0095
 2586SOL    HW219392   2.560   0.050   8.091 -0.6887  0.6879  3.5034
 2587SOL     OW19393   2.485   2.670   2.895 -0.2908 -0.0425  0.1106
 2587SOL    HW119394   2.430   2.592   2.891 -0.2177 -0.0133 -1.5604
 2587SOL    HW219395   2.426   2.732   2.852  0.0607  1.6139  2.0296
 2588SOL     OW19396   4.508   3.388   6.792  0.2650  0.0191  0.3099
 2588SOL    HW119397   4.557   3.430   6.720 -1.0885 -1.4377 -1.4545
 2588SOL    HW219398   4.492   3.299   6.762 -0.4842  0.6706 -1.2100
 2589SOL     OW19399   3.585   1.632  16.770  0.1135 -0.0043  0.1903
 2589SOL    HW119400   3.529   1.706  16.747  1.7111  0.8891 -0.8603
 2589SOL    HW219401   3.580   1.623  16.865  1.6701 -1.2182  0.1807
 2590SOL     OW19402   0.009   2.034   8.864 -0.3047  0.2646  0.2182
 2590SOL    HW119403   4.724   2.111   8.813  0.2684  0.5515  0.3991
 2590SOL    HW219404   4.660   1.997   8.882  0.9301 -2.3024  0.9676
 2591SOL     OW19405   0.674   0.376  12.346  0.1473 -0.5233 -0.2047
 2591SOL    HW119406   0.744   0.318  12.317 -1.1835 -1.5091 -1.4200
 2591SOL    HW219407   0.722   0.436  12.404 -3.6360  1.5522  0.8238
 2592SOL     OW19408   3.971   1.983   8.468  0.2086 -0.1660 -0.2509
 2592SOL    HW119409   3.928   1.906   8.505 -1.2355  0.3932 -0.7845
 2592SOL    HW219410   4.015   1.949   8.390 -1.9860  0.2685 -1.6603
 2593SOL     OW19411   4.577   2.320   8.534 -0.5308 -0.1472 -0.6386
 2593SOL    HW119412   4.544   2.362   8.455 -1.1052  1.3816  0.4197
 2593SOL    HW219413   4.516   2.247   8.549  0.9520 -1.2670  0.0044
 2594SOL     OW19414   3.702   1.275  10.439  0.5055 -0.4910 -0.1256
 2594SOL    HW119415   3.781   1.302  10.485  1.9898  0.6366 -3.3598
 2594SOL    HW219416   3.636   1.301  10.503 -0.3445 -0.8008 -0.8767
 2595SOL     OW19417   0.567   1.529  12.497 -0.0022 -0.3405 -0.1973
 2595SOL    HW119418   0.651   1.513  12.454  0.2558  2.0152 -0.5264
 2595SOL    HW219419   0.581   1.618  12.530 -0.0107 -1.0306  1.6932
 2596SOL     OW19420   4.152   0.769   3.888 -0.1067  0.0476 -0.2215
 2596SOL    HW119421   4.175   0.855   3.854  0.5553 -1.5427 -3.7689
 2596SOL    HW219422   4.090   0.796   3.956 -2.4986 -0.8292 -2.0531
 2597SOL     OW19423   4.720   0.593   2.562  0.3066  0.2589 -0.0728
 2597SOL    HW119424   4.705   0.577   2.655  1.1574 -2.0082 -0.3142
 2597SOL    HW219425   4.701   0.686   2.552 -0.4123  0.2265  1.0653
 2598SOL     OW19426   3.584   4.146  17.164  0.3643 -0.2234  0.0645
 2598SOL    HW119427   3.534   4.131  17.084 -1.7139  2.6007  0.8550
 2598SOL    HW219428   3.512   4.180  17.217 -0.1144 -1.3131  0.1113
 2599SOL     OW19429   1.211   0.813  16.375  0.9221  0.5039  0.4104
 2599SOL    HW119430   1.277   0.875  16.405  1.8898  0.9019 -2.5778
 2599SOL    HW219431   1.240   0.743  16.434 -2.7952 -0.9517  0.5555
 2600SOL     OW19432   3.170   3.335   9.744 -0.2619  0.2438 -0.2477
 2600SOL    HW119433   3.138   3.276   9.811  0.3430 -0.1409 -0.2987
 2600SOL    HW219434   3.221   3.274   9.691 -1.9611 -0.7916 -0.6631
 2601SOL     OW19435   3.975   3.399   7.545  0.1229 -0.3912  0.2647
 2601SOL    HW119436   4.016   3.353   7.618 -1.0045 -0.3692  0.8967
 2601SOL    HW219437   3.885   3.367   7.553 -0.3646  1.4147  1.8818
 2602SOL     OW19438   4.381   3.852  14.139 -0.2961  0.7406  0.6853
 2602SOL    HW119439   4.330   3.888  14.066  2.1329 -1.0643 -1.8867
 2602SOL    HW219440   4.450   3.918  14.147  0.4584 -0.2125  1.9856
 2603SOL     OW19441   1.819   2.581   3.408 -0.1010  0.1572  0.3004
 2603SOL    HW119442   1.873   2.660   3.407  0.7496 -0.4220  1.0180
 2603SOL    HW219443   1.850   2.537   3.486  0.2593  0.4783  0.3398
 2604SOL     OW19444   1.082   1.371   7.965 -0.4428 -0.3728 -0.4877
 2604SOL    HW119445   1.123   1.417   8.038 -0.1623 -2.1734  0.4755
 2604SOL    HW219446   1.071   1.444   7.904  0.4286  0.1815  0.0180
 2605SOL     OW19447   3.973   1.684  12.818 -0.3200 -0.2693  0.2891
 2605SOL    HW119448   3.909   1.700  12.888 -0.8295  2.5110 -0.8386
 2605SOL    HW219449   4.037   1.751  12.837 -1.0760  0.8338 -1.0752
 2606SOL     OW19450   3.729   0.555   2.442  0.7151  0.3714 -0.3693
 2606SOL    HW119451   3.725   0.495   2.368 -0.2506 -1.4281  1.1223
 2606SOL    HW219452   3.648   0.535   2.488  0.7374 -1.6157 -1.1784
 2607SOL     OW19453   2.729   4.132   7.650  0.6464  0.3461  0.3264
 2607SOL    HW119454   2.653   4.129   7.591 -0.2312  2.0952  1.3758
 2607SOL    HW219455   2.715   4.043   7.682  1.1667 -0.8640 -2.8183
 2608SOL     OW19456   1.146   3.419   5.983  0.0773 -0.2390 -0.5844
 2608SOL    HW119457   1.097   3.339   5.966 -0.3817 -0.4760  1.8380
 2608SOL    HW219458   1.085   3.491   5.970  0.7349  0.4954  0.3416
 2609SOL     OW19459   4.361   1.469   4.754  0.2509  0.0046 -0.5960
 2609SOL    HW119460   4.367   1.380   4.717  2.4065 -0.2677  0.3963
 2609SOL    HW219461   4.387   1.522   4.679 -2.5823  0.1662 -1.4664
 2610SOL     OW19462   3.460   4.044   5.329  0.1575  0.2966  0.0167
 2610SOL    HW119463   3.415   4.041   5.414 -0.0389  1.6125 -0.0472
 2610SOL    HW219464   3.530   4.109   5.335  1.7738 -1.5481  1.1333
 2611SOL     OW19465   4.030   0.205   1.874  0.1436 -0.2056  0.0990
 2611SOL    HW119466   3.952   0.255   1.850 -0.7852 -1.9155 -0.5018
 2611SOL    HW219467   4.052   0.166   1.789 -2.9004 -3.2685  0.6947
 2612SOL     OW19468   2.553   2.158   1.743  0.2152 -0.0515 -0.6392
 2612SOL    HW119469   2.624   2.146   1.807  0.2178 -1.4174 -0.8921
 2612SOL    HW219470   2.530   2.251   1.748  1.2337  0.2572 -1.6822
 2613SOL     OW19471   0.674   3.324   8.143 -0.2696  0.6799  0.2752
 2613SOL    HW119472   0.695   3.249   8.198  1.6408  0.5651 -0.6205
 2613SOL    HW219473   0.691   3.394   8.207  2.2526  0.0400  0.2777
 2614SOL     OW19474   3.469   4.251   7.123 -0.0152  0.5205 -0.0515
 2614SOL    HW119475   3.447   4.248   7.217  0.4878 -1.5761  0.0032
 2614SOL    HW219476   3.552   4.205   7.129 -0.1564  0.4989  2.0797
 2615SOL     OW19477   3.201   1.886  14.966 -0.3479  0.4395 -0.9839
 2615SOL    HW119478   3.123   1.853  15.011 -0.3834 -2.6962 -3.3683
 2615SOL    HW219479   3.265   1.825  15.003 -1.6885 -1.3613 -1.6776
 2616SOL     OW19480   2.519   2.284   0.585 -0.2850 -0.6879  0.5376
 2616SOL    HW119481   2.455   2.261   0.652 -2.1632  2.2223 -0.2484
 2616SOL    HW219482   2.553   2.201   0.553 -0.4019 -0.5867  0.1512
 2617SOL     OW19483   3.325   0.264   3.342 -0.7201  0.2122 -0.5947
 2617SOL    HW119484   3.236   0.229   3.346 -0.9928  0.7406 -2.3659
 2617SOL    HW219485   3.363   0.212   3.271  1.9576 -0.3043  1.2007
 2618SOL     OW19486   0.466   3.781   4.709  0.0735 -0.0510  0.7292
 2618SOL    HW119487   0.418   3.740   4.638  1.8476  0.1758 -0.6072
 2618SOL    HW219488   0.501   3.862   4.670  0.0959 -0.0427  0.7662
 2619SOL     OW19489   3.202   2.813   9.900 -0.6432  0.3334  0.7225
 2619SOL    HW119490   3.139   2.787   9.967 -1.8196  1.9837  0.2744
 2619SOL    HW219491   3.239   2.892   9.940 -1.9957  0.7045  1.2282
 2620SOL     OW19492   1.492   1.972   5.109  0.5631  0.5592  0.4055
 2620SOL    HW119493   1.461   2.054   5.072  0.3753  0.0410 -0.6024
 2620SOL    HW219494   1.506   1.987   5.202 -2.7614  1.8544  0.6815
 2621SOL     OW19495   1.925   3.710   0.156 -0.1596  0.0991  0.5626
 2621SOL    HW119496   2.004   3.703   0.210  0.6995  0.7493 -0.6038
 2621SOL    HW219497   1.906   3.617   0.140 -1.8491  0.8278 -1.7055
 2622SOL     OW19498   0.027   3.646   8.208  0.1536 -0.2099 -0.2001
 2622SOL    HW119499   0.091   3.686   8.267  0.5423 -0.4053 -0.4922
 2622SOL    HW219500   0.021   3.716   8.143  0.2226 -0.3437 -0.3490
 2623SOL     OW19501   0.273   0.171   4.932 -0.8921 -0.8921  0.0673
 2623SOL    HW119502   0.299   0.126   5.012 -1.0281  0.1283  0.6810
 2623SOL    HW219503   0.323   0.252   4.937 -0.7397 -0.8876 -1.5209
 2624SOL     OW19504   0.474   4.409   2.624  0.1240 -0.2440  0.4743
 2624SOL    HW119505   0.433   4.472   2.682 -0.3031  1.8371 -2.0712
 2624SOL    HW219506   0.423   4.415   2.543  2.1345  1.9243 -0.6259
 2625SOL     OW19507   1.508   3.291   6.685 -0.2043 -0.4221  0.0281
 2625SOL    HW119508   1.602   3.274   6.686 -0.2394 -0.6100  0.0779
 2625SOL    HW219509   1.474   3.237   6.756  2.0059 -0.1065  1.3351
 2626SOL     OW19510   4.615   0.780   7.626 -0.2758  0.2082 -0.1467
 2626SOL    HW119511   4.704   0.761   7.596  1.1305  1.7709  3.0661
 2626SOL    HW219512   4.561   0.783   7.547  0.1932 -1.5223 -0.5277
 2627SOL     OW19513   1.158   1.507   5.484  0.6424  0.4095 -0.4042
 2627SOL    HW119514   1.132   1.421   5.452 -1.5404  0.1493  2.0642
 2627SOL    HW219515   1.078   1.529   5.531  0.8254 -1.3124  0.6942
 2628SOL     OW19516   3.016   1.968   6.879 -0.0984  0.4286 -0.1661
 2628SOL    HW119517   3.038   1.985   6.970  1.3588  0.6935 -0.5707
 2628SOL    HW219518   3.018   2.056   6.842 -0.6904  1.1543  1.5650
 2629SOL     OW19519   2.028   0.904  13.193 -0.4366  0.2858  0.1522
 2629SOL    HW119520   2.041   0.922  13.100  3.3189 -0.2934  0.5844
 2629SOL    HW219521   1.989   0.989  13.216  0.2878  0.4343  0.8325
 2630SOL     OW19522   3.650   4.040   6.293  0.4656 -0.4830  0.2871
 2630SOL    HW119523   3.691   4.118   6.328  1.2338  0.9293 -3.7508
 2630SOL    HW219524   3.696   4.024   6.211 -2.3908 -1.8747 -1.0438
 2631SOL     OW19525   0.704   2.214  16.675  0.3430 -0.3319  0.0010
 2631SOL    HW119526   0.711   2.194  16.582 -1.6418 -0.9359 -0.0243
 2631SOL    HW219527   0.656   2.135  16.699  1.2577 -1.3180 -1.3818
 2632SOL     OW19528   2.423   2.067   1.524 -0.1235  0.2724  0.1766
 2632SOL    HW119529   2.496   2.101   1.471  0.1831  0.6592  0.8463
 2632SOL    HW219530   2.468   2.079   1.607  0.6777 -1.0134 -0.0789
 2633SOL     OW19531   0.892   4.724   2.973  0.1869  0.2142  1.0668
 2633SOL    HW119532   0.831   4.652   2.961 -0.4132  0.9077 -0.1326
 2633SOL    HW219533   0.833   0.060   2.989 -1.4993 -0.8103 -0.5127
 2634SOL     OW19534   2.053   0.634   3.407  0.0483  0.2802  0.0039
 2634SOL    HW119535   2.063   0.714   3.354 -0.6077  1.0504  1.0366
 2634SOL    HW219536   2.102   0.582   3.344 -1.2753 -0.3819 -0.4777
 2635SOL     OW19537   0.749   2.127   5.992 -0.0010  0.0628  0.5325
 2635SOL    HW119538   0.757   2.106   5.899 -0.2300 -0.0411  0.5361
 2635SOL    HW219539   0.732   2.221   5.986 -0.9764  0.0186  2.8330
 2636SOL     OW19540   4.026   3.187   4.816 -0.5638 -0.0260 -0.1666
 2636SOL    HW119541   3.996   3.144   4.736  2.1532  2.1317 -2.3529
 2636SOL    HW219542   4.071   3.263   4.778 -1.4320  0.1459 -0.8658
 2637SOL     OW19543   4.153   2.619  13.442  0.3063 -0.1385  0.7035
 2637SOL    HW119544   4.115   2.691  13.492  1.6089  0.7326  0.4542
 2637SOL    HW219545   4.145   2.646  13.351 -0.6893 -1.6333  0.3487
 2638SOL     OW19546   0.990   4.501   5.593 -0.3306 -0.8582 -0.1433
 2638SOL    HW119547   0.951   4.454   5.519 -0.5955 -0.4996 -0.2284
 2638SOL    HW219548   1.079   4.466   5.585 -0.0363 -0.4532  1.3934
 2639SOL     OW19549   1.837   1.355   1.007 -0.0744 -0.0068  0.2821
 2639SOL    HW119550   1.747   1.371   1.037 -0.2325  0.3080 -0.3553
 2639SOL    HW219551   1.878   1.414   1.070 -0.5418 -0.2186  0.7857
 2640SOL     OW19552   1.776   2.545  14.792 -1.0572  0.1416 -0.1506
 2640SOL    HW119553   1.747   2.532  14.883 -1.9688 -0.9586 -0.5944
 2640SOL    HW219554   1.701   2.522  14.737 -0.5317 -1.0577 -0.3832
 2641SOL     OW19555   4.723   0.065   8.600  0.1462 -0.0625 -0.2512
 2641SOL    HW119556   4.701   0.071   8.507  1.7866 -1.5786 -0.7425
 2641SOL    HW219557   0.012   4.711   8.609 -0.1108 -0.1185 -0.0633
 2642SOL     OW19558   0.259   0.463  14.127 -0.5639  0.5960  0.0468
 2642SOL    HW119559   0.206   0.393  14.089  1.4537 -0.9714  0.0946
 2642SOL    HW219560   0.274   0.518  14.050 -0.1677 -0.3410 -0.5521
 2643SOL     OW19561   4.052   3.110  11.743  0.1097 -0.0484 -0.1579
 2643SOL    HW119562   3.957   3.117  11.749 -0.1524  0.0550 -4.3655
 2643SOL    HW219563   4.073   3.149  11.828  3.1187  0.1567 -0.9869
 2644SOL     OW19564   3.210   2.637   4.478 -0.5965  0.1909  0.2009
 2644SOL    HW119565   3.257   2.715   4.451 -1.9373  0.0821 -2.4796
 2644SOL    HW219566   3.127   2.650   4.430 -0.4212  1.2384  0.1793
 2645SOL     OW19567   0.722   0.312   8.646  0.2917  0.1897  1.2654
 2645SOL    HW119568   0.745   0.389   8.698  0.9506  0.0867  1.1241
 2645SOL    HW219569   0.808   0.296   8.606 -0.6584 -3.1631  0.6289
 2646SOL     OW19570   1.007   4.122   4.289  0.0592  0.6511 -0.0046
 2646SOL    HW119571   0.950   4.191   4.322  0.3595  0.6694  0.4780
 2646SOL    HW219572   1.063   4.108   4.366 -0.2743  1.6920  0.4376
 2647SOL     OW19573   0.228   2.702   6.467  0.7602  0.1392 -0.3787
 2647SOL    HW119574   0.278   2.771   6.424 -0.0496  0.6016 -0.5941
 2647SOL    HW219575   0.307   2.651   6.486 -0.3868 -1.2930  0.5962
 2648SOL     OW19576   0.345   3.955   4.390  0.3571  0.0096  0.0121
 2648SOL    HW119577   0.388   4.013   4.453  0.4436 -0.2236  0.1653
 2648SOL    HW219578   0.362   4.008   4.312 -0.1733 -0.8200 -0.6733
 2649SOL     OW19579   1.751   2.866   4.594 -0.1259 -0.3754 -0.3816
 2649SOL    HW119580   1.802   2.852   4.675  1.1404 -2.3421 -1.5276
 2649SOL    HW219581   1.662   2.863   4.629 -0.1620 -0.4995 -0.4845
 2650SOL     OW19582   3.179   3.112   9.059  0.2597 -0.7709  0.4063
 2650SOL    HW119583   3.238   3.149   8.993 -1.8502 -0.5798 -1.3767
 2650SOL    HW219584   3.181   3.185   9.120 -0.8884 -1.5000  1.3061
 2651SOL     OW19585   3.048   3.024  12.803 -0.6910 -0.4209 -0.3765
 2651SOL    HW119586   3.109   3.024  12.876  0.2473 -0.3553 -1.1590
 2651SOL    HW219587   2.994   2.951  12.835 -0.2557 -0.8300 -0.5644
 2652SOL     OW19588   3.585   1.193   5.141 -0.0101  0.0561 -0.7550
 2652SOL    HW119589   3.553   1.203   5.231 -0.9756 -1.9958 -0.8888
 2652SOL    HW219590   3.676   1.163   5.150 -0.5573 -1.3998 -0.0754
 2653SOL     OW19591   1.891   2.022   1.783  0.3586 -0.0562 -0.3671
 2653SOL    HW119592   1.898   1.963   1.708  0.2542  0.4327 -0.7662
 2653SOL    HW219593   1.911   2.103   1.737 -3.4469  1.3459  0.4417
 2654SOL     OW19594   0.239   3.741   7.304 -0.0044  0.4346  0.4136
 2654SOL    HW119595   0.160   3.788   7.278 -0.0650  1.4425  2.4216
 2654SOL    HW219596   0.300   3.795   7.253 -0.1468 -0.6401 -0.9122
 2655SOL     OW19597   1.262   3.197   6.322 -0.2481 -0.3617  0.4977
 2655SOL    HW119598   1.331   3.219   6.258 -2.3281  1.0319 -1.2853
 2655SOL    HW219599   1.287   3.258   6.391  0.2437  3.3536 -2.9353
 2656SOL     OW19600   4.546   1.027   4.483  0.0448  0.3179 -0.0548
 2656SOL    HW119601   4.493   0.948   4.497 -1.8786  1.8783  1.4178
 2656SOL    HW219602   4.555   1.066   4.570 -0.4227 -2.1354  1.0964
 2657SOL     OW19603   3.840   1.803   8.913 -0.1664 -0.3493 -0.3164
 2657SOL    HW119604   3.816   1.893   8.891  0.7647  0.6446  2.6609
 2657SOL    HW219605   3.935   1.810   8.924 -0.2033 -1.7934  0.8553
 2658SOL     OW19606   0.039   0.300   7.338 -0.2592 -0.6222  0.1867
 2658SOL    HW119607   4.701   0.255   7.376 -0.7529 -0.8773 -1.0804
 2658SOL    HW219608   0.090   0.323   7.415 -0.2927  0.3826 -0.0878
 2659SOL     OW19609   0.389   2.339   5.292 -0.3281 -0.1195  0.1967
 2659SOL    HW119610   0.381   2.332   5.387 -1.0712  1.2154  0.2331
 2659SOL    HW219611   0.469   2.289   5.277  0.8512  1.5856  0.7675
 2660SOL     OW19612   4.734   0.279   6.586 -0.2129  0.1375 -0.4329
 2660SOL    HW119613   0.043   0.334   6.649 -0.1842  1.1819 -1.3805
 2660SOL    HW219614   0.069   0.254   6.529 -0.0995 -0.3197 -0.0883
 2661SOL     OW19615   4.032   0.568   8.331 -0.0422  0.1325  0.0805
 2661SOL    HW119616   4.061   0.566   8.422  2.2006 -1.6647 -0.6701
 2661SOL    HW219617   4.053   0.482   8.293  1.7829  0.9456 -0.7588
 2662SOL     OW19618   3.032   4.277  17.148 -0.2164 -0.0560  0.4004
 2662SOL    HW119619   3.066   4.188  17.145 -0.0609  0.0649 -1.2142
 2662SOL    HW219620   3.040   4.310  17.059  0.2257  0.8400  0.7717
 2663SOL     OW19621   3.808   2.538   1.581  0.4953 -0.1275 -0.2076
 2663SOL    HW119622   3.840   2.554   1.493 -2.6052 -0.0673 -1.3063
 2663SOL    HW219623   3.771   2.450   1.570 -0.7432  0.3685  0.0350
 2664SOL     OW19624   2.479   0.909  10.510  0.1783  0.0034 -0.1460
 2664SOL    HW119625   2.510   0.989  10.551  0.3614 -0.6667  1.0222
 2664SOL    HW219626   2.525   0.903  10.426 -2.0638 -1.7305 -1.2761
 2665SOL     OW19627   4.514   4.297   6.649  0.4025 -0.3166  0.2742
 2665SOL    HW119628   4.571   4.349   6.706  0.3065 -0.4295  0.4758
 2665SOL    HW219629   4.486   4.230   6.712  0.3237 -0.3528  0.2002
 2666SOL     OW19630   2.899   1.750   7.600  0.8135  0.2610  0.2718
 2666SOL    HW119631   2.831   1.783   7.541 -0.3469 -0.7666  1.0316
 2666SOL    HW219632   2.930   1.836   7.628 -1.2348  0.8834  0.6186
 2667SOL     OW19633   4.081   0.239  11.563  0.3069  0.7594  0.1815
 2667SOL    HW119634   4.080   0.181  11.640 -0.8887  1.1791  0.4841
 2667SOL    HW219635   4.142   0.201  11.501 -0.8429 -2.6153  1.1135
 2668SOL     OW19636   2.336   0.954   4.573  0.4903  0.4052 -0.2572
 2668SOL    HW119637   2.332   1.040   4.615 -1.3669  0.1655  0.0520
 2668SOL    HW219638   2.423   0.937   4.610 -0.1139  0.3760  1.1545
 2669SOL     OW19639   3.155   2.415   4.637 -0.4023  0.7633  0.7381
 2669SOL    HW119640   3.162   2.508   4.614 -2.2518  0.5903 -0.5182
 2669SOL    HW219641   3.087   2.425   4.703 -1.6093 -1.2806 -0.1967
 2670SOL     OW19642   2.894   4.481   8.351 -0.1121  0.0821 -0.0470
 2670SOL    HW119643   2.810   4.437   8.352 -0.7443  1.2848 -0.1010
 2670SOL    HW219644   2.918   4.498   8.260 -0.9995 -3.3419 -0.9115
 2671SOL     OW19645   1.489   1.371   1.508 -0.5627 -0.7586  0.1072
 2671SOL    HW119646   1.469   1.326   1.590 -1.0186  0.7734  0.8331
 2671SOL    HW219647   1.433   1.448   1.519  0.2550  0.1610 -2.0729
 2672SOL     OW19648   4.203   2.554   4.032  0.0662 -0.2969  0.1813
 2672SOL    HW119649   4.210   2.466   4.069  0.0134 -0.4787 -0.2409
 2672SOL    HW219650   4.206   2.538   3.938 -3.2532  3.8779 -0.6270
 2673SOL     OW19651   2.659   2.078   9.930 -0.1789 -1.0945  0.4416
 2673SOL    HW119652   2.718   2.008   9.901  0.4547 -0.5186  0.3485
 2673SOL    HW219653   2.676   2.145   9.865 -0.9583  0.5944  1.9715
 2674SOL     OW19654   4.058   1.742   5.613 -0.3907 -0.4695 -0.4228
 2674SOL    HW119655   4.142   1.760   5.571  0.0118 -3.8208 -0.9957
 2674SOL    HW219656   4.075   1.680   5.683  1.1324 -0.3775 -0.7238
 2675SOL     OW19657   0.618   1.221   2.234 -0.1058  0.3311 -0.0139
 2675SOL    HW119658   0.536   1.261   2.265 -0.6714 -0.4609 -0.4857
 2675SOL    HW219659   0.582   1.147   2.186  0.4891 -0.6081  0.9913
 2676SOL     OW19660   2.118   3.345   1.208  0.3453  0.0403 -0.4738
 2676SOL    HW119661   2.079   3.269   1.252  0.1301  0.4275  0.0016
 2676SOL    HW219662   2.207   3.320   1.184  0.5107  0.7380 -0.5875
 2677SOL     OW19663   0.123   3.250   3.014  0.7779  0.0660  0.3194
 2677SOL    HW119664   0.142   3.308   2.940 -0.2313 -0.4910 -0.3774
 2677SOL    HW219665   0.031   3.233   2.993  0.4935  2.7100 -0.5361
 2678SOL     OW19666   0.288   0.200  11.090 -0.3103 -0.2626  0.0596
 2678SOL    HW119667   0.310   0.194  11.183  1.6791 -1.6561 -0.4964
 2678SOL    HW219668   0.317   0.112  11.065 -1.7904 -0.9955  0.9061
 2679SOL     OW19669   0.126   0.596  13.651 -0.5127  0.0931  0.0978
 2679SOL    HW119670   0.073   0.586  13.573 -1.6306  3.4447  0.3941
 2679SOL    HW219671   0.125   0.691  13.664 -4.8704 -0.1318  1.4203
 2680SOL     OW19672   0.430   4.602   5.302  0.5718 -0.2952  0.6253
 2680SOL    HW119673   0.452   4.581   5.393 -1.0372 -1.1437  0.8118
 2680SOL    HW219674   0.353   4.547   5.290 -1.3326  2.8490 -1.5866
 2681SOL     OW19675   1.497   3.838   0.128  0.0014  0.9596 -0.1221
 2681SOL    HW119676   1.588   3.861   0.142 -0.0334 -0.0180  1.6884
 2681SOL    HW219677   1.470   3.916   0.079 -2.0541 -0.0265 -0.5636
 2682SOL     OW19678   1.723   2.745   0.134  0.1915 -0.0210  0.1555
 2682SOL    HW119679   1.784   2.726   0.063 -1.0195  0.8370 -1.1066
 2682SOL    HW219680   1.740   2.665   0.184  1.0151 -0.0471 -0.1767
 2683SOL     OW19681   0.703   3.693   2.789  0.1411 -0.2053 -0.8322
 2683SOL    HW119682   0.762   3.716   2.861 -2.3991 -2.1043  1.8867
 2683SOL    HW219683   0.772   3.661   2.731  0.9663 -0.7285  0.4368
 2684SOL     OW19684   0.934   4.398   9.718  0.2150 -0.3185  0.0362
 2684SOL    HW119685   0.961   4.418   9.628  0.4520  0.2136  0.2232
 2684SOL    HW219686   0.990   4.460   9.765  0.2728 -0.5657  0.2920
 2685SOL     OW19687   3.584   4.658   9.878 -0.1578  0.2367  0.3590
 2685SOL    HW119688   3.608   4.606   9.802 -2.7333 -0.9353  0.3603
 2685SOL    HW219689   3.495   4.629   9.895 -0.5277  1.1815  0.0242
 2686SOL     OW19690   2.173   3.404   7.191 -0.1702  0.2299 -0.5537
 2686SOL    HW119691   2.187   3.481   7.247 -0.9429  1.3562 -1.9015
 2686SOL    HW219692   2.198   3.437   7.104  3.2567 -2.5953 -0.6336
 2687SOL     OW19693   1.873   3.270   3.208  0.5051 -0.4618  0.0756
 2687SOL    HW119694   1.923   3.341   3.249  0.7511  0.5143 -1.9038
 2687SOL    HW219695   1.790   3.270   3.255  0.6466 -1.1535  0.3205
 2688SOL     OW19696   3.908   3.678   4.457 -0.5981  0.2738  0.1514
 2688SOL    HW119697   3.909   3.625   4.538 -0.5056  0.6822  0.4149
 2688SOL    HW219698   3.894   3.765   4.494  0.7388  0.7454 -0.4768
 2689SOL     OW19699   2.797   4.420   7.341  0.6015 -0.0919  0.4584
 2689SOL    HW119700   2.853   4.374   7.403  0.1717 -0.4510  0.5825
 2689SOL    HW219701   2.829   4.510   7.338 -1.8350  0.7820  0.3060
 2690SOL     OW19702   2.429   4.251   2.234 -0.0227 -0.0877  0.0532
 2690SOL    HW119703   2.362   4.240   2.302  0.2852  0.1655  0.3975
 2690SOL    HW219704   2.451   4.160   2.213 -0.6430 -0.4662  1.0513
 2691SOL     OW19705   0.074   2.257   8.652 -0.2640 -0.2182 -0.8627
 2691SOL    HW119706   4.732   2.295   8.614  0.3953  0.9085 -1.0981
 2691SOL    HW219707   0.133   2.291   8.585 -2.0581  1.7245 -1.4452
 2692SOL     OW19708   1.365   3.373   5.861 -0.4385  0.5272 -0.5664
 2692SOL    HW119709   1.279   3.388   5.901 -0.7926 -1.4024 -0.6514
 2692SOL    HW219710   1.335   3.317   5.790  0.3070  0.0351 -0.4845
 2693SOL     OW19711   2.914   3.524   5.554  0.1693  0.1812  0.2722
 2693SOL    HW119712   2.821   3.529   5.530 -0.0864  3.3402  1.9123
 2693SOL    HW219713   2.917   3.429   5.563 -1.2469 -0.1006 -2.0681
 2694SOL     OW19714   3.203   4.476   3.458 -0.1667  0.0715  0.5353
 2694SOL    HW119715   3.107   4.475   3.448 -0.2568 -2.4994  1.6531
 2694SOL    HW219716   3.238   4.514   3.378  1.7573 -0.9935  0.8712
 2695SOL     OW19717   3.351   1.881   4.254 -0.4540  0.4185 -0.1438
 2695SOL    HW119718   3.352   1.920   4.166  2.7184  1.3469  0.3085
 2695SOL    HW219719   3.315   1.951   4.308  0.7483  0.3670  0.7213
 2696SOL     OW19720   2.251   4.633   3.456 -0.0449 -0.0549 -0.2602
 2696SOL    HW119721   2.238   4.638   3.362 -0.0295  1.2129 -0.1905
 2696SOL    HW219722   2.338   4.664   3.482 -0.3888  0.2031  0.6061
 2697SOL     OW19723   3.141   2.855  16.877 -0.0183  0.2804 -0.5225
 2697SOL    HW119724   3.211   2.790  16.879  0.8427  1.1826 -1.7144
 2697SOL    HW219725   3.174   2.913  16.808 -0.7686  1.3467  0.0023
 2698SOL     OW19726   1.164   1.618   9.191 -0.2872  0.1396  0.2456
 2698SOL    HW119727   1.252   1.583   9.207 -0.2118 -0.4486 -1.4119
 2698SOL    HW219728   1.120   1.537   9.214 -0.7660  0.1007 -0.7925
 2699SOL     OW19729   4.025   1.833   7.255 -0.4269  0.4789  0.7808
 2699SOL    HW119730   4.087   1.870   7.317 -0.8966  0.9411  0.9747
 2699SOL    HW219731   3.941   1.878   7.267 -0.8006 -0.0205  0.0597
 2700SOL     OW19732   3.021   3.438   4.581 -0.6444 -0.1422  0.3755
 2700SOL    HW119733   3.076   3.361   4.568 -1.1562 -0.1911 -1.4668
 2700SOL    HW219734   2.970   3.432   4.500 -0.2646  0.9649  0.0634
 2701SOL     OW19735   0.216   1.469   8.253  0.3217  0.3620 -0.3172
 2701SOL    HW119736   0.155   1.502   8.319  1.2031 -1.0533  1.1975
 2701SOL    HW219737   0.246   1.386   8.289  1.1886  1.6522  1.9031
 2702SOL     OW19738   0.753   3.595  13.294 -0.9267  0.0692  0.2047
 2702SOL    HW119739   0.797   3.603  13.209 -0.6571 -0.8551  0.2655
 2702SOL    HW219740   0.703   3.514  13.282 -0.3056  0.0186 -2.1862
 2703SOL     OW19741   0.756   0.030   7.690 -0.1748 -0.5455 -0.2688
 2703SOL    HW119742   0.848   0.033   7.718 -0.2656 -0.9785  0.0578
 2703SOL    HW219743   0.722   0.118   7.707  0.1184 -0.7195  1.2004
 2704SOL     OW19744   3.637   2.152   7.033 -0.5817  0.3215 -0.5537
 2704SOL    HW119745   3.555   2.104   7.047 -0.8800  0.4685 -1.7510
 2704SOL    HW219746   3.598   2.214   6.971  1.1058 -0.5659 -2.5045
 2705SOL     OW19747   1.200   0.066   4.822  0.3627  0.1725 -0.2804
 2705SOL    HW119748   1.230   4.733   4.879  0.6189 -0.6785 -1.4748
 2705SOL    HW219749   1.163   0.120   4.891  3.0321  1.0829  0.4168
 2706SOL     OW19750   1.146   0.070  10.187 -0.1070 -0.1870 -0.3005
 2706SOL    HW119751   1.052   0.068  10.204 -0.0304  0.1441  0.1552
 2706SOL    HW219752   1.170   4.719  10.213 -0.5989  0.5079  2.4981
 2707SOL     OW19753   3.599   4.707   9.421 -0.2991  0.3198  0.3438
 2707SOL    HW119754   3.596   0.028   9.496 -0.0017  2.0035 -0.9517
 2707SOL    HW219755   3.610   4.625   9.470  0.2832  1.1618  1.6120
 2708SOL     OW19756   3.729   3.980   2.399  0.0592 -0.0396 -0.2266
 2708SOL    HW119757   3.812   3.933   2.396  0.3156  0.3953  0.0010
 2708SOL    HW219758   3.667   3.909   2.382  0.1751 -0.0979 -0.4049
 2709SOL     OW19759   2.539   1.135   1.625 -0.5267  0.4997  0.1872
 2709SOL    HW119760   2.473   1.098   1.683 -1.5233  0.3776 -1.0005
 2709SOL    HW219761   2.589   1.173   1.697 -1.1299  1.7645 -0.0584
 2710SOL     OW19762   0.850   2.782   2.736  0.0663 -0.0406  0.5416
 2710SOL    HW119763   0.773   2.821   2.777 -0.0810 -0.8365  1.0180
 2710SOL    HW219764   0.842   2.692   2.767 -0.1098 -0.9244 -2.0892
 2711SOL     OW19765   1.306   1.842   5.932  0.2454  0.1774  0.3468
 2711SOL    HW119766   1.264   1.796   6.005 -0.3174  0.7633  0.3976
 2711SOL    HW219767   1.343   1.768   5.884  2.4599  1.0422  0.7331
 2712SOL     OW19768   0.893   1.027   5.681  0.0008 -0.1200 -0.6528
 2712SOL    HW119769   0.921   0.937   5.693  0.6792  0.1088 -0.5452
 2712SOL    HW219770   0.875   1.017   5.587  0.7285 -0.1450 -0.7885
 2713SOL     OW19771   4.623   0.032  16.640 -0.4241 -0.3229  0.2794
 2713SOL    HW119772   4.580   0.029  16.554 -2.1155 -1.4852  1.1767
 2713SOL    HW219773   4.692   4.703  16.634  0.0079  0.3031 -1.9880
 2714SOL     OW19774   1.692   3.361  15.334  0.3112 -0.5889  0.5346
 2714SOL    HW119775   1.726   3.360  15.245  0.1516 -1.0073  0.4785
 2714SOL    HW219776   1.597   3.361  15.320  0.0184 -1.6902  2.4413
 2715SOL     OW19777   4.403   3.242   7.008 -0.1633  0.6499  0.2224
 2715SOL    HW119778   4.366   3.313   7.061 -2.2534 -1.0345  1.0255
 2715SOL    HW219779   4.412   3.283   6.922  1.5346 -3.1648 -1.4210
 2716SOL     OW19780   4.643   4.332   1.345  0.0899 -0.1837 -0.0618
 2716SOL    HW119781   4.617   4.403   1.403  0.3792 -1.0895  1.1872
 2716SOL    HW219782   4.622   4.371   1.260  1.0879  0.7068  0.1107
 2717SOL     OW19783   3.841   4.006   6.696  0.3292  0.4192 -0.2176
 2717SOL    HW119784   3.768   3.950   6.720  1.8790 -0.5872  2.2264
 2717SOL    HW219785   3.801   4.093   6.701 -0.9673 -0.1539 -0.7905
 2718SOL     OW19786   3.801   3.671   5.599  0.1349 -0.6973 -0.7607
 2718SOL    HW119787   3.777   3.580   5.582  1.6055 -1.0315 -1.0477
 2718SOL    HW219788   3.879   3.663   5.654  0.1917  2.6154 -0.3787
 2719SOL     OW19789   2.922   4.232  15.370  0.1886  0.2005 -0.3053
 2719SOL    HW119790   2.943   4.139  15.363 -2.6381 -0.5179  0.7867
 2719SOL    HW219791   2.830   4.241  15.346 -0.0617  1.8045  1.2192
 2720SOL     OW19792   1.828   3.199   2.014  0.0659  0.5260  0.0294
 2720SOL    HW119793   1.762   3.247   2.064 -1.2146 -1.2808  0.0593
 2720SOL    HW219794   1.818   3.113   2.056 -1.3935 -0.0644 -1.5532
 2721SOL     OW19795   1.347   0.606  15.219  0.1315 -0.5021  0.4355
 2721SOL    HW119796   1.443   0.605  15.222  0.1172 -1.2698  0.6138
 2721SOL    HW219797   1.334   0.512  15.224  1.1451 -0.5866  1.6006
 2722SOL     OW19798   1.372   2.238   0.917 -0.5381 -0.4049 -0.0150
 2722SOL    HW119799   1.334   2.326   0.914 -2.1279 -1.1841 -2.8761
 2722SOL    HW219800   1.424   2.235   0.836  1.5415 -2.6822  1.4311
 2723SOL     OW19801   2.898   3.239   5.564  0.8592 -0.0163  0.3465
 2723SOL    HW119802   2.928   3.241   5.473 -2.2199  0.5372 -0.6466
 2723SOL    HW219803   2.811   3.201   5.549  0.7882 -0.5878  2.1856
 2724SOL     OW19804   2.039   4.484   7.171 -0.8666  0.3919  0.1184
 2724SOL    HW119805   2.044   4.550   7.240 -0.5006  2.1665 -1.5998
 2724SOL    HW219806   2.120   4.497   7.121  1.1554 -1.0692  3.0219
 2725SOL     OW19807   1.207   3.929   2.457 -0.3424 -0.0270  0.4819
 2725SOL    HW119808   1.177   3.862   2.517 -3.9692  1.6179  0.5075
 2725SOL    HW219809   1.237   3.876   2.383  0.1871  2.1209 -0.8609
 2726SOL     OW19810   3.579   3.747   2.365 -0.2185  0.7545 -0.2709
 2726SOL    HW119811   3.485   3.756   2.352 -0.4147  0.7895  1.1396
 2726SOL    HW219812   3.569   3.701   2.449  3.1277 -2.4875 -1.6088
 2727SOL     OW19813   4.714   4.222   8.154  0.6854  0.3446 -0.3567
 2727SOL    HW119814   4.702   4.141   8.205  1.6847 -0.9931 -2.2396
 2727SOL    HW219815   0.070   4.237   8.162  0.2490  1.7705  1.8087
 2728SOL     OW19816   0.619   1.613   2.332 -0.3994  0.3720 -0.1026
 2728SOL    HW119817   0.682   1.627   2.402  0.7606 -0.5149 -0.9798
 2728SOL    HW219818   0.669   1.633   2.252  0.3592 -3.2300 -0.4955
 2729SOL     OW19819   0.242   4.257   3.514  0.1353  0.4761  0.0154
 2729SOL    HW119820   0.329   4.269   3.550  0.2418  1.3680 -0.5312
 2729SOL    HW219821   0.259   4.310   3.436  0.0589 -1.3013 -1.2098
 2730SOL     OW19822   4.426   0.406  16.438  0.0269  0.6632  0.2086
 2730SOL    HW119823   4.375   0.400  16.357 -0.6217  0.0908  0.6585
 2730SOL    HW219824   4.357   0.440  16.495  0.2252  2.2370 -0.4917
 2731SOL     OW19825   3.738   1.882   9.181 -0.2746 -0.3841 -0.8933
 2731SOL    HW119826   3.761   1.975   9.173 -0.1768 -0.3773 -0.4983
 2731SOL    HW219827   3.809   1.858   9.121  1.4822 -1.0101  1.4659
 2732SOL     OW19828   3.826   1.576   4.330  0.2224  0.3249 -0.1831
 2732SOL    HW119829   3.868   1.629   4.397 -1.0062  1.7129 -0.4929
 2732SOL    HW219830   3.891   1.507   4.319  0.0874  0.1048  0.3950
 2733SOL     OW19831   2.349   1.644  17.214  0.0450  0.1769  0.2461
 2733SOL    HW119832   2.314   1.575  17.157  2.0933 -1.3801  0.8428
 2733SOL    HW219833   2.274   1.700  17.230  1.0122  1.8828 -1.1637
 2734SOL     OW19834   3.838   4.033   6.096 -0.4232 -0.1001  0.6085
 2734SOL    HW119835   3.881   4.021   6.011 -1.7035  1.7793 -0.2969
 2734SOL    HW219836   3.903   4.058   6.162  0.0885 -1.7272  0.7373
 2735SOL     OW19837   0.377   0.959   8.454  0.7526 -0.3151  0.0028
 2735SOL    HW119838   0.371   0.883   8.397 -0.9365  2.0311 -2.9763
 2735SOL    HW219839   0.284   0.978   8.467  0.1993 -3.5260  0.7356
 2736SOL     OW19840   0.140   1.967   5.149  0.5822  0.7957  0.2333
 2736SOL    HW119841   0.145   2.061   5.128  1.9110  0.8020  0.5753
 2736SOL    HW219842   0.071   1.958   5.214  0.2476 -0.6312 -0.3323
 2737SOL     OW19843   0.015   4.191   9.055 -0.0075 -0.2147  0.8620
 2737SOL    HW119844   0.041   4.257   8.991 -0.8362  0.1393  0.9046
 2737SOL    HW219845   0.089   4.174   9.114 -0.6115  2.7006  2.4133
 2738SOL     OW19846   1.393   1.787   4.247 -0.4919  0.0811 -0.0307
 2738SOL    HW119847   1.428   1.791   4.336 -3.1965 -1.1426  1.0738
 2738SOL    HW219848   1.338   1.864   4.252 -0.7600 -0.0850 -0.4724
 2739SOL     OW19849   2.055   1.566  11.960  0.2878 -0.5769 -0.0118
 2739SOL    HW119850   2.087   1.625  11.892  2.0526 -1.7240 -0.1683
 2739SOL    HW219851   2.035   1.630  12.028  0.4829  0.4239 -0.8915
 2740SOL     OW19852   1.071   1.258   3.487 -0.1928  0.1190  0.5892
 2740SOL    HW119853   0.997   1.202   3.465  0.1394 -0.9050  2.1141
 2740SOL    HW219854   1.039   1.348   3.472 -0.4153  0.3305  2.3643
 2741SOL     OW19855   3.089   2.915   3.678  0.3863  0.3374  0.1760
 2741SOL    HW119856   3.113   2.993   3.728  0.5509 -1.8128  3.4145
 2741SOL    HW219857   3.049   2.863   3.748 -0.3811 -0.9798 -1.2253
 2742SOL     OW19858   0.354   2.954  14.663  0.5858 -0.0828  0.4254
 2742SOL    HW119859   0.345   2.859  14.675  0.9106 -0.2816 -0.8729
 2742SOL    HW219860   0.444   2.977  14.685  0.1060 -0.1236  2.4126
 2743SOL     OW19861   0.917   0.022   7.909 -0.0583  0.0445 -0.1435
 2743SOL    HW119862   0.837   0.029   7.962  0.4567  1.7552  0.4010
 2743SOL    HW219863   0.936   4.666   7.921 -0.4997 -0.1095 -0.6401
 2744SOL     OW19864   4.308   1.728   7.396  0.0850  0.2351  0.3943
 2744SOL    HW119865   4.325   1.798   7.459  0.4789 -0.4099  0.9940
 2744SOL    HW219866   4.390   1.680   7.401  0.1328  0.1322 -1.2514
 2745SOL     OW19867   0.044   3.937  13.309 -0.6002  0.1396  0.3592
 2745SOL    HW119868   0.110   3.873  13.338  2.6219  1.7388 -3.4668
 2745SOL    HW219869   0.034   3.985  13.391  0.2176 -0.5789  0.8866
 2746SOL     OW19870   0.380   3.689   4.456  0.4126  0.9096  0.4068
 2746SOL    HW119871   0.371   3.633   4.379 -1.8943  2.2366 -0.2848
 2746SOL    HW219872   0.379   3.776   4.415  0.3978  0.3558 -0.7639
 2747SOL     OW19873   3.784   1.747  13.011  0.1789 -0.1271 -0.1411
 2747SOL    HW119874   3.810   1.804  13.083 -0.7496 -1.5294  1.3054
 2747SOL    HW219875   3.703   1.783  12.975  0.5536  1.9173  1.1305
 2748SOL     OW19876   3.629   4.163   0.068 -0.4715 -0.5842  0.2647
 2748SOL    HW119877   3.590   4.240   0.026 -1.7873 -1.5282 -0.2285
 2748SOL    HW219878   3.683   4.210   0.133 -0.8881  0.5905 -0.2304
 2749SOL     OW19879   2.582   0.094  16.399 -0.0850  0.0902 -0.9871
 2749SOL    HW119880   2.597   0.170  16.343 -0.0373  1.8547  1.4567
 2749SOL    HW219881   2.590   0.127  16.488 -1.3316 -1.2175 -0.3931
 2750SOL     OW19882   1.466   1.157   8.280 -0.4720  0.0588  0.0470
 2750SOL    HW119883   1.448   1.168   8.374  2.5806  2.7873  0.3410
 2750SOL    HW219884   1.475   1.247   8.247 -0.3026 -0.1073 -0.3531
 2751SOL     OW19885   1.740   0.422  13.490 -0.1403  0.0485  0.0850
 2751SOL    HW119886   1.689   0.351  13.451 -0.5218 -0.2543  1.1210
 2751SOL    HW219887   1.719   0.496  13.434  0.1870 -1.2725 -1.7852
 2752SOL     OW19888   2.919   3.629   0.645  0.9413  0.1890  0.2907
 2752SOL    HW119889   2.887   3.591   0.564 -0.8862  0.2856  0.9772
 2752SOL    HW219890   2.885   3.567   0.709  0.1072  1.0638  0.6826
 2753SOL     OW19891   1.258   4.610   4.302  0.3356  0.3743  0.1138
 2753SOL    HW119892   1.255   4.520   4.270  1.4074  0.4464 -0.1771
 2753SOL    HW219893   1.251   4.586   4.395 -2.0404  0.3668 -0.0637
 2754SOL     OW19894   4.285   0.361   0.429 -0.0119  0.3769  0.4877
 2754SOL    HW119895   4.258   0.447   0.461  1.1495  0.2538  1.7612
 2754SOL    HW219896   4.232   0.354   0.349  0.1803 -1.6240  0.5228
 2755SOL     OW19897   4.419   1.286   8.156 -1.0078 -0.0812  0.1615
 2755SOL    HW119898   4.358   1.360   8.163 -2.0304 -0.9936  0.8202
 2755SOL    HW219899   4.377   1.220   8.210 -0.5698  0.4885  1.1925
 2756SOL     OW19900   2.086   2.038   2.698 -0.5744  0.0152 -0.2298
 2756SOL    HW119901   2.052   1.957   2.660 -1.5148 -0.0358  0.7219
 2756SOL    HW219902   2.058   2.041   2.789 -0.2251 -0.2384 -0.1123
 2757SOL     OW19903   1.555   4.090   5.917  0.3244 -0.5865  0.0313
 2757SOL    HW119904   1.483   4.080   5.855 -1.0980 -1.8504  1.9041
 2757SOL    HW219905   1.504   4.097   5.998 -3.5387  1.5042 -2.5910
 2758SOL     OW19906   2.172   0.981  17.003  0.3273  0.1251  0.5160
 2758SOL    HW119907   2.109   1.053  17.006  2.1555  1.7174  0.1743
 2758SOL    HW219908   2.182   0.964  17.097 -2.7309  1.5890  1.1250
 2759SOL     OW19909   0.240   2.476  15.319 -0.0111  0.0523  0.0780
 2759SOL    HW119910   0.277   2.398  15.279  0.8079  0.7606 -0.5630
 2759SOL    HW219911   0.315   2.515  15.364  1.7602 -0.8748 -2.0756
 2760SOL     OW19912   1.608   2.487   5.808 -0.3103  0.2383  0.0348
 2760SOL    HW119913   1.613   2.499   5.903  0.2780 -0.0419  0.0393
 2760SOL    HW219914   1.519   2.514   5.784 -0.6622  0.1700  1.2493
 2761SOL     OW19915   0.833   0.728   4.618 -0.2982  0.1792  0.1616
 2761SOL    HW119916   0.840   0.640   4.655 -0.1911  0.8716  1.7890
 2761SOL    HW219917   0.912   0.728   4.564  0.5837 -0.3455  1.4772
 2762SOL     OW19918   0.682   1.218   1.587  0.6620  0.0099  0.3844
 2762SOL    HW119919   0.633   1.198   1.507 -0.4614 -1.1008  1.3451
 2762SOL    HW219920   0.624   1.279   1.632  1.3805  2.2404 -1.7262
 2763SOL     OW19921   2.719   4.234   6.641 -0.0323  0.4530  0.4394
 2763SOL    HW119922   2.729   4.296   6.713  0.3313  2.0586 -0.9873
 2763SOL    HW219923   2.659   4.165   6.668 -0.5652  0.9764  0.6061
 2764SOL     OW19924   0.157   4.522   7.873  0.2801  0.1420 -0.3753
 2764SOL    HW119925   0.195   4.474   7.799  0.4957  0.0267 -0.1909
 2764SOL    HW219926   0.075   4.551   7.833 -0.1023  2.1149  1.8684
 2765SOL     OW19927   1.006   2.937  10.076 -0.4875 -0.3595 -0.1567
 2765SOL    HW119928   1.057   2.860  10.050 -1.0843  0.0422 -2.4842
 2765SOL    HW219929   1.076   2.986  10.118 -1.6650  0.7361  0.5353
 2766SOL     OW19930   2.976   4.011   4.571  0.5022 -0.4680 -0.2297
 2766SOL    HW119931   3.038   3.945   4.541  1.9100  1.6032 -1.9061
 2766SOL    HW219932   2.938   3.953   4.637 -0.1099 -0.5947 -0.6879
 2767SOL     OW19933   1.190   0.977   1.782  0.1279 -0.0814 -0.0340
 2767SOL    HW119934   1.255   0.928   1.832  0.2637  0.2942  0.1505
 2767SOL    HW219935   1.113   0.929   1.813 -0.1026  1.8926  2.3635
 2768SOL     OW19936   1.554   4.659  17.560 -0.3388 -0.5623 -0.3966
 2768SOL    HW119937   1.501   4.582  17.582 -0.4144 -0.6359 -0.8295
 2768SOL    HW219938   1.511   4.722  17.618 -1.0606 -0.3837 -1.1193
 2769SOL     OW19939   2.742   1.315   7.457  0.2633 -0.6146  0.4259
 2769SOL    HW119940   2.669   1.363   7.497  0.6179  0.7908 -0.5875
 2769SOL    HW219941   2.814   1.378   7.454  0.8414 -1.1958  2.6944
 2770SOL     OW19942   2.372   3.390   5.257 -0.4036  0.4082  0.2744
 2770SOL    HW119943   2.414   3.393   5.343  0.1413  1.6316 -0.0344
 2770SOL    HW219944   2.347   3.298   5.252  0.6741  0.1175  0.2704
 2771SOL     OW19945   2.366   2.194   4.714 -0.3926 -0.1376 -0.1711
 2771SOL    HW119946   2.389   2.252   4.786 -1.1736  0.3721 -0.3303
 2771SOL    HW219947   2.332   2.121   4.767 -1.8369 -1.0709 -2.3667
 2772SOL     OW19948   3.242   4.167   4.693 -0.0122  0.1700  0.2874
 2772SOL    HW119949   3.182   4.094   4.708 -0.8712  0.8788  0.2671
 2772SOL    HW219950   3.282   4.192   4.776  0.6065  0.8113 -0.1983
 2773SOL     OW19951   0.633   0.138   6.064  0.4410 -0.1099 -0.5655
 2773SOL    HW119952   0.597   0.111   5.979 -0.6283 -3.6452  1.0054
 2773SOL    HW219953   0.724   0.132   6.035  1.3551 -0.6309  2.4625
 2774SOL     OW19954   1.932   1.146  16.982  0.6010  0.2096 -0.2869
 2774SOL    HW119955   1.853   1.109  16.943  0.0784 -0.1613  1.1345
 2774SOL    HW219956   1.918   1.237  16.955 -1.2398  0.6959  2.3539
 2775SOL     OW19957   4.041   4.690   5.827  0.0445 -0.3040  0.2552
 2775SOL    HW119958   4.103   4.659   5.892  1.2758 -0.2398 -0.8952
 2775SOL    HW219959   4.030   0.036   5.871 -0.7845 -0.5495  0.5293
 2776SOL     OW19960   2.105   4.029   8.228  0.5427 -0.0746  0.2082
 2776SOL    HW119961   2.025   4.052   8.274 -0.0161  1.5642 -1.5758
 2776SOL    HW219962   2.145   3.974   8.296  1.2718  0.3467  0.1257
 2777SOL     OW19963   4.321   4.581   6.807 -0.3309  0.2266  0.0372
 2777SOL    HW119964   4.361   4.498   6.831  0.3972  0.6172  0.1642
 2777SOL    HW219965   4.333   4.636   6.884  0.1874 -2.1428  1.6288
 2778SOL     OW19966   0.278   4.572   6.975 -0.6309 -0.1050 -0.4425
 2778SOL    HW119967   0.223   4.505   7.016  2.9883 -2.4971  0.5159
 2778SOL    HW219968   0.366   4.542   6.998 -0.8159 -0.5292 -0.2828
 2779SOL     OW19969   1.423   0.866  12.812  0.5244  0.0646  0.1800
 2779SOL    HW119970   1.452   0.815  12.736 -1.6165  0.0275 -0.5977
 2779SOL    HW219971   1.354   0.915  12.769 -0.8548 -1.5316  0.5423
 2780SOL     OW19972   4.365   0.476   9.395  0.4452  0.1386 -0.6648
 2780SOL    HW119973   4.274   0.494   9.369  0.9122  1.1032 -1.6638
 2780SOL    HW219974   4.379   0.412   9.325 -1.3690 -1.0559  0.0757
 2781SOL     OW19975   2.651   3.529  12.242  0.5188  0.1073  0.1350
 2781SOL    HW119976   2.713   3.472  12.196 -0.1251 -1.2687  0.9800
 2781SOL    HW219977   2.625   3.472  12.314 -0.4949  0.3397 -0.0547
 2782SOL     OW19978   3.811   1.494  16.393  0.1975 -0.2153 -0.1345
 2782SOL    HW119979   3.904   1.489  16.373 -0.2079 -0.6305 -1.8681
 2782SOL    HW219980   3.767   1.455  16.318 -2.0811 -2.0809  2.1906
 2783SOL     OW19981   1.986   2.354   1.315 -0.5734 -0.3680  1.1055
 2783SOL    HW119982   2.049   2.347   1.386  0.4172  1.4430  0.3888
 2783SOL    HW219983   1.975   2.448   1.301 -2.0523 -0.7785 -0.5334
 2784SOL     OW19984   0.906   4.182   8.979  0.4127 -0.0026  0.1490
 2784SOL    HW119985   0.813   4.185   9.003 -0.3561  0.1651 -2.9180
 2784SOL    HW219986   0.916   4.092   8.949  1.2553  0.1769 -0.0887
 2785SOL     OW19987   1.974   3.951   3.130 -0.3386  0.0640 -0.0585
 2785SOL    HW119988   1.982   3.872   3.076 -0.1210  0.4117 -0.5422
 2785SOL    HW219989   2.047   3.956   3.192  0.0042 -2.8032 -0.2553
 2786SOL     OW19990   2.099   1.896   3.359 -0.3225 -0.0230 -0.1609
 2786SOL    HW119991   2.101   1.988   3.383  2.5506  0.0030 -0.5404
 2786SOL    HW219992   2.189   1.866   3.371 -0.2247  0.5070  0.4243
 2787SOL     OW19993   1.237   3.360   2.858 -0.0106  0.5434 -0.2338
 2787SOL    HW119994   1.156   3.379   2.810  0.4173  0.3915 -1.0082
 2787SOL    HW219995   1.226   3.266   2.868 -0.0282  0.1199 -4.5653
 2788SOL     OW19996   0.526   1.228   7.929 -0.0949 -0.7127  0.2801
 2788SOL    HW119997   0.564   1.155   7.977  0.1026 -0.4967  0.4550
 2788SOL    HW219998   0.581   1.228   7.851 -0.5092 -0.6604 -0.0122
 2789SOL     OW19999   0.049   0.771   2.246  0.2950 -0.1552 -0.5091
 2789SOL    HW120000   0.100   0.776   2.327 -0.5375 -2.0834  0.1385
 2789SOL    HW220001   4.722   0.839   2.264 -0.0129 -0.9913  1.6388
 2790SOL     OW20002   3.967   3.991   4.020 -0.3679 -0.8235 -0.2992
 2790SOL    HW120003   3.965   4.028   4.108  2.0072 -0.0813 -0.5416
 2790SOL    HW220004   3.910   4.035   3.957  0.3656 -0.4035 -0.6769
 2791SOL     OW20005   3.231   0.744   5.098 -0.0507  0.6256 -0.7207
 2791SOL    HW120006   3.230   0.840   5.088 -0.2486  0.5719 -1.2137
 2791SOL    HW220007   3.140   0.713   5.095  0.5656 -0.9391 -2.6654
 2792SOL     OW20008   1.563   2.875   2.493 -0.0824 -0.1153 -0.0066
 2792SOL    HW120009   1.643   2.855   2.445 -0.0420  0.3165 -0.1185
 2792SOL    HW220010   1.579   2.965   2.520  0.6949 -0.0681 -0.6388
 2793SOL     OW20011   2.529   3.933   6.451 -0.5165  0.2872  0.0909
 2793SOL    HW120012   2.541   3.911   6.359  2.5772 -0.5958  0.7271
 2793SOL    HW220013   2.600   3.882   6.489 -1.4763 -1.3288 -0.3114
 2794SOL     OW20014   2.356   4.452   2.084  0.4106 -0.7848  0.6358
 2794SOL    HW120015   2.362   4.433   1.990  1.1976 -1.5331  0.8414
 2794SOL    HW220016   2.377   4.370   2.127 -1.6905 -2.0045 -0.7106
 2795SOL     OW20017   4.421   0.133   4.735  0.8173  0.6344  0.2784
 2795SOL    HW120018   4.374   0.177   4.664  1.8482  1.8725  0.3586
 2795SOL    HW220019   4.430   0.050   4.688  0.9877  0.9792 -0.2990
 2796SOL     OW20020   2.799   1.582   6.660  0.9791  0.4470 -0.5279
 2796SOL    HW120021   2.788   1.654   6.723 -0.0700 -1.7868  1.8393
 2796SOL    HW220022   2.882   1.543   6.686  0.3638 -0.5372 -0.0641
 2797SOL     OW20023   1.878   2.457   6.448 -0.0090  0.1352 -0.0760
 2797SOL    HW120024   1.841   2.392   6.389 -1.6847  1.9033 -1.0086
 2797SOL    HW220025   1.815   2.461   6.521  1.3586 -0.1100  1.1124
 2798SOL     OW20026   1.888   0.324   4.920 -1.1775  0.3282  0.0186
 2798SOL    HW120027   1.889   0.288   4.831 -0.9624  2.1137 -0.7182
 2798SOL    HW220028   1.949   0.269   4.968 -1.8282  0.8465  1.4347
 2799SOL     OW20029   3.972   4.595  12.775 -0.2506  0.0641 -0.1019
 2799SOL    HW120030   3.943   4.505  12.792 -1.0671  0.4991  0.8615
 2799SOL    HW220031   3.931   4.647  12.844 -0.8424 -0.5741  0.0260
 2800SOL     OW20032   2.579   1.897   7.125 -0.8319  0.0207 -0.0718
 2800SOL    HW120033   2.631   1.977   7.128 -1.8398  0.6659  0.7223
 2800SOL    HW220034   2.568   1.886   7.031 -1.4036 -0.0439 -0.0005
 2801SOL     OW20035   3.355   1.543  12.744 -0.0061 -0.6530  0.3426
 2801SOL    HW120036   3.301   1.489  12.686  0.3446 -1.9944  1.2506
 2801SOL    HW220037   3.437   1.493  12.747 -0.5572 -1.5571  0.4543
 2802SOL     OW20038   0.178   1.699   7.403 -0.0424  0.2773  0.4556
 2802SOL    HW120039   0.211   1.784   7.433  2.6708 -0.4813 -0.3920
 2802SOL    HW220040   0.142   1.658   7.482 -2.3649 -1.5515 -1.5561
 2803SOL     OW20041   1.860   3.612  14.327 -0.1304  0.3037 -0.2434
 2803SOL    HW120042   1.895   3.652  14.247  2.5834  0.0511  0.8342
 2803SOL    HW220043   1.795   3.553  14.287 -0.2610  0.8183 -0.7908
 2804SOL     OW20044   1.699   3.546  11.927 -0.0092  0.1301  0.2551
 2804SOL    HW120045   1.618   3.495  11.933 -0.3394  0.7132  0.8951
 2804SOL    HW220046   1.758   3.472  11.920  1.7683  1.5782 -0.0492
 2805SOL     OW20047   1.173   1.274   4.276 -0.1410 -0.3392  0.3733
 2805SOL    HW120048   1.211   1.329   4.207 -0.6428 -1.2038 -0.5936
 2805SOL    HW220049   1.167   1.342   4.343  0.7655 -1.6555  1.7929
 2806SOL     OW20050   1.965   2.847   2.582 -0.1003  0.5022  0.7590
 2806SOL    HW120051   2.026   2.782   2.614 -0.4702 -0.3520 -0.2776
 2806SOL    HW220052   1.935   2.874   2.669 -2.0485  2.6973 -0.5642
 2807SOL     OW20053   2.994   0.335   0.900 -0.3629 -0.0136  0.2521
 2807SOL    HW120054   3.059   0.320   0.968  1.1344 -1.3128 -1.4685
 2807SOL    HW220055   2.925   0.281   0.938  0.6693  0.2067  2.4354
 2808SOL     OW20056   0.342   0.625   7.661  0.0788  0.0351 -0.3759
 2808SOL    HW120057   0.429   0.664   7.670  0.7705 -1.3866 -0.7935
 2808SOL    HW220058   0.353   0.533   7.636  1.6716  0.2981 -0.6670
 2809SOL     OW20059   4.454   1.173  16.772  0.3622  0.1906  0.4263
 2809SOL    HW120060   4.544   1.150  16.792 -0.0330 -3.4100 -2.0692
 2809SOL    HW220061   4.406   1.107  16.822 -1.4685  0.4185 -1.0095
 2810SOL     OW20062   1.967   2.542   0.634 -0.2993 -0.7246 -0.0302
 2810SOL    HW120063   1.949   2.491   0.556 -1.1196  0.0187 -0.3393
 2810SOL    HW220064   1.959   2.632   0.602  2.0264  0.2769  2.2023
 2811SOL     OW20065   1.578   3.082   1.315  0.3895  0.2649  0.0037
 2811SOL    HW120066   1.529   3.014   1.361 -0.2964  0.7092 -0.0737
 2811SOL    HW220067   1.521   3.156   1.337  0.4881  0.4723 -0.4325
 2812SOL     OW20068   2.666   1.756   0.900 -0.3296 -0.5048 -0.1490
 2812SOL    HW120069   2.718   1.711   0.967 -0.7813 -0.9577 -0.1077
 2812SOL    HW220070   2.618   1.818   0.955  3.1301  0.2321  2.1087
 2813SOL     OW20071   2.189   0.294   1.400 -0.0401 -0.0298  0.6219
 2813SOL    HW120072   2.099   0.305   1.371  0.5124  0.4818 -0.8967
 2813SOL    HW220073   2.173   0.314   1.492  0.3620 -1.0808  0.9162
 2814SOL     OW20074   4.334   4.720   9.278 -0.5667  0.1923  0.2250
 2814SOL    HW120075   4.409   4.689   9.228  0.9978 -0.1654  2.7969
 2814SOL    HW220076   4.266   4.674   9.229  0.6960 -1.9396  0.4758
 2815SOL     OW20077   3.180   0.497   4.029  1.0532  0.1900  0.2536
 2815SOL    HW120078   3.098   0.518   3.984  0.3409 -1.2207  0.8940
 2815SOL    HW220079   3.249   0.506   3.964  0.7759 -0.1784 -0.0939
 2816SOL     OW20080   3.552   0.656   6.361 -0.7220  0.0892  1.0221
 2816SOL    HW120081   3.456   0.657   6.353 -0.6119 -0.8151 -0.5437
 2816SOL    HW220082   3.571   0.579   6.413 -1.4569  0.1538  1.3945
 2817SOL     OW20083   0.695   1.911   5.405 -0.5171  0.5099  0.5050
 2817SOL    HW120084   0.720   2.002   5.417  0.1096  0.5039 -0.7441
 2817SOL    HW220085   0.603   1.918   5.377 -0.0222 -0.0684 -1.2631
 2818SOL     OW20086   4.699   4.114  12.297 -0.1387 -0.1733  0.0305
 2818SOL    HW120087   4.685   4.025  12.329 -0.2107  0.3848  1.5718
 2818SOL    HW220088   0.057   4.116  12.296 -0.0978 -1.0369  1.8502
 2819SOL     OW20089   3.575   3.284   4.036  0.2733 -0.2871 -0.2870
 2819SOL    HW120090   3.643   3.270   4.102 -1.4162 -2.6671  0.9412
 2819SOL    HW220091   3.612   3.257   3.951  1.5728  1.7745 -0.3895
 2820SOL     OW20092   0.389   3.344  13.086  0.0172  0.4571  0.0179
 2820SOL    HW120093   0.305   3.300  13.100  0.3592 -0.5081 -0.9497
 2820SOL    HW220094   0.368   3.377  12.999  0.2054 -1.2052 -0.6562
 2821SOL     OW20095   3.306   1.868   3.364  0.0841  0.2644 -0.8278
 2821SOL    HW120096   3.287   1.844   3.273 -0.6548 -1.0813 -0.3310
 2821SOL    HW220097   3.401   1.869   3.350  0.0990  0.8020 -0.6810
 2822SOL     OW20098   0.600   3.655   7.410  0.3472 -0.3481  0.2359
 2822SOL    HW120099   0.571   3.667   7.501 -0.7998 -1.0390 -0.0413
 2822SOL    HW220100   0.595   3.741   7.369 -0.6522 -1.5075 -2.0356
 2823SOL     OW20101   3.601   0.022   3.603 -0.5883 -0.1682  0.1325
 2823SOL    HW120102   3.627   0.072   3.526 -2.5574  0.0659 -0.3784
 2823SOL    HW220103   3.579   4.679   3.556 -1.8718 -0.7010  1.6599
 2824SOL     OW20104   1.931   4.348   0.235 -0.1642  0.4839 -0.2205
 2824SOL    HW120105   1.881   4.424   0.267  0.9696  1.6570 -1.2295
 2824SOL    HW220106   1.970   4.393   0.160  1.5900 -2.3743 -1.0279
 2825SOL     OW20107   0.984   3.590   3.569 -0.0796  0.3264  0.4722
 2825SOL    HW120108   1.065   3.610   3.521  0.6997 -0.7755  1.3146
 2825SOL    HW220109   0.925   3.609   3.496 -2.0008 -0.3657  1.8529
 2826SOL     OW20110   3.606   3.889  12.920 -0.0952 -0.6290 -0.0624
 2826SOL    HW120111   3.666   3.925  12.986 -0.1349  0.1054 -0.4355
 2826SOL    HW220112   3.545   3.962  12.913 -0.5897 -0.8123  2.1785
 2827SOL     OW20113   0.932   2.913   5.681 -0.6172  0.3815 -0.1676
 2827SOL    HW120114   0.939   2.870   5.766 -0.9109 -2.6607 -1.6727
 2827SOL    HW220115   1.022   2.943   5.670 -0.5896  0.4906  0.3975
 2828SOL     OW20116   0.759   4.255   1.016 -0.0988  0.4981 -0.3220
 2828SOL    HW120117   0.770   4.261   1.111  1.0664 -0.4283 -0.3976
 2828SOL    HW220118   0.824   4.205   0.967 -0.7083  1.4112 -2.0677
 2829SOL     OW20119   0.183   1.585   8.021 -0.4611 -0.3603  0.1629
 2829SOL    HW120120   0.205   1.555   8.109 -0.3740  1.3885  0.7280
 2829SOL    HW220121   0.100   1.539   8.010  0.4905 -2.6151  2.5431
 2830SOL     OW20122   3.298   3.542   3.459 -0.0855 -0.3196  0.2715
 2830SOL    HW120123   3.357   3.544   3.383 -2.0916 -0.9771 -1.3175
 2830SOL    HW220124   3.265   3.631   3.465  1.5806  0.3237 -0.1027
 2831SOL     OW20125   2.404   3.323   5.564 -0.1931 -0.9633 -0.6575
 2831SOL    HW120126   2.346   3.359   5.631  0.0845 -1.6444 -0.0455
 2831SOL    HW220127   2.358   3.243   5.538 -0.1813 -1.0300 -0.4733
 2832SOL     OW20128   1.411   2.878  13.810 -0.0047  0.4744 -1.2081
 2832SOL    HW120129   1.492   2.852  13.854 -0.9022 -0.7223 -0.2799
 2832SOL    HW220130   1.374   2.943  13.869 -1.4247 -1.5364  0.0888
 2833SOL     OW20131   1.347   2.291   1.592  0.6166 -0.3475  0.0956
 2833SOL    HW120132   1.353   2.219   1.529 -0.9686 -1.5455  1.3273
 2833SOL    HW220133   1.254   2.289   1.613  0.4517 -0.9561 -0.6978
 2834SOL     OW20134   3.000   2.319   1.414 -0.1312  0.3393  0.3210
 2834SOL    HW120135   3.039   2.368   1.342  1.0583  2.0217  2.0729
 2834SOL    HW220136   2.930   2.381   1.433 -0.9746 -0.9674  1.4893
 2835SOL     OW20137   0.771   4.512  11.736  0.2623  0.2018 -0.0116
 2835SOL    HW120138   0.770   4.487  11.829  2.5853  2.0123  0.5074
 2835SOL    HW220139   0.750   4.427  11.697  2.3937  0.2620 -1.3312
 2836SOL     OW20140   0.967   4.650  17.359  0.3746  0.1635  0.1954
 2836SOL    HW120141   1.052   4.694  17.353 -0.0373  0.9137 -0.1529
 2836SOL    HW220142   0.906   4.700  17.305  0.0810 -0.9207 -0.4759
 2837SOL     OW20143   4.620   0.062   4.405  0.1298  0.4827 -0.3164
 2837SOL    HW120144   4.556   0.062   4.334  0.9516 -1.5387 -1.0683
 2837SOL    HW220145   4.641   0.155   4.415  1.2422  0.1907  0.1474
 2838SOL     OW20146   3.714   2.863  10.454  0.3989 -0.1208  0.1974
 2838SOL    HW120147   3.651   2.919  10.500  3.2501  1.9330  1.6059
 2838SOL    HW220148   3.658   2.797  10.413 -0.8839  1.4990 -0.6759
 2839SOL     OW20149   2.955   4.266   3.285  0.7282  0.0715 -0.5866
 2839SOL    HW120150   3.040   4.225   3.264  0.5452  0.0790 -1.3537
 2839SOL    HW220151   2.911   4.203   3.341 -0.5435 -0.1820 -1.8703
 2840SOL     OW20152   4.267   2.355   5.476  0.1295 -0.4500  0.4180
 2840SOL    HW120153   4.350   2.308   5.485  0.6079  0.4047  0.4990
 2840SOL    HW220154   4.299   2.445   5.470 -1.1408 -0.1997 -2.3467
 2841SOL     OW20155   0.942   3.902  10.067  0.3282 -0.4371  0.1734
 2841SOL    HW120156   1.010   3.836  10.053  2.1211  1.4299  0.1264
 2841SOL    HW220157   0.924   3.875  10.158  0.5484 -0.6318  0.1607
 2842SOL     OW20158   3.385   2.445   0.521  0.3186  0.3160 -0.0114
 2842SOL    HW120159   3.355   2.356   0.503  0.4973  0.1243  0.6499
 2842SOL    HW220160   3.308   2.501   0.527 -0.0191 -0.2108  0.5629
 2843SOL     OW20161   0.021   1.637  11.364  0.4879 -0.4513 -0.6034
 2843SOL    HW120162   0.090   1.605  11.422 -1.6847  0.2284  2.3653
 2843SOL    HW220163   4.735   1.714  11.416  0.3498  0.2130 -1.6345
 2844SOL     OW20164   0.216   0.066   2.397 -0.5817 -0.1257 -0.1514
 2844SOL    HW120165   0.307   0.056   2.423 -0.4204 -3.0423 -1.9031
 2844SOL    HW220166   0.217   0.055   2.302  0.4416 -0.6368 -0.0786
 2845SOL     OW20167   2.000   4.089   0.697  0.1299  0.4750 -0.1770
 2845SOL    HW120168   2.054   4.165   0.719  0.0814  0.5494 -0.3170
 2845SOL    HW220169   1.933   4.133   0.645  0.4639  2.5413  1.1154
 2846SOL     OW20170   3.523   3.832   3.110 -0.0427 -0.1876 -0.8082
 2846SOL    HW120171   3.607   3.801   3.076  0.9461  0.3920  1.0641
 2846SOL    HW220172   3.481   3.873   3.035  0.6950  1.2503 -0.4449
 2847SOL     OW20173   3.472   1.522   5.643 -0.0002  0.1663  0.4706
 2847SOL    HW120174   3.466   1.462   5.718  0.2761 -0.0714  0.3000
 2847SOL    HW220175   3.447   1.466   5.569 -0.3563 -2.1311  2.3127
 2848SOL     OW20176   0.723   3.196   4.163  0.0099  0.2556  0.2831
 2848SOL    HW120177   0.716   3.290   4.180  2.1090 -0.1142  3.1759
 2848SOL    HW220178   0.783   3.191   4.089  0.1115 -1.0256  0.4432
 2849SOL     OW20179   0.715   3.886   9.892  0.4642  0.5317 -0.4212
 2849SOL    HW120180   0.748   3.807   9.849  1.0338  0.6515 -0.2082
 2849SOL    HW220181   0.785   3.900   9.956  1.9894 -0.1623 -1.9332
 2850SOL     OW20182   1.812   3.705   4.176 -0.2099 -0.4148  0.1374
 2850SOL    HW120183   1.904   3.695   4.201  0.4050 -0.8236 -2.2508
 2850SOL    HW220184   1.788   3.770   4.242  0.6337  0.1275 -0.0801
 2851SOL     OW20185   2.251   0.538  10.493 -0.3585  0.0496 -0.9320
 2851SOL    HW120186   2.247   0.464  10.554 -1.3139  0.6834 -0.2195
 2851SOL    HW220187   2.246   0.601  10.565  0.5197 -0.1764 -0.6722
 2852SOL     OW20188   3.660   0.307   9.143 -0.1174 -0.3051 -0.1497
 2852SOL    HW120189   3.732   0.273   9.196 -1.2656 -0.2268  1.4443
 2852SOL    HW220190   3.655   0.232   9.084  1.3235 -0.3008 -0.2840
 2853SOL     OW20191   0.282   0.925   5.884  0.1235  0.2081 -0.0800
 2853SOL    HW120192   0.271   0.848   5.828  0.8360  0.6555 -0.8392
 2853SOL    HW220193   0.324   0.985   5.822  0.6600 -1.3153 -1.1964
 2854SOL     OW20194   1.172   1.662  13.519  0.1520 -0.0907 -0.2331
 2854SOL    HW120195   1.224   1.715  13.458  0.2878  1.1940  1.0136
 2854SOL    HW220196   1.205   1.572  13.513 -2.0173 -0.8327 -1.3012
 2855SOL     OW20197   0.733   3.222  12.819  0.1045 -0.2740  0.2763
 2855SOL    HW120198   0.747   3.313  12.844 -2.3587  0.5173 -1.2356
 2855SOL    HW220199   0.736   3.189  12.909 -0.5832  0.1106  0.4369
 2856SOL     OW20200   3.625   3.633   0.789  0.0105 -0.3851  0.8875
 2856SOL    HW120201   3.667   3.697   0.731 -0.3924 -2.9764 -2.2230
 2856SOL    HW220202   3.692   3.625   0.857  0.6412 -0.0060  0.3101
 2857SOL     OW20203   0.737   1.410   6.558  0.2033 -0.0983  0.3037
 2857SOL    HW120204   0.797   1.464   6.609  0.5784  0.0504 -0.2962
 2857SOL    HW220205   0.666   1.406   6.622 -1.1154 -0.4234 -1.1799
 2858SOL     OW20206   3.755   1.361  13.616 -0.6191 -0.1972  0.3409
 2858SOL    HW120207   3.696   1.293  13.584  0.4691 -1.2303  0.4953
 2858SOL    HW220208   3.747   1.430  13.551 -1.2060  0.5294  1.1915
 2859SOL     OW20209   2.762   0.458   4.210  0.5356 -0.0142 -0.4750
 2859SOL    HW120210   2.730   0.382   4.258 -0.0221  0.3766 -0.2288
 2859SOL    HW220211   2.776   0.520   4.282  0.9429 -0.0919 -0.4896
 2860SOL     OW20212   1.542   2.747   1.200  0.0123  0.0373 -0.4437
 2860SOL    HW120213   1.539   2.652   1.187  1.8112 -0.3344  1.8956
 2860SOL    HW220214   1.448   2.761   1.190  0.0152  1.0094  0.9510
 2861SOL     OW20215   2.383   3.750   4.344 -0.3771  0.3139  0.6003
 2861SOL    HW120216   2.376   3.742   4.249  2.3106 -0.7925  0.4944
 2861SOL    HW220217   2.325   3.678   4.371  1.8435 -1.5929  0.3158
 2862SOL     OW20218   1.834   4.425  17.575 -0.6144  0.0334 -0.4888
 2862SOL    HW120219   1.813   4.350  17.631  0.5722  0.3096  0.3244
 2862SOL    HW220220   1.899   4.381  17.519  0.2069 -0.8574  1.1621
 2863SOL     OW20221   2.976   3.404   8.737 -0.4325 -0.4772 -0.3047
 2863SOL    HW120222   2.975   3.310   8.719 -0.0207 -0.3021 -1.2186
 2863SOL    HW220223   3.063   3.435   8.712 -0.5116  1.1411  1.4903
 2864SOL     OW20224   1.090   4.716   5.305 -0.8516  0.2961  0.2316
 2864SOL    HW120225   1.155   0.049   5.314 -0.1873 -0.2123 -0.6787
 2864SOL    HW220226   1.134   4.650   5.358 -1.3849 -0.9790 -0.9117
 2865SOL     OW20227   0.543   3.944   1.151  0.3533  0.0302 -0.1975
 2865SOL    HW120228   0.494   3.935   1.069  2.6566  3.4980 -1.9521
 2865SOL    HW220229   0.517   4.016   1.208  0.8236 -0.9424  1.2528
 2866SOL     OW20230   2.760   0.380  10.022  0.8035 -0.2156  0.0820
 2866SOL    HW120231   2.841   0.345  10.060  1.0897  0.8636  0.4746
 2866SOL    HW220232   2.739   0.305   9.967 -3.1936 -0.5695  2.0871
 2867SOL     OW20233   2.781   0.991   4.115 -0.2467 -0.0496  0.4871
 2867SOL    HW120234   2.720   1.060   4.087 -0.2003 -0.2157 -0.0333
 2867SOL    HW220235   2.851   1.049   4.147 -0.5166  0.7768 -0.4138
 2868SOL     OW20236   3.329   1.087  11.623  0.3074 -0.0545  1.0947
 2868SOL    HW120237   3.408   1.125  11.585  0.6591 -2.6657 -0.8082
 2868SOL    HW220238   3.305   1.024  11.555  0.9217 -0.3923  1.1974
 2869SOL     OW20239   3.855   1.423  15.234  0.1511 -0.0336 -0.4378
 2869SOL    HW120240   3.864   1.335  15.197  0.4450 -0.5135  0.7778
 2869SOL    HW220241   3.785   1.406  15.298 -0.2251  0.0316 -0.8278
 2870SOL     OW20242   3.258   0.204  17.449  0.3275 -0.5049  0.3278
 2870SOL    HW120243   3.333   0.156  17.482  1.3583 -0.0051 -1.2557
 2870SOL    HW220244   3.218   0.148  17.382 -0.5375 -0.4607  0.8106
 2871SOL     OW20245   3.144   0.771   7.427 -0.1598 -0.5415 -0.0174
 2871SOL    HW120246   3.092   0.845   7.395  1.2324  1.1194  1.5574
 2871SOL    HW220247   3.140   0.720   7.346  0.3282 -1.7443  0.7166
 2872SOL     OW20248   2.459   0.152  15.638  0.1666 -0.0981  0.0104
 2872SOL    HW120249   2.431   0.243  15.630  0.7621  0.0515 -0.4428
 2872SOL    HW220250   2.541   0.151  15.588  0.5639 -0.7880  0.6718
 2873SOL     OW20251   2.788   0.124   2.737 -0.1547 -0.2294  0.6190
 2873SOL    HW120252   2.750   0.156   2.819  0.1680  1.7556 -0.0031
 2873SOL    HW220253   2.770   0.196   2.678 -0.5688 -0.7256  0.1475
 2874SOL     OW20254   1.845   3.185   3.509  0.3734  0.1117  0.4502
 2874SOL    HW120255   1.936   3.201   3.534 -0.1367  1.9050  1.2410
 2874SOL    HW220256   1.834   3.097   3.475  0.0798 -0.1770  1.2908
 2875SOL     OW20257   4.133   1.875   2.966  0.3444  0.2170  0.5495
 2875SOL    HW120258   4.158   1.824   3.043 -0.8412 -0.6376  0.3588
 2875SOL    HW220259   4.114   1.802   2.908 -2.6662  0.3904  1.3506
 2876SOL     OW20260   2.106   1.002   4.280  0.1996 -0.3786  0.2932
 2876SOL    HW120261   2.086   1.077   4.336 -0.0177 -0.3009  0.1100
 2876SOL    HW220262   2.038   0.937   4.300 -0.1498 -0.0134  0.3014
 2877SOL     OW20263   2.889   3.680  17.730 -0.6951 -0.6750 -0.3035
 2877SOL    HW120264   2.803   3.706  17.698 -0.8985 -0.3642  0.4951
 2877SOL    HW220265   2.939   3.647  17.655 -1.4369 -1.0453 -0.6264
 2878SOL     OW20266   0.302   2.664   3.020 -0.5734 -0.1560 -0.0764
 2878SOL    HW120267   0.323   2.600   2.953 -0.7382  0.2112 -0.4778
 2878SOL    HW220268   0.244   2.610   3.073  1.8660 -1.5383  1.1820
 2879SOL     OW20269   4.000   1.713   6.159 -0.8561  0.4735  0.1503
 2879SOL    HW120270   4.016   1.742   6.070  0.3604 -0.6718 -0.0142
 2879SOL    HW220271   3.940   1.639   6.162  1.8113 -1.7808 -1.2606
 2880SOL     OW20272   2.623   2.286   1.236  0.9616 -0.6309 -0.7440
 2880SOL    HW120273   2.668   2.368   1.255 -2.6175  0.7581  1.7514
 2880SOL    HW220274   2.633   2.245   1.322  1.4036  0.4476 -0.2877
 2881SOL     OW20275   2.018   0.262  17.213  0.4808 -0.6369 -0.1352
 2881SOL    HW120276   1.993   0.228  17.299 -0.3848 -0.4241 -0.3021
 2881SOL    HW220277   2.105   0.293  17.236  0.0912 -0.6813  1.3681
 2882SOL     OW20278   0.245   0.101   5.883 -0.1686  0.1561  0.0766
 2882SOL    HW120279   0.237   0.006   5.879  1.1988 -0.0619  2.1740
 2882SOL    HW220280   0.341   0.106   5.883 -0.0269 -2.5757 -1.0745
 2883SOL     OW20281   4.118   3.736   1.815 -0.0651 -0.0893  0.0012
 2883SOL    HW120282   4.026   3.709   1.818  0.7822 -3.1673 -1.1900
 2883SOL    HW220283   4.125   3.792   1.892 -1.5467 -0.5563  0.4821
 2884SOL     OW20284   2.398   2.754   7.675  0.5702 -0.0620 -0.1552
 2884SOL    HW120285   2.394   2.658   7.678 -1.7725 -0.0736 -2.9244
 2884SOL    HW220286   2.407   2.766   7.580 -2.1741 -0.1390 -0.4295
 2885SOL     OW20287   4.375   1.627   4.527  0.4160  0.5148  0.2349
 2885SOL    HW120288   4.376   1.652   4.435  1.0494  0.3372  0.1925
 2885SOL    HW220289   4.407   1.706   4.570  0.8913 -1.2567  3.1472
 2886SOL     OW20290   1.272   2.407  17.169 -0.3748  0.3244 -0.0678
 2886SOL    HW120291   1.289   2.480  17.229  1.6711  0.0053 -0.2313
 2886SOL    HW220292   1.243   2.449  17.089 -0.7404  0.4026  0.1097
 2887SOL     OW20293   0.713   1.253   5.865  0.1577 -0.0672 -0.3096
 2887SOL    HW120294   0.745   1.342   5.853  2.6466 -0.9604 -0.4463
 2887SOL    HW220295   0.755   1.198   5.799 -2.8287 -1.2416 -1.2139
 2888SOL     OW20296   1.235   1.989  15.641  0.0264 -0.4438  0.4392
 2888SOL    HW120297   1.329   2.004  15.630  0.1831 -1.2095  0.7332
 2888SOL    HW220298   1.230   1.897  15.666 -3.6785 -0.8386 -1.7102
 2889SOL     OW20299   4.099   4.471   1.891 -0.1287  0.2619 -0.5058
 2889SOL    HW120300   4.192   4.486   1.905 -0.1818 -0.2391  0.3451
 2889SOL    HW220301   4.069   4.547   1.940 -1.6752 -0.5577 -0.1794
 2890SOL     OW20302   3.061   1.911   5.890  0.3136  0.0236  0.0631
 2890SOL    HW120303   3.034   1.848   5.957  0.2029 -0.6863 -0.6500
 2890SOL    HW220304   3.018   1.986   5.931  0.4644  0.6909 -0.9946
 2891SOL     OW20305   3.082   1.399   4.345  0.5360 -0.0401  0.0800
 2891SOL    HW120306   3.130   1.478   4.320 -0.3772 -0.2836 -2.4457
 2891SOL    HW220307   3.163   1.357   4.373  1.4459  0.9379 -1.0858
 2892SOL     OW20308   2.555   1.178   5.076 -0.2198 -0.1934  0.3848
 2892SOL    HW120309   2.635   1.162   5.126  1.1558 -0.1016 -1.7974
 2892SOL    HW220310   2.506   1.224   5.144  0.9776  1.4524  0.1183
 2893SOL     OW20311   4.052   3.035  12.980 -0.0892  0.1428  0.0164
 2893SOL    HW120312   4.047   2.970  12.910 -0.6753  1.2205 -0.9526
 2893SOL    HW220313   3.984   3.097  12.955  0.4270  0.6523 -0.1324
 2894SOL     OW20314   1.581   1.306  13.243 -1.1986 -0.2490 -0.1017
 2894SOL    HW120315   1.556   1.217  13.268 -0.8333 -0.0697  0.8978
 2894SOL    HW220316   1.637   1.320  13.320 -1.4701  0.6391 -0.0753
 2895SOL     OW20317   3.378   1.874   7.487 -0.1811  0.3261 -0.5735
 2895SOL    HW120318   3.448   1.821   7.449 -0.6344 -0.3218 -0.5017
 2895SOL    HW220319   3.322   1.811   7.532 -1.3070  1.9653  0.3213
 2896SOL     OW20320   2.571   1.118   4.418 -0.3641  0.5790 -0.1463
 2896SOL    HW120321   2.619   1.048   4.373 -0.4412  1.0847 -1.0137
 2896SOL    HW220322   2.612   1.115   4.504 -0.6643 -0.6175 -0.0356
 2897SOL     OW20323   1.745   3.044   3.844  0.1379 -0.0838  0.2121
 2897SOL    HW120324   1.798   2.986   3.790  0.3201 -0.8402  1.2068
 2897SOL    HW220325   1.652   3.036   3.826 -0.5459  2.3119  2.6475
 2898SOL     OW20326   0.139   1.845   5.707 -0.3048 -0.1972 -0.1331
 2898SOL    HW120327   0.094   1.816   5.786 -0.0332  0.2101  0.1735
 2898SOL    HW220328   0.200   1.774   5.688  1.7597  1.4210  0.4712
 2899SOL     OW20329   3.715   1.636   7.613 -0.1865  0.2127 -0.1953
 2899SOL    HW120330   3.791   1.621   7.556  1.0898 -0.9550  1.8243
 2899SOL    HW220331   3.701   1.553   7.659  0.8668 -0.5514 -1.2449
 2900SOL     OW20332   0.233   1.793  15.608 -0.3089  0.0162  0.2812
 2900SOL    HW120333   0.305   1.731  15.623 -0.2351  0.0462  0.0418
 2900SOL    HW220334   0.207   1.808  15.699  0.6529  1.1988  0.3650
 2901SOL     OW20335   0.400   3.132   2.520 -0.0703  0.4344 -0.7494
 2901SOL    HW120336   0.462   3.071   2.479 -0.2145 -0.9257  1.0566
 2901SOL    HW220337   0.445   3.213   2.496  1.8799 -0.1092  1.0736
 2902SOL     OW20338   3.550   4.074  11.388 -0.1894  0.1304  0.5357
 2902SOL    HW120339   3.472   4.019  11.402  0.1455 -0.1995  1.1254
 2902SOL    HW220340   3.540   4.099  11.297 -0.1383  1.0621  0.7926
 2903SOL     OW20341   4.676   2.457  17.505 -0.3505  0.4379  0.4731
 2903SOL    HW120342   4.704   2.501  17.585 -1.4758  0.4116  0.8721
 2903SOL    HW220343   0.012   2.468  17.444  0.5888  0.5207  1.6159
 2904SOL     OW20344   3.374   3.099  12.617 -0.7801 -0.3158 -0.8702
 2904SOL    HW120345   3.338   3.078  12.704 -0.6086  0.5003 -0.6043
 2904SOL    HW220346   3.298   3.064  12.569  1.2397 -0.8664 -3.6215
 2905SOL     OW20347   4.395   1.131   3.707 -0.8795 -0.0859 -0.0172
 2905SOL    HW120348   4.370   1.219   3.734  0.4077 -0.1721  1.4296
 2905SOL    HW220349   4.442   1.109   3.787 -1.9682 -2.0263  0.0889
 2906SOL     OW20350   0.154   2.505   8.845  0.3207 -0.1548  0.0282
 2906SOL    HW120351   0.063   2.503   8.877  0.5142  1.1301  0.6717
 2906SOL    HW220352   0.192   2.449   8.912 -0.1810 -0.6572 -0.1081
 2907SOL     OW20353   3.558   1.085   3.363  0.0008  0.3294  0.2501
 2907SOL    HW120354   3.619   1.084   3.436  0.9343  2.6367 -0.4915
 2907SOL    HW220355   3.494   1.149   3.393  0.3867  0.7184  0.2423
 2908SOL     OW20356   1.013   0.425   7.005  1.0250  0.0663 -0.2618
 2908SOL    HW120357   1.084   0.449   7.064  0.2116 -0.0654  0.7824
 2908SOL    HW220358   0.976   0.507   6.971  2.0765  0.8593  0.5129
 2909SOL     OW20359   4.138   2.148   7.012  0.4599  0.3552 -0.3127
 2909SOL    HW120360   4.119   2.056   6.995  0.6185  0.1558  0.5470
 2909SOL    HW220361   4.069   2.205   6.977 -1.6957 -2.3922 -0.5051
 2910SOL     OW20362   4.413   3.086   0.355  0.4818  0.0754 -0.1536
 2910SOL    HW120363   4.335   3.082   0.300  0.2646 -1.8583  0.3036
 2910SOL    HW220364   4.468   3.124   0.288 -1.3785  0.1706 -1.6386
 2911SOL     OW20365   1.756   2.245   0.842  0.3722  0.5141  0.7700
 2911SOL    HW120366   1.689   2.273   0.780 -0.9847 -0.7569  1.6780
 2911SOL    HW220367   1.726   2.289   0.921 -1.0847  1.2726 -0.2008
 2912SOL     OW20368   2.723   3.687   9.627 -0.0505 -0.4749 -0.2618
 2912SOL    HW120369   2.711   3.742   9.705  0.9330  2.1120 -1.9248
 2912SOL    HW220370   2.685   3.738   9.555  1.9106  2.1131  0.5652
 2913SOL     OW20371   1.022   4.074   3.438  0.7259 -0.3364 -0.0011
 2913SOL    HW120372   0.987   3.993   3.399 -2.8231  1.1109  0.1773
 2913SOL    HW220373   1.111   4.045   3.459  0.1759 -0.9410  1.4969
 2914SOL     OW20374   3.417   4.167  16.925  0.3000  0.2060 -0.2154
 2914SOL    HW120375   3.359   4.091  16.918 -0.2860  0.7972 -1.8259
 2914SOL    HW220376   3.465   4.169  16.843 -1.1749  1.1981 -1.0528
 2915SOL     OW20377   2.242   2.198   1.834 -0.3589 -0.4074 -0.0870
 2915SOL    HW120378   2.319   2.147   1.806  0.9718  1.0165  0.9718
 2915SOL    HW220379   2.195   2.228   1.757  0.9077  3.0075  0.4784
 2916SOL     OW20380   0.359   1.864   5.024  0.2977  0.8574  0.3648
 2916SOL    HW120381   0.283   1.880   5.080 -1.0366  1.6948 -1.6880
 2916SOL    HW220382   0.386   1.946   4.983 -1.9982  1.4768  0.1137
 2917SOL     OW20383   1.645   4.578  16.717 -0.4689 -0.2853  0.2866
 2917SOL    HW120384   1.682   4.623  16.793 -0.6117  2.3171 -1.1805
 2917SOL    HW220385   1.653   4.486  16.744  0.3797 -0.1078  0.6639
 2918SOL     OW20386   2.384   2.501   2.623 -0.0339 -0.1015  0.0443
 2918SOL    HW120387   2.458   2.562   2.616  0.1688 -0.3710 -0.1616
 2918SOL    HW220388   2.407   2.443   2.695 -3.2213 -0.7984  0.4644
 2919SOL     OW20389   0.227   0.071   3.513  0.1975 -0.6079  0.2349
 2919SOL    HW120390   0.158   0.026   3.561  0.7249 -1.1576  0.4729
 2919SOL    HW220391   0.295   0.009   3.538  2.1263  1.7324  0.7568
 2920SOL     OW20392   4.045   2.841   4.611  0.1930 -0.0939  0.4732
 2920SOL    HW120393   4.002   2.758   4.631 -0.7654  0.1084 -0.7119
 2920SOL    HW220394   3.974   2.892   4.573  1.2910 -1.1963 -3.0839
 2921SOL     OW20395   2.226   0.105  11.152 -0.1951  0.2919 -0.0673
 2921SOL    HW120396   2.150   0.063  11.192 -0.6182 -0.3061 -1.4846
 2921SOL    HW220397   2.274   0.156  11.217 -0.4090  0.4592 -0.0407
 2922SOL     OW20398   0.030   3.717   3.253 -0.0024 -0.1719 -0.3681
 2922SOL    HW120399   4.685   3.726   3.206  0.2653 -1.3956 -1.0675
 2922SOL    HW220400   0.002   3.743   3.341 -0.2407  1.0579 -0.8087
 2923SOL     OW20401   1.791   1.263  13.427  0.0305 -0.1466 -0.5046
 2923SOL    HW120402   1.866   1.213  13.397  0.5197  1.0127 -1.1928
 2923SOL    HW220403   1.824   1.323  13.494  0.2645  0.0993 -0.8438
 2924SOL     OW20404   1.235   2.760   8.316 -0.3918  0.2011 -0.2079
 2924SOL    HW120405   1.159   2.793   8.363 -0.4300  1.3240 -1.0703
 2924SOL    HW220406   1.204   2.769   8.226 -2.0674  0.6828  0.4213
 2925SOL     OW20407   1.408   4.399   2.166 -0.1987  0.2907  0.3635
 2925SOL    HW120408   1.339   4.378   2.228  1.5686 -1.8196  1.5895
 2925SOL    HW220409   1.447   4.311   2.168 -0.4144  0.0817 -3.6310
 2926SOL     OW20410   2.633   1.409   6.215 -0.4404  0.2241  0.0012
 2926SOL    HW120411   2.669   1.356   6.144 -0.5392 -0.2944  0.3409
 2926SOL    HW220412   2.628   1.345   6.286 -0.3118 -0.1980 -0.3693
 2927SOL     OW20413   0.801   1.188   3.454  0.2209 -0.3071 -0.3326
 2927SOL    HW120414   0.747   1.259   3.488  2.9122  0.4030  2.5104
 2927SOL    HW220415   0.780   1.109   3.504 -1.1952  0.8899  0.9318
 2928SOL     OW20416   2.053   2.611  15.896 -0.5467 -0.2171  0.1027
 2928SOL    HW120417   1.986   2.544  15.880 -0.8324  0.0304  0.2803
 2928SOL    HW220418   2.107   2.558  15.955 -1.8196  0.2665  1.6641
 2929SOL     OW20419   0.515   1.687  13.532  0.4402  0.0210 -0.0602
 2929SOL    HW120420   0.444   1.740  13.496 -0.4231 -2.0990 -1.4782
 2929SOL    HW220421   0.523   1.722  13.620  0.1537  1.0379 -0.4336
 2930SOL     OW20422   4.439   0.844   6.877  0.2501 -0.1280 -0.7537
 2930SOL    HW120423   4.485   0.869   6.797  2.5571 -0.0115  0.6045
 2930SOL    HW220424   4.450   0.749   6.868 -0.6009 -0.2681 -0.2504
 2931SOL     OW20425   2.554   3.693   5.185  0.2963 -0.2205  0.5051
 2931SOL    HW120426   2.471   3.668   5.145 -0.0081  1.7730 -0.1067
 2931SOL    HW220427   2.613   3.678   5.111 -0.0835  3.4043 -0.4946
 2932SOL     OW20428   4.630   0.290   1.018  0.7038  0.3278 -0.4103
 2932SOL    HW120429   4.718   0.303   0.984  0.9632 -2.4718 -0.8058
 2932SOL    HW220430   4.650   0.245   1.100 -1.7221  0.5668  0.3193
 2933SOL     OW20431   4.313   3.033   8.110 -0.1367 -1.1684 -0.2332
 2933SOL    HW120432   4.314   2.941   8.084 -0.0448 -1.5924  1.2876
 2933SOL    HW220433   4.378   3.038   8.180  0.6339 -1.4966 -0.9295
 2934SOL     OW20434   1.396   0.611   0.949  0.2303 -0.1498 -0.2012
 2934SOL    HW120435   1.379   0.613   0.854 -0.3786  0.8526 -0.0696
 2934SOL    HW220436   1.327   0.563   0.994  0.1714 -0.5361 -0.6986
 2935SOL     OW20437   2.724   0.157  14.025  0.6439  0.6944  0.0982
 2935SOL    HW120438   2.808   0.115  14.044 -0.1988 -1.3757 -0.7826
 2935SOL    HW220439   2.722   0.232  14.085 -2.6131  0.6232  0.0557
 2936SOL     OW20440   4.144   3.660   3.141 -0.3360  0.6825 -0.1107
 2936SOL    HW120441   4.054   3.659   3.107 -1.0321  0.5019  1.7435
 2936SOL    HW220442   4.140   3.587   3.203  2.5398 -1.3034 -2.2511
 2937SOL     OW20443   1.978   3.217   9.277 -0.1488  0.0903 -0.2424
 2937SOL    HW120444   1.909   3.152   9.291 -0.6537  0.7088  0.1713
 2937SOL    HW220445   1.937   3.291   9.231 -0.2201 -0.3556 -0.8934
 2938SOL     OW20446   2.165   2.952   3.974 -0.4418 -0.2258  0.4896
 2938SOL    HW120447   2.217   2.879   4.009  0.2600  0.2059  0.3556
 2938SOL    HW220448   2.081   2.951   4.019 -0.2873 -0.0384  0.7838
 2939SOL     OW20449   3.467   4.726  13.411 -0.1514  0.2556 -0.0999
 2939SOL    HW120450   3.536   0.038  13.367  0.1037 -0.6704 -0.7396
 2939SOL    HW220451   3.416   0.056  13.455 -0.3427 -1.5038  2.4036
 2940SOL     OW20452   0.483   3.017  13.817 -0.1037  0.2458  0.1343
 2940SOL    HW120453   0.485   3.095  13.872 -0.7433 -0.4926  1.2256
 2940SOL    HW220454   0.420   3.044  13.750 -1.2067  1.4832  1.6583
 2941SOL     OW20455   4.208   2.296  15.798  0.1553  0.4367  0.4370
 2941SOL    HW120456   4.302   2.297  15.780  0.2545 -0.5365  0.8893
 2941SOL    HW220457   4.180   2.387  15.798 -2.4031 -0.3228  1.4211
 2942SOL     OW20458   3.113   2.359  17.747  0.1713 -0.0678 -0.3495
 2942SOL    HW120459   3.097   2.423   0.067 -0.7709 -0.3946 -0.2637
 2942SOL    HW220460   3.023   2.333  17.727  0.1650 -0.1114 -0.2614
 2943SOL     OW20461   0.132   4.113   7.551  0.2064 -0.6908  0.3901
 2943SOL    HW120462   0.223   4.101   7.525 -0.2729 -0.7753 -1.2819
 2943SOL    HW220463   0.146   4.055   7.625 -2.1539 -0.7153  0.8022
 2944SOL     OW20464   1.235   4.021   5.233 -0.2232  0.0984  0.1366
 2944SOL    HW120465   1.276   3.958   5.173 -1.2868  0.2756 -0.7789
 2944SOL    HW220466   1.196   3.957   5.293 -1.6275  0.2705 -0.5980
 2945SOL     OW20467   2.620   4.204   9.026 -0.1292  0.4178  0.2855
 2945SOL    HW120468   2.576   4.173   8.946  2.8584 -0.4033 -1.0414
 2945SOL    HW220469   2.561   4.274   9.056 -2.4304 -1.4413  0.0878
 2946SOL     OW20470   2.275   3.418  13.384 -0.0975  0.1146 -0.6832
 2946SOL    HW120471   2.304   3.343  13.436  1.5744  1.1808 -0.0689
 2946SOL    HW220472   2.286   3.492  13.444 -0.8996 -2.3562  2.5212
 2947SOL     OW20473   1.841   2.369   9.564  0.0083 -0.3591  0.5743
 2947SOL    HW120474   1.771   2.422   9.527  0.8527  0.8224  0.6615
 2947SOL    HW220475   1.863   2.322   9.483 -1.5373  0.8623 -0.5409
 2948SOL     OW20476   1.044   1.599   4.094  0.1087  0.0229  0.3611
 2948SOL    HW120477   1.003   1.512   4.088 -0.1345  0.1369  0.3892
 2948SOL    HW220478   0.972   1.655   4.065 -0.0379  1.2738  3.1830
 2949SOL     OW20479   1.360   2.233  10.324  0.0836 -0.2684  0.1381
 2949SOL    HW120480   1.347   2.250  10.231  0.5931 -3.4886 -0.5379
 2949SOL    HW220481   1.424   2.162  10.316 -1.3408 -1.4970 -0.3529
 2950SOL     OW20482   1.857   3.601   3.442  0.0297  0.0405 -0.2613
 2950SOL    HW120483   1.919   3.668   3.470 -2.2160  0.1718  4.4083
 2950SOL    HW220484   1.897   3.582   3.357  1.7859 -0.0715  0.5723
 2951SOL     OW20485   3.299   2.443   8.008  0.1737 -0.1392 -0.0691
 2951SOL    HW120486   3.382   2.462   7.965  0.8318 -0.4900  1.0469
 2951SOL    HW220487   3.333   2.358   8.036 -1.3100  0.0737  2.3628
 2952SOL     OW20488   4.381   3.380   7.803  0.3576 -0.6007  0.0071
 2952SOL    HW120489   4.412   3.439   7.872 -1.4859  0.3149  0.0224
 2952SOL    HW220490   4.464   3.343   7.773  0.8812 -0.3032  1.0807
 2953SOL     OW20491   1.730   3.891   4.358 -0.2616  0.0085  0.0729
 2953SOL    HW120492   1.649   3.863   4.401  0.5959  2.3438  3.2223
 2953SOL    HW220493   1.751   3.956   4.425  0.2219 -0.6484  0.5664
 2954SOL     OW20494   4.273   1.485   1.770 -0.7049  0.3614 -0.2025
 2954SOL    HW120495   4.280   1.442   1.855 -1.8392  0.3853 -0.0978
 2954SOL    HW220496   4.188   1.466   1.732 -0.6114  0.1197 -0.2870
 2955SOL     OW20497   3.930   1.232   3.856  0.4758 -0.4947 -1.1725
 2955SOL    HW120498   3.887   1.157   3.899 -0.8947  0.4220 -0.9484
 2955SOL    HW220499   3.962   1.186   3.779 -0.0638 -1.1112 -1.0306
 2956SOL     OW20500   4.718   1.902  10.511  0.2475 -0.0135  0.1989
 2956SOL    HW120501   0.043   1.842  10.552  1.4239  1.2385  0.2267
 2956SOL    HW220502   4.700   1.875  10.421 -3.3210  1.6677  0.4113
 2957SOL     OW20503   2.681   2.509   2.339  0.4036 -0.5004  0.8516
 2957SOL    HW120504   2.691   2.585   2.282  2.4602 -1.3122  0.1319
 2957SOL    HW220505   2.760   2.455   2.334  0.0161 -0.7627 -2.6196
 2958SOL     OW20506   2.000   4.009   2.206  0.4664  0.3749  0.2737
 2958SOL    HW120507   2.013   3.964   2.122  1.2954 -0.8665  1.0541
 2958SOL    HW220508   2.008   4.100   2.178  0.8622  0.8438  1.9277
 2959SOL     OW20509   1.991   0.933   7.249  0.0323  0.0709  0.1061
 2959SOL    HW120510   2.016   0.951   7.158 -0.5416 -1.3763 -0.3376
 2959SOL    HW220511   2.011   1.020   7.283 -0.7109  0.1282  0.3965
 2960SOL     OW20512   2.415   3.805  17.159  0.2084  0.4967 -0.1367
 2960SOL    HW120513   2.453   3.783  17.074  1.3315  0.2613  0.4164
 2960SOL    HW220514   2.322   3.794  17.139  0.6374 -0.8582 -1.3794
 2961SOL     OW20515   4.248   3.108  10.023 -0.4113  0.6718  0.1445
 2961SOL    HW120516   4.232   3.201  10.039  0.9355  1.0773 -0.8480
 2961SOL    HW220517   4.182   3.091   9.955 -0.0583  2.0291 -0.5325
 2962SOL     OW20518   3.093   1.138   5.988 -0.9796  0.4244  0.1144
 2962SOL    HW120519   3.085   1.058   5.935  1.8729 -0.2154  0.6122
 2962SOL    HW220520   3.167   1.116   6.045 -0.8693 -0.1282 -0.2357
 2963SOL     OW20521   2.975   4.557  17.248  0.2069  0.1861 -0.2103
 2963SOL    HW120522   2.883   4.581  17.258  0.4424  1.1776 -0.4608
 2963SOL    HW220523   2.960   4.463  17.236  1.2853  0.0196 -0.2726
 2964SOL     OW20524   0.345   0.716   1.814 -0.5556  0.0322 -0.0883
 2964SOL    HW120525   0.331   0.629   1.853 -2.3741  0.6765  0.6914
 2964SOL    HW220526   0.317   0.700   1.724  0.5123  2.9598 -0.9282
 2965SOL     OW20527   0.095   2.773   8.799  0.1016 -0.0064  0.0833
 2965SOL    HW120528   0.136   2.687   8.788  0.9903  0.4582 -0.2285
 2965SOL    HW220529   0.112   2.782   8.892 -1.3839 -2.3896  0.5810
 2966SOL     OW20530   0.802   1.287   9.337  0.3526 -0.2735 -0.5311
 2966SOL    HW120531   0.810   1.195   9.360 -0.0120 -0.2916 -0.4747
 2966SOL    HW220532   0.732   1.319   9.395 -0.5207 -1.2264 -1.0660
 2967SOL     OW20533   2.342   2.460   2.168  0.5232 -0.2723 -0.2394
 2967SOL    HW120534   2.322   2.442   2.077  0.5836  1.2639 -0.5586
 2967SOL    HW220535   2.340   2.556   2.164 -1.3250 -0.4217 -2.1666
 2968SOL     OW20536   3.589   1.674  17.023  0.1432 -0.2755  0.9035
 2968SOL    HW120537   3.590   1.599  17.083  1.1817  0.9977  2.5071
 2968SOL    HW220538   3.621   1.746  17.077 -1.2562  1.0354 -0.0252
 2969SOL     OW20539   2.722   3.827   9.097  0.1832 -0.0862 -0.3776
 2969SOL    HW120540   2.789   3.780   9.146 -0.7856  0.9519  1.9733
 2969SOL    HW220541   2.767   3.854   9.017 -0.2714  3.1026  0.4307
 2970SOL     OW20542   3.215   0.055   0.871  0.2125  0.5339  0.4567
 2970SOL    HW120543   3.138   0.018   0.914  0.7948  0.9458  1.8351
 2970SOL    HW220544   3.206   0.150   0.879  0.2619  0.5176  0.7030
 2971SOL     OW20545   1.966   3.386  12.639 -0.0121  0.4436 -0.2365
 2971SOL    HW120546   1.931   3.466  12.679 -0.2665  0.4500 -0.4742
 2971SOL    HW220547   1.902   3.370  12.570  0.5093  1.2319 -0.8991
 2972SOL     OW20548   3.433   3.949   9.162 -0.1629  0.8641  0.1037
 2972SOL    HW120549   3.462   3.977   9.249  0.5334 -1.6270  0.6723
 2972SOL    HW220550   3.433   4.034   9.117  1.1825  1.6859  1.6475
 2973SOL     OW20551   0.319   2.525   5.087  0.2416  0.4376 -0.1838
 2973SOL    HW120552   0.310   2.465   5.162 -0.9384 -1.4815 -1.8463
 2973SOL    HW220553   0.379   2.475   5.032  0.4330  2.3998 -1.7215
 2974SOL     OW20554   0.400   1.880  13.703  0.2147  0.6013 -0.6768
 2974SOL    HW120555   0.309   1.859  13.724  0.5286  0.7741  0.7925
 2974SOL    HW220556   0.435   1.905  13.788 -0.2431 -1.6428  0.1762
 2975SOL     OW20557   0.125   2.113   9.495  0.1620 -1.1441 -0.5669
 2975SOL    HW120558   0.120   2.046   9.564 -0.2291  0.2067  0.7265
 2975SOL    HW220559   0.221   2.121   9.493 -0.0464  2.5597  2.6466
 2976SOL     OW20560   1.136   3.912  11.557 -0.6985  0.4497  0.1846
 2976SOL    HW120561   1.162   3.972  11.487 -2.2886 -0.0182 -0.7897
 2976SOL    HW220562   1.176   3.831  11.525  1.3132  1.4166  0.2313
 2977SOL     OW20563   2.152   0.186  12.109 -0.0538 -0.1359 -0.2159
 2977SOL    HW120564   2.187   0.109  12.154  0.0742  0.3064  0.4403
 2977SOL    HW220565   2.128   0.241  12.184  0.3660 -1.2120  0.7183
 2978SOL     OW20566   1.497   4.130   2.154 -0.1591 -0.3186 -0.5441
 2978SOL    HW120567   1.503   4.098   2.065 -1.0598 -1.8200 -0.0643
 2978SOL    HW220568   1.587   4.162   2.161 -0.5188  0.1372  2.3398
 2979SOL     OW20569   1.058   4.588  14.597 -0.0735 -0.5955  0.6155
 2979SOL    HW120570   1.123   4.655  14.575 -1.1819 -0.3223 -1.7438
 2979SOL    HW220571   1.068   4.578  14.692 -0.3684 -2.9784  0.4068
 2980SOL     OW20572   3.402   2.669   9.284  0.1842 -0.2768 -0.2049
 2980SOL    HW120573   3.371   2.754   9.255  1.0494  0.3410  0.6629
 2980SOL    HW220574   3.324   2.623   9.313  0.6590 -1.5316 -0.8980
 2981SOL     OW20575   3.654   1.758  10.483  0.5473  0.1747  0.0316
 2981SOL    HW120576   3.577   1.815  10.478  0.2932  0.1088  3.0650
 2981SOL    HW220577   3.721   1.812  10.440 -0.9894  1.2632 -0.9784
 2982SOL     OW20578   2.694   4.013   1.230 -0.1737  0.3998  0.1946
 2982SOL    HW120579   2.764   4.052   1.178 -0.6237  0.8343 -0.0984
 2982SOL    HW220580   2.723   3.926   1.254 -0.2936  0.2603 -0.1630
 2983SOL     OW20581   1.568   1.070   7.856 -0.9366  1.0604 -0.3523
 2983SOL    HW120582   1.584   0.976   7.847 -1.2480  1.1037 -1.3445
 2983SOL    HW220583   1.511   1.082   7.780 -0.1354  0.4482 -1.0566
 2984SOL     OW20584   2.706   2.912   0.754  0.0094  0.4798  0.0396
 2984SOL    HW120585   2.706   2.876   0.665 -0.1258 -3.2823  1.5500
 2984SOL    HW220586   2.799   2.931   0.759  0.3822 -1.1995 -0.7097
 2985SOL     OW20587   4.130   2.543   7.002  0.4389 -0.2827 -0.2549
 2985SOL    HW120588   4.158   2.506   7.086 -0.0132  0.3876  0.1971
 2985SOL    HW220589   4.208   2.541   6.947  0.8999  0.3834  0.3719
 2986SOL     OW20590   3.765   1.914   7.660  0.2003  0.3691  0.2718
 2986SOL    HW120591   3.851   1.904   7.619 -0.0074 -0.7516  0.0975
 2986SOL    HW220592   3.728   1.830   7.631  0.0842  0.3312  0.5274
 2987SOL     OW20593   4.570   4.717  17.474  0.1627 -0.1730 -0.1798
 2987SOL    HW120594   4.526   0.058  17.505  1.0479 -0.1437  1.0075
 2987SOL    HW220595   4.529   4.652  17.531  1.9397  0.1573  1.4938
 2988SOL     OW20596   0.774   0.571   7.261 -0.6813  0.1208 -0.3352
 2988SOL    HW120597   0.700   0.567   7.322  0.7321 -1.6795  1.2654
 2988SOL    HW220598   0.778   0.488   7.214  1.7501 -0.1527  0.3444
 2989SOL     OW20599   4.013   3.092  16.866 -0.0318 -0.3731 -0.1366
 2989SOL    HW120600   3.969   3.155  16.923 -2.5865 -0.8306 -1.6065
 2989SOL    HW220601   3.973   3.120  16.784  1.0146 -0.1682 -0.5683
 2990SOL     OW20602   4.684   2.825   7.211 -0.2396  0.5385  0.1714
 2990SOL    HW120603   4.660   2.917   7.217  0.4783  0.6393  1.4415
 2990SOL    HW220604   0.014   2.825   7.143 -0.1134  0.6230  0.2981
 2991SOL     OW20605   2.563   3.494   8.764  0.2265 -0.5054 -0.2093
 2991SOL    HW120606   2.531   3.584   8.760  0.9071 -0.3694 -2.5914
 2991SOL    HW220607   2.632   3.505   8.699 -1.3495  1.7102 -1.4983
 2992SOL     OW20608   2.813   4.142  16.406  0.3540 -0.7297  0.5542
 2992SOL    HW120609   2.742   4.188  16.362  1.6619  0.7038 -0.0801
 2992SOL    HW220610   2.888   4.177  16.357  0.4568  0.4174  1.5472
 2993SOL     OW20611   2.863   3.098   2.349 -1.0315 -0.0744  0.2479
 2993SOL    HW120612   2.923   3.029   2.321 -2.0293 -1.1854  0.9015
 2993SOL    HW220613   2.937   3.158   2.363 -0.7114 -0.7366  1.3651
 2994SOL     OW20614   2.291   0.685  13.068 -0.1520 -0.2154  0.4623
 2994SOL    HW120615   2.244   0.666  13.149 -2.2519 -0.3393 -0.7773
 2994SOL    HW220616   2.311   0.778  13.075 -0.0067 -0.3077  1.2234
 2995SOL     OW20617   4.576   0.991   2.278  0.4728  0.1119  0.2401
 2995SOL    HW120618   4.651   1.041   2.308 -0.1049  0.8551  0.4289
 2995SOL    HW220619   4.532   0.961   2.357  1.9505 -1.1255  0.6049
 2996SOL     OW20620   2.136   4.001  16.923  0.0133 -0.0045  0.1431
 2996SOL    HW120621   2.102   3.955  16.846 -0.4849 -0.2003  0.4849
 2996SOL    HW220622   2.227   4.022  16.899  0.4805 -0.7128  1.2954
 2997SOL     OW20623   1.472   0.140   4.965  0.0276 -0.4320 -0.7333
 2997SOL    HW120624   1.432   0.055   4.983 -1.0058 -0.0395 -1.1933
 2997SOL    HW220625   1.559   0.114   4.933  0.0735  0.0451 -0.9882
 2998SOL     OW20626   0.653   0.840   3.782  0.2371  0.3850  0.0922
 2998SOL    HW120627   0.578   0.781   3.774 -0.3766  0.7389  3.2458
 2998SOL    HW220628   0.624   0.875   3.866  0.9669 -1.2454  1.0179
 2999SOL     OW20629   4.046   3.246   7.053 -0.1491 -0.7814 -0.0649
 2999SOL    HW120630   4.053   3.222   7.145 -0.5224  0.4297  0.2872
 2999SOL    HW220631   4.115   3.313   7.046  0.5256 -0.9648  4.8785
 3000SOL     OW20632   1.666   1.748   7.071  0.4755  0.1926  0.2268
 3000SOL    HW120633   1.701   1.806   7.004  0.3385  0.6339  0.5350
 3000SOL    HW220634   1.682   1.664   7.028  0.6779  0.8013 -0.8891
 3001SOL     OW20635   3.354   1.298  12.575  0.0931  0.6559  0.4986
 3001SOL    HW120636   3.398   1.231  12.523 -0.4747  0.4350  0.3040
 3001SOL    HW220637   3.430   1.355  12.585  1.0135 -0.2434 -1.3131
 3002SOL     OW20638   2.927   2.155  10.234 -0.2872  0.1502  0.4915
 3002SOL    HW120639   2.850   2.098  10.227 -0.8063  1.0247 -0.7268
 3002SOL    HW220640   2.923   2.210  10.156  2.0189 -0.0158  0.2506
 3003SOL     OW20641   2.406   1.653  10.618  0.0289 -0.2367 -0.2233
 3003SOL    HW120642   2.471   1.617  10.558 -1.7430 -0.1156 -2.2160
 3003SOL    HW220643   2.427   1.606  10.699  0.9523  1.9077  0.7695
 3004SOL     OW20644   3.620   3.846   5.941  0.4770  0.4413  0.4434
 3004SOL    HW120645   3.668   3.899   5.877  3.6283 -0.5525  1.9843
 3004SOL    HW220646   3.571   3.916   5.984  2.2598  1.7391  0.3647
 3005SOL     OW20647   3.736   4.130  13.164 -0.3814 -0.0724  0.0999
 3005SOL    HW120648   3.806   4.163  13.221 -1.4568 -0.9828  1.9238
 3005SOL    HW220649   3.746   4.035  13.163 -2.2920 -0.2649 -0.7731
 3006SOL     OW20650   3.398   2.456  14.548  0.1000 -0.3189  0.2264
 3006SOL    HW120651   3.322   2.399  14.556 -0.6692  0.1959 -3.0964
 3006SOL    HW220652   3.469   2.396  14.572 -0.9094 -2.0566 -1.1960
 3007SOL     OW20653   2.829   1.975  14.844 -0.0506 -0.0005 -0.0369
 3007SOL    HW120654   2.871   1.937  14.767 -0.8449 -1.3685  0.2058
 3007SOL    HW220655   2.903   2.025  14.881 -0.6998  1.0191 -0.1030
 3008SOL     OW20656   2.981   2.812   1.425 -0.1328 -0.4700  0.6550
 3008SOL    HW120657   2.962   2.815   1.518 -0.6156 -0.8418  0.5722
 3008SOL    HW220658   2.931   2.892   1.405  0.4903 -0.3973 -0.6026
 3009SOL     OW20659   3.696   2.844   9.676 -0.3167 -0.3941 -0.0268
 3009SOL    HW120660   3.623   2.787   9.653 -0.3996  0.0529 -0.8924
 3009SOL    HW220661   3.647   2.921   9.703 -0.2314  0.4064 -2.1567
 3010SOL     OW20662   0.200   2.071   4.724 -0.3090  0.0589  0.0255
 3010SOL    HW120663   0.248   2.076   4.806 -1.1944 -0.8772  0.6035
 3010SOL    HW220664   0.228   2.157   4.692 -2.0437  0.5225 -0.2672
 3011SOL     OW20665   4.140   3.053   7.553  0.1390  0.4368 -0.3738
 3011SOL    HW120666   4.086   2.975   7.567 -0.5140  0.8592 -0.5485
 3011SOL    HW220667   4.161   3.070   7.645  2.1288  1.8258 -1.1029
 3012SOL     OW20668   2.935   0.713   5.106 -0.2390 -0.4848 -0.3657
 3012SOL    HW120669   2.935   0.784   5.170 -0.7480 -2.4505  1.8116
 3012SOL    HW220670   2.874   0.744   5.039  1.1790  2.3300 -0.3710
 3013SOL     OW20671   2.306   0.955   8.603  0.2244  0.0445  0.9563
 3013SOL    HW120672   2.318   1.016   8.676 -0.3288  0.5541  0.6299
 3013SOL    HW220673   2.357   1.004   8.538  0.4733 -2.0465 -0.4017
 3014SOL     OW20674   0.927   3.396  15.206  0.3192 -0.3790 -0.0437
 3014SOL    HW120675   0.896   3.477  15.165 -1.2327 -0.0408  1.7953
 3014SOL    HW220676   1.011   3.375  15.165  1.8333 -0.2252  3.0252
 3015SOL     OW20677   3.036   1.561  13.790  0.4865  0.3268  0.8940
 3015SOL    HW120678   3.082   1.478  13.801  0.2588  0.4273  2.4763
 3015SOL    HW220679   2.959   1.552  13.845  1.2161  0.1368  1.8793
 3016SOL     OW20680   0.691   4.534   0.868  0.3619 -0.1574 -0.1180
 3016SOL    HW120681   0.753   4.542   0.796 -0.3793  0.3120 -0.7063
 3016SOL    HW220682   0.744   4.498   0.939  0.7743 -0.3477 -0.5211
 3017SOL     OW20683   2.059   0.795   7.004  0.3229  0.6025 -0.0729
 3017SOL    HW120684   2.084   0.838   6.923 -0.4517  0.2374 -0.5062
 3017SOL    HW220685   1.965   0.808   7.014  0.2016 -1.3381  1.3895
 3018SOL     OW20686   4.617   3.706   2.597  0.3577  0.0695  0.4049
 3018SOL    HW120687   4.554   3.668   2.535  0.0308  0.6928  0.3549
 3018SOL    HW220688   4.659   3.772   2.543 -2.5962  1.1996 -0.5090
 3019SOL     OW20689   2.860   0.639   2.458 -0.2194  1.0262 -0.3295
 3019SOL    HW120690   2.860   0.676   2.370  1.5962 -3.1259 -2.0755
 3019SOL    HW220691   2.839   0.552   2.426  1.7597  0.8928 -1.2398
 3020SOL     OW20692   0.875   0.924  10.021  0.2670  0.0401  0.4913
 3020SOL    HW120693   0.874   0.872  10.102  0.4772  1.4194  1.3756
 3020SOL    HW220694   0.948   0.981  10.047  1.5696 -2.0654  1.4635
 3021SOL     OW20695   3.323   2.825  14.114  0.0904 -0.5141  0.1029
 3021SOL    HW120696   3.263   2.870  14.055  0.3688  0.6488  0.6999
 3021SOL    HW220697   3.313   2.735  14.083 -1.9288 -0.6322  1.1238
 3022SOL     OW20698   2.224   2.169   3.007 -0.6896 -0.1724 -0.4369
 3022SOL    HW120699   2.307   2.124   2.998  0.0940  1.7833 -3.3424
 3022SOL    HW220700   2.163   2.103   2.975  0.2165 -1.3479  0.2909
 3023SOL     OW20701   0.478   1.701   7.194 -0.6889  0.6983  0.2384
 3023SOL    HW120702   0.387   1.683   7.218 -0.7860  0.0446 -0.5869
 3023SOL    HW220703   0.519   1.615   7.203  0.0513  0.8450 -1.6112
 3024SOL     OW20704   1.208   2.747  10.032 -0.2398 -0.7628  0.6654
 3024SOL    HW120705   1.217   2.698   9.950  1.7950  0.3633  0.2235
 3024SOL    HW220706   1.253   2.684  10.089  2.6376  1.1724  0.4958
 3025SOL     OW20707   1.592   0.391   7.131  0.1367 -0.0159 -0.3422
 3025SOL    HW120708   1.545   0.420   7.053 -1.9183 -2.8910 -0.1722
 3025SOL    HW220709   1.586   0.297   7.111  3.5440 -0.3455  0.2092
 3026SOL     OW20710   3.493   1.074   4.204  0.1524 -0.2383  0.0345
 3026SOL    HW120711   3.411   1.054   4.250 -0.0112 -1.3907 -0.7504
 3026SOL    HW220712   3.481   1.011   4.133 -1.4124 -1.2842  1.2189
 3027SOL     OW20713   0.207   2.287   9.029 -0.1652  0.0939 -0.3131
 3027SOL    HW120714   0.120   2.305   9.064  0.0315  1.6218 -0.5980
 3027SOL    HW220715   0.255   2.283   9.112 -1.8811  3.0155  0.8135
 3028SOL     OW20716   4.080   4.345   9.095  0.1408 -0.4547 -0.3392
 3028SOL    HW120717   4.035   4.263   9.115  2.9766 -1.6038  1.2655
 3028SOL    HW220718   4.007   4.400   9.067  0.1502  0.5444  1.5987
 3029SOL     OW20719   3.519   2.127   6.702 -0.5896 -0.6423  0.1997
 3029SOL    HW120720   3.472   2.112   6.620  0.2685  0.6015 -0.5229
 3029SOL    HW220721   3.441   2.144   6.754 -1.7141  0.7450 -1.9193
 3030SOL     OW20722   3.244   3.271   4.840 -0.4344 -0.0986 -0.2569
 3030SOL    HW120723   3.207   3.245   4.756 -0.3588 -0.7931 -0.0723
 3030SOL    HW220724   3.310   3.203   4.856  0.2335  0.9679  1.5112
 3031SOL     OW20725   4.513   3.373   5.347 -0.3711 -0.1868 -0.2700
 3031SOL    HW120726   4.452   3.335   5.410  0.1007  0.1150  0.3613
 3031SOL    HW220727   4.462   3.444   5.310 -1.7675 -1.4333 -0.7251
 3032SOL     OW20728   2.728   0.717   6.129  0.7923  0.3027  0.3673
 3032SOL    HW120729   2.669   0.653   6.169  1.2876 -1.2600 -1.4329
 3032SOL    HW220730   2.744   0.680   6.043 -0.2154 -1.4557  0.9421
 3033SOL     OW20731   1.109   1.256   0.612 -0.1079  0.2628 -0.4163
 3033SOL    HW120732   1.084   1.247   0.704  1.9502 -1.4984 -0.0331
 3033SOL    HW220733   1.029   1.258   0.560  0.5042 -1.3766 -1.4012
 3034SOL     OW20734   0.522   4.361   2.326  0.1165 -0.4569 -0.2022
 3034SOL    HW120735   0.490   4.278   2.290 -0.7527 -0.6808  1.0954
 3034SOL    HW220736   0.494   4.418   2.254  0.6537 -0.9529 -0.7940
 3035SOL     OW20737   4.243   1.537  11.465 -0.9052 -0.2670 -0.1897
 3035SOL    HW120738   4.238   1.445  11.490 -0.5698 -0.5806 -1.2824
 3035SOL    HW220739   4.200   1.577  11.541 -0.3225 -0.8690  0.4571
 3036SOL     OW20740   4.319   2.944  13.827  0.4785 -0.6809 -0.4709
 3036SOL    HW120741   4.327   2.873  13.891 -0.1761 -1.8301 -1.6487
 3036SOL    HW220742   4.385   2.998  13.871 -2.0295  1.2691  0.8791
 3037SOL     OW20743   3.587   3.024   4.395  0.3946  0.3293  0.1145
 3037SOL    HW120744   3.600   3.045   4.303  0.8755 -0.4527  0.0037
 3037SOL    HW220745   3.566   3.110   4.430 -2.3190  0.3056 -1.3853
 3038SOL     OW20746   3.427   3.381  10.452 -0.2950 -0.1791  0.7568
 3038SOL    HW120747   3.427   3.345  10.364  0.0798  2.6105 -0.3951
 3038SOL    HW220748   3.374   3.317  10.499 -0.7040  0.1727  0.7735
 3039SOL     OW20749   3.471   2.030  13.700  0.1266 -0.0822 -0.5024
 3039SOL    HW120750   3.522   2.070  13.630  1.1861 -1.1429 -0.3229
 3039SOL    HW220751   3.518   1.948  13.717 -0.3907 -0.5884 -1.5409
 3040SOL     OW20752   3.073   2.013  15.395  0.0234 -0.3029  0.2405
 3040SOL    HW120753   3.139   1.964  15.443 -0.0486 -2.5084 -1.9390
 3040SOL    HW220754   3.044   1.943  15.336 -1.0637  1.7435 -1.6583
 3041SOL     OW20755   2.829   3.626   1.963  0.6849 -0.3423  0.0454
 3041SOL    HW120756   2.817   3.531   1.964 -0.7828 -0.1801 -1.3114
 3041SOL    HW220757   2.900   3.637   2.027  1.7965 -2.1521 -0.8791
 3042SOL     OW20758   0.755   2.260   7.496 -0.0866  0.3594 -0.5050
 3042SOL    HW120759   0.666   2.259   7.530  0.4174 -3.3788  0.6718
 3042SOL    HW220760   0.745   2.261   7.400  1.2903  1.4915 -0.6438
 3043SOL     OW20761   1.493   4.261   8.681 -0.2961  0.4996  0.1318
 3043SOL    HW120762   1.564   4.317   8.651  1.6907 -1.3305  1.3982
 3043SOL    HW220763   1.540   4.180   8.704 -2.5475 -0.7498  0.3317
 3044SOL     OW20764   0.042   1.426  12.556 -0.3032  0.3149 -0.1628
 3044SOL    HW120765   4.711   1.463  12.499 -0.5769  0.1909  0.0885
 3044SOL    HW220766   0.119   1.456  12.507 -0.3350  1.0689  0.2437
 3045SOL     OW20767   0.832   2.643   7.959 -0.6851  0.1943 -0.4146
 3045SOL    HW120768   0.801   2.566   8.005 -3.5127  0.5805 -1.6802
 3045SOL    HW220769   0.754   2.674   7.913 -0.6894  1.3064  0.3308
 3046SOL     OW20770   4.326   3.094   4.679 -0.5490 -0.0557 -0.0423
 3046SOL    HW120771   4.414   3.057   4.681 -0.0903  1.0325 -0.0710
 3046SOL    HW220772   4.293   3.074   4.767 -0.9948  0.1375 -0.1670
 3047SOL     OW20773   2.686   3.928   3.789  0.1610 -0.0454 -0.0317
 3047SOL    HW120774   2.657   3.981   3.864 -0.1402  0.0521 -0.2199
 3047SOL    HW220775   2.700   3.845   3.835 -1.1321 -0.4475 -0.3838
 3048SOL     OW20776   2.950   3.282   5.289  0.3021 -0.5828 -0.1216
 3048SOL    HW120777   2.867   3.307   5.248  0.1775  0.5199  0.8126
 3048SOL    HW220778   2.984   3.228   5.217 -0.0370  3.0462 -3.0261
 3049SOL     OW20779   4.364   3.026   3.901 -0.0288 -0.6391 -0.2435
 3049SOL    HW120780   4.269   3.014   3.902  0.0206 -0.9080  1.5902
 3049SOL    HW220781   4.381   2.970   3.977 -1.2234  0.1709  0.6029
 3050SOL     OW20782   4.619   0.951  14.373  0.3192  0.5005  0.1191
 3050SOL    HW120783   4.579   1.036  14.353  0.1677  0.0111 -1.6527
 3050SOL    HW220784   4.617   0.896  14.294  0.3481 -0.2802  0.6615
 3051SOL     OW20785   3.684   2.528   3.741 -0.3439  0.0412  0.5857
 3051SOL    HW120786   3.648   2.502   3.657  0.5917 -2.0337  0.8522
 3051SOL    HW220787   3.662   2.621   3.749 -0.1617  0.0441  1.0571
 3052SOL     OW20788   4.676   4.000   0.639  0.1587 -0.4989  0.4391
 3052SOL    HW120789   4.584   3.998   0.664  0.1862  2.6054  0.7982
 3052SOL    HW220790   4.675   4.017   0.544 -0.3750 -2.0864  0.1724
 3053SOL     OW20791   1.739   4.658   3.671 -1.0321 -0.1903  0.1269
 3053SOL    HW120792   1.737   4.709   3.752 -1.1600  0.4110 -0.2571
 3053SOL    HW220793   1.825   4.617   3.665 -0.8583  0.1005  0.6566
 3054SOL     OW20794   2.557   4.701   7.754  0.6182  0.3793  0.3377
 3054SOL    HW120795   2.548   0.047   7.708 -1.2325 -0.4735 -0.8874
 3054SOL    HW220796   2.534   4.636   7.687 -0.3945  0.6463  0.4140
 3055SOL     OW20797   2.440   0.880  16.432  0.2008  0.0716  0.1258
 3055SOL    HW120798   2.354   0.882  16.389 -0.9391 -1.1353  2.3102
 3055SOL    HW220799   2.486   0.945  16.379 -0.0390  0.5653  0.5069
 3056SOL     OW20800   1.116   1.883  16.805 -0.4564 -0.0241  0.3754
 3056SOL    HW120801   1.081   1.883  16.894  0.7335 -0.7920  0.8444
 3056SOL    HW220802   1.080   1.962  16.763 -2.0765  0.5720  2.9589
 3057SOL     OW20803   3.188   2.747  16.370  0.2107 -0.4632  0.8467
 3057SOL    HW120804   3.220   2.661  16.343 -0.5222  0.3188 -2.4192
 3057SOL    HW220805   3.267   2.794  16.399 -0.6324  0.0774  2.2514
 3058SOL     OW20806   3.538   4.507  13.613  0.8049  0.1277 -0.5038
 3058SOL    HW120807   3.553   4.595  13.581 -1.1529  0.6455  0.0302
 3058SOL    HW220808   3.612   4.469  13.565  1.6881  1.0146  0.1461
 3059SOL     OW20809   1.735   3.452   2.902 -0.6859 -0.3061  0.1256
 3059SOL    HW120810   1.721   3.540   2.938 -0.8143 -0.5765  0.7266
 3059SOL    HW220811   1.655   3.404   2.921  0.5317 -2.1619  0.5067
 3060SOL     OW20812   0.222   4.055   2.045 -0.3101  0.1695  0.5665
 3060SOL    HW120813   0.134   4.020   2.038 -0.5147  0.9867 -0.9827
 3060SOL    HW220814   0.224   4.132   1.987 -0.9440 -0.6589 -0.5463
 3061SOL     OW20815   3.269   3.431   0.621 -0.2758  0.0920 -0.5958
 3061SOL    HW120816   3.258   3.503   0.684  1.8806 -0.3860  0.3281
 3061SOL    HW220817   3.352   3.392   0.648 -1.8526 -1.4882  1.9392
 3062SOL     OW20818   3.378   1.024  14.134 -0.4133 -0.2934  0.1118
 3062SOL    HW120819   3.301   0.987  14.091 -0.5672 -0.8801  0.8836
 3062SOL    HW220820   3.362   1.117  14.121 -0.7866 -0.3750 -0.0128
 3063SOL     OW20821   3.833   3.699   6.892  0.5460  0.3374 -0.6244
 3063SOL    HW120822   3.798   3.749   6.965  2.0150 -2.1507  1.7854
 3063SOL    HW220823   3.756   3.645   6.874 -0.2447  1.1609  0.2642
 3064SOL     OW20824   1.328   1.962   8.993  0.0388  0.2056  0.1254
 3064SOL    HW120825   1.309   1.895   8.928 -1.1063  0.8413 -0.1920
 3064SOL    HW220826   1.241   1.968   9.032 -0.4375 -2.3206 -0.5606
 3065SOL     OW20827   3.955   0.746   3.169 -0.6401  0.5510 -0.1252
 3065SOL    HW120828   3.859   0.753   3.173 -0.6348  1.5198 -1.6909
 3065SOL    HW220829   3.966   0.838   3.147 -3.5893  1.7766  3.6214
 3066SOL     OW20830   2.598   3.177   2.267 -0.0984 -0.3821  0.3300
 3066SOL    HW120831   2.574   3.126   2.190 -1.4489  0.7952 -0.0107
 3066SOL    HW220832   2.685   3.145   2.292  1.0937  0.2223 -3.1176
 3067SOL     OW20833   0.244   2.011   3.042 -0.1244 -0.0406  0.7815
 3067SOL    HW120834   0.290   2.083   3.084 -0.3515  0.4659  0.1444
 3067SOL    HW220835   0.215   1.958   3.117  4.3532  1.0327  3.2415
 3068SOL     OW20836   3.753   0.048  13.805 -0.5815  0.1830 -0.2416
 3068SOL    HW120837   3.786   0.028  13.717  1.8938 -1.1063  0.9521
 3068SOL    HW220838   3.840   0.075  13.837 -1.0228 -0.8026  1.8208
 3069SOL     OW20839   2.728   0.621   5.854 -0.0094  0.1652 -0.3475
 3069SOL    HW120840   2.668   0.547   5.863 -0.4897  0.5370 -0.5409
 3069SOL    HW220841   2.692   0.658   5.773  0.6059  0.7425 -0.3557
 3070SOL     OW20842   1.633   1.677   1.406 -0.0603  0.0350 -0.7527
 3070SOL    HW120843   1.569   1.615   1.373  0.2885 -0.3619 -0.6875
 3070SOL    HW220844   1.707   1.644   1.355 -1.5829 -1.5160 -1.9501
 3071SOL     OW20845   3.508   2.976   7.402  0.3761 -0.5135  0.1493
 3071SOL    HW120846   3.546   2.891   7.422 -0.5814 -1.6356 -2.8019
 3071SOL    HW220847   3.429   2.951   7.356 -0.8838  1.4161  1.2404
 3072SOL     OW20848   2.222   2.515  10.742 -0.1641  0.2829 -0.0937
 3072SOL    HW120849   2.187   2.436  10.782  0.7375  0.2771  0.6747
 3072SOL    HW220850   2.142   2.553  10.707 -0.0884  1.7067  1.2801
 3073SOL     OW20851   0.702   0.795   8.202  0.5544 -0.2270 -0.0251
 3073SOL    HW120852   0.793   0.773   8.186  0.6141  0.8109 -1.1270
 3073SOL    HW220853   0.704   0.795   8.298  0.6598  1.4698 -0.0222
 3074SOL     OW20854   3.310   0.168   4.965 -0.5114 -0.3409 -0.6608
 3074SOL    HW120855   3.357   0.103   4.913  0.3302  0.6029 -1.0889
 3074SOL    HW220856   3.241   0.193   4.904 -1.9653  0.0962  1.1973
 3075SOL     OW20857   0.272   1.563   6.125  0.1979  0.8046 -0.8450
 3075SOL    HW120858   0.273   1.524   6.213  0.1386 -0.6591 -1.5062
 3075SOL    HW220859   0.195   1.519   6.089  0.3357  0.0258 -0.1702
 3076SOL     OW20860   1.785   0.987  12.752  0.0640 -0.1872 -0.1219
 3076SOL    HW120861   1.769   0.894  12.766 -3.3105  0.2116 -1.5426
 3076SOL    HW220862   1.717   1.034  12.799 -1.3360 -1.2691 -1.0782
 3077SOL     OW20863   3.405   1.568  15.648  0.2684  0.1738 -0.1235
 3077SOL    HW120864   3.444   1.531  15.727  2.0459  0.4347 -0.8628
 3077SOL    HW220865   3.357   1.643  15.683  0.0455  0.5186 -1.1541
 3078SOL     OW20866   2.622   4.354   2.947  0.6876  0.2732 -0.4191
 3078SOL    HW120867   2.540   4.364   2.995  0.9328  2.5625 -0.4695
 3078SOL    HW220868   2.672   4.299   3.008 -1.4165  1.1831  2.1338
 3079SOL     OW20869   1.883   3.120   0.094 -0.3916 -0.3893  0.7195
 3079SOL    HW120870   1.810   3.086   0.043 -0.7283 -1.0109  1.6247
 3079SOL    HW220871   1.958   3.081   0.049 -0.9857 -1.3596  0.5583
 3080SOL     OW20872   2.473   2.141   3.925  0.3801 -0.1164 -0.0241
 3080SOL    HW120873   2.396   2.084   3.920  0.2475  0.1200 -0.7161
 3080SOL    HW220874   2.508   2.122   4.012  0.1465  1.1129  0.3394
 3081SOL     OW20875   0.339   0.291   2.822  0.3760 -0.0560  0.5262
 3081SOL    HW120876   0.248   0.316   2.839  0.4966  1.0094 -0.4023
 3081SOL    HW220877   0.355   0.226   2.890  0.3024  0.8494  1.4210
 3082SOL     OW20878   0.534   2.597   2.123 -0.6785  0.4601 -0.0064
 3082SOL    HW120879   0.564   2.664   2.184  0.5576  0.1995 -0.3197
 3082SOL    HW220880   0.494   2.652   2.055  0.2238  1.3070  0.1583
 3083SOL     OW20881   3.855   1.928  10.390  0.1958 -0.2359 -0.3421
 3083SOL    HW120882   3.875   1.951  10.481 -0.6420 -2.3069  0.3706
 3083SOL    HW220883   3.811   2.009  10.365 -1.7698 -1.3111 -0.2853
 3084SOL     OW20884   2.518   3.033   4.211  0.3397 -0.0946  0.1353
 3084SOL    HW120885   2.537   2.967   4.278 -0.6232 -2.1406 -1.5886
 3084SOL    HW220886   2.586   3.018   4.145 -0.2476  0.1382 -0.5245
 3085SOL     OW20887   3.233   3.494   8.685 -0.3714 -0.4308 -0.4845
 3085SOL    HW120888   3.217   3.560   8.618  1.3491 -0.1272 -0.5950
 3085SOL    HW220889   3.223   3.545   8.766  0.0896  2.9000 -2.5206
 3086SOL     OW20890   0.434   4.427   8.818 -0.4588  0.2878  0.8419
 3086SOL    HW120891   0.500   4.372   8.776  0.4489  0.7894  1.6131
 3086SOL    HW220892   0.485   4.493   8.866  1.5852 -2.0749  1.9540
 3087SOL     OW20893   2.341   2.359   4.935  0.3391  0.4601  0.2073
 3087SOL    HW120894   2.360   2.451   4.917 -1.0865  0.3254 -2.0131
 3087SOL    HW220895   2.415   2.336   4.992  0.7128  0.8896 -0.0981
 3088SOL     OW20896   4.338   2.794   4.742 -0.0959 -0.7868 -0.0908
 3088SOL    HW120897   4.252   2.767   4.710  0.7941 -1.0977 -2.1890
 3088SOL    HW220898   4.304   2.844   4.817  2.0220  0.0464  0.3170
 3089SOL     OW20899   0.273   3.757   5.908  0.3155 -0.6891  0.6532
 3089SOL    HW120900   0.244   3.790   5.824  0.0300 -0.2824  0.9107
 3089SOL    HW220901   0.275   3.840   5.956 -2.1822 -0.9253  1.1587
 3090SOL     OW20902   4.563   1.264   5.225  0.2770  0.3897  0.0852
 3090SOL    HW120903   4.604   1.181   5.201 -0.4875  1.0103 -3.4345
 3090SOL    HW220904   4.630   1.304   5.280 -0.2032  1.8801 -0.4098
 3091SOL     OW20905   1.438   2.733  13.462 -0.7620 -0.3217 -0.2439
 3091SOL    HW120906   1.507   2.692  13.411 -0.8322  1.4508 -1.7916
 3091SOL    HW220907   1.498   2.798  13.499  0.4145 -1.2183 -0.5937
 3092SOL     OW20908   4.459   3.633   3.618 -0.4006 -0.0096 -0.0637
 3092SOL    HW120909   4.456   3.604   3.709  0.8023 -1.2226 -0.4195
 3092SOL    HW220910   4.444   3.548   3.577 -0.9674 -0.2176  0.5633
 3093SOL     OW20911   1.868   4.417  11.874  0.0258  0.0475  0.1222
 3093SOL    HW120912   1.933   4.480  11.842 -0.4924 -0.4465 -1.8801
 3093SOL    HW220913   1.899   4.388  11.960  2.3849  0.8745 -0.4702
 3094SOL     OW20914   0.720   4.092  11.328 -0.5205 -0.3197  0.3798
 3094SOL    HW120915   0.797   4.119  11.379 -0.2664  0.4914 -0.4268
 3094SOL    HW220916   0.657   4.133  11.388 -0.0591 -2.2555  2.1966
 3095SOL     OW20917   2.434   4.716  17.683 -0.5713  0.0122 -0.4277
 3095SOL    HW120918   2.454   4.680   0.021  0.9177  1.0265 -0.3547
 3095SOL    HW220919   2.356   4.664  17.663  0.4764 -0.8461 -2.3066
 3096SOL     OW20920   0.555   1.258  12.652 -0.5030  0.0112 -0.0029
 3096SOL    HW120921   0.596   1.173  12.666 -2.9453 -0.4587  4.2474
 3096SOL    HW220922   0.607   1.290  12.578 -0.3593 -1.0855 -0.3703
 3097SOL     OW20923   4.628   4.562   8.224 -0.0478 -0.1746 -0.4627
 3097SOL    HW120924   4.722   4.545   8.237 -0.0005 -0.1358 -0.7578
 3097SOL    HW220925   4.596   4.489   8.171  0.6977  0.3030 -1.5733
 3098SOL     OW20926   1.396   3.231  12.807 -0.0833  0.2980 -0.2909
 3098SOL    HW120927   1.458   3.218  12.879 -1.5480  1.2996  1.1736
 3098SOL    HW220928   1.433   3.306  12.762  0.7939  0.5722  0.8807
 3099SOL     OW20929   0.005   0.579   9.145  0.6460 -0.2795 -0.5098
 3099SOL    HW120930   4.718   0.592   9.237 -0.4424 -0.5189 -0.7724
 3099SOL    HW220931   4.723   0.489   9.119  0.8974 -0.6003  0.3992
 3100SOL     OW20932   3.338   2.871   6.931  0.7274 -0.2179  0.2160
 3100SOL    HW120933   3.269   2.922   6.889  0.1198 -1.6034 -0.4604
 3100SOL    HW220934   3.406   2.938   6.922  0.6647 -0.4729 -2.0507
 3101SOL     OW20935   1.486   0.478   7.793 -0.4220  0.0775 -0.7255
 3101SOL    HW120936   1.399   0.442   7.775 -0.3224 -1.1430  1.1968
 3101SOL    HW220937   1.512   0.510   7.707  0.9079  1.1737  0.0829
 3102SOL     OW20938   0.476   1.816   9.793  0.1679  0.5186  0.2643
 3102SOL    HW120939   0.441   1.868   9.866 -0.1771  1.8048 -0.8290
 3102SOL    HW220940   0.455   1.725   9.818 -1.9104  0.3887 -2.0192
 3103SOL     OW20941   1.032   2.147   1.201  0.1782  0.1263  0.3753
 3103SOL    HW120942   0.975   2.185   1.135 -0.6768  0.2737  1.1912
 3103SOL    HW220943   1.100   2.112   1.143 -2.2136 -1.1935 -1.6634
 3104SOL     OW20944   4.131   2.972   3.184 -0.0803  0.9178  0.4288
 3104SOL    HW120945   4.216   2.949   3.220 -0.7678 -1.0775  0.7319
 3104SOL    HW220946   4.112   2.890   3.139  3.8967  0.5194 -0.4897
 3105SOL     OW20947   3.307   1.053   6.905  0.6987  0.0074 -0.4580
 3105SOL    HW120948   3.392   1.028   6.942  1.0998 -0.5342 -1.7565
 3105SOL    HW220949   3.337   1.137   6.870 -0.8927  0.6990 -0.1595
 3106SOL     OW20950   3.587   0.251   5.079  0.2889 -0.4006  0.1149
 3106SOL    HW120951   3.515   0.214   5.028  0.1145  1.1063 -0.7201
 3106SOL    HW220952   3.650   0.181   5.064 -1.5495 -2.2565  1.1519
 3107SOL     OW20953   3.405   4.094  12.992 -0.4802 -0.2041 -0.1657
 3107SOL    HW120954   3.355   4.043  13.055 -1.2564  0.7460 -0.0202
 3107SOL    HW220955   3.336   4.132  12.937  0.0575  1.7342  0.5175
 3108SOL     OW20956   4.229   0.019   2.096 -0.2968 -0.3798  0.2962
 3108SOL    HW120957   4.154   0.025   2.155 -1.0735 -0.7745 -0.6437
 3108SOL    HW220958   4.228   0.109   2.066 -0.0003 -0.3842  0.2767
 3109SOL     OW20959   3.641   2.641  14.744 -0.2184 -0.0137 -0.1293
 3109SOL    HW120960   3.615   2.731  14.724  0.6471  0.2315 -0.1337
 3109SOL    HW220961   3.574   2.584  14.706 -1.1111  1.1325 -0.2576
 3110SOL     OW20962   2.998   4.609   7.329  0.2130 -0.2180 -0.2235
 3110SOL    HW120963   2.972   4.695   7.362  3.9571  0.6242  0.4860
 3110SOL    HW220964   3.072   4.594   7.388 -0.7000 -2.1105  0.4338
 3111SOL     OW20965   3.529   2.177  17.593  0.7107  0.1399 -0.4075
 3111SOL    HW120966   3.487   2.258  17.624  0.5940 -0.6313  1.4435
 3111SOL    HW220967   3.458   2.114  17.590 -0.8435  1.8404  1.1335
 3112SOL     OW20968   3.535   4.702   6.945  0.3213 -1.0730 -0.4537
 3112SOL    HW120969   3.589   4.694   6.866 -0.6755 -2.1403 -1.0436
 3112SOL    HW220970   3.456   0.010   6.914 -0.1312 -2.0824 -0.7791
 3113SOL     OW20971   2.334   1.763  15.872  0.1118  0.0546 -0.0871
 3113SOL    HW120972   2.384   1.756  15.790 -0.5796  2.0849 -0.6904
 3113SOL    HW220973   2.265   1.822  15.841 -0.6819 -0.6504  0.3472
 3114SOL     OW20974   4.225   2.089  16.279  0.3139 -0.4347 -0.2984
 3114SOL    HW120975   4.194   2.081  16.189  0.1343 -2.6674 -0.0377
 3114SOL    HW220976   4.188   2.014  16.324 -0.1968 -0.6836 -1.1247
 3115SOL     OW20977   0.851   4.504   1.076  0.2192 -0.1716  0.1298
 3115SOL    HW120978   0.861   4.449   1.153 -0.2661  1.8669  1.6411
 3115SOL    HW220979   0.780   4.551   1.121  1.7806  2.2140  0.1295
 3116SOL     OW20980   3.544   2.165   3.530 -0.3914  0.4591  0.1685
 3116SOL    HW120981   3.578   2.253   3.544  2.6344 -0.5536 -0.7594
 3116SOL    HW220982   3.499   2.176   3.446 -0.4000  0.0927  0.1266
 3117SOL     OW20983   4.673   0.515   9.667 -0.7671  0.1734  0.1820
 3117SOL    HW120984   4.674   0.597   9.715 -2.1779 -0.3432  1.0843
 3117SOL    HW220985   4.586   0.482   9.690 -1.2567  1.9799  0.9054
 3118SOL     OW20986   1.818   2.856   6.411  0.0129 -0.2418 -0.1595
 3118SOL    HW120987   1.729   2.892   6.414 -0.4917 -1.6270  2.1109
 3118SOL    HW220988   1.832   2.824   6.500 -0.5286 -0.0180  0.0107
 3119SOL     OW20989   3.308   2.140   2.064 -0.0633  1.0069 -0.1063
 3119SOL    HW120990   3.333   2.064   2.117  2.6369  0.4574 -2.1476
 3119SOL    HW220991   3.273   2.105   1.981  1.3814  2.6582 -1.4003
 3120SOL     OW20992   1.857   4.059   8.358 -0.3484 -0.2141 -0.1966
 3120SOL    HW120993   1.779   4.025   8.402  0.3030  1.0843  1.9904
 3120SOL    HW220994   1.839   4.153   8.366  1.8288  0.3676 -2.1842
 3121SOL     OW20995   2.910   1.495   7.496  0.2173 -0.0901  0.0204
 3121SOL    HW120996   2.921   1.550   7.574 -0.6155  1.0641 -0.6707
 3121SOL    HW220997   2.906   1.566   7.431 -0.3324  1.0471  1.2980
 3122SOL     OW20998   3.470   2.615  14.325  0.4086 -0.0434  0.3553
 3122SOL    HW120999   3.443   2.551  14.391 -0.1986 -0.3113 -0.1448
 3122SOL    HW221000   3.381   2.651  14.318  0.3764 -0.4650 -1.5822
 3123SOL     OW21001   1.062   1.573   0.402 -0.0378 -0.0690  0.3684
 3123SOL    HW121002   0.996   1.579   0.471  0.6592 -1.8134  1.2060
 3123SOL    HW221003   1.017   1.524   0.334  2.0562 -0.0144 -1.0539
 3124SOL     OW21004   0.958   0.145   0.204 -0.2407  0.4639 -0.2621
 3124SOL    HW121005   0.977   0.094   0.125  0.0280 -1.0480  0.7853
 3124SOL    HW221006   0.990   0.234   0.189 -1.9697  1.4768  1.9635
 3125SOL     OW21007   0.008   0.949  12.075  0.4076 -0.1758  0.9122
 3125SOL    HW121008   4.683   1.016  12.102 -0.6306 -0.6006 -0.4272
 3125SOL    HW221009   4.734   0.901  12.156  2.4024  0.0807  1.3577
 3126SOL     OW21010   1.829   2.097   7.269 -0.2033 -0.0095 -0.3589
 3126SOL    HW121011   1.855   2.080   7.178 -0.4556 -0.7318 -0.2973
 3126SOL    HW221012   1.802   2.010   7.298  0.7963 -0.2232 -0.0841
 3127SOL     OW21013   4.494   2.566  14.225  0.0508  0.2074 -0.1127
 3127SOL    HW121014   4.476   2.502  14.156 -3.2199  0.1263  0.8012
 3127SOL    HW221015   4.474   2.515  14.304 -0.0242  1.0452  0.4037
 3128SOL     OW21016   2.825   1.369  10.922 -0.0018  0.2752  0.1443
 3128SOL    HW121017   2.751   1.390  10.980  0.2255 -0.6293  0.7556
 3128SOL    HW221018   2.824   1.275  10.908  0.7391 -0.0395  2.2904
 3129SOL     OW21019   0.794   2.848  14.360  0.3004 -0.4859 -0.5842
 3129SOL    HW121020   0.726   2.824  14.297 -1.8061  0.3413  1.3347
 3129SOL    HW221021   0.856   2.786  14.322 -0.6327 -0.7483 -1.6823
 3130SOL     OW21022   3.575   1.838   3.309  0.1070 -0.2864 -0.1054
 3130SOL    HW121023   3.580   1.782   3.231 -2.4698 -1.6078  0.6544
 3130SOL    HW221024   3.608   1.770   3.367  1.2721  2.3937  2.3497
 3131SOL     OW21025   2.071   0.302   5.349  0.4178 -0.3572  0.5899
 3131SOL    HW121026   1.995   0.337   5.395 -0.6470 -1.5164 -0.3202
 3131SOL    HW221027   2.029   0.255   5.277 -0.3397  0.3521  0.5696
 3132SOL     OW21028   3.017   0.383  12.934  0.1982 -0.4503  0.1314
 3132SOL    HW121029   2.949   0.416  12.875 -0.2393  0.1516  0.9629
 3132SOL    HW221030   2.972   0.305  12.966  1.0896 -1.2768 -0.6417
 3133SOL     OW21031   2.974   4.652   4.484  0.1015  0.1156  0.0036
 3133SOL    HW121032   2.985   0.009   4.477 -0.6197 -0.0209 -2.9735
 3133SOL    HW221033   2.992   4.625   4.394  3.4887  0.7944  0.4471
 3134SOL     OW21034   0.461   1.510   2.020  0.0700  0.2356 -0.3893
 3134SOL    HW121035   0.428   1.484   2.106 -2.5637 -1.3849 -1.8976
 3134SOL    HW221036   0.545   1.464   2.013 -0.0324 -0.0270  0.1270
 3135SOL     OW21037   1.826   4.723   6.842 -0.3620  0.0804  0.1982
 3135SOL    HW121038   1.896   0.050   6.852  0.1280 -0.2523 -1.0500
 3135SOL    HW221039   1.859   4.677   6.765  2.5720 -0.9447  2.0649
 3136SOL     OW21040   2.200   0.178   8.720  0.2626 -0.3567  0.4755
 3136SOL    HW121041   2.226   0.267   8.697  3.7776 -1.1591  1.3236
 3136SOL    HW221042   2.283   0.130   8.714 -0.7102 -1.9816  0.1097
 3137SOL     OW21043   0.331   1.415   3.584  0.3339  0.3574 -0.0124
 3137SOL    HW121044   0.391   1.343   3.605 -0.7723 -0.4661  0.3385
 3137SOL    HW221045   0.363   1.480   3.646 -1.1561 -0.1467  1.2801
 3138SOL     OW21046   4.106   4.029   2.380  0.3923 -0.1197 -0.0999
 3138SOL    HW121047   4.083   4.003   2.291  0.4198  1.6239 -0.6327
 3138SOL    HW221048   4.177   3.970   2.403  0.9891  0.6124 -0.0505
 3139SOL     OW21049   2.892   3.090   2.843  0.4371 -0.1707 -0.2201
 3139SOL    HW121050   2.958   3.022   2.831  3.2827  2.4001  0.6662
 3139SOL    HW221051   2.916   3.148   2.770 -1.0190  1.1524  0.3499
 3140SOL     OW21052   0.571   0.080  16.522 -0.0642 -0.1629 -0.2048
 3140SOL    HW121053   0.611   4.737  16.490 -2.0175 -0.3611 -2.1423
 3140SOL    HW221054   0.620   0.140  16.465  0.1492 -1.2848 -1.1904
 3141SOL     OW21055   1.659   3.269   7.451  0.3096 -0.2709  0.1499
 3141SOL    HW121056   1.593   3.310   7.394 -0.7279  0.3450  1.7760
 3141SOL    HW221057   1.608   3.248   7.530 -2.6936 -2.3205 -2.3466
 3142SOL     OW21058   0.338   2.992   0.750 -0.3472 -0.0651 -0.0985
 3142SOL    HW121059   0.357   3.075   0.794  0.1645  0.5123 -1.4086
 3142SOL    HW221060   0.276   2.949   0.809 -1.5875 -0.9629 -2.0576
 3143SOL     OW21061   0.927   1.446   7.702 -0.3256  0.5901 -0.6568
 3143SOL    HW121062   0.891   1.528   7.735  1.4806  0.5137  1.5129
 3143SOL    HW221063   0.852   1.391   7.725 -0.8568  1.6088  0.0723
 3144SOL     OW21064   3.058   0.382   6.560  0.0802 -0.1329 -0.6789
 3144SOL    HW121065   3.018   0.462   6.527  0.7803  0.6654  0.4028
 3144SOL    HW221066   3.001   0.321   6.512  0.1511  0.4666 -1.5037
 3145SOL     OW21067   1.093   2.712  15.885  0.1287  0.7290 -0.0038
 3145SOL    HW121068   1.039   2.779  15.844 -0.1357  0.6146  0.1543
 3145SOL    HW221069   1.048   2.717  15.970  2.8153  2.4859  1.2878
 3146SOL     OW21070   2.308   4.571  15.551 -0.0819 -0.1851 -0.3339
 3146SOL    HW121071   2.288   4.653  15.595  0.4289 -0.2637  0.0441
 3146SOL    HW221072   2.355   4.599  15.472 -2.6598  0.8250 -1.5125
 3147SOL     OW21073   4.239   3.417   2.433 -0.6593  0.3687 -0.1710
 3147SOL    HW121074   4.299   3.368   2.489 -0.5241 -1.9658 -2.3550
 3147SOL    HW221075   4.236   3.493   2.491  2.6438  1.2792 -1.1796
 3148SOL     OW21076   3.547   1.677   7.385  0.0004 -0.2419 -0.0842
 3148SOL    HW121077   3.497   1.598   7.406  1.5615 -1.3620 -0.5887
 3148SOL    HW221078   3.615   1.661   7.451  1.8091 -0.1937 -1.9550
 3149SOL     OW21079   4.491   0.554   8.636 -0.0147 -0.1474  0.5330
 3149SOL    HW121080   4.456   0.590   8.718  1.3012  0.7212  0.7067
 3149SOL    HW221081   4.557   0.499   8.679  1.9110 -0.5464 -2.9245
 3150SOL     OW21082   0.498   2.734   7.560  0.7416 -0.1360 -0.5894
 3150SOL    HW121083   0.561   2.776   7.501 -0.5838  0.9214 -1.2554
 3150SOL    HW221084   0.506   2.641   7.540 -1.1491 -0.2895 -0.6900
 3151SOL     OW21085   3.394   2.056   0.161  0.5440 -0.2787 -0.1851
 3151SOL    HW121086   3.424   2.035   0.072 -2.4068  2.4816 -1.8032
 3151SOL    HW221087   3.300   2.060   0.143  0.4596 -1.9025 -0.0581
 3152SOL     OW21088   0.487   4.540  11.869  0.0604  0.5065 -0.7507
 3152SOL    HW121089   0.547   4.473  11.900  2.0257  2.0889 -1.1565
 3152SOL    HW221090   0.481   4.511  11.778 -1.2417 -0.9899 -0.1850
 3153SOL     OW21091   4.041   3.016  14.483  0.2204 -0.4210 -0.1075
 3153SOL    HW121092   3.950   2.996  14.461  0.0291  0.3737 -0.0360
 3153SOL    HW221093   4.019   3.098  14.528  1.3399  0.7499 -1.6938
 3154SOL     OW21094   4.672   2.721   5.772  0.6776  0.0868 -0.0777
 3154SOL    HW121095   4.720   2.723   5.855 -0.1083  0.0300  0.3740
 3154SOL    HW221096   4.728   2.660   5.724  0.4410  1.3700 -1.9801
 3155SOL     OW21097   0.157   0.695   6.070 -0.1222  0.0221 -1.2020
 3155SOL    HW121098   0.216   0.642   6.016  0.8502  0.4456 -0.5504
 3155SOL    HW221099   0.224   0.739   6.123  2.0828 -3.2434 -1.2102
 3156SOL     OW21100   3.586   2.516   2.630 -0.2228  0.0304 -0.0483
 3156SOL    HW121101   3.604   2.424   2.649 -1.6306  0.2115  2.1822
 3156SOL    HW221102   3.490   2.511   2.633 -0.2776  0.2629 -1.4306
 3157SOL     OW21103   1.957   2.572   7.229 -0.4372 -0.0743  0.1133
 3157SOL    HW121104   1.986   2.661   7.206  0.9149 -0.4748  0.2417
 3157SOL    HW221105   1.933   2.584   7.321 -0.4226 -0.2021  0.1332
 3158SOL     OW21106   4.171   3.109  15.004 -0.3842  0.0275 -0.2883
 3158SOL    HW121107   4.206   3.187  14.961 -1.8816 -0.1688 -1.8698
 3158SOL    HW221108   4.249   3.086  15.054 -2.2937  0.2194  2.8056
 3159SOL     OW21109   3.268   0.274   7.085 -0.1798 -0.3166  0.1551
 3159SOL    HW121110   3.277   0.257   7.178 -2.3995 -1.8945  0.0792
 3159SOL    HW221111   3.339   0.333   7.061  0.7995 -0.2405  3.3062
 3160SOL     OW21112   2.959   2.406   9.460  0.0136  0.0789 -0.3714
 3160SOL    HW121113   2.879   2.450   9.433  0.4339  0.5879 -0.7949
 3160SOL    HW221114   2.953   2.322   9.416 -2.2701 -1.1660  2.3450
 3161SOL     OW21115   3.824   3.749   1.859  0.0420  0.3449 -0.3241
 3161SOL    HW121116   3.751   3.771   1.801 -1.7849  0.9377  2.1745
 3161SOL    HW221117   3.787   3.748   1.947 -0.9874 -2.1543 -0.7808
 3162SOL     OW21118   1.402   1.871   3.484 -0.1531 -0.1640  0.1703
 3162SOL    HW121119   1.366   1.915   3.407 -0.2473 -2.3329 -1.0268
 3162SOL    HW221120   1.364   1.928   3.550  0.9422  0.8368 -0.0689
 3163SOL     OW21121   2.724   4.504   1.644 -0.0226  0.1405 -0.1216
 3163SOL    HW121122   2.694   4.595   1.649  1.5645  0.6653 -0.2731
 3163SOL    HW221123   2.817   4.514   1.622 -0.4561  1.8938 -1.1707
 3164SOL     OW21124   1.485   4.247   4.530  0.3752  0.1305 -0.4980
 3164SOL    HW121125   1.451   4.207   4.449  0.1722 -0.4289 -0.1402
 3164SOL    HW221126   1.505   4.160   4.565  3.7682  0.3201 -1.9430
 3165SOL     OW21127   3.275   1.076  10.240 -0.5824 -0.0448  0.2978
 3165SOL    HW121128   3.364   1.067  10.275 -0.7980 -1.0091  0.6011
 3165SOL    HW221129   3.294   1.020  10.165 -1.6054 -0.0166  0.0186
 3166SOL     OW21130   1.648   2.615  13.702  0.4504 -0.2989  0.4668
 3166SOL    HW121131   1.622   2.637  13.612  1.5468 -0.0940  0.2015
 3166SOL    HW221132   1.693   2.695  13.728 -0.2481  0.3162 -0.1893
 3167SOL     OW21133   1.521   0.619   7.420  0.5170 -0.5256 -0.6479
 3167SOL    HW121134   1.538   0.606   7.327 -2.7417  0.6506 -1.3948
 3167SOL    HW221135   1.428   0.598   7.423  0.3042  0.1584 -2.4366
 3168SOL     OW21136   4.307   1.251   1.552  0.1955  0.2852 -0.2614
 3168SOL    HW121137   4.238   1.318   1.542 -1.4035 -1.0545  1.7941
 3168SOL    HW221138   4.385   1.303   1.573  0.3099 -0.3948  0.9662
 3169SOL     OW21139   0.946   3.333  11.786 -0.1618 -0.4181 -0.0097
 3169SOL    HW121140   0.996   3.403  11.745 -2.3423  0.4948 -1.1259
 3169SOL    HW221141   0.899   3.296  11.711 -1.4871 -0.9887  1.0910
 3170SOL     OW21142   3.508   4.388   8.605  0.2803 -0.3762  0.3876
 3170SOL    HW121143   3.511   4.452   8.534  1.7561 -0.2729  0.5266
 3170SOL    HW221144   3.414   4.387   8.621  0.3371 -1.5107  0.6808
 3171SOL     OW21145   0.640   4.605   0.405  0.0252 -0.2409 -0.6064
 3171SOL    HW121146   0.596   4.542   0.462 -2.0241  0.6314 -1.2087
 3171SOL    HW221147   0.631   4.547   0.329  0.1343 -0.4726 -0.4428
 3172SOL     OW21148   0.077   3.020   5.847 -0.1764  0.5694 -0.5802
 3172SOL    HW121149   0.160   3.029   5.800 -1.1381 -0.7577 -2.5534
 3172SOL    HW221150   0.076   3.104   5.893  1.0512  0.2755 -0.0152
 3173SOL     OW21151   0.219   4.032   1.360 -0.2992  0.1093  1.1405
 3173SOL    HW121152   0.220   4.114   1.410  1.4346 -0.7413  2.5012
 3173SOL    HW221153   0.304   3.991   1.377  1.0715  2.1253 -0.8626
 3174SOL     OW21154   1.330   2.090   4.206  0.0537 -0.3158  0.2123
 3174SOL    HW121155   1.359   2.104   4.116 -0.1988 -3.1539 -0.3019
 3174SOL    HW221156   1.377   2.156   4.257 -0.4868 -0.8259  1.3634
 3175SOL     OW21157   1.347   2.058   3.290  0.1109 -0.2470 -0.3963
 3175SOL    HW121158   1.314   2.076   3.202 -0.7483  1.1818  0.2214
 3175SOL    HW221159   1.437   2.088   3.277  0.3023 -1.6988 -2.3844
 3176SOL     OW21160   1.518   1.527   3.218 -0.3550 -0.0884 -0.2173
 3176SOL    HW121161   1.524   1.603   3.276 -0.5810  0.5243 -0.9888
 3176SOL    HW221162   1.601   1.542   3.173 -1.3023  1.1174 -1.5811
 3177SOL     OW21163   3.401   4.293  13.732 -0.2075  0.6632  0.3030
 3177SOL    HW121164   3.428   4.358  13.667 -1.5009  0.5088 -0.3906
 3177SOL    HW221165   3.450   4.218  13.698 -0.6032 -0.1048  1.4249
 3178SOL     OW21166   1.575   0.181  11.524 -0.3581 -0.4873 -0.4195
 3178SOL    HW121167   1.565   0.276  11.517 -1.4612 -0.6922 -1.5467
 3178SOL    HW221168   1.488   0.152  11.496  0.2525 -2.2508 -0.4910
 3179SOL     OW21169   2.639   2.710   6.844  0.3548 -0.1519 -0.9149
 3179SOL    HW121170   2.665   2.783   6.787  4.7302 -0.3854  0.7817
 3179SOL    HW221171   2.710   2.647   6.836  0.6449 -0.0886  1.0080
 3180SOL     OW21172   4.588   1.970   4.277 -0.1731  0.5530  0.1595
 3180SOL    HW121173   4.496   1.944   4.289  0.2409 -0.1644  1.8390
 3180SOL    HW221174   4.614   2.019   4.355  0.3542  1.1735 -0.4032
 3181SOL     OW21175   4.365   4.496   9.572 -0.6139  0.0672 -0.7461
 3181SOL    HW121176   4.459   4.490   9.555 -0.3762  0.0292  0.6110
 3181SOL    HW221177   4.317   4.473   9.492  0.7500  0.0214 -1.5492
 3182SOL     OW21178   1.426   2.416  16.607  0.8244  0.3603 -0.3480
 3182SOL    HW121179   1.504   2.466  16.583 -0.3938  2.1482 -0.5905
 3182SOL    HW221180   1.431   2.428  16.702 -1.5146  0.5293 -0.2553
 3183SOL     OW21181   3.308   1.654   8.569 -0.0384  0.1923  0.1002
 3183SOL    HW121182   3.342   1.741   8.553 -0.9382  0.4247 -0.5281
 3183SOL    HW221183   3.367   1.625   8.639 -1.1185 -0.2620  0.8366
 3184SOL     OW21184   0.155   3.374   8.863  0.5502 -0.4318 -0.3837
 3184SOL    HW121185   0.104   3.334   8.793  0.9141 -1.8369  0.1659
 3184SOL    HW221186   0.248   3.355   8.846  0.8165 -0.0640  0.6180
 3185SOL     OW21187   0.095   3.447   2.800  0.3132  0.5315  0.3463
 3185SOL    HW121188   4.738   3.453   2.805  0.2957  0.0493  0.6406
 3185SOL    HW221189   0.108   3.542   2.798  2.4910  0.2330 -0.3489
 3186SOL     OW21190   4.506   1.439   6.901  0.0109 -0.5105 -0.4004
 3186SOL    HW121191   4.544   1.440   6.989  1.2955  0.4670 -0.9766
 3186SOL    HW221192   4.555   1.365   6.866  1.6424  1.0421 -1.4055
 3187SOL     OW21193   0.791   0.450   5.788 -0.1679  0.2442  0.4007
 3187SOL    HW121194   0.787   0.430   5.882 -1.1742  0.6047  0.4297
 3187SOL    HW221195   0.886   0.445   5.775 -0.4999 -1.3453 -1.4025
 3188SOL     OW21196   2.531   4.492   8.991  0.1338 -0.2777 -0.4560
 3188SOL    HW121197   2.447   4.475   8.948 -0.6615 -0.5520  1.2183
 3188SOL    HW221198   2.505   4.549   9.063  1.1090 -1.1479  0.5787
 3189SOL     OW21199   2.489   2.632   1.085  0.2109  0.2904 -0.0106
 3189SOL    HW121200   2.490   2.728   1.086  0.4265  0.3042 -1.2050
 3189SOL    HW221201   2.579   2.615   1.113 -0.1398 -0.8392  0.4507
 3190SOL     OW21202   2.743   2.731   2.827 -0.0706  0.4053  0.0932
 3190SOL    HW121203   2.724   2.824   2.842 -0.4715  0.5805 -1.5495
 3190SOL    HW221204   2.651   2.706   2.830 -0.0530  0.5258  2.1148
 3191SOL     OW21205   3.344   0.378   3.610  0.2739 -0.7388  0.3510
 3191SOL    HW121206   3.439   0.382   3.620  0.2605  3.1446 -1.1369
 3191SOL    HW221207   3.333   0.334   3.526  0.3866  2.8244 -1.5482
 3192SOL     OW21208   0.382   2.650   7.972  0.1811  0.4497  0.4940
 3192SOL    HW121209   0.319   2.704   7.926 -0.8590 -0.5878  0.6894
 3192SOL    HW221210   0.465   2.680   7.936  1.0631 -0.2950  1.8717
 3193SOL     OW21211   3.762   2.725   2.624 -0.1182 -0.6777 -0.3123
 3193SOL    HW121212   3.845   2.682   2.601  1.3846  0.4037  2.9939
 3193SOL    HW221213   3.699   2.654   2.634 -0.8153 -0.0270 -0.1139
 3194SOL     OW21214   0.321   0.271   3.791 -0.0545 -0.4695 -1.5593
 3194SOL    HW121215   0.415   0.281   3.806 -0.3173 -2.1238  1.1689
 3194SOL    HW221216   0.318   0.187   3.746 -2.3153 -0.8445 -0.7371
 3195SOL     OW21217   2.674   2.921  14.683 -0.0531  0.0432  0.4922
 3195SOL    HW121218   2.621   2.897  14.607 -0.7070 -0.3869  1.0750
 3195SOL    HW221219   2.703   2.835  14.714 -1.2497 -0.7022 -0.4595
 3196SOL     OW21220   4.389   2.721   2.072  0.4586  0.1242  0.3174
 3196SOL    HW121221   4.427   2.790   2.127  2.7503 -0.9886  0.1444
 3196SOL    HW221222   4.447   2.648   2.092  0.0301  0.2098  1.8776
 3197SOL     OW21223   3.293   1.306   4.104  0.4437  0.0232  0.1110
 3197SOL    HW121224   3.264   1.376   4.045 -1.5853 -1.2127 -0.3746
 3197SOL    HW221225   3.361   1.258   4.057 -1.5354 -0.7515 -1.9799
 3198SOL     OW21226   4.627   2.684   6.705 -0.0353  0.0207  0.1293
 3198SOL    HW121227   4.685   2.760   6.706 -1.3627  1.0249  1.3020
 3198SOL    HW221228   4.545   2.720   6.739 -0.3125 -0.6825  0.2069
 3199SOL     OW21229   3.387   2.693   5.219 -0.0846 -0.0610 -0.2274
 3199SOL    HW121230   3.418   2.614   5.263 -1.7893  1.2318  3.3162
 3199SOL    HW221231   3.375   2.757   5.290  0.3096  0.4816 -0.6454
 3200SOL     OW21232   2.694   0.658  12.545 -0.7308 -0.1444 -0.9276
 3200SOL    HW121233   2.628   0.624  12.485 -1.8025 -2.1834  1.4523
 3200SOL    HW221234   2.758   0.699  12.487 -1.2390  1.4728 -0.3284
 3201SOL     OW21235   0.004   3.080   8.267 -0.7317 -0.1775  0.0648
 3201SOL    HW121236   0.055   3.161   8.263 -3.9901  1.8463 -0.3293
 3201SOL    HW221237   0.070   3.011   8.263 -1.0010 -0.3768 -0.8227
 3202SOL     OW21238   3.572   4.701  17.530  0.0601  0.0043 -0.0141
 3202SOL    HW121239   3.662   4.668  17.525 -0.4363 -1.2057 -1.0346
 3202SOL    HW221240   3.582   0.058  17.526  1.2667 -0.0865  1.1367
 3203SOL     OW21241   4.081   3.201  15.839 -1.2687  0.2810 -0.4460
 3203SOL    HW121242   4.088   3.169  15.749 -3.4039  0.1100 -0.5601
 3203SOL    HW221243   4.061   3.119  15.884  0.5437 -0.2501 -0.6328
 3204SOL     OW21244   4.403   0.284   5.186  0.1659  0.1034 -0.0964
 3204SOL    HW121245   4.360   0.321   5.263 -0.1411 -1.3440  0.4247
 3204SOL    HW221246   4.340   0.218   5.157 -0.3716  0.2387  0.7521
 3205SOL     OW21247   2.281   3.348   1.531  0.1697  0.0505 -0.2346
 3205SOL    HW121248   2.222   3.302   1.471  1.3814 -2.8642  0.7958
 3205SOL    HW221249   2.227   3.360   1.609  1.5218  2.8883  0.2289
 3206SOL     OW21250   2.240   1.643   4.916  0.3845 -0.3125  0.4765
 3206SOL    HW121251   2.215   1.623   5.006 -0.6908  0.0284  0.2536
 3206SOL    HW221252   2.173   1.709   4.896 -0.2415 -1.0969 -0.0234
 3207SOL     OW21253   1.295   4.204   0.259  0.5635 -0.3063 -0.2250
 3207SOL    HW121254   1.285   4.165   0.346  1.0097  0.8160  0.3261
 3207SOL    HW221255   1.212   4.252   0.250 -0.8395 -2.4651  1.2117
 3208SOL     OW21256   3.280   4.462   1.945  0.2261 -0.2102 -0.3913
 3208SOL    HW121257   3.314   4.423   1.864  0.9924 -1.6193  0.6018
 3208SOL    HW221258   3.218   4.394   1.974 -1.4212  0.6432 -1.8882
 3209SOL     OW21259   0.574   0.057   6.979  0.3678  0.4271 -0.7547
 3209SOL    HW121260   0.492   0.087   7.017  1.0421 -0.8183  1.6819
 3209SOL    HW221261   0.621   0.052   7.063  0.1873  3.6047 -0.4306
 3210SOL     OW21262   3.312   3.884   7.328 -0.3695 -0.0271 -0.8574
 3210SOL    HW121263   3.320   3.892   7.233 -1.2248 -1.6163 -1.0687
 3210SOL    HW221264   3.220   3.857   7.332 -0.1994 -0.2558  1.2242
 3211SOL     OW21265   4.027   2.341  11.724  0.4539 -0.0550  0.1895
 3211SOL    HW121266   4.090   2.301  11.663  1.4920  1.4785  0.2557
 3211SOL    HW221267   3.954   2.280  11.715  1.7991 -1.6654  0.1470
 3212SOL     OW21268   4.366   4.008   1.955  0.5723 -0.3861  0.0727
 3212SOL    HW121269   4.381   3.928   2.005 -0.2790  0.0494  1.0214
 3212SOL    HW221270   4.354   4.074   2.023 -1.2522 -0.9747  0.3252
 3213SOL     OW21271   4.358   2.396   4.231  0.0729  0.0458 -0.1925
 3213SOL    HW121272   4.421   2.466   4.247 -0.8812  0.9207 -0.2163
 3213SOL    HW221273   4.411   2.339   4.175  0.4396  1.9662 -1.8066
 3214SOL     OW21274   0.171   0.053   7.741  0.3020  0.2409 -0.2939
 3214SOL    HW121275   0.132   0.045   7.828 -2.3262 -0.9408 -1.5720
 3214SOL    HW221276   0.248   4.734   7.747  1.2592  1.3577 -2.0292
 3215SOL     OW21277   0.293   1.110   4.934  0.0440 -0.2970 -0.0819
 3215SOL    HW121278   0.257   1.083   5.018 -2.0125  0.8393 -0.5934
 3215SOL    HW221279   0.222   1.165   4.902 -0.6727 -0.0476  1.9754
 3216SOL     OW21280   3.950   4.224  17.023 -0.4247  0.4713 -0.0410
 3216SOL    HW121281   4.043   4.233  17.045 -0.7910  1.3227  1.1920
 3216SOL    HW221282   3.943   4.267  16.937  1.6065 -2.8257 -1.8499
 3217SOL     OW21283   2.652   3.504   5.391  1.0374  0.1774 -0.4135
 3217SOL    HW121284   2.607   3.576   5.346  1.2554  1.3207  1.1919
 3217SOL    HW221285   2.665   3.452   5.312 -0.9587 -0.9052 -0.0558
 3218SOL     OW21286   4.588   3.521   7.393  0.1256  0.2020  0.4010
 3218SOL    HW121287   4.568   3.583   7.322 -1.4717  1.8565  2.3079
 3218SOL    HW221288   4.552   3.562   7.472  0.4140 -0.0580  0.6674
 3219SOL     OW21289   2.822   0.030   8.651 -0.0632  0.0171 -0.4821
 3219SOL    HW121290   2.758   4.709   8.612  1.1049 -0.1800 -2.0788
 3219SOL    HW221291   2.795   0.120   8.631  1.5689 -0.0846 -3.0105
 3220SOL     OW21292   4.296   1.273   6.986 -0.1662 -0.5242  0.1562
 3220SOL    HW121293   4.314   1.367   6.981 -1.8598 -0.2888 -1.8417
 3220SOL    HW221294   4.338   1.248   6.903 -2.0747  0.0914 -0.9990
 3221SOL     OW21295   0.273   2.062   5.526  0.1553  0.2542 -0.1377
 3221SOL    HW121296   0.221   2.007   5.584  0.3540  0.1569 -0.0513
 3221SOL    HW221297   0.208   2.115   5.481 -0.9057 -2.3142 -1.5604
 3222SOL     OW21298   2.661   2.504  11.034  0.2817 -0.0966 -0.4265
 3222SOL    HW121299   2.588   2.500  10.972  0.9811 -0.7193 -1.2039
 3222SOL    HW221300   2.686   2.595  11.017  0.8099 -0.0141  0.7832
 3223SOL     OW21301   3.107   0.482  17.260  0.4655 -0.0184  0.4932
 3223SOL    HW121302   3.046   0.470  17.187  0.2305 -0.1946  0.7177
 3223SOL    HW221303   3.191   0.475  17.215 -1.0511 -1.1597 -2.1904
 3224SOL     OW21304   1.454   1.734   8.593  0.0668  0.0330  0.0147
 3224SOL    HW121305   1.439   1.680   8.515 -1.0019 -1.1208  1.0188
 3224SOL    HW221306   1.544   1.703   8.606 -0.6123 -2.4682 -1.1455
 3225SOL     OW21307   2.992   2.064  15.659  0.4861  0.6830  0.1920
 3225SOL    HW121308   2.907   2.098  15.684 -0.4317 -0.9144 -0.7455
 3225SOL    HW221309   3.013   2.112  15.580  0.3316  0.5793  0.0876
 3226SOL     OW21310   0.761   2.359   1.603  0.1526  0.6925  0.0362
 3226SOL    HW121311   0.769   2.367   1.698 -1.7604  0.2353  0.2427
 3226SOL    HW221312   0.843   2.331   1.562  0.1221  0.0129  0.4353
 3227SOL     OW21313   2.730   3.098  15.026 -0.2764  0.3917  0.1393
 3227SOL    HW121314   2.658   3.126  15.083 -1.2304 -0.0002 -0.8774
 3227SOL    HW221315   2.769   3.040  15.092  0.6770  1.7197  0.7448
 3228SOL     OW21316   4.128   4.573   6.533 -0.4609 -0.1392  0.2460
 3228SOL    HW121317   4.109   4.484   6.503 -0.1282 -0.6457  1.5380
 3228SOL    HW221318   4.223   4.567   6.544 -0.1929 -0.5326 -2.2238
 3229SOL     OW21319   1.262   3.433   9.093 -0.0308  0.0973 -0.0021
 3229SOL    HW121320   1.324   3.470   9.156  0.3019  1.7330 -1.2910
 3229SOL    HW221321   1.199   3.400   9.156  1.2443 -0.6976  0.8643
 3230SOL     OW21322   0.391   3.717   3.374 -0.4659 -0.2995  0.4957
 3230SOL    HW121323   0.420   3.807   3.361 -0.0174 -0.5465 -0.2014
 3230SOL    HW221324   0.358   3.694   3.287 -1.2030  0.3255  0.6076
 3231SOL     OW21325   0.882   0.118   9.389 -0.0470  0.2743  0.0102
 3231SOL    HW121326   0.860   0.206   9.358 -1.3382 -0.1824 -0.3961
 3231SOL    HW221327   0.973   0.136   9.412  0.3563 -0.6531 -0.8458
 3232SOL     OW21328   1.953   0.850   2.906 -0.4134  0.2924 -0.0982
 3232SOL    HW121329   1.882   0.831   2.967 -1.1890  1.7994 -0.5300
 3232SOL    HW221330   1.917   0.796   2.835  1.9105  3.2962 -3.6168
 3233SOL     OW21331   2.904   1.288   7.801 -0.1552 -0.1380 -0.0269
 3233SOL    HW121332   2.956   1.220   7.845 -1.2430 -1.5985 -1.0113
 3233SOL    HW221333   2.876   1.336   7.879  1.7700  0.4567  0.3137
 3234SOL     OW21334   3.959   1.865  16.540  0.1627  0.3406 -0.2534
 3234SOL    HW121335   4.025   1.843  16.474  0.9805  0.6599  0.4440
 3234SOL    HW221336   3.942   1.785  16.590  1.4279  0.8045  0.9342
 3235SOL     OW21337   3.424   3.106   6.591 -0.1811  0.0762 -0.2501
 3235SOL    HW121338   3.469   3.129   6.510 -2.3382  1.5001 -1.0359
 3235SOL    HW221339   3.348   3.163   6.592 -0.4167 -0.1973 -2.2252
 3236SOL     OW21340   0.434   2.729   1.057 -1.1354 -0.2141  0.3300
 3236SOL    HW121341   0.374   2.746   1.130 -1.2518  0.5361  0.0628
 3236SOL    HW221342   0.441   2.635   1.072 -2.0607 -0.3654 -0.1843
 3237SOL     OW21343   1.969   2.447  15.124  0.8080 -0.1680  0.2860
 3237SOL    HW121344   1.949   2.509  15.054  0.2638 -1.3692 -0.6167
 3237SOL    HW221345   1.884   2.420  15.159  0.0146  2.1536  0.1493
 3238SOL     OW21346   2.572   1.080   2.196  0.0215  0.5324 -0.2623
 3238SOL    HW121347   2.561   1.146   2.263 -1.1879  0.7489 -0.6773
 3238SOL    HW221348   2.667   1.064   2.198 -0.3040 -0.9068  3.9045
 3239SOL     OW21349   0.944   0.240  17.377 -0.1414 -0.0127 -0.6777
 3239SOL    HW121350   0.935   0.319  17.322 -0.9406  0.8628  0.7258
 3239SOL    HW221351   0.858   0.201  17.360 -0.7650  0.8017  0.5549
 3240SOL     OW21352   0.752   0.428   4.342 -0.2897  0.2357  0.7070
 3240SOL    HW121353   0.671   0.435   4.391 -1.5616 -0.5580 -1.2815
 3240SOL    HW221354   0.814   0.376   4.394  1.4799  1.2756 -0.3472
 3241SOL     OW21355   0.518   4.355  13.316  0.1642 -0.5666  0.2393
 3241SOL    HW121356   0.528   4.314  13.402 -1.4519  0.4257  0.8938
 3241SOL    HW221357   0.491   4.273  13.275  0.8802 -0.9354  0.4972
 3242SOL     OW21358   2.865   3.313   8.391 -0.2293  0.1727  0.0945
 3242SOL    HW121359   2.926   3.274   8.454 -0.6705 -1.0463 -0.2167
 3242SOL    HW221360   2.862   3.236   8.334 -0.3069  0.6415 -0.5270
 3243SOL     OW21361   4.062   1.744   2.721 -0.2189 -0.8021  0.6295
 3243SOL    HW121362   4.126   1.814   2.703  0.5362 -1.7616 -0.4409
 3243SOL    HW221363   4.109   1.673   2.677  0.9551 -0.6118  1.5821
 3244SOL     OW21364   2.884   4.013   6.863 -0.3117  0.0134  0.3043
 3244SOL    HW121365   2.935   4.089   6.835 -0.3336 -0.7704 -1.8899
 3244SOL    HW221366   2.825   4.048   6.930 -0.1481  0.5837  0.1545
 3245SOL     OW21367   4.214   4.003   7.231  0.1825  0.3778 -0.5943
 3245SOL    HW121368   4.242   3.935   7.291  0.5807  0.4044 -0.7493
 3245SOL    HW221369   4.206   3.947   7.154  0.6774 -0.8208  0.2276
 3246SOL     OW21370   4.268   2.834  14.872  0.7726  0.3970 -0.0356
 3246SOL    HW121371   4.217   2.849  14.951  0.8249  3.0638 -0.5186
 3246SOL    HW221372   4.207   2.834  14.798  0.5721 -0.9455  0.1290
 3247SOL     OW21373   3.480   2.378  13.397  0.2822 -0.0482  0.0179
 3247SOL    HW121374   3.398   2.381  13.447  0.2801 -1.0602  0.0836
 3247SOL    HW221375   3.480   2.471  13.374 -0.1054 -0.2560 -0.8273
 3248SOL     OW21376   0.552   2.724   2.606 -0.2114  0.0640 -0.7047
 3248SOL    HW121377   0.568   2.630   2.615 -0.4443  0.1921  0.9480
 3248SOL    HW221378   0.469   2.737   2.559  0.7987  2.6669 -1.8039
 3249SOL     OW21379   0.207   1.747  12.480  0.3963  0.0087 -0.4836
 3249SOL    HW121380   0.202   1.651  12.482  1.7493 -0.0317  0.4236
 3249SOL    HW221381   0.295   1.750  12.444  0.3072  1.7315 -0.5298
 3250SOL     OW21382   3.036   1.649   1.258  0.0835  0.0629 -0.1719
 3250SOL    HW121383   2.974   1.622   1.191 -0.3528  0.7306 -0.0297
 3250SOL    HW221384   3.022   1.585   1.328  0.7455  0.3969  0.2634
 3251SOL     OW21385   2.100   3.144   7.237  0.0092  0.2258 -0.0972
 3251SOL    HW121386   2.121   3.237   7.234  0.9902 -0.0551 -1.6009
 3251SOL    HW221387   2.006   3.153   7.219 -0.0199 -0.7112 -0.4562
 3252SOL     OW21388   1.837   4.636  13.377  0.5617  0.2739  0.0154
 3252SOL    HW121389   1.924   4.616  13.414  0.9524  0.2993 -0.8863
 3252SOL    HW221390   1.804   4.688  13.451 -0.7926 -1.2173  0.4504
 3253SOL     OW21391   0.560   4.225   7.541  0.5874  0.1182  0.5884
 3253SOL    HW121392   0.514   4.193   7.619  1.0622 -0.7671  0.5085
 3253SOL    HW221393   0.639   4.251   7.589  1.9444  1.1899 -2.2781
 3254SOL     OW21394   4.383   2.765   5.810  0.3178 -0.2235 -1.0500
 3254SOL    HW121395   4.476   2.759   5.833  0.4667  0.9328 -1.3563
 3254SOL    HW221396   4.371   2.859   5.826 -2.5413 -0.9148  0.8812
 3255SOL     OW21397   3.935   1.583   6.839 -0.1780 -0.2812 -0.2819
 3255SOL    HW121398   3.847   1.622   6.848  0.7439  1.4484  1.2955
 3255SOL    HW221399   3.983   1.623   6.912  1.2068 -1.0575 -0.7735
 3256SOL     OW21400   3.328   2.108   6.508 -0.2122 -0.9765 -0.1432
 3256SOL    HW121401   3.324   2.110   6.412  0.4621 -2.6707 -0.2137
 3256SOL    HW221402   3.262   2.038   6.512 -0.1988 -1.1252 -2.6978
 3257SOL     OW21403   1.161   0.407   8.509 -0.0534 -0.5572  0.6081
 3257SOL    HW121404   1.140   0.494   8.477  0.6564 -0.1919  1.1359
 3257SOL    HW221405   1.206   0.424   8.591  2.0661  0.8268 -0.8434
 3258SOL     OW21406   3.437   0.801  14.299  0.3837 -0.0021  0.3212
 3258SOL    HW121407   3.397   0.871  14.247  0.3935 -1.7965 -2.1142
 3258SOL    HW221408   3.432   0.722  14.245 -1.9819 -0.9462  1.9157
 3259SOL     OW21409   2.236   0.051  10.886  0.1246 -0.3572  0.5596
 3259SOL    HW121410   2.324   0.082  10.864  0.9754 -2.5324  0.9070
 3259SOL    HW221411   2.233   0.070  10.979 -0.3891  0.2108  0.4266
 3260SOL     OW21412   3.622   1.115   0.249  0.3781 -0.0987  0.2279
 3260SOL    HW121413   3.638   1.107   0.155  2.1339 -0.6002  0.5675
 3260SOL    HW221414   3.625   1.210   0.260  0.5656 -0.3299  2.1784
 3261SOL     OW21415   0.968   1.805   9.138 -0.1532  0.0010  0.4362
 3261SOL    HW121416   0.908   1.736   9.113 -0.0477  0.3331 -0.7415
 3261SOL    HW221417   1.046   1.749   9.144  0.5718  1.1213  1.6441
 3262SOL     OW21418   0.484   3.002   7.319 -0.0047  0.0837 -0.0807
 3262SOL    HW121419   0.516   3.031   7.404  1.4383  0.3371 -0.7089
 3262SOL    HW221420   0.390   3.021   7.323 -0.1297 -0.1470 -1.6896
 3263SOL     OW21421   4.504   2.990   2.781 -0.4216  0.2120 -0.2601
 3263SOL    HW121422   4.572   3.001   2.848 -0.4681  0.5558 -0.2666
 3263SOL    HW221423   4.444   2.930   2.825  0.1461  0.2778  0.6132
 3264SOL     OW21424   3.656   3.798   7.088 -0.5342 -0.2344 -0.0596
 3264SOL    HW121425   3.587   3.733   7.079 -0.7770  0.1196 -0.7171
 3264SOL    HW221426   3.690   3.776   7.175 -1.4189 -1.5440 -0.0371
 3265SOL     OW21427   2.552   0.491   1.194 -0.4117  0.0703 -0.1357
 3265SOL    HW121428   2.624   0.539   1.235 -0.2122  0.1210 -0.5438
 3265SOL    HW221429   2.571   0.400   1.219 -1.0682  0.0555  0.3004
 3266SOL     OW21430   2.770   2.887   7.147 -0.0138  0.4813 -0.1786
 3266SOL    HW121431   2.808   2.873   7.060 -1.0828  0.0533 -0.5791
 3266SOL    HW221432   2.718   2.966   7.128 -0.3524 -0.2378 -2.2305
 3267SOL     OW21433   3.917   2.614  17.093  0.5765  0.6499  0.3607
 3267SOL    HW121434   3.978   2.572  17.032  0.1926  1.1073 -0.3254
 3267SOL    HW221435   3.984   2.666  17.138  0.9422  1.9927 -1.7658
 3268SOL     OW21436   1.242   2.278   8.449 -0.5142 -0.0450  0.3872
 3268SOL    HW121437   1.203   2.243   8.529  0.4936 -0.5695  0.6504
 3268SOL    HW221438   1.268   2.368   8.466  0.4051 -0.2282 -0.0802
 3269SOL     OW21439   3.597   1.851   1.694  0.1933  0.5215 -0.3179
 3269SOL    HW121440   3.528   1.871   1.630  1.6765  2.2049 -1.3906
 3269SOL    HW221441   3.555   1.868   1.778 -0.8674 -1.9882 -0.3508
 3270SOL     OW21442   3.690   0.609   2.009 -0.2516 -0.7559  0.3346
 3270SOL    HW121443   3.748   0.647   1.944 -1.9027  1.9770  0.4637
 3270SOL    HW221444   3.628   0.582   1.941  0.2687  1.2180 -0.9105
 3271SOL     OW21445   3.861   4.327  12.808 -0.6375  0.4101  0.3499
 3271SOL    HW121446   3.846   4.266  12.736  0.4874  2.4243 -1.5877
 3271SOL    HW221447   3.784   4.296  12.855  0.4069 -0.9781  1.1454
 3272SOL     OW21448   2.186   3.888   3.355 -0.3629  0.0608 -0.4366
 3272SOL    HW121449   2.230   3.826   3.297 -1.7688 -0.0839 -1.3411
 3272SOL    HW221450   2.240   3.967   3.346  0.9302 -1.2183 -3.5652
 3273SOL     OW21451   1.358   3.896  13.078 -0.1017  0.8654  0.1932
 3273SOL    HW121452   1.332   3.821  13.024  3.0424  0.1079 -0.2533
 3273SOL    HW221453   1.364   3.849  13.162 -2.0057  1.2220  0.5340
 3274SOL     OW21454   1.503   2.186   0.448  0.3180  0.6532 -0.5997
 3274SOL    HW121455   1.564   2.114   0.433  2.7041  3.2349 -3.3884
 3274SOL    HW221456   1.558   2.261   0.468 -0.1872  0.8475  0.0570
 3275SOL     OW21457   0.469   2.102   8.159 -0.2252 -0.2840 -0.2875
 3275SOL    HW121458   0.564   2.092   8.155 -0.1834 -0.2041  0.6361
 3275SOL    HW221459   0.454   2.185   8.113  4.2114  0.0216 -1.1631
 3276SOL     OW21460   0.750   2.179   2.002  0.0660  0.6716  0.0583
 3276SOL    HW121461   0.686   2.174   1.931  1.0753 -1.0299 -0.7077
 3276SOL    HW221462   0.835   2.160   1.964  0.4293  0.6541  0.8706
 3277SOL     OW21463   3.998   0.105  13.893  0.0874  0.2832  0.4727
 3277SOL    HW121464   3.968   0.075  13.978  1.3893 -0.2171  0.7505
 3277SOL    HW221465   4.079   0.149  13.917 -0.5056  0.9459  1.2434
 3278SOL     OW21466   2.759   2.357   0.773 -0.3581 -0.8248  0.0433
 3278SOL    HW121467   2.666   2.377   0.762 -0.2403 -1.2090 -1.5804
 3278SOL    HW221468   2.736   2.291   0.839  1.9585 -1.7673 -0.0967
 3279SOL     OW21469   4.369   1.307  10.845 -0.9962 -0.2426  0.0378
 3279SOL    HW121470   4.321   1.359  10.910 -0.2433 -0.8269  1.0639
 3279SOL    HW221471   4.308   1.302  10.771 -0.9614 -0.6366  0.0365
 3280SOL     OW21472   0.077   1.085   9.225 -0.0717 -0.1252  0.0928
 3280SOL    HW121473   0.110   1.150   9.163  1.9112  1.1741  2.4925
 3280SOL    HW221474   0.128   1.009   9.198 -0.2686 -0.8852  1.8681
 3281SOL     OW21475   3.782   0.878   4.770  0.6027 -0.2825  0.1598
 3281SOL    HW121476   3.724   0.802   4.777 -1.3663  1.1596 -0.4655
 3281SOL    HW221477   3.728   0.937   4.823 -0.2149 -0.9421  0.0746
 3282SOL     OW21478   0.602   1.922   7.287 -0.3720  0.4799 -0.3862
 3282SOL    HW121479   0.577   1.836   7.253 -1.8417  0.5072  0.6154
 3282SOL    HW221480   0.632   1.893   7.374  1.1174 -0.4701 -1.2112
 3283SOL     OW21481   3.864   0.805  13.456 -0.4414  0.4522 -0.4184
 3283SOL    HW121482   3.831   0.878  13.404 -0.3344  0.1175 -0.9553
 3283SOL    HW221483   3.837   0.829  13.545  2.4190 -0.8640  0.8109
 3284SOL     OW21484   2.038   4.174   7.163  0.2016 -0.0803  0.3523
 3284SOL    HW121485   2.025   4.259   7.206 -1.5333 -1.2149  2.0834
 3284SOL    HW221486   2.056   4.125   7.243  1.4994 -0.8925 -0.4537
 3285SOL     OW21487   4.676   0.394   1.709  0.3021 -0.0152  0.1816
 3285SOL    HW121488   4.734   0.458   1.667  2.0518 -0.7966  1.3844
 3285SOL    HW221489   4.710   0.312   1.672  1.6737 -0.0948  1.5873
 3286SOL     OW21490   4.394   4.512   6.547 -0.0957 -0.2831  0.0110
 3286SOL    HW121491   4.463   4.446   6.552 -1.0326 -1.1954  0.9623
 3286SOL    HW221492   4.379   4.538   6.638  1.9824  1.2402 -0.0827
 3287SOL     OW21493   0.426   0.716   3.669  0.2131 -1.0924 -0.2694
 3287SOL    HW121494   0.464   0.690   3.585  1.7537 -0.8312  0.3446
 3287SOL    HW221495   0.362   0.645   3.668 -1.7257  0.6608  1.4917
 3288SOL     OW21496   0.183   3.296  14.130 -0.0414  0.1074 -0.8844
 3288SOL    HW121497   0.106   3.250  14.165  0.1740  2.3998  2.6176
 3288SOL    HW221498   0.199   3.259  14.043  0.8880  1.7555 -1.4159
 3289SOL     OW21499   2.675   3.038   6.081 -0.0256  0.0704  0.0997
 3289SOL    HW121500   2.638   3.040   6.169 -1.5415 -0.3072 -0.5286
 3289SOL    HW221501   2.613   3.089   6.029  0.0623  1.3045  1.2093
 3290SOL     OW21502   2.624   3.696   8.030 -0.3028  0.1688 -0.5275
 3290SOL    HW121503   2.625   3.621   8.089  0.3808  0.1178 -0.6058
 3290SOL    HW221504   2.706   3.744   8.037 -2.2010  3.3616 -0.3650
 3291SOL     OW21505   1.088   3.541  10.223  0.3196  0.2562 -0.0797
 3291SOL    HW121506   1.104   3.612  10.160 -0.8211  3.0347  2.7652
 3291SOL    HW221507   1.175   3.506  10.244  1.9663  1.9459 -4.0882
 3292SOL     OW21508   4.259   1.954   5.156  0.4895  0.0819  0.0527
 3292SOL    HW121509   4.272   1.869   5.114  0.0815 -0.1046  0.3056
 3292SOL    HW221510   4.262   2.014   5.081  1.5281 -0.9691 -0.7374
 3293SOL     OW21511   3.458   4.075   8.271 -0.0077 -0.1662 -0.2494
 3293SOL    HW121512   3.469   4.098   8.178 -2.1517  0.7755 -0.2606
 3293SOL    HW221513   3.368   4.046   8.284 -0.2104  0.1492 -0.8975
 3294SOL     OW21514   1.884   2.955  11.295  0.0213 -0.5121 -0.7234
 3294SOL    HW121515   1.953   3.019  11.279  1.0755 -1.5090 -0.1578
 3294SOL    HW221516   1.826   2.968  11.220  2.6242  1.2189 -2.4220
 3295SOL     OW21517   1.273   4.543   5.415  0.0951 -0.5474  0.1540
 3295SOL    HW121518   1.252   4.455   5.445 -2.1077  0.8428  2.5894
 3295SOL    HW221519   1.364   4.533   5.386 -0.1484 -0.9713 -0.4829
 3296SOL     OW21520   0.274   2.482   3.843  0.1579  0.4649  0.7904
 3296SOL    HW121521   0.283   2.391   3.872  2.1345  0.8380  1.3302
 3296SOL    HW221522   0.201   2.511   3.898  0.2744  1.7849  0.2475
 3297SOL     OW21523   2.098   4.470   2.216  0.1882  0.0917 -0.2543
 3297SOL    HW121524   2.085   4.556   2.256 -0.9366 -0.0812 -0.2411
 3297SOL    HW221525   2.171   4.498   2.160 -0.0742  1.1505 -0.0774
 3298SOL     OW21526   2.873   3.738   6.807  0.3674  0.0821  0.0803
 3298SOL    HW121527   2.899   3.830   6.803 -0.4167  0.3048  0.0451
 3298SOL    HW221528   2.782   3.754   6.779  1.2026  3.5799 -0.7532
 3299SOL     OW21529   1.688   3.508   5.263  0.5186 -0.2765 -0.0980
 3299SOL    HW121530   1.691   3.474   5.174  0.9062  1.0876 -0.6078
 3299SOL    HW221531   1.632   3.442   5.303 -0.8899  0.8078 -0.2901
 3300SOL     OW21532   3.874   3.237   3.828  0.3591  0.0057 -0.0744
 3300SOL    HW121533   3.953   3.260   3.877  1.3681  0.7237 -2.0082
 3300SOL    HW221534   3.853   3.329   3.814  0.1620  0.0837  0.7417
 3301SOL     OW21535   1.651   4.503   2.688  0.1552  0.0204 -0.3749
 3301SOL    HW121536   1.579   4.499   2.751  0.7977 -0.9421  0.2939
 3301SOL    HW221537   1.643   4.592   2.655 -1.1963 -0.0799 -0.3034
 3302SOL     OW21538   4.417   0.898  13.023  0.6019 -0.0707 -0.4544
 3302SOL    HW121539   4.454   0.872  12.939 -0.6902  0.8386 -1.3139
 3302SOL    HW221540   4.491   0.886  13.083  2.0484  0.6309 -2.1125
 3303SOL     OW21541   2.379   0.103  16.750 -0.1765 -0.1856  0.3006
 3303SOL    HW121542   2.354   0.101  16.843  3.1809  4.0106  1.3287
 3303SOL    HW221543   2.330   0.174  16.711  1.4759  0.3888 -0.7287
 3304SOL     OW21544   3.099   2.811   0.360 -0.2588 -0.1189  0.0469
 3304SOL    HW121545   3.168   2.860   0.314  0.1889  1.6117  2.5385
 3304SOL    HW221546   3.028   2.873   0.378  1.0475  1.5471 -0.4309
 3305SOL     OW21547   3.048   3.907   9.963  0.8685 -0.0166  0.2669
 3305SOL    HW121548   3.021   3.875  10.050 -0.0578 -1.4978 -0.5693
 3305SOL    HW221549   3.061   3.832   9.906  1.8959 -0.8585  1.6051
 3306SOL     OW21550   2.680   3.129   2.554  0.4322 -0.4530 -0.1993
 3306SOL    HW121551   2.745   3.134   2.485  0.7304 -0.1117  0.1075
 3306SOL    HW221552   2.709   3.206   2.604  0.1830 -0.5060  0.0330
 3307SOL     OW21553   3.802   0.209   2.718 -0.0221 -0.4327 -0.1750
 3307SOL    HW121554   3.761   0.140   2.666 -1.1063 -0.3291  0.5403
 3307SOL    HW221555   3.733   0.222   2.783 -0.0221  1.9812 -0.6331
 3308SOL     OW21556   3.038   4.613  15.275  0.3648  0.2338 -0.0809
 3308SOL    HW121557   3.088   4.645  15.200 -0.7747 -0.6360 -1.2211
 3308SOL    HW221558   3.075   4.525  15.277 -1.6431 -0.6099 -0.3045
 3309SOL     OW21559   2.728   0.934   2.465 -0.5237 -0.1999 -0.3377
 3309SOL    HW121560   2.754   0.980   2.385 -3.6930 -1.5573 -2.1406
 3309SOL    HW221561   2.633   0.942   2.457 -0.9106 -1.7308  2.9039
 3310SOL     OW21562   2.813   1.604  11.531 -0.1311  0.0323  0.0039
 3310SOL    HW121563   2.849   1.667  11.593 -0.0451 -0.3983  0.3955
 3310SOL    HW221564   2.885   1.544  11.508  1.0156  2.0046 -1.5293
 3311SOL     OW21565   0.192   2.840   7.884 -0.1544 -0.1253  0.3867
 3311SOL    HW121566   0.161   2.930   7.872 -1.1670 -0.3890  0.9688
 3311SOL    HW221567   0.151   2.796   7.810  0.2434 -1.6288  1.0650
 3312SOL     OW21568   1.938   0.499  13.653  0.6841  0.6212  0.1440
 3312SOL    HW121569   1.869   0.473  13.592  1.8341  0.8325 -1.2487
 3312SOL    HW221570   1.885   0.550  13.714 -0.7151 -2.2804  1.3450
 3313SOL     OW21571   3.690   3.747   0.061 -0.2551 -0.1482  0.5595
 3313SOL    HW121572   3.708   3.755  17.716  0.7540  1.7576  0.9374
 3313SOL    HW221573   3.598   3.773   0.064 -0.3267 -0.2997 -0.2117
 3314SOL     OW21574   4.182   3.639   7.898  0.1122 -0.2833 -0.4994
 3314SOL    HW121575   4.175   3.679   7.984  0.4850 -1.3181  0.0064
 3314SOL    HW221576   4.089   3.641   7.875  0.3807  1.3819 -1.4193
 3315SOL     OW21577   3.532   3.124   4.889  0.0447  0.1521 -0.1527
 3315SOL    HW121578   3.596   3.194   4.895  0.1167  0.0057  0.8318
 3315SOL    HW221579   3.560   3.069   4.963 -1.8314 -5.2169 -3.4078
 3316SOL     OW21580   4.338   3.609  12.248  0.0295  0.6844 -0.3392
 3316SOL    HW121581   4.404   3.604  12.317 -0.7432  0.0291  0.3563
 3316SOL    HW221582   4.346   3.522  12.209 -0.8687  0.7222 -0.6098
 3317SOL     OW21583   1.345   1.366   8.630 -0.1741  0.0875 -0.2104
 3317SOL    HW121584   1.283   1.380   8.557 -1.4652  0.5289  0.9734
 3317SOL    HW221585   1.410   1.309   8.589 -0.9760 -0.3098 -0.9395
 3318SOL     OW21586   4.634   2.974  12.631  0.1239 -0.5777  0.5142
 3318SOL    HW121587   4.590   2.963  12.715 -0.0145  2.3137  0.8226
 3318SOL    HW221588   4.582   3.045  12.592  2.0244 -0.7976 -2.4035
 3319SOL     OW21589   3.262   2.919   6.150 -0.2279 -0.0266  0.2828
 3319SOL    HW121590   3.235   2.831   6.124 -2.3031  0.0128  2.3116
 3319SOL    HW221591   3.181   2.952   6.190  0.4542  2.5531 -0.4485
 3320SOL     OW21592   3.721   4.266   6.756 -0.3810  0.2817 -0.5194
 3320SOL    HW121593   3.787   4.334   6.751  1.4655 -1.5474 -0.9918
 3320SOL    HW221594   3.652   4.313   6.804 -0.0287 -0.3580  0.6111
 3321SOL     OW21595   4.224   2.777  12.896  0.3222 -1.0213 -0.5129
 3321SOL    HW121596   4.169   2.709  12.856  1.0648 -1.0372 -1.5031
 3321SOL    HW221597   4.248   2.827  12.819 -1.3749  0.2227 -0.2343
 3322SOL     OW21598   0.048   1.416   6.017 -0.1971  0.2044 -0.6088
 3322SOL    HW121599   4.701   1.413   6.062  1.2489  1.4086  2.1823
 3322SOL    HW221600   0.068   1.323   6.027 -0.2609  0.2528 -0.0039
 3323SOL     OW21601   2.099   2.098  17.335  0.3322 -0.3306 -0.0186
 3323SOL    HW121602   2.047   2.138  17.405 -1.2848 -0.5200 -1.1229
 3323SOL    HW221603   2.077   2.158  17.263  0.5595 -0.8570 -0.5198
 3324SOL     OW21604   2.279   4.483   7.016  0.2052 -0.5393  0.1126
 3324SOL    HW121605   2.277   4.529   6.932 -3.0307 -0.8154  0.0475
 3324SOL    HW221606   2.370   4.455   7.006 -0.0631 -0.9503 -1.2165
 3325SOL     OW21607   1.474   4.004  11.282 -0.2012 -0.5137 -0.3445
 3325SOL    HW121608   1.555   4.027  11.326 -1.9190  1.8482  1.5471
 3325SOL    HW221609   1.502   3.923  11.240  0.7590 -0.5742  0.4122
 3326SOL     OW21610   1.049   1.285   5.749  0.6705 -0.1895 -0.1821
 3326SOL    HW121611   1.002   1.202   5.744 -2.4574  1.5001  1.6842
 3326SOL    HW221612   1.135   1.274   5.708  0.4375  1.3428 -1.0840
 3327SOL     OW21613   3.583   3.127   0.080  0.0581 -0.1020 -0.2798
 3327SOL    HW121614   3.545   3.175   0.006 -0.4694  0.9872  0.7067
 3327SOL    HW221615   3.676   3.112   0.064 -0.3265 -1.0921 -1.5869
 3328SOL     OW21616   1.021   2.261  11.576  0.0243  0.6913  0.2427
 3328SOL    HW121617   1.067   2.252  11.659  0.4644 -0.1737 -0.1030
 3328SOL    HW221618   1.085   2.304  11.520  1.4840  1.3778  2.4245
 3329SOL     OW21619   1.818   1.139   5.496  0.2759 -0.0544  0.2051
 3329SOL    HW121620   1.815   1.110   5.405 -0.4267 -0.5129  0.3703
 3329SOL    HW221621   1.909   1.118   5.513  0.2879  0.6215  0.9900
 3330SOL     OW21622   1.871   3.633   2.741  0.4072 -0.7567  0.0205
 3330SOL    HW121623   1.828   3.685   2.673  1.8353  1.0968  0.5425
 3330SOL    HW221624   1.805   3.566   2.759 -0.8692  0.4124 -0.3507
 3331SOL     OW21625   4.574   2.676   3.300 -0.0402  0.2178  0.0410
 3331SOL    HW121626   4.504   2.621   3.336 -0.3164  0.2206 -0.4949
 3331SOL    HW221627   4.633   2.677   3.376 -1.2811  0.9224  1.0003
 3332SOL     OW21628   1.703   4.119   3.730  0.2438  0.7238  0.4617
 3332SOL    HW121629   1.783   4.173   3.728 -0.5173  1.8297 -0.1587
 3332SOL    HW221630   1.716   4.087   3.819  2.1866  0.5892  0.1303
 3333SOL     OW21631   4.620   2.447  12.572  0.1317 -0.4320  0.6083
 3333SOL    HW121632   4.672   2.526  12.559 -0.1504 -0.2428  0.6269
 3333SOL    HW221633   4.532   2.485  12.571  1.2263  2.0165 -0.9660
 3334SOL     OW21634   4.322   1.083   6.258  0.3629  0.5749  0.3044
 3334SOL    HW121635   4.409   1.122   6.265  0.0317  1.0618  1.5938
 3334SOL    HW221636   4.284   1.138   6.190 -0.7969 -1.1413 -0.4427
 3335SOL     OW21637   4.067   2.776   9.379  0.0263  0.2661 -0.2551
 3335SOL    HW121638   4.110   2.694   9.403  3.7291  2.1764 -0.3312
 3335SOL    HW221639   4.134   2.844   9.385 -1.7272  1.6980  2.7640
 3336SOL     OW21640   3.860   3.913   4.949 -0.2076  0.1292 -0.5487
 3336SOL    HW121641   3.936   3.970   4.963  1.3123 -1.9890 -0.1716
 3336SOL    HW221642   3.800   3.931   5.022  1.1066  2.8714 -0.1193
 3337SOL     OW21643   2.609   2.595  11.958 -0.0671  0.5883 -0.4190
 3337SOL    HW121644   2.640   2.656  11.891 -0.3579 -0.9869 -1.9596
 3337SOL    HW221645   2.521   2.627  11.976 -0.5580 -0.5941 -0.7272
 3338SOL     OW21646   3.049   1.078   6.845  0.1790  0.1490  0.2616
 3338SOL    HW121647   3.048   1.139   6.772 -2.0201 -0.5629 -0.3066
 3338SOL    HW221648   3.142   1.076   6.866  0.0852 -1.7909  0.5064
 3339SOL     OW21649   4.500   2.862   2.530 -0.0543 -0.3524 -0.1713
 3339SOL    HW121650   4.476   2.932   2.591  2.8592 -0.3182  0.8936
 3339SOL    HW221651   4.548   2.808   2.592 -0.9143 -0.1610  0.6557
 3340SOL     OW21652   1.905   1.385   6.587 -0.6685 -0.1423  0.3822
 3340SOL    HW121653   1.815   1.376   6.618 -0.9606 -1.2692 -0.7904
 3340SOL    HW221654   1.893   1.348   6.500  1.1159 -1.8530  0.8644
 3341SOL     OW21655   1.045   1.928   7.559  0.4931  0.0896 -0.7547
 3341SOL    HW121656   1.113   1.898   7.620  1.0525  1.2979 -0.7948
 3341SOL    HW221657   1.058   2.022   7.571  1.6165 -0.0343 -1.0331
 3342SOL     OW21658   3.792   3.174  11.678  0.4158  0.1666  0.3236
 3342SOL    HW121659   3.748   3.103  11.633  3.0367 -1.5828  0.5389
 3342SOL    HW221660   3.788   3.244  11.612 -4.5293  1.0419  1.5726
 3343SOL     OW21661   1.062   2.275  10.035 -0.2693 -0.0164  0.0478
 3343SOL    HW121662   1.119   2.320   9.973  1.3739 -0.7429  1.0547
 3343SOL    HW221663   1.068   2.332  10.112  2.2342  1.7183 -1.4415
 3344SOL     OW21664   3.018   3.587   7.777 -0.4076  0.5761 -0.3954
 3344SOL    HW121665   3.029   3.643   7.701  0.2613 -0.4639 -1.0605
 3344SOL    HW221666   2.984   3.505   7.741 -1.5320  0.8649 -0.0132
 3345SOL     OW21667   1.183   0.781  10.072 -0.4485 -0.1812 -0.1610
 3345SOL    HW121668   1.230   0.862  10.054  0.0916 -0.3130  0.6483
 3345SOL    HW221669   1.147   0.794  10.160 -0.1559  1.8691 -0.3322
 3346SOL     OW21670   2.713   2.141  10.628  0.0643  0.5910  0.1655
 3346SOL    HW121671   2.628   2.137  10.671 -0.4593  0.1603 -0.9121
 3346SOL    HW221672   2.696   2.191  10.548  0.5535  0.6050  0.0698
 3347SOL     OW21673   4.331   2.136   3.931 -0.0563 -0.6486 -0.2053
 3347SOL    HW121674   4.381   2.159   4.009 -0.0171 -0.9940 -0.1294
 3347SOL    HW221675   4.399   2.116   3.866 -1.4260  0.9989 -2.1638
 3348SOL     OW21676   1.929   1.988  17.586 -0.6114 -0.0065  0.0678
 3348SOL    HW121677   2.012   1.963  17.628 -0.6296  0.2098  0.2348
 3348SOL    HW221678   1.924   2.076  17.624 -0.1217 -0.0363  0.2079
 3349SOL     OW21679   1.003   3.746   3.777 -0.0827 -0.2759 -0.3401
 3349SOL    HW121680   1.033   3.836   3.768 -0.2629 -0.2208 -0.3867
 3349SOL    HW221681   0.998   3.704   3.691  1.1255  1.2950 -1.1730
 3350SOL     OW21682   2.488   2.437  10.824  0.0486 -0.8740 -0.3182
 3350SOL    HW121683   2.475   2.350  10.786  1.5318 -2.0122  1.8339
 3350SOL    HW221684   2.398   2.471  10.818  0.1029 -0.8170 -0.7909
 3351SOL     OW21685   2.213   4.332   8.904 -0.0214  0.0896 -0.0022
 3351SOL    HW121686   2.223   4.411   8.957 -0.3153  0.1996 -0.1079
 3351SOL    HW221687   2.241   4.365   8.819  0.1892  0.2886  0.1434
 3352SOL     OW21688   4.696   2.502  15.335 -0.1065  0.1332 -0.1396
 3352SOL    HW121689   4.684   2.408  15.348  0.9221 -0.5107 -3.8013
 3352SOL    HW221690   0.050   2.506  15.307 -0.3043  0.3578 -0.7504
 3353SOL     OW21691   1.529   4.645   2.142  0.0288  0.5760 -0.1303
 3353SOL    HW121692   1.618   4.611   2.145  0.0541  0.7101  0.8738
 3353SOL    HW221693   1.480   4.571   2.178  1.5027  0.3154  1.3399
 3354SOL     OW21694   0.813   0.690   3.379  0.4184 -0.2861  0.2697
 3354SOL    HW121695   0.793   0.654   3.465  0.3403  1.3646  0.9524
 3354SOL    HW221696   0.765   0.627   3.326  0.4415 -1.2870  1.4565
 3355SOL     OW21697   2.164   4.321   2.977 -0.5080 -0.5703  0.1275
 3355SOL    HW121698   2.105   4.389   2.946  0.0849 -0.7895 -1.4847
 3355SOL    HW221699   2.156   4.243   2.922  0.0779 -1.5680  1.4573
 3356SOL     OW21700   0.140   1.829   9.022 -0.0622  0.2113 -0.5832
 3356SOL    HW121701   0.119   1.865   9.108  0.2689  2.1243 -1.2825
 3356SOL    HW221702   0.119   1.896   8.957 -0.1308  2.1013  1.3815
 3357SOL     OW21703   1.482   3.246  14.298 -0.1098 -0.3899  0.1901
 3357SOL    HW121704   1.388   3.265  14.294  0.2404  1.2916 -0.0404
 3357SOL    HW221705   1.479   3.157  14.333  0.8561  0.3703  2.2079
 3358SOL     OW21706   1.960   4.060   2.565 -0.7020  0.4616 -0.6459
 3358SOL    HW121707   1.911   4.032   2.488 -1.4077 -3.1216  1.0887
 3358SOL    HW221708   1.915   4.017   2.638 -2.1938  0.2129 -1.7119
 3359SOL     OW21709   2.063   2.628   6.267 -0.0571  0.1839  0.3609
 3359SOL    HW121710   2.015   2.604   6.346 -1.1005 -0.1583 -0.3892
 3359SOL    HW221711   1.996   2.681   6.224  0.1486  0.6419  0.5996
 3360SOL     OW21712   1.259   3.646   9.697  0.4561 -0.1427 -0.4911
 3360SOL    HW121713   1.273   3.588   9.772 -0.8942 -0.3633 -0.4072
 3360SOL    HW221714   1.342   3.660   9.653  0.7742  0.7017  0.3773
 3361SOL     OW21715   1.976   4.347  12.125 -0.1281 -0.4807  0.2962
 3361SOL    HW121716   2.047   4.285  12.141  0.0412 -0.7490 -1.4295
 3361SOL    HW221717   1.907   4.319  12.184  0.5369 -1.2778  0.7013
 3362SOL     OW21718   3.252   1.850   1.267  0.6771  0.2190 -0.2523
 3362SOL    HW121719   3.186   1.781   1.274  1.3751 -0.1110  3.1195
 3362SOL    HW221720   3.206   1.919   1.219  3.0199  0.7858 -1.7296
 3363SOL     OW21721   1.852   4.176  12.685  0.6922  0.0448  0.0803
 3363SOL    HW121722   1.853   4.272  12.681 -1.1538  0.0670  0.0192
 3363SOL    HW221723   1.807   4.154  12.603 -0.4064 -0.6530  0.8864
 3364SOL     OW21724   0.269   3.704  14.143 -0.1886 -0.2121 -0.3054
 3364SOL    HW121725   0.184   3.728  14.179  1.2684 -0.3203  3.2394
 3364SOL    HW221726   0.271   3.760  14.065 -0.0061 -0.8572 -0.7654
 3365SOL     OW21727   4.716   3.957   1.978 -0.0108  0.1565  0.0893
 3365SOL    HW121728   4.669   4.009   2.043  0.3468  0.1714  0.3360
 3365SOL    HW221729   4.693   4.006   1.899 -1.6411 -1.3686 -0.3755
 3366SOL     OW21730   2.282   3.149   5.215 -0.0383 -0.4971  0.9445
 3366SOL    HW121731   2.318   3.078   5.162 -0.0037 -0.1058  0.4421
 3366SOL    HW221732   2.292   3.102   5.298  1.7688  0.2615  1.1448
 3367SOL     OW21733   1.943   2.367  14.679  0.4465 -1.0172 -0.9121
 3367SOL    HW121734   1.862   2.340  14.636 -0.2290 -2.1533  1.0828
 3367SOL    HW221735   1.901   2.439  14.727  0.6770 -1.3641 -0.1845
 3368SOL     OW21736   0.435   3.609   5.634  0.1902 -0.5818  0.1900
 3368SOL    HW121737   0.487   3.689   5.625 -0.1606 -0.3294  0.3794
 3368SOL    HW221738   0.381   3.622   5.712 -0.1315  1.5258 -0.3983
 3369SOL     OW21739   3.091   1.822   2.227  0.5960 -0.2953  0.9493
 3369SOL    HW121740   3.067   1.911   2.203 -2.6347 -1.9799 -1.9521
 3369SOL    HW221741   3.008   1.781   2.254  1.1216 -1.6563  0.4883
 3370SOL     OW21742   3.068   3.183   9.946 -0.2625 -0.3687  0.0601
 3370SOL    HW121743   3.072   3.102   9.997 -1.7492  0.0801  0.8922
 3370SOL    HW221744   3.026   3.146   9.868  0.7759  2.3285 -1.7517
 3371SOL     OW21745   2.730   0.477   6.909 -0.5745  0.4681 -0.6884
 3371SOL    HW121746   2.797   0.517   6.853 -2.0419 -0.2688 -2.9396
 3371SOL    HW221747   2.734   0.535   6.985  0.2647 -0.4971 -0.0017
 3372SOL     OW21748   3.643   3.728   2.086  0.4339 -0.0953 -0.3072
 3372SOL    HW121749   3.665   3.819   2.066 -1.6284  1.3078  3.8335
 3372SOL    HW221750   3.649   3.728   2.181 -3.6548  1.4890 -0.0745
 3373SOL     OW21751   3.902   4.452  10.437 -0.2656 -0.6987 -0.1672
 3373SOL    HW121752   3.819   4.407  10.424 -0.3505 -0.4777 -0.3905
 3373SOL    HW221753   3.910   4.499  10.354  1.2234 -0.7687 -0.0618
 3374SOL     OW21754   0.664   3.014   3.706  0.0494 -0.6267 -0.4801
 3374SOL    HW121755   0.630   2.978   3.625 -2.9730  0.3308  0.3753
 3374SOL    HW221756   0.616   3.096   3.704 -1.6832 -1.6204  0.0956
 3375SOL     OW21757   2.279   3.518   3.012  0.2079  0.4095 -0.2969
 3375SOL    HW121758   2.371   3.546   3.017  0.3092 -0.4432  2.7229
 3375SOL    HW221759   2.273   3.428   2.978  0.2356  0.7300 -1.1537
 3376SOL     OW21760   0.630   2.139   5.117  0.1803 -0.4296 -0.5370
 3376SOL    HW121761   0.570   2.086   5.170 -0.8083  0.5249 -0.7090
 3376SOL    HW221762   0.622   2.094   5.033 -1.6344  0.7767 -1.0188
 3377SOL     OW21763   4.281   4.361   9.354  0.1089 -0.1222 -0.4581
 3377SOL    HW121764   4.204   4.341   9.301  0.9057 -0.7267 -1.3799
 3377SOL    HW221765   4.350   4.327   9.297 -0.0196  1.4379 -1.5280
 3378SOL     OW21766   3.862   1.114   2.493  0.0163 -0.2507 -0.1531
 3378SOL    HW121767   3.827   1.058   2.425  1.6062  1.1785 -2.1585
 3378SOL    HW221768   3.948   1.074   2.508  1.0745  1.9459 -0.3534
 3379SOL     OW21769   0.134   2.496   3.180 -0.3476  0.2663  0.2750
 3379SOL    HW121770   0.163   2.534   3.263  1.3812 -1.1646  0.3365
 3379SOL    HW221771   0.109   2.410   3.215 -2.8799  0.9204  0.0847
 3380SOL     OW21772   0.167   1.430   5.753 -0.0360  0.1511  0.0286
 3380SOL    HW121773   0.140   1.415   5.844 -2.4434 -2.0678 -1.0489
 3380SOL    HW221774   0.117   1.357   5.716 -1.6624  1.3335 -0.1345
 3381SOL     OW21775   0.800   1.933   1.025 -0.0255  0.6144 -0.2264
 3381SOL    HW121776   0.880   1.899   1.064 -1.7516 -1.0210  1.9035
 3381SOL    HW221777   0.744   1.959   1.098  0.4706  0.3934  0.2311
 3382SOL     OW21778   2.020   3.104   6.360  0.6878 -0.5032  0.4284
 3382SOL    HW121779   2.049   3.047   6.431  0.1418  0.9519  1.8069
 3382SOL    HW221780   1.942   3.058   6.328 -1.0822  1.0162  2.5884
 3383SOL     OW21781   3.623   0.918   2.056 -0.0422  0.0219  0.4265
 3383SOL    HW121782   3.653   1.007   2.037 -1.9054  0.3442 -1.0555
 3383SOL    HW221783   3.686   0.875   1.998  0.9239  2.3333 -0.2521
 3384SOL     OW21784   2.338   1.822   2.315 -0.1234 -0.2093 -0.2567
 3384SOL    HW121785   2.314   1.900   2.366  1.5689 -0.0027  0.2221
 3384SOL    HW221786   2.377   1.758   2.374  0.3268  0.1734 -0.1446
 3385SOL     OW21787   0.985   2.176  17.034  0.0016 -0.1982 -0.4056
 3385SOL    HW121788   1.063   2.220  17.000 -0.9750  2.9916  1.4446
 3385SOL    HW221789   0.963   2.118  16.961  0.3718 -0.6519 -0.1614
 3386SOL     OW21790   1.181   2.002   4.432 -0.2698 -0.5847 -0.0259
 3386SOL    HW121791   1.089   2.017   4.413 -0.3101  1.6912  1.9793
 3386SOL    HW221792   1.215   2.016   4.344 -1.9176  0.0050 -0.5575
 3387SOL     OW21793   0.347   0.706   9.346 -0.2460 -0.0357  0.0392
 3387SOL    HW121794   0.262   0.728   9.384 -0.0374  0.7812  0.0179
 3387SOL    HW221795   0.355   0.613   9.371 -0.3279  0.1728  0.8646
 3388SOL     OW21796   0.696   2.014   9.521  0.4723 -0.1515 -0.3246
 3388SOL    HW121797   0.688   2.104   9.554 -3.2460 -1.0664  1.3139
 3388SOL    HW221798   0.755   1.980   9.587  2.8028  1.0907 -1.7713
 3389SOL     OW21799   2.883   0.552   8.836 -0.0263  0.0532 -0.0921
 3389SOL    HW121800   2.804   0.595   8.802  1.0676  1.9067 -0.2702
 3389SOL    HW221801   2.897   0.581   8.926  0.3902 -0.4671  0.0096
 3390SOL     OW21802   0.331   1.023   7.645 -0.1772 -0.4158 -0.6427
 3390SOL    HW121803   0.324   1.081   7.721 -1.4697 -2.5674  0.8838
 3390SOL    HW221804   0.273   0.955   7.681 -1.6912  2.3646  2.2163
 3391SOL     OW21805   3.029   4.632  10.854  0.9328 -0.0519 -0.1569
 3391SOL    HW121806   2.975   4.675  10.788 -1.0045 -0.3873  1.2155
 3391SOL    HW221807   3.081   4.707  10.884 -1.8252  1.7495  0.1293
 3392SOL     OW21808   2.974   3.477   4.846  0.0102 -0.0406 -0.0558
 3392SOL    HW121809   2.983   3.461   4.752 -1.4155 -2.2566  0.1869
 3392SOL    HW221810   3.030   3.553   4.857  0.7422 -0.8469  1.8488
 3393SOL     OW21811   1.141   4.245   0.668 -0.2478  0.2709  0.2709
 3393SOL    HW121812   1.089   4.314   0.708 -1.9653 -1.4290  0.9655
 3393SOL    HW221813   1.072   4.181   0.650 -0.0042  0.1695 -0.3136
 3394SOL     OW21814   2.030   0.361  12.801 -0.1684 -0.1738 -0.0734
 3394SOL    HW121815   1.960   0.399  12.855  0.8343  1.6909 -0.0723
 3394SOL    HW221816   2.039   0.431  12.736 -1.2382 -0.1814 -0.2378
 3395SOL     OW21817   2.877   1.564  10.732  0.2844  0.0033 -0.7804
 3395SOL    HW121818   2.848   1.505  10.802  1.1228 -0.4669 -0.8308
 3395SOL    HW221819   2.965   1.538  10.707 -0.4320 -0.6774 -2.5841
 3396SOL     OW21820   3.694   0.894  11.511 -0.4948  0.0037  0.5898
 3396SOL    HW121821   3.754   0.944  11.565 -1.3692 -0.8106  2.3142
 3396SOL    HW221822   3.682   0.812  11.559 -1.3240  1.6512  3.1490
 3397SOL     OW21823   3.217   2.211   1.578 -0.5132 -0.9897  0.3183
 3397SOL    HW121824   3.287   2.276   1.585 -0.1084 -1.4317  0.3438
 3397SOL    HW221825   3.154   2.233   1.509 -0.5581  0.5047  0.8546
 3398SOL     OW21826   4.592   2.496  15.779 -0.9504 -0.5227  0.6081
 3398SOL    HW121827   4.540   2.499  15.860 -0.5256  0.4218  0.8407
 3398SOL    HW221828   4.679   2.484  15.817 -0.4548 -0.7290 -0.5951
 3399SOL     OW21829   0.305   1.802   6.233  0.2944 -0.0553 -0.1705
 3399SOL    HW121830   0.214   1.831   6.227  0.8356  1.3149 -1.8581
 3399SOL    HW221831   0.306   1.715   6.192  1.1190 -1.1785  2.1988
 3400SOL     OW21832   0.654   3.753   4.167  0.0843  0.4397  0.2248
 3400SOL    HW121833   0.581   3.815   4.167 -0.8037 -0.5896  1.0759
 3400SOL    HW221834   0.668   3.753   4.072  1.2978  0.7725  0.4098
 3401SOL     OW21835   3.080   1.760   8.702 -0.0960  0.4049 -0.0155
 3401SOL    HW121836   3.160   1.728   8.660 -0.2228 -1.0645  0.8627
 3401SOL    HW221837   3.025   1.682   8.699 -0.3191  0.4959  1.6829
 3402SOL     OW21838   3.839   0.912  13.696 -0.1376 -0.0568  0.5004
 3402SOL    HW121839   3.749   0.897  13.724  0.1417 -2.0935  0.2852
 3402SOL    HW221840   3.887   0.873  13.769 -0.3898 -0.3966  0.4859
 3403SOL     OW21841   4.249   3.308   8.302  0.0250 -0.1734 -0.7741
 3403SOL    HW121842   4.334   3.353   8.298 -0.5679  1.1147  1.0880
 3403SOL    HW221843   4.241   3.277   8.392 -0.0149  0.9135 -0.4071
 3404SOL     OW21844   2.117   3.389  10.607 -0.2915  0.5421 -0.1746
 3404SOL    HW121845   2.027   3.385  10.575 -1.3225  0.0926  2.7742
 3404SOL    HW221846   2.157   3.341  10.534 -0.3232 -1.4884  1.1575
 3405SOL     OW21847   1.737   2.568   6.881  0.1154 -0.1139 -0.0352
 3405SOL    HW121848   1.807   2.527   6.831  0.2488  2.4437 -1.9243
 3405SOL    HW221849   1.715   2.496   6.941  0.9708  1.5173  2.2393
 3406SOL     OW21850   4.428   0.460   1.131 -0.2452  0.2071 -0.0359
 3406SOL    HW121851   4.492   0.440   1.063  0.1069 -0.4424  0.4852
 3406SOL    HW221852   4.479   0.460   1.212 -1.7281 -0.4845  0.8796
 3407SOL     OW21853   3.097   3.025   3.376 -0.1454 -0.0993  0.4996
 3407SOL    HW121854   3.107   2.995   3.466  0.4275  1.1230  0.8383
 3407SOL    HW221855   3.180   3.068   3.361 -0.7312  1.3372  1.4204
 3408SOL     OW21856   2.814   0.452  14.710  0.1246 -0.2074 -0.0098
 3408SOL    HW121857   2.800   0.421  14.621  2.5889 -0.6631 -0.2343
 3408SOL    HW221858   2.894   0.409  14.742  0.2084  0.7712  1.1109
 3409SOL     OW21859   0.032   1.709   6.473  0.1728  0.5246  0.1693
 3409SOL    HW121860   0.043   1.739   6.383 -0.9383 -0.0417 -0.1520
 3409SOL    HW221861   4.690   1.760   6.486 -0.6835 -0.9524  0.8127
 3410SOL     OW21862   1.290   0.992   4.664  0.6087 -0.2464  0.5377
 3410SOL    HW121863   1.385   0.977   4.666  0.5671 -0.8116 -2.5030
 3410SOL    HW221864   1.293   1.083   4.693  0.9917  0.2960 -1.2004
 3411SOL     OW21865   1.447   3.314  11.223 -0.2909 -0.8610  0.8277
 3411SOL    HW121866   1.469   3.407  11.222  0.3265 -1.0056  0.4914
 3411SOL    HW221867   1.527   3.276  11.185 -0.7185  0.4999 -1.3986
 3412SOL     OW21868   2.120   1.914   4.669  0.0082 -0.1248 -0.5569
 3412SOL    HW121869   2.073   1.910   4.585  0.0341  0.6997 -0.6129
 3412SOL    HW221870   2.052   1.872   4.722 -0.9869 -2.4348 -3.6550
 3413SOL     OW21871   0.496   3.386   2.462 -0.6856  0.0905  0.4837
 3413SOL    HW121872   0.497   3.452   2.393 -1.2566  0.4707  0.8404
 3413SOL    HW221873   0.528   3.432   2.540  1.2665  0.3394 -0.4675
 3414SOL     OW21874   4.517   0.757   8.339  0.0219 -0.4597 -0.0702
 3414SOL    HW121875   4.536   0.848   8.364 -0.2911 -0.0104 -1.4843
 3414SOL    HW221876   4.549   0.768   8.250  1.0711 -1.4444  0.1866
 3415SOL     OW21877   3.139   3.818   4.485  0.0415  0.1191 -0.6478
 3415SOL    HW121878   3.189   3.850   4.410  0.3893 -0.7679 -0.7859
 3415SOL    HW221879   3.089   3.749   4.442  1.1657 -0.4628 -1.0218
 3416SOL     OW21880   1.185   2.317   7.927 -0.6583  0.0852  0.0507
 3416SOL    HW121881   1.139   2.293   8.008 -0.1266 -0.1870  0.2720
 3416SOL    HW221882   1.123   2.387   7.907  0.0467  1.1509  1.5391
 3417SOL     OW21883   0.528   0.858   2.326 -0.1369  0.1539  0.3044
 3417SOL    HW121884   0.573   0.917   2.387  2.8379 -2.9936  1.1515
 3417SOL    HW221885   0.542   0.901   2.242  1.0790  0.1136  0.4854
 3418SOL     OW21886   2.058   1.772   1.776  0.2212  0.0242  0.5034
 3418SOL    HW121887   2.057   1.852   1.829 -3.7775 -0.9396  1.8890
 3418SOL    HW221888   2.040   1.809   1.690  2.2068 -0.3323 -0.0714
 3419SOL     OW21889   2.155   3.555  17.668 -0.0449  0.3305 -0.0411
 3419SOL    HW121890   2.168   3.552  17.573 -2.9288 -0.1737 -0.4225
 3419SOL    HW221891   2.183   3.644  17.685  1.7750 -0.5089  1.3292
 3420SOL     OW21892   2.326   2.551   3.162 -0.0549 -0.3342 -0.3640
 3420SOL    HW121893   2.294   2.593   3.242  2.8294 -1.3359  1.3474
 3420SOL    HW221894   2.420   2.561   3.180 -0.4109 -0.1137  1.4006
 3421SOL     OW21895   2.657   2.607   4.782 -0.6039  0.5227  0.1711
 3421SOL    HW121896   2.664   2.520   4.743  0.2678  0.4264  0.5344
 3421SOL    HW221897   2.729   2.649   4.735  1.1207 -0.6528  1.7516
 3422SOL     OW21898   3.462   3.664   7.692  0.4845  0.6435  0.4213
 3422SOL    HW121899   3.466   3.597   7.760  2.7117 -0.7613 -1.1024
 3422SOL    HW221900   3.389   3.632   7.639  2.2767  0.1390 -1.7429
 3423SOL     OW21901   3.706   1.379   5.470 -0.6517 -0.5418 -0.8266
 3423SOL    HW121902   3.696   1.424   5.386 -0.0369 -0.1117 -0.6721
 3423SOL    HW221903   3.802   1.377   5.471 -0.6143  0.9552 -1.0220
 3424SOL     OW21904   3.662   1.514  13.832  0.4388 -0.5136  0.5978
 3424SOL    HW121905   3.690   1.486  13.745  0.2767  1.3759 -0.0716
 3424SOL    HW221906   3.592   1.449  13.846 -0.3873  0.2866  0.2083
 3425SOL     OW21907   0.054   1.839   4.211  0.1136  0.0170  0.2515
 3425SOL    HW121908   0.052   1.769   4.277  1.6136 -0.2929 -0.0180
 3425SOL    HW221909   4.709   1.882   4.232  0.9563  1.6780  0.1265
 3426SOL     OW21910   1.319   0.020   8.786  0.0482  0.5966  0.2233
 3426SOL    HW121911   1.319   0.091   8.850 -1.0392  0.0752  0.8135
 3426SOL    HW221912   1.403   0.037   8.745  0.2867  0.0888  0.5038
 3427SOL     OW21913   4.142   4.350  13.773  0.4204  0.2418 -0.3827
 3427SOL    HW121914   4.162   4.435  13.733  1.0050  0.5025  0.4605
 3427SOL    HW221915   4.134   4.373  13.866 -0.0656 -1.3722 -0.0236
 3428SOL     OW21916   0.249   3.886   4.889  0.1003  0.2599 -0.6895
 3428SOL    HW121917   0.303   3.963   4.871 -1.0140  0.9763 -0.9826
 3428SOL    HW221918   0.230   3.858   4.799  0.2805  0.3484 -0.7565
 3429SOL     OW21919   0.456   3.600  15.283  0.0456  0.3427  0.2984
 3429SOL    HW121920   0.540   3.646  15.275 -0.8986  2.4087  2.1418
 3429SOL    HW221921   0.492   3.514  15.304 -0.8124 -0.4543 -1.5745
 3430SOL     OW21922   0.890   3.656  14.426 -0.1244  0.1376 -0.0551
 3430SOL    HW121923   0.849   3.583  14.472  0.9200 -1.4363 -1.6395
 3430SOL    HW221924   0.843   3.656  14.343  1.0402  0.5629 -0.7108
 3431SOL     OW21925   2.713   1.253   4.852  0.1475 -0.4721  0.0672
 3431SOL    HW121926   2.677   1.232   4.939 -0.7847  1.7747  0.2288
 3431SOL    HW221927   2.655   1.327   4.832  1.5727  0.6307  0.0487
 3432SOL     OW21928   0.493   0.400   7.785 -0.3936 -0.4583  0.1193
 3432SOL    HW121929   0.541   0.462   7.730  0.7084  0.3375  1.9363
 3432SOL    HW221930   0.576   0.384   7.831 -0.4981  1.5677  1.0534
 3433SOL     OW21931   3.071   1.472   3.975  0.2677  0.0516  0.4118
 3433SOL    HW121932   3.114   1.526   3.909 -0.4891  0.6363  0.4092
 3433SOL    HW221933   3.058   1.540   4.042 -0.2891  1.3370 -1.0086
 3434SOL     OW21934   0.753   3.792   3.157  0.3464 -0.6406 -0.2187
 3434SOL    HW121935   0.818   3.786   3.087  1.8753  1.5465  1.0116
 3434SOL    HW221936   0.704   3.710   3.153  1.5340 -1.3369 -0.4084
 3435SOL     OW21937   1.300   1.628   3.992 -0.3416 -0.5890  0.0575
 3435SOL    HW121938   1.323   1.659   4.080 -1.5207  0.7561 -0.1045
 3435SOL    HW221939   1.210   1.601   4.008 -0.7057  1.5186  1.5471
 3436SOL     OW21940   2.443   4.007  16.640 -0.5674 -0.1846 -0.0597
 3436SOL    HW121941   2.472   4.098  16.638  0.6874 -0.5666  1.6665
 3436SOL    HW221942   2.516   3.967  16.594  0.8786  1.7462  0.5857
 3437SOL     OW21943   0.544   0.090   5.829 -0.6486  0.1818 -0.3485
 3437SOL    HW121944   0.529   0.172   5.782  1.1142  1.0768  0.6471
 3437SOL    HW221945   0.588   0.028   5.771  0.3466 -0.4899  1.1006
 3438SOL     OW21946   3.527   0.497   2.621  0.4075 -0.0422 -0.2726
 3438SOL    HW121947   3.573   0.487   2.705 -0.1482  0.5604  0.1019
 3438SOL    HW221948   3.441   0.526   2.650 -0.1914 -1.9673 -0.0922
 3439SOL     OW21949   4.420   0.580   8.895 -0.5133 -0.3011  0.0462
 3439SOL    HW121950   4.427   0.656   8.952  1.6837 -1.1178  0.8960
 3439SOL    HW221951   4.325   0.571   8.892 -0.8179  2.9763  0.2651
 3440SOL     OW21952   4.288   0.299   2.017  0.4198 -0.0570 -0.7273
 3440SOL    HW121953   4.367   0.332   1.975 -1.1591 -0.1445 -3.7087
 3440SOL    HW221954   4.210   0.326   1.969  1.0165  0.4626 -1.3940
 3441SOL     OW21955   0.401   3.858   5.357  0.1802 -0.1763  0.0318
 3441SOL    HW121956   0.339   3.823   5.293 -0.7964  1.4375  0.0995
 3441SOL    HW221957   0.453   3.779   5.371  2.0688  1.1629  0.5577
 3442SOL     OW21958   1.058   3.901   4.935 -0.2872 -0.2855  0.3095
 3442SOL    HW121959   1.114   3.830   4.904  1.7614  0.3793  2.4492
 3442SOL    HW221960   1.058   3.892   5.031 -1.7068 -0.7945  0.2616
 3443SOL     OW21961   3.681   3.362   4.971 -0.1409 -0.0307 -0.4920
 3443SOL    HW121962   3.725   3.319   5.044 -1.3046 -0.3346  0.0277
 3443SOL    HW221963   3.666   3.451   5.003 -1.4042 -0.2904 -0.3659
 3444SOL     OW21964   0.247   4.098   2.772 -0.2399  0.3946 -0.1170
 3444SOL    HW121965   0.291   4.117   2.689 -1.2502 -0.4328 -0.8282
 3444SOL    HW221966   0.154   4.081   2.757 -0.1439 -1.6030  1.4550
 3445SOL     OW21967   3.413   2.401   5.238  0.1053  0.3487 -0.2591
 3445SOL    HW121968   3.342   2.429   5.180 -0.4615  0.3054  0.4170
 3445SOL    HW221969   3.392   2.311   5.259 -4.1625  1.4550  0.1401
 3446SOL     OW21970   2.754   3.338  12.063  0.0382  0.2440 -0.2237
 3446SOL    HW121971   2.837   3.289  12.064 -0.3927 -0.4677  0.6106
 3446SOL    HW221972   2.698   3.275  12.017  0.1749 -0.3374  0.4030
 3447SOL     OW21973   2.627   0.228  16.638 -0.0596  0.2477  0.5175
 3447SOL    HW121974   2.549   0.192  16.680  0.3001  1.6828  2.4404
 3447SOL    HW221975   2.603   0.321  16.645 -0.8497  0.1882 -1.3738
 3448SOL     OW21976   3.791   1.435  12.944  0.8080 -0.3798  0.5714
 3448SOL    HW121977   3.799   1.524  12.979 -1.3173 -0.8836  2.3721
 3448SOL    HW221978   3.881   1.401  12.945  0.2412 -1.9107 -0.8401
 3449SOL     OW21979   4.475   3.079   8.342  0.5971  0.0441  0.4618
 3449SOL    HW121980   4.565   3.092   8.312  0.3782  0.0372 -0.1973
 3449SOL    HW221981   4.464   3.158   8.393 -1.4234  0.4692 -0.6521
 3450SOL     OW21982   3.408   3.514  17.167 -0.5622 -0.3195 -0.0251
 3450SOL    HW121983   3.500   3.502  17.191 -0.9046 -4.3814 -0.8022
 3450SOL    HW221984   3.411   3.514  17.071 -0.3366  2.1228 -0.0209
 3451SOL     OW21985   1.938   0.438  10.637  0.3646 -0.7344 -0.1639
 3451SOL    HW121986   1.866   0.425  10.699  1.7054  1.0667  1.7660
 3451SOL    HW221987   1.933   0.352  10.596 -0.1975 -1.3571  1.2395
 3452SOL     OW21988   4.173   0.737   5.669  0.0717  0.2387 -1.0045
 3452SOL    HW121989   4.105   0.729   5.736  0.5688  1.1836 -0.3745
 3452SOL    HW221990   4.219   0.654   5.667 -0.4269 -0.0661  0.4983
 3453SOL     OW21991   2.190   2.464  16.094 -0.2565  0.6307  0.8516
 3453SOL    HW121992   2.247   2.521  16.145  0.8472 -0.7581  1.1744
 3453SOL    HW221993   2.145   2.422  16.167 -1.9350  0.1421 -0.4479
 3454SOL     OW21994   0.888   1.379   1.647 -0.4686 -0.0994 -0.4688
 3454SOL    HW121995   0.827   1.310   1.623 -3.3014  2.4589 -0.5761
 3454SOL    HW221996   0.939   1.334   1.715 -2.7170 -0.4681  0.9930
 3455SOL     OW21997   1.385   1.411   5.079 -0.2242 -0.3123 -0.1886
 3455SOL    HW121998   1.319   1.346   5.059 -0.8650  0.7833 -1.6262
 3455SOL    HW221999   1.362   1.488   5.027  1.4423 -0.2552 -0.8382
 3456SOL     OW22000   0.131   2.629   4.031  0.7427 -0.8779 -0.4665
 3456SOL    HW122001   0.196   2.612   4.098  1.1839 -0.8734 -0.8952
 3456SOL    HW222002   0.144   2.723   4.028 -2.1796 -0.4069  2.3053
 3457SOL     OW22003   2.663   4.299   3.634  0.2532  0.2256  0.2634
 3457SOL    HW122004   2.736   4.237   3.637  0.6469  0.6098 -1.0027
 3457SOL    HW222005   2.588   4.246   3.607 -0.6830  1.3937  0.5917
 3458SOL     OW22006   1.357   0.971   4.090  0.2725 -0.2680 -0.2112
 3458SOL    HW122007   1.273   0.973   4.043  0.0846 -1.6086  0.0736
 3458SOL    HW222008   1.403   1.047   4.054  0.7394  0.0263  1.0418
 3459SOL     OW22009   1.472   2.833   4.263 -0.8704  0.0890 -0.1181
 3459SOL    HW122010   1.437   2.882   4.189 -1.3992 -0.3226 -0.1441
 3459SOL    HW222011   1.401   2.860   4.321  0.1727  0.2866  1.0560
 3460SOL     OW22012   2.541   4.549  16.381 -0.3911 -0.4209  0.2767
 3460SOL    HW122013   2.513   4.548  16.472  1.2438  1.5795  0.7893
 3460SOL    HW222014   2.558   4.643  16.380  1.0314 -0.6806 -0.2968
 3461SOL     OW22015   4.064   0.297   2.654  0.3736  0.9120  0.2640
 3461SOL    HW122016   4.035   0.382   2.620  0.3262  0.8587  0.1717
 3461SOL    HW222017   3.986   0.259   2.693 -1.7647  1.9258 -3.0401
 3462SOL     OW22018   3.625   0.102   4.847  0.5644 -0.7990 -0.4695
 3462SOL    HW122019   3.669   0.162   4.786  2.3054 -0.3260  1.2449
 3462SOL    HW222020   3.661   0.015   4.833  0.9421 -0.6550 -0.4037
 3463SOL     OW22021   3.449   3.174   0.842 -0.3080 -0.7085  0.2659
 3463SOL    HW122022   3.495   3.251   0.809  0.7085 -1.3498  0.1721
 3463SOL    HW222023   3.521   3.123   0.881 -0.5920 -1.7136 -0.5104
 3464SOL     OW22024   0.218   2.841   5.262  0.0241 -0.1473  0.0790
 3464SOL    HW122025   0.186   2.790   5.337  2.7290  0.5128  1.7005
 3464SOL    HW222026   0.307   2.861   5.291  0.5184 -2.6873  0.3013
 3465SOL     OW22027   1.390   0.845   9.331 -0.0902 -0.3706 -0.0054
 3465SOL    HW122028   1.474   0.858   9.287 -0.5147 -2.7896 -1.4878
 3465SOL    HW222029   1.421   0.896   9.407  0.7453  0.0015 -0.5911
 3466SOL     OW22030   0.276   3.174   5.515 -0.1222 -0.0221 -0.7623
 3466SOL    HW122031   0.181   3.189   5.514  0.1694  1.8360 -1.0549
 3466SOL    HW222032   0.281   3.091   5.562  2.0725  1.6431  1.9004
 3467SOL     OW22033   4.176   1.643  16.781 -0.0042 -0.0681 -0.2639
 3467SOL    HW122034   4.231   1.678  16.851  0.6393 -0.8569 -0.3707
 3467SOL    HW222035   4.208   1.553  16.773 -0.4576 -0.2063 -0.4903
 3468SOL     OW22036   0.296   0.533   9.117 -0.1473  0.0913 -0.3197
 3468SOL    HW122037   0.341   0.573   9.191 -0.4571 -0.8818  0.3904
 3468SOL    HW222038   0.205   0.535   9.146 -0.0149 -0.7522  0.1269
 3469SOL     OW22039   1.772   3.123  14.463  0.0425 -0.0971 -0.0821
 3469SOL    HW122040   1.804   3.156  14.546 -0.4476  0.2292 -0.0236
 3469SOL    HW222041   1.701   3.064  14.487  1.2438 -1.5352 -0.0482
 3470SOL     OW22042   4.665   2.866   4.318 -0.0527 -0.3922  0.4593
 3470SOL    HW122043   4.629   2.930   4.380  1.5197 -0.0794  1.0437
 3470SOL    HW222044   0.016   2.853   4.353  0.3851 -1.9451 -1.2550
 3471SOL     OW22045   3.058   4.711   7.963  0.1382 -0.3074 -0.4877
 3471SOL    HW122046   3.147   4.706   7.927 -0.4703 -0.1265 -2.0275
 3471SOL    HW222047   3.043   0.068   7.963 -2.6910 -0.7586 -0.8958
 3472SOL     OW22048   0.596   2.969   7.069  0.3828  0.1743  0.5834
 3472SOL    HW122049   0.549   2.983   7.151  0.3029 -1.8608  0.8937
 3472SOL    HW222050   0.532   2.993   7.002 -0.8254 -0.6676  1.4439
 3473SOL     OW22051   4.454   3.324   8.530 -0.2902 -1.1315  0.3927
 3473SOL    HW122052   4.520   3.299   8.594  0.9902 -0.0149 -0.4851
 3473SOL    HW222053   4.447   3.415   8.559  2.9457 -0.8655  0.3140
 3474SOL     OW22054   0.783   3.850   3.646 -0.1749 -0.3743 -0.4309
 3474SOL    HW122055   0.814   3.797   3.720  0.7330 -1.2006 -1.4091
 3474SOL    HW222056   0.689   3.854   3.667 -0.2176 -0.9895 -0.5158
 3475SOL     OW22057   2.424   2.530   7.050 -0.1401  0.3160  0.6777
 3475SOL    HW122058   2.477   2.507   6.974  0.0478  3.1822 -0.0395
 3475SOL    HW222059   2.403   2.621   7.032  2.1983  0.6920 -0.0721
 3476SOL     OW22060   0.955   2.719   5.389 -0.7704 -0.0718 -0.5185
 3476SOL    HW122061   1.013   2.791   5.415 -2.1095  0.6976  0.3317
 3476SOL    HW222062   0.990   2.649   5.443  0.7535  2.3629  1.6781
 3477SOL     OW22063   1.418   1.229   2.609  0.2518 -0.2052 -0.0058
 3477SOL    HW122064   1.439   1.312   2.566  0.1686  0.5558  1.4115
 3477SOL    HW222065   1.492   1.232   2.670  0.9382 -0.2984 -0.8286
 3478SOL     OW22066   1.193   4.548  17.009 -0.3871  0.1747 -0.4380
 3478SOL    HW122067   1.282   4.576  17.028  0.6005 -0.9928 -3.2673
 3478SOL    HW222068   1.211   4.470  16.956  0.0847  0.1455 -0.2342
 3479SOL     OW22069   2.786   0.015   7.879 -0.0994  0.2792 -0.3396
 3479SOL    HW122070   2.724   4.682   7.859  0.7442 -0.7581  0.6952
 3479SOL    HW222071   2.869   4.706   7.892  0.0818  0.5351 -0.5676
 3480SOL     OW22072   2.764   1.907   3.575 -0.8877  0.1144 -0.1879
 3480SOL    HW122073   2.799   1.871   3.494  1.4154 -0.1644  0.9350
 3480SOL    HW222074   2.813   1.849   3.633 -0.4523  0.3834 -0.2930
 3481SOL     OW22075   2.393   3.158   4.415 -1.1972  0.3062  0.4007
 3481SOL    HW122076   2.440   3.156   4.331 -1.0779  1.1954  0.4519
 3481SOL    HW222077   2.304   3.159   4.380 -0.0761 -1.5288 -2.5391
 3482SOL     OW22078   1.401   0.294   2.891 -0.4266 -0.1389  0.0494
 3482SOL    HW122079   1.331   0.326   2.949 -0.8074 -1.4566  0.3100
 3482SOL    HW222080   1.474   0.283   2.952 -0.3481  2.3771  0.4319
 3483SOL     OW22081   0.971   2.795   8.393  0.1782 -0.2622  0.5269
 3483SOL    HW122082   0.882   2.826   8.410  0.3260  0.8403 -0.7328
 3483SOL    HW222083   0.964   2.785   8.298  0.1498  0.6263  0.4377
 3484SOL     OW22084   3.671   3.899   0.667  0.0531 -0.3692 -0.2485
 3484SOL    HW122085   3.576   3.895   0.683 -0.0754 -1.6944 -1.2863
 3484SOL    HW222086   3.674   3.975   0.609  0.6687 -0.5470 -0.4420
 3485SOL     OW22087   2.877   3.832   2.754 -0.3270 -0.3450  1.0905
 3485SOL    HW122088   2.865   3.824   2.659  1.6109 -2.5788  1.0145
 3485SOL    HW222089   2.877   3.927   2.764 -1.0950 -0.4210  1.8650
 3486SOL     OW22090   4.731   3.618   6.205 -0.0085  0.2599  0.3345
 3486SOL    HW122091   4.659   3.676   6.180 -0.3491 -0.0096  0.6902
 3486SOL    HW222092   4.689   3.533   6.195  1.8094 -0.5275 -0.5844
 3487SOL     OW22093   1.807   3.850   7.704  0.1605  0.1759 -0.1566
 3487SOL    HW122094   1.825   3.809   7.789  1.1526 -0.1640 -0.5289
 3487SOL    HW222095   1.763   3.784   7.650 -0.2304  0.2676  0.0490
 3488SOL     OW22096   0.495   4.531   6.118  0.2918  0.3909  0.3340
 3488SOL    HW122097   0.453   4.465   6.174  1.4214  0.3793  1.1642
 3488SOL    HW222098   0.415   4.583   6.109  0.1854 -0.3633 -2.9259
 3489SOL     OW22099   0.929   3.221   3.040 -0.1358  0.1140  0.0738
 3489SOL    HW122100   0.884   3.280   2.979 -0.7275  0.2538  0.6455
 3489SOL    HW222101   0.863   3.154   3.058 -1.0651  1.1394  0.4800
 3490SOL     OW22102   4.649   2.523   8.978 -0.5799 -0.5157 -0.8867
 3490SOL    HW122103   4.588   2.558   9.044 -0.0764  2.5978 -2.0629
 3490SOL    HW222104   4.635   2.433   9.005  0.9317 -0.1385  1.1380
 3491SOL     OW22105   1.935   4.107   2.907 -0.0303 -0.4867  0.1891
 3491SOL    HW122106   1.941   4.056   2.988 -0.7441 -0.6216  0.1502
 3491SOL    HW222107   2.019   4.091   2.864  0.7851 -0.0634  1.5989
 3492SOL     OW22108   4.559   2.739   4.972 -0.0936 -0.0317 -0.4243
 3492SOL    HW122109   4.652   2.750   4.951  0.1924  0.2144  0.9526
 3492SOL    HW222110   4.560   2.709   5.063  0.8463  0.7274 -0.1883
 3493SOL     OW22111   1.662   4.052   8.675  0.0160 -0.0525  0.0523
 3493SOL    HW122112   1.608   4.020   8.603 -1.9541  2.2203  0.5159
 3493SOL    HW222113   1.662   3.969   8.722 -1.3409 -0.7274 -1.1380
 3494SOL     OW22114   4.345   4.576   1.939  0.2486 -0.5069  0.8041
 3494SOL    HW122115   4.419   4.544   1.991  0.1489 -0.3616  1.0359
 3494SOL    HW222116   4.315   4.646   1.997 -4.3362 -2.0467  0.3202
 3495SOL     OW22117   0.105   1.974   8.265 -0.1486  0.1719  0.2480
 3495SOL    HW122118   0.044   1.901   8.277 -0.4169  0.2316 -0.7516
 3495SOL    HW222119   0.163   1.945   8.195  1.5380  1.3494  1.1577
 3496SOL     OW22120   1.679   1.835   4.525 -0.3925  0.2292 -0.3454
 3496SOL    HW122121   1.741   1.799   4.588  0.2533 -0.8931 -1.6214
 3496SOL    HW222122   1.729   1.901   4.478  2.4206  0.5605  3.1450
 3497SOL     OW22123   2.265   3.902   5.476 -0.1287  0.3160 -0.1617
 3497SOL    HW122124   2.184   3.941   5.442  0.2619  1.8160  0.6064
 3497SOL    HW222125   2.252   3.871   5.566 -0.3227 -0.4199 -0.4399
 3498SOL     OW22126   0.398   3.517   8.249 -0.1083 -0.4025  0.4470
 3498SOL    HW122127   0.419   3.429   8.281  2.3778 -0.7824 -2.1674
 3498SOL    HW222128   0.486   3.538   8.217 -0.7002 -0.7872 -1.4429
 3499SOL     OW22129   0.395   3.253   6.947  0.1135 -0.4330  0.4473
 3499SOL    HW122130   0.386   3.163   6.916  0.7667 -0.3012 -0.1486
 3499SOL    HW222131   0.470   3.277   6.892 -0.1623  0.0709  0.2997
 3500SOL     OW22132   4.356   0.308   2.991 -0.2193  0.1411  0.0427
 3500SOL    HW122133   4.366   0.300   2.896  2.0854  0.4189  0.2599
 3500SOL    HW222134   4.367   0.403   3.003 -3.5280  0.8810 -2.8825
 3501SOL     OW22135   3.221   3.927  14.669  0.1602  0.2181 -0.4093
 3501SOL    HW122136   3.243   3.964  14.583 -1.2145 -0.3921 -1.0198
 3501SOL    HW222137   3.195   4.005  14.718 -0.1207 -1.4750  2.1331
 3502SOL     OW22138   2.218   4.056   8.917 -0.4696  0.0860  0.5579
 3502SOL    HW122139   2.314   4.053   8.920 -0.4588  0.7726  1.0910
 3502SOL    HW222140   2.204   4.150   8.904 -0.6576  0.1692  1.3654
 3503SOL     OW22141   4.440   0.551  12.340  0.1417  0.0220 -0.2459
 3503SOL    HW122142   4.356   0.531  12.381  1.0529 -0.1074  1.5558
 3503SOL    HW222143   4.476   0.607  12.408  1.6893 -1.2998  0.0251
 3504SOL     OW22144   1.369   3.394   6.470  0.0206  0.0933  0.4330
 3504SOL    HW122145   1.435   3.463   6.461  0.0671  0.2131  1.6621
 3504SOL    HW222146   1.403   3.342   6.543 -1.0449 -0.8661  0.2450
 3505SOL     OW22147   2.179   2.451   1.552  0.1656 -0.3929  0.8353
 3505SOL    HW122148   2.264   2.439   1.510 -0.8312  0.2053 -1.3369
 3505SOL    HW222149   2.177   2.547   1.550 -0.7250 -0.4182  0.6811
 3506SOL     OW22150   4.047   2.571   0.453 -0.4856 -0.1513  0.1797
 3506SOL    HW122151   4.065   2.663   0.470  1.4994 -0.9760  2.7014
 3506SOL    HW222152   4.051   2.536   0.542 -2.3892  1.1674  0.7689
 3507SOL     OW22153   0.690   4.554   2.672  0.1225  0.5901  0.1061
 3507SOL    HW122154   0.680   4.648   2.658 -0.8555  0.2950 -1.2113
 3507SOL    HW222155   0.607   4.518   2.639 -0.8916  2.0842  1.0740
 3508SOL     OW22156   3.028   2.150  10.633  0.0379 -0.4046  0.8455
 3508SOL    HW122157   3.045   2.174  10.724  1.4865  0.2943  0.3965
 3508SOL    HW222158   2.947   2.193  10.608 -0.1406 -1.7376 -0.8942
 3509SOL     OW22159   3.860   0.105  14.160 -0.0865  0.0891 -0.2941
 3509SOL    HW122160   3.898   0.114  14.247 -0.9788 -1.1704  0.2226
 3509SOL    HW222161   3.856   0.200  14.148  0.9057  0.0126 -1.2386
 3510SOL     OW22162   1.447   3.577  11.134  0.7538  0.2291 -0.8298
 3510SOL    HW122163   1.527   3.627  11.147  1.9724 -1.3275 -2.4145
 3510SOL    HW222164   1.467   3.535  11.051  1.7429  1.1760 -1.0603
 3511SOL     OW22165   0.869   3.241   6.709 -0.1697 -0.7861  0.1906
 3511SOL    HW122166   0.959   3.246   6.743 -0.5433  0.1824  1.0515
 3511SOL    HW222167   0.882   3.217   6.617  1.7792  0.5429  0.1039
 3512SOL     OW22168   1.114   1.086  10.853  0.1324 -0.5220 -0.2176
 3512SOL    HW122169   1.152   1.080  10.941  0.2210 -3.6050 -0.4694
 3512SOL    HW222170   1.049   1.016  10.852 -2.4561  1.8591  1.9395
 3513SOL     OW22171   2.474   0.974  16.685 -0.3385 -0.4471  0.1088
 3513SOL    HW122172   2.470   0.897  16.742 -0.7124  0.9608  1.9928
 3513SOL    HW222173   2.454   0.931  16.602 -2.5910 -1.5129  1.2081
 3514SOL     OW22174   4.009   0.022   5.119 -0.9385  0.4617 -0.4935
 3514SOL    HW122175   4.060   0.001   5.041  0.0965  0.0536  0.2986
 3514SOL    HW222176   4.036   0.111   5.138  0.6460  0.2020 -1.5695
 3515SOL     OW22177   3.987   1.096   2.179  0.1398  0.3733 -0.4503
 3515SOL    HW122178   3.933   1.146   2.118  0.8899  0.0538 -1.3763
 3515SOL    HW222179   3.966   1.009   2.145  0.0290 -0.4323  1.6431
 3516SOL     OW22180   0.371   1.977   4.407 -0.0309  0.3802  0.4153
 3516SOL    HW122181   0.329   1.937   4.332  2.6610 -0.1451 -0.8238
 3516SOL    HW222182   0.375   1.905   4.470 -0.3634  0.2799  0.3204
 3517SOL     OW22183   2.985   2.518   3.975  0.4620 -0.4889 -0.1590
 3517SOL    HW122184   2.908   2.526   4.031  0.4230  0.2626 -0.3237
 3517SOL    HW222185   3.060   2.512   4.035  0.0700  0.2663  0.3941
 3518SOL     OW22186   1.315   3.371   8.084  0.1743 -0.4940  0.1549
 3518SOL    HW122187   1.377   3.429   8.128 -0.0109 -0.3626  0.2427
 3518SOL    HW222188   1.317   3.391   7.991  1.0428 -2.2881 -0.2182
 3519SOL     OW22189   1.884   1.382  13.632  0.0077 -0.4246  0.2003
 3519SOL    HW122190   1.909   1.474  13.624 -0.8364 -0.1963  0.1472
 3519SOL    HW222191   1.966   1.337  13.653 -0.1808 -0.6752  0.3992
 3520SOL     OW22192   1.748   3.186   6.936  0.4206  0.5273  0.1269
 3520SOL    HW122193   1.730   3.108   6.883 -0.4052  0.5332  0.3851
 3520SOL    HW222194   1.764   3.160   7.027  1.8562 -1.2828 -0.6434
 3521SOL     OW22195   0.072   2.958  14.693  0.3253  0.3589 -0.3198
 3521SOL    HW122196   0.163   2.947  14.665  0.6204 -0.2016  0.8666
 3521SOL    HW222197   0.081   3.034  14.750  0.7245 -1.2003  1.6966
 3522SOL     OW22198   1.183   2.405   4.738  0.0326  0.0863 -0.1039
 3522SOL    HW122199   1.243   2.462   4.787  1.6366 -0.7846 -1.0574
 3522SOL    HW222200   1.207   2.320   4.775 -0.8407  0.7748  2.0208
 3523SOL     OW22201   3.004   3.533  17.535 -0.1890  0.0683  0.0710
 3523SOL    HW122202   3.095   3.537  17.505 -0.2789  2.0642  0.0405
 3523SOL    HW222203   2.994   3.441  17.511 -0.2840 -0.5672  2.5657
 3524SOL     OW22204   2.786   1.104   2.681 -0.4286  0.1828  0.1972
 3524SOL    HW122205   2.790   1.033   2.745  0.0051  1.8912  2.0593
 3524SOL    HW222206   2.752   1.065   2.600  0.7927 -2.2354  0.8568
 3525SOL     OW22207   1.217   0.475   9.070  0.5383 -0.0233  0.4186
 3525SOL    HW122208   1.130   0.515   9.066 -0.7492 -2.8033  1.0645
 3525SOL    HW222209   1.223   0.462   9.164 -0.3418 -1.0473  0.3346
 3526SOL     OW22210   3.592   2.114  13.433 -0.8626 -0.0743  0.0756
 3526SOL    HW122211   3.567   2.197  13.393  0.2445  0.6287  0.8295
 3526SOL    HW222212   3.668   2.092  13.379 -1.0478  0.5094 -0.4191
 3527SOL     OW22213   0.540   3.805   8.396 -0.2546 -0.4855  0.1805
 3527SOL    HW122214   0.485   3.727   8.401  0.4637 -0.9354  0.9568
 3527SOL    HW222215   0.602   3.784   8.326 -1.1684 -0.0928 -0.7524
 3528SOL     OW22216   1.655   2.976   3.399 -0.2839  0.1660 -0.0574
 3528SOL    HW122217   1.661   2.933   3.314  0.8450  1.9980 -0.8951
 3528SOL    HW222218   1.641   3.067   3.373 -1.4880 -0.7813 -2.7221
 3529SOL     OW22219   3.060   2.431   3.123 -0.2738 -0.5332 -0.2011
 3529SOL    HW122220   3.113   2.460   3.197 -1.4602  2.5264 -0.5373
 3529SOL    HW222221   2.993   2.499   3.127 -0.4536 -0.6328 -1.7203
 3530SOL     OW22222   4.486   1.848  11.595 -0.5312 -0.1195  0.2079
 3530SOL    HW122223   4.551   1.795  11.640  1.1775  1.8955  0.0993
 3530SOL    HW222224   4.531   1.932  11.588 -0.1901 -0.3568 -0.5221
 3531SOL     OW22225   0.435   3.610   2.281 -0.4070 -0.0489  0.4191
 3531SOL    HW122226   0.448   3.543   2.214  1.0366 -0.2486  0.8920
 3531SOL    HW222227   0.393   3.677   2.227 -0.1553  1.4189  2.0192
 3532SOL     OW22228   1.070   2.529   5.570  0.5205  0.1461  0.6571
 3532SOL    HW122229   1.071   2.433   5.570 -3.6571  0.0922  1.3246
 3532SOL    HW222230   1.005   2.542   5.640 -0.6412  1.1489 -0.6052
 3533SOL     OW22231   2.601   3.520  17.305 -0.2373 -0.4711  0.0228
 3533SOL    HW122232   2.582   3.490  17.216 -1.4996 -1.0681  0.4981
 3533SOL    HW222233   2.680   3.573  17.293 -0.9227  0.2506 -1.3161
 3534SOL     OW22234   3.084   3.753   5.932  0.6947 -0.0492  0.3166
 3534SOL    HW122235   3.014   3.739   5.867  1.7478  0.3344 -0.9007
 3534SOL    HW222236   3.059   3.681   5.990 -2.5845 -0.2865 -1.3575
 3535SOL     OW22237   2.162   0.811   2.677 -0.4539 -0.4357 -0.9102
 3535SOL    HW122238   2.135   0.893   2.719  0.1188 -0.6941 -0.0184
 3535SOL    HW222239   2.244   0.784   2.719 -1.5667 -2.0448  0.2134
 3536SOL     OW22240   3.277   0.420   3.113 -0.4721 -0.1279 -0.0014
 3536SOL    HW122241   3.278   0.356   3.042 -2.8804  1.4832 -1.4617
 3536SOL    HW222242   3.315   0.376   3.189 -0.9134 -2.3366 -1.0472
 3537SOL     OW22243   0.058   0.644   1.947  0.3808  0.6447  0.1536
 3537SOL    HW122244   0.033   0.691   2.027  0.2366 -1.3350  1.2706
 3537SOL    HW222245   0.022   0.698   1.877 -1.8344 -1.1828 -0.1038
 3538SOL     OW22246   2.503   0.728  16.877 -0.3806  0.1172  0.2395
 3538SOL    HW122247   2.516   0.638  16.847 -1.6613  0.1990 -0.5403
 3538SOL    HW222248   2.520   0.721  16.971 -1.0908 -0.3362  0.3357
 3539SOL     OW22249   0.421   1.382   7.376 -0.1408  0.2798  0.0966
 3539SOL    HW122250   0.462   1.392   7.463  1.3878  1.3335 -0.7419
 3539SOL    HW222251   0.485   1.397   7.306 -0.9922  2.3893 -0.1984
 3540SOL     OW22252   1.902   1.905   2.155  0.1353 -0.5585 -0.1761
 3540SOL    HW122253   1.894   1.980   2.096  2.4065 -1.7178 -1.9310
 3540SOL    HW222254   1.986   1.873   2.123  1.4611  0.0428  2.7090
 3541SOL     OW22255   2.191   4.383  11.652  0.2334 -0.0882 -0.5923
 3541SOL    HW122256   2.265   4.391  11.592  0.1384  0.2341 -0.6622
 3541SOL    HW222257   2.225   4.306  11.699 -0.4195  0.5588  0.9365
 3542SOL     OW22258   2.693   4.310   0.152  0.4051 -0.1208 -0.1873
 3542SOL    HW122259   2.736   4.231   0.186 -0.7519  0.7054  3.1541
 3542SOL    HW222260   2.759   4.366   0.111  0.5779  1.3505  2.0869
 3543SOL     OW22261   2.031   1.743  14.849  0.1856  0.1430  0.9024
 3543SOL    HW122262   2.117   1.761  14.810 -0.5190  1.0617 -0.2377
 3543SOL    HW222263   2.037   1.797  14.928  0.1577  5.6775 -2.8954
 3544SOL     OW22264   0.469   3.014   4.768 -0.2104 -0.1934 -0.0565
 3544SOL    HW122265   0.539   3.079   4.778 -0.5440 -0.2177  2.4786
 3544SOL    HW222266   0.479   2.968   4.851 -0.2429  1.0689  0.6529
 3545SOL     OW22267   3.569   1.185  13.484  0.6403 -0.9284  0.2667
 3545SOL    HW122268   3.603   1.104  13.448  2.1487 -0.3447  0.3771
 3545SOL    HW222269   3.485   1.152  13.516 -0.0635  1.3133  0.7341
 3546SOL     OW22270   3.284   0.748  17.082  0.7113 -0.3302  0.3619
 3546SOL    HW122271   3.291   0.660  17.118  1.8278 -0.3463  0.0814
 3546SOL    HW222272   3.356   0.765  17.022  1.6989 -1.5859  1.1898
 3547SOL     OW22273   2.907   2.449  15.394  0.2186  0.0109 -0.2880
 3547SOL    HW122274   2.949   2.393  15.330  1.8469  1.7269 -0.7212
 3547SOL    HW222275   2.813   2.436  15.385  0.2814 -1.0035  0.4891
 3548SOL     OW22276   3.097   1.291   5.775  0.1163 -0.2205  0.1570
 3548SOL    HW122277   3.073   1.239   5.852 -0.4498  1.5886  1.2148
 3548SOL    HW222278   3.190   1.271   5.760 -0.1226 -1.8561  0.8754
 3549SOL     OW22279   4.382   4.196   3.840  0.2442  0.3928  0.2814
 3549SOL    HW122280   4.323   4.166   3.910  1.2276 -1.6363  0.2288
 3549SOL    HW222281   4.345   4.167   3.756 -0.9528  0.3707  0.8150
 3550SOL     OW22282   0.143   4.478   9.887  0.0753  0.0780  0.3227
 3550SOL    HW122283   0.153   4.392   9.928  0.3747 -0.6050 -1.1928
 3550SOL    HW222284   0.203   4.473   9.813 -0.2361  0.4398  0.0452
 3551SOL     OW22285   2.949   3.183   4.083  0.0241 -0.1679 -0.8334
 3551SOL    HW122286   2.879   3.117   4.081 -2.2574  2.2924 -2.0270
 3551SOL    HW222287   2.910   3.236   4.013 -2.4939  1.1247  1.5172
 3552SOL     OW22288   2.278   3.908   2.589 -0.0952 -0.0086 -1.1272
 3552SOL    HW122289   2.360   3.884   2.633  0.8494  0.6570 -2.5246
 3552SOL    HW222290   2.231   3.825   2.598 -1.4530  0.7724 -0.9980
 3553SOL     OW22291   3.596   1.741   2.669  0.4160 -0.0014  0.2026
 3553SOL    HW122292   3.560   1.784   2.591  3.8271  3.0146  0.2772
 3553SOL    HW222293   3.663   1.802   2.699 -0.9465  1.5772 -0.0014
 3554SOL     OW22294   1.494   4.491   0.054 -0.4038  0.5608 -0.1253
 3554SOL    HW122295   1.451   4.540   0.123 -0.0464 -2.3609  2.2100
 3554SOL    HW222296   1.567   4.456   0.106  0.0052  2.1935  0.3880
 3555SOL     OW22297   4.435   2.544   4.819 -0.1243 -0.3704  0.4849
 3555SOL    HW122298   4.480   2.617   4.861 -0.4147  0.3489 -0.4400
 3555SOL    HW222299   4.375   2.589   4.759  1.1203  0.5399 -0.0873
 3556SOL     OW22300   3.889   4.233   8.498  0.2255  0.1465 -0.2287
 3556SOL    HW122301   3.824   4.220   8.567 -1.2847 -1.2855 -1.9186
 3556SOL    HW222302   3.947   4.160   8.517  0.4126  0.5665  0.8296
 3557SOL     OW22303   3.612   0.185  13.318  0.3000  0.2645  0.3756
 3557SOL    HW122304   3.610   0.276  13.347  1.5271 -0.6403  3.3613
 3557SOL    HW222305   3.563   0.200  13.237 -1.1983 -1.3847  0.9765
 3558SOL     OW22306   2.151   1.965   4.332  0.7081 -0.4871  0.1394
 3558SOL    HW122307   2.150   1.913   4.251 -1.4569  2.4202 -1.6862
 3558SOL    HW222308   2.224   1.926   4.380 -0.5928 -1.4102  1.3646
 3559SOL     OW22309   1.920   0.553   4.233  0.0144 -0.0500  0.2512
 3559SOL    HW122310   1.998   0.574   4.181 -1.4199 -1.7824 -2.6063
 3559SOL    HW222311   1.869   0.510   4.165  1.0350 -1.3427  0.3025
 3560SOL     OW22312   4.568   2.398   8.141 -0.4260 -0.0680 -0.1675
 3560SOL    HW122313   4.535   2.474   8.092 -0.8690 -0.2751 -0.1984
 3560SOL    HW222314   4.652   2.368   8.107 -0.6650 -0.0788 -0.7573
 3561SOL     OW22315   4.625   4.063   1.396 -0.0356 -0.1569 -0.7943
 3561SOL    HW122316   4.718   4.041   1.404 -0.7694 -2.9420  0.3559
 3561SOL    HW222317   4.633   4.153   1.366  0.7410  0.1900  0.4339
 3562SOL     OW22318   2.096   2.081  13.412 -0.6642  0.2333 -0.1169
 3562SOL    HW122319   2.050   2.027  13.348 -2.6958 -0.7483  2.1856
 3562SOL    HW222320   2.183   2.055  13.382 -1.4287 -0.7777 -1.4844
 3563SOL     OW22321   2.110   0.071   2.021  0.3788  0.0956  0.5391
 3563SOL    HW122322   2.075   0.108   2.102 -1.8161 -1.6650  0.3845
 3563SOL    HW222323   2.191   0.120   2.006 -0.0153  0.5501 -0.0917
 3564SOL     OW22324   3.625   0.689   5.121 -0.0987  0.2351  0.7306
 3564SOL    HW122325   3.670   0.607   5.144  0.3328 -0.2538 -1.8730
 3564SOL    HW222326   3.559   0.650   5.064 -0.2400  2.2006 -0.4459
 3565SOL     OW22327   0.065   4.507   4.061 -0.0035 -0.2480  0.1049
 3565SOL    HW122328   0.155   4.524   4.034  0.0648 -0.2286  0.3454
 3565SOL    HW222329   0.026   4.584   4.020  1.6704 -0.0768 -1.2120
 3566SOL     OW22330   3.956   3.979  13.970 -0.2993  0.0289 -0.4383
 3566SOL    HW122331   4.052   3.989  13.973 -0.4800  2.2274 -2.0506
 3566SOL    HW222332   3.955   3.893  13.928 -0.1391 -0.0788 -0.2212
 3567SOL     OW22333   1.702   2.525   4.348 -0.1817 -0.0873 -0.1501
 3567SOL    HW122334   1.794   2.507   4.330  0.0216  2.0853 -1.3607
 3567SOL    HW222335   1.706   2.587   4.421  1.2681 -0.5981  0.1887
 3568SOL     OW22336   1.721   4.572   7.415  0.2545  0.0310  0.5097
 3568SOL    HW122337   1.814   4.551   7.421  0.2904  0.0154 -0.1094
 3568SOL    HW222338   1.723   4.625   7.336  2.1954  0.9908  1.2141
 3569SOL     OW22339   2.676   2.779  11.768  0.1194 -0.1739  0.1326
 3569SOL    HW122340   2.723   2.859  11.789 -0.0523 -0.1861  0.5645
 3569SOL    HW222341   2.601   2.813  11.719 -0.5909  0.4481  1.6698
 3570SOL     OW22342   1.579   2.432   3.274  0.4717  0.0833 -0.1304
 3570SOL    HW122343   1.509   2.461   3.332 -0.2821  0.1012 -1.0562
 3570SOL    HW222344   1.659   2.466   3.315  1.5722 -0.4852 -1.8037
 3571SOL     OW22345   3.773   4.277   6.322 -0.4489 -0.2587 -0.1403
 3571SOL    HW122346   3.856   4.294   6.369 -0.8780  0.2836  0.4282
 3571SOL    HW222347   3.775   4.345   6.255 -0.4058 -0.6858 -0.5728
 3572SOL     OW22348   1.984   3.030  16.711  0.0603  0.1680 -0.6231
 3572SOL    HW122349   2.035   3.080  16.646 -0.7152 -0.8823 -2.0542
 3572SOL    HW222350   2.058   2.981  16.747 -1.5373 -1.8822 -0.1213
 3573SOL     OW22351   3.486   0.129   6.471 -0.1484 -0.1556 -0.5693
 3573SOL    HW122352   3.430   0.175   6.533 -1.7856 -0.4523 -1.8434
 3573SOL    HW222353   3.573   0.155   6.503  0.9743 -1.7061 -2.3515
 3574SOL     OW22354   2.690   3.951   5.267  0.5043  0.8859 -0.2007
 3574SOL    HW122355   2.658   3.863   5.250  0.1490  0.8314  0.7514
 3574SOL    HW222356   2.645   3.980   5.347  0.5224 -0.1386  0.1749
 3575SOL     OW22357   0.817   2.594  16.509 -0.3202  0.3539 -0.8130
 3575SOL    HW122358   0.831   2.559  16.422  0.4371  1.2409 -1.0553
 3575SOL    HW222359   0.777   2.675  16.477 -1.0019  0.4430  0.2771
 3576SOL     OW22360   3.389   2.802   3.157  0.6725 -0.0666 -0.5343
 3576SOL    HW122361   3.384   2.751   3.076 -0.1318 -1.2343  0.2470
 3576SOL    HW222362   3.410   2.883   3.110  0.0087 -0.1660 -1.0149
 3577SOL     OW22363   3.961   2.583   4.678 -0.3934 -0.1197  0.0595
 3577SOL    HW122364   3.920   2.559   4.761  0.3346 -0.2951  0.3738
 3577SOL    HW222365   3.885   2.578   4.620  0.3760  0.2463 -0.9816
 3578SOL     OW22366   0.918   4.375  15.182 -0.6357  0.0158  0.1528
 3578SOL    HW122367   1.003   4.418  15.175 -0.8522  0.9399  3.2151
 3578SOL    HW222368   0.938   4.299  15.127  0.2391 -1.7119  2.8952
 3579SOL     OW22369   2.714   2.204   5.340 -0.2177 -0.0651 -0.2710
 3579SOL    HW122370   2.795   2.253   5.353 -1.3583  1.3914  1.3542
 3579SOL    HW222371   2.732   2.130   5.398  1.6748  0.2791 -0.4376
 3580SOL     OW22372   1.514   2.478   0.472  0.0708 -0.0012  0.2095
 3580SOL    HW122373   1.585   2.542   0.479  1.8531 -1.9120 -0.0362
 3580SOL    HW222374   1.434   2.526   0.491  0.2451  0.7254 -0.8783
 3581SOL     OW22375   1.794   3.367   4.222 -0.2784 -0.0763  0.3439
 3581SOL    HW122376   1.703   3.363   4.192 -0.5069 -0.3381  1.0862
 3581SOL    HW222377   1.793   3.288   4.276 -0.5064  1.1089  2.0597
 3582SOL     OW22378   3.087   4.290   1.992 -0.1484 -0.0278 -0.1537
 3582SOL    HW122379   3.044   4.277   1.907  1.2098  1.4214 -1.0505
 3582SOL    HW222380   3.039   4.236   2.055 -1.6149 -0.6784 -1.8027
 3583SOL     OW22381   4.574   4.417   4.422  0.3564  0.1360 -0.3539
 3583SOL    HW122382   4.488   4.405   4.380 -0.1412  2.6583 -0.0256
 3583SOL    HW222383   4.629   4.376   4.355 -1.9684 -1.0506 -1.5351
 3584SOL     OW22384   2.747   0.298   2.940  0.4369 -0.6430  0.0549
 3584SOL    HW122385   2.693   0.240   2.994 -0.6272 -0.9281 -1.3068
 3584SOL    HW222386   2.806   0.333   3.006 -0.6842 -0.5286  0.9934
 3585SOL     OW22387   4.394   3.071  15.171  0.3060  0.3126  0.1250
 3585SOL    HW122388   4.417   3.144  15.229  0.2590 -0.0374  0.5910
 3585SOL    HW222389   4.481   3.045  15.143  0.9721  0.4003  2.0918
 3586SOL     OW22390   3.909   1.561   3.341 -0.5427 -0.5351 -0.2309
 3586SOL    HW122391   4.002   1.582   3.351 -1.3004  2.3809  0.6826
 3586SOL    HW222392   3.902   1.609   3.258 -1.0933 -0.0845  0.0720
 3587SOL     OW22393   3.575   2.773   7.677  0.4196  0.0912  0.5222
 3587SOL    HW122394   3.502   2.721   7.644 -0.7463  3.5879 -2.5036
 3587SOL    HW222395   3.634   2.777   7.602  0.1616  0.1772  0.3200
 3588SOL     OW22396   2.657   4.293  17.223 -0.3085  0.1255 -0.2284
 3588SOL    HW122397   2.643   4.372  17.277  2.6282  0.8618 -0.5675
 3588SOL    HW222398   2.614   4.314  17.140 -0.2720  0.0598 -0.2636
 3589SOL     OW22399   3.636   0.452   6.525  0.1209 -0.2162 -0.9694
 3589SOL    HW122400   3.718   0.497   6.546 -1.8522  2.8845 -0.0990
 3589SOL    HW222401   3.663   0.360   6.524  0.3797 -0.1280 -2.1691
 3590SOL     OW22402   2.159   1.681  11.718  0.2099  1.1304  0.5236
 3590SOL    HW122403   2.167   1.715  11.629 -0.0295  0.6321  0.3126
 3590SOL    HW222404   2.128   1.595  11.692 -0.9218  1.1531  1.8226
 3591SOL     OW22405   0.044   0.603   8.208  0.4068 -0.3742  0.1195
 3591SOL    HW122406   0.064   0.513   8.181  1.3271 -0.2944  0.5470
 3591SOL    HW222407   0.001   0.579   8.290 -0.0118  2.3860  0.6942
 3592SOL     OW22408   2.571   3.795   0.919 -0.8371 -0.2917  0.0998
 3592SOL    HW122409   2.596   3.753   0.837 -0.0549 -1.3610  0.8813
 3592SOL    HW222410   2.652   3.801   0.970 -0.1829 -1.7891 -0.7679
 3593SOL     OW22411   3.496   3.047  10.398 -0.0531 -0.3897 -0.0078
 3593SOL    HW122412   3.484   3.097  10.317  3.1397  1.4130  0.6542
 3593SOL    HW222413   3.422   3.082  10.448 -1.0656  0.1203 -1.8653
 3594SOL     OW22414   0.156   0.252   5.276 -0.0510 -0.0275  0.6529
 3594SOL    HW122415   0.232   0.224   5.224  0.8074  1.7784  0.9629
 3594SOL    HW222416   0.185   0.222   5.362 -1.1970  1.2908  1.4752
 3595SOL     OW22417   1.701   4.476   7.882  0.1933  0.7383 -0.6848
 3595SOL    HW122418   1.616   4.466   7.839 -0.2225 -1.4953  0.6886
 3595SOL    HW222419   1.720   4.383   7.892 -0.3483  0.7835  0.7407
 3596SOL     OW22420   0.868   2.110   5.339  0.1564 -0.7949 -0.3040
 3596SOL    HW122421   0.885   2.094   5.247  1.3065 -0.6156 -0.1256
 3596SOL    HW222422   0.812   2.188   5.333  1.1396 -0.1001 -0.4926
 3597SOL     OW22423   3.065   4.307   2.895 -0.2672 -0.1634  0.0287
 3597SOL    HW122424   3.045   4.374   2.830 -0.8014 -0.0456  0.3093
 3597SOL    HW222425   3.131   4.247   2.861 -2.0339 -1.7496 -0.6451
 3598SOL     OW22426   4.174   3.859   5.734  0.2720 -0.1913 -0.4536
 3598SOL    HW122427   4.244   3.899   5.683  0.0428  0.4707 -0.2587
 3598SOL    HW222428   4.208   3.868   5.823  2.0666  1.8882 -1.3465
 3599SOL     OW22429   4.659   3.119   7.094  0.6571  0.1088  0.3639
 3599SOL    HW122430   4.571   3.149   7.074  0.4101 -1.9630 -1.5922
 3599SOL    HW222431   4.653   3.108   7.189  0.1394  1.9979  0.5451
 3600SOL     OW22432   0.227   1.154   2.982 -0.2460  0.2113 -0.7224
 3600SOL    HW122433   0.146   1.149   2.931  1.4226 -1.4184 -3.2211
 3600SOL    HW222434   0.211   1.092   3.053  2.4226 -0.7319 -0.9674
 3601SOL     OW22435   2.286   4.541   2.772 -0.2444  0.2917 -0.5038
 3601SOL    HW122436   2.305   4.449   2.786 -3.0722 -0.1834  0.2097
 3601SOL    HW222437   2.362   4.577   2.725 -0.5443 -0.5831 -1.6424
 3602SOL     OW22438   4.109   2.704   0.179  0.0214 -0.1137 -0.6913
 3602SOL    HW122439   4.097   2.635   0.245 -1.5910 -1.3695 -2.2960
 3602SOL    HW222440   4.166   2.662   0.115 -3.3486 -3.3999 -1.5221
 3603SOL     OW22441   3.098   2.821  14.498  0.1395  0.4103  0.8317
 3603SOL    HW122442   3.139   2.815  14.584 -1.1401 -1.3669  1.3358
 3603SOL    HW222443   3.180   2.833  14.451 -1.3665  1.8733 -1.4206
 3604SOL     OW22444   4.704   4.074   4.392 -0.0165  0.2104 -0.5588
 3604SOL    HW122445   0.022   4.035   4.324 -0.0917  3.1103 -2.2963
 3604SOL    HW222446   4.731   4.166   4.380  2.8577 -0.6433 -0.6926
 3605SOL     OW22447   1.497   4.321   7.754 -0.6355  0.3710 -0.0228
 3605SOL    HW122448   1.498   4.235   7.713 -1.0145  0.2082  0.3089
 3605SOL    HW222449   1.476   4.295   7.843  0.3569 -0.1137  0.0685
 3606SOL     OW22450   1.554   3.965  12.739  0.5319  0.0909 -0.9364
 3606SOL    HW122451   1.637   3.955  12.787  1.2903 -1.5013 -2.5494
 3606SOL    HW222452   1.507   4.020  12.801  1.8769  0.2754 -0.0680
 3607SOL     OW22453   0.680   0.952   7.052 -0.3020 -0.1005  0.4629
 3607SOL    HW122454   0.642   1.034   7.020  2.2502  1.9122  2.5185
 3607SOL    HW222455   0.754   0.985   7.103 -0.2125  0.0397  0.2432
 3608SOL     OW22456   0.855   1.617  11.589  0.3076 -0.2195 -0.2354
 3608SOL    HW122457   0.919   1.596  11.657 -0.3594  1.2352  0.8536
 3608SOL    HW222458   0.910   1.677  11.540  4.6047 -2.4488  1.8298
 3609SOL     OW22459   3.398   3.917   0.645 -0.1991  1.0044  0.3373
 3609SOL    HW122460   3.392   3.872   0.729 -0.0324  0.5347  0.1000
 3609SOL    HW222461   3.339   3.858   0.598 -1.4259  0.9592  1.9237
 3610SOL     OW22462   0.220   0.048   2.119 -0.0620  0.2561 -0.6580
 3610SOL    HW122463   0.299   0.088   2.084  1.1582 -1.6866 -0.1466
 3610SOL    HW222464   0.158   0.090   2.060  0.0080  1.7739  0.3651
 3611SOL     OW22465   2.665   4.121  15.274 -0.0848 -0.3213 -0.3699
 3611SOL    HW122466   2.743   4.066  15.262  0.0222  0.0177 -1.2266
 3611SOL    HW222467   2.644   4.093  15.363 -1.0320  0.9165 -0.2218
 3612SOL     OW22468   1.063   1.380  16.379 -0.0925  0.3085  0.3393
 3612SOL    HW122469   1.051   1.440  16.305  1.0876 -0.7590 -0.7152
 3612SOL    HW222470   1.091   1.444  16.444 -0.8793  0.5226  0.4636
 3613SOL     OW22471   4.692   0.902  11.803  0.3947  0.5448  0.1809
 3613SOL    HW122472   4.707   0.914  11.897 -0.4046 -0.2735  0.4029
 3613SOL    HW222473   0.015   0.966  11.763  0.3327 -0.6062 -1.7380
 3614SOL     OW22474   4.138   4.229   8.725  0.3232 -0.4056 -0.4524
 3614SOL    HW122475   4.051   4.263   8.745  0.6882 -1.1955  2.6077
 3614SOL    HW222476   4.110   4.139   8.707  2.7474 -1.0934 -0.8037
 3615SOL     OW22477   3.043   2.952   1.971 -0.0775  0.1986 -0.1469
 3615SOL    HW122478   3.038   3.045   1.952  0.7405  0.5716  1.3980
 3615SOL    HW222479   3.139   2.944   1.971  0.2056  3.6466 -0.9518
 3616SOL     OW22480   0.824   3.680   4.346  0.5137 -0.0478 -0.4159
 3616SOL    HW122481   0.756   3.692   4.280  1.0402  1.3924 -0.7029
 3616SOL    HW222482   0.888   3.740   4.309 -0.8670  1.7853  0.1391
 3617SOL     OW22483   1.075   4.149  16.664  0.6063  0.2782 -0.1298
 3617SOL    HW122484   1.013   4.097  16.717  1.1316  1.1387  1.3128
 3617SOL    HW222485   1.082   4.092  16.587  0.6705 -0.5709  0.4989
 3618SOL     OW22486   3.457   3.341  16.705  0.3274  0.0093 -0.2692
 3618SOL    HW122487   3.533   3.341  16.646 -0.0954 -0.1395 -0.8134
 3618SOL    HW222488   3.382   3.343  16.646  0.9306 -2.0673 -1.1055
 3619SOL     OW22489   2.099   4.129   1.793 -0.0491  0.2863  0.3649
 3619SOL    HW122490   2.029   4.087   1.843 -1.7345  1.7450 -0.7643
 3619SOL    HW222491   2.056   4.144   1.708 -0.6824  1.4431  0.8842
 3620SOL     OW22492   2.170   1.359  14.607 -0.1273  0.3950  0.1262
 3620SOL    HW122493   2.125   1.424  14.552  0.9194 -1.0913 -2.4947
 3620SOL    HW222494   2.170   1.413  14.686  3.7079  1.0467 -0.3217
 3621SOL     OW22495   0.316   0.174  16.603  0.1489  0.3466  0.3256
 3621SOL    HW122496   0.401   0.129  16.592  0.9546  1.9384  0.0660
 3621SOL    HW222497   0.337   0.259  16.641 -0.1824  0.3632  0.4640
 3622SOL     OW22498   0.303   2.216   3.887  0.2529  0.1424 -0.2823
 3622SOL    HW122499   0.239   2.166   3.936  0.0958  0.9622  0.3518
 3622SOL    HW222500   0.348   2.152   3.832  0.5354  0.2380 -0.1646
 3623SOL     OW22501   0.802   3.065   9.955 -0.6053  0.3245  0.0208
 3623SOL    HW122502   0.782   3.087  10.046  0.2391  0.7790  0.0974
 3623SOL    HW222503   0.874   3.005   9.972 -1.0480 -0.2038  0.0266
 3624SOL     OW22504   1.906   3.349   4.589 -0.2976 -0.5525  0.1830
 3624SOL    HW122505   1.863   3.268   4.560  1.6653 -0.6955 -2.2480
 3624SOL    HW222506   1.825   3.393   4.615  0.1205  0.2449  0.1070
 3625SOL     OW22507   3.644   1.484   5.182  0.4991 -0.1315  0.0947
 3625SOL    HW122508   3.612   1.544   5.114  0.7751  0.1019  0.1696
 3625SOL    HW222509   3.609   1.398   5.158  0.2551  0.4715 -1.7104
 3626SOL     OW22510   2.746   2.825   7.732  0.3645 -0.2628  0.2581
 3626SOL    HW122511   2.724   2.834   7.639  0.9213 -1.3588  0.0158
 3626SOL    HW222512   2.792   2.741   7.735  0.0849 -0.4055  0.5756
 3627SOL     OW22513   2.180   0.208   7.983 -0.5416  0.0517  0.2903
 3627SOL    HW122514   2.250   0.273   7.993 -0.4137 -0.2699  1.4384
 3627SOL    HW222515   2.136   0.248   7.908 -0.8835  1.8127  1.4555
 3628SOL     OW22516   4.642   2.009   1.754 -0.0745  0.0018  0.0526
 3628SOL    HW122517   4.720   2.005   1.809  0.9104 -0.5839 -1.4013
 3628SOL    HW222518   4.660   1.935   1.696  1.7864  2.0643 -1.9963
 3629SOL     OW22519   0.011   4.501   4.869 -0.6219  0.1764 -0.2309
 3629SOL    HW122520   4.669   4.491   4.816 -0.1670 -1.5605 -0.6032
 3629SOL    HW222521   0.000   4.594   4.885 -0.1600 -0.0963  1.6680
 3630SOL     OW22522   2.475   1.619   7.214  0.0326 -0.2448  0.4594
 3630SOL    HW122523   2.563   1.581   7.211  0.5578  0.8543  1.7855
 3630SOL    HW222524   2.492   1.707   7.182 -1.8980  0.1763  0.6113
 3631SOL     OW22525   3.832   1.710   5.034  0.4609 -0.5632 -0.1187
 3631SOL    HW122526   3.741   1.699   5.005  0.6820 -1.3265 -0.5122
 3631SOL    HW222527   3.815   1.746   5.121  1.1754  3.6659 -1.6919
 3632SOL     OW22528   1.008   2.553   4.283  0.4880  0.0410 -0.4748
 3632SOL    HW122529   0.943   2.531   4.216 -2.1453  1.5543  1.5519
 3632SOL    HW222530   1.092   2.545   4.239  0.2533 -0.2369 -0.8815
 3633SOL     OW22531   1.675   4.153   2.956  0.3036 -0.5715 -0.5877
 3633SOL    HW122532   1.685   4.219   3.024 -1.5498  0.7530 -1.6230
 3633SOL    HW222533   1.765   4.150   2.924  1.1420  1.7854  1.5970
 3634SOL     OW22534   0.397   2.350   4.869  0.6634  0.4189 -0.0578
 3634SOL    HW122535   0.334   2.358   4.797 -0.0709 -0.2744  0.5124
 3634SOL    HW222536   0.479   2.387   4.835  2.2223 -1.3260  1.8079
 3635SOL     OW22537   3.203   3.894   5.728 -0.5080  0.4704  0.2050
 3635SOL    HW122538   3.164   3.823   5.779 -1.7977  0.8802 -0.2327
 3635SOL    HW222539   3.231   3.961   5.790  1.2237 -0.0428 -0.0185
 3636SOL     OW22540   4.690   1.129   0.477 -0.0837 -0.2995 -0.6301
 3636SOL    HW122541   0.023   1.072   0.447 -0.3195  0.2611 -2.2204
 3636SOL    HW222542   4.679   1.093   0.565  0.8088  0.2289 -0.3003
 3637SOL     OW22543   1.722   1.603  11.674  0.2752 -0.4269 -0.1469
 3637SOL    HW122544   1.770   1.663  11.731 -1.1360  0.4345  0.1432
 3637SOL    HW222545   1.686   1.676  11.624  1.3779  0.0974 -0.1808
 3638SOL     OW22546   3.156   3.616   5.563 -0.5109 -0.5629 -0.8204
 3638SOL    HW122547   3.067   3.583   5.576 -0.5807 -0.1959 -0.3793
 3638SOL    HW222548   3.146   3.678   5.490 -0.6041 -0.1033 -0.4131
 3639SOL     OW22549   4.644   3.015   8.946  0.0228  0.0580  0.1562
 3639SOL    HW122550   4.595   2.958   9.006  1.3588 -1.6437 -0.3514
 3639SOL    HW222551   4.593   3.015   8.865 -0.6552  1.2152  0.5801
 3640SOL     OW22552   1.591   4.203   3.405  0.4877  0.0466 -0.8349
 3640SOL    HW122553   1.518   4.166   3.356  0.0495  1.9264 -1.5862
 3640SOL    HW222554   1.665   4.160   3.362  1.7062  0.5129  0.7673
 3641SOL     OW22555   2.474   1.938  11.040 -0.2537  0.0848  0.0290
 3641SOL    HW122556   2.533   2.005  11.073 -0.0401 -0.8481  1.5493
 3641SOL    HW222557   2.528   1.895  10.974 -1.2379 -0.1956 -0.6111
 3642SOL     OW22558   0.572   1.942  11.101  0.0244 -0.5096  0.8072
 3642SOL    HW122559   0.635   1.875  11.129  3.0337  1.1655 -1.9301
 3642SOL    HW222560   0.540   1.980  11.182 -0.4799 -0.3837  0.5456
 3643SOL     OW22561   1.485   4.336  14.892  0.5068  0.5297 -0.3859
 3643SOL    HW122562   1.471   4.366  14.802  1.7246 -0.8562 -1.0355
 3643SOL    HW222563   1.578   4.349  14.909  0.4787  1.8961 -1.2114
 3644SOL     OW22564   2.863   0.790   7.975  0.2954 -0.6045  0.2783
 3644SOL    HW122565   2.921   0.817   7.904  1.5762 -0.2165  1.4803
 3644SOL    HW222566   2.849   0.698   7.950  1.2925 -0.1228 -2.0266
 3645SOL     OW22567   1.775   1.200  13.862 -0.0356  0.5777 -0.2321
 3645SOL    HW122568   1.774   1.105  13.853  0.9528  0.4433  1.1217
 3645SOL    HW222569   1.795   1.233  13.774  2.7374  0.8062  0.4755
 3646SOL     OW22570   0.399   0.180   4.490  0.8410  0.2862 -0.1608
 3646SOL    HW122571   0.334   0.207   4.555  1.5601  0.8164  0.3369
 3646SOL    HW222572   0.403   0.255   4.431  0.1648 -0.3366 -0.9853
 3647SOL     OW22573   1.112   4.195   8.147 -0.9058  0.1813 -0.1361
 3647SOL    HW122574   1.047   4.127   8.165 -1.5571  0.9303  0.3515
 3647SOL    HW222575   1.072   4.269   8.193  1.4097  1.4678 -0.1664
 3648SOL     OW22576   0.461   2.403   8.347  0.6170  0.8187  0.1858
 3648SOL    HW122577   0.372   2.404   8.383  0.6376  3.1364  0.1575
 3648SOL    HW222578   0.437   2.386   8.256  0.1751 -1.5468  0.7393
 3649SOL     OW22579   3.848   2.820   9.160  0.1272  0.6338  0.5050
 3649SOL    HW122580   3.818   2.793   9.247 -2.3169 -0.8423 -0.8018
 3649SOL    HW222581   3.900   2.746   9.130  4.1783  3.1711  1.2417
 3650SOL     OW22582   0.124   2.239   5.779  0.0530 -0.5862 -0.8845
 3650SOL    HW122583   0.079   2.159   5.749 -0.8258 -0.9953  1.5317
 3650SOL    HW222584   0.182   2.203   5.845 -0.8569 -1.0357 -0.3278
 3651SOL     OW22585   4.201   2.505   9.241  0.0345 -0.0769  0.2184
 3651SOL    HW122586   4.207   2.523   9.335  0.5398 -1.3925  0.4304
 3651SOL    HW222587   4.219   2.412   9.248  1.8257  0.2568  0.1500
 3652SOL     OW22588   4.561   2.912  16.316 -0.1048  0.5208  0.0179
 3652SOL    HW122589   4.554   2.899  16.221  0.4002 -1.5940  0.2567
 3652SOL    HW222590   4.656   2.918  16.328 -0.0676  0.9135 -0.4560
 3653SOL     OW22591   1.244   4.432   3.109 -0.0594 -0.3016 -0.0010
 3653SOL    HW122592   1.200   4.465   3.188 -1.5591 -0.1218 -0.9200
 3653SOL    HW222593   1.209   4.491   3.043  0.7948  2.6351  2.1614
 3654SOL     OW22594   1.636   3.387   8.968 -0.1259 -0.2442  0.1937
 3654SOL    HW122595   1.688   3.450   8.918  1.5191 -0.9698  1.0118
 3654SOL    HW222596   1.548   3.424   8.961  0.5681  1.3250 -0.1170
 3655SOL     OW22597   0.894   0.273   6.216  0.1718  0.0991  0.1562
 3655SOL    HW122598   0.980   0.285   6.257  0.6367 -1.0121 -0.5125
 3655SOL    HW222599   0.915   0.190   6.173 -1.3394 -1.2573  2.0558
 3656SOL     OW22600   1.676   3.441   0.724 -0.0628  0.0396 -0.1769
 3656SOL    HW122601   1.696   3.530   0.753 -0.6273  0.3829 -0.8380
 3656SOL    HW222602   1.757   3.408   0.684  0.0717  0.7386 -0.4761
 3657SOL     OW22603   3.743   2.088  13.018 -0.0852  0.3032  0.0728
 3657SOL    HW122604   3.673   2.040  12.974 -0.0964 -0.0113  0.4339
 3657SOL    HW222605   3.805   2.093  12.945 -1.9656  0.1310 -1.5341
 3658SOL     OW22606   1.610   0.254  16.536  0.1093 -0.2156  0.1268
 3658SOL    HW122607   1.629   0.224  16.625 -0.4979 -0.7827  0.0686
 3658SOL    HW222608   1.623   0.174  16.485  0.7628 -0.3148  0.4518
 3659SOL     OW22609   0.405   0.416   4.329  0.5234  0.4109  0.5331
 3659SOL    HW122610   0.448   0.494   4.365  0.5027  0.6225  0.0997
 3659SOL    HW222611   0.315   0.447   4.328  0.8165  1.1950 -1.3706
 3660SOL     OW22612   0.441   4.078   7.757  0.1269  0.1179  0.2518
 3660SOL    HW122613   0.421   3.987   7.738 -1.1137  0.7045 -1.2641
 3660SOL    HW222614   0.532   4.071   7.785  0.5423  2.6804 -0.4386
 3661SOL     OW22615   3.746   3.564   8.574 -0.2103  0.2034  0.1877
 3661SOL    HW122616   3.660   3.532   8.600 -1.1297  1.5974 -1.2059
 3661SOL    HW222617   3.736   3.554   8.479 -1.3744 -1.7657  0.5234
 3662SOL     OW22618   3.956   2.556   2.124  0.3473  0.2817 -0.0505
 3662SOL    HW122619   3.957   2.566   2.029 -0.4226 -0.3114 -0.1205
 3662SOL    HW222620   3.919   2.642   2.146 -2.0084 -0.3176 -1.6423
 3663SOL     OW22621   0.975   1.173  14.630  0.3736  0.0138  0.3639
 3663SOL    HW122622   1.018   1.258  14.642  1.7475 -0.9572  2.3859
 3663SOL    HW222623   1.040   1.120  14.676  0.9846 -0.0292 -0.5531
 3664SOL     OW22624   3.477   3.938   0.048  0.1339  0.0519 -0.5650
 3664SOL    HW122625   3.426   3.939   0.129  2.1242  2.0801  0.6389
 3664SOL    HW222626   3.508   4.028   0.044  1.2633 -0.3968 -2.1929
 3665SOL     OW22627   1.814   2.880   1.526 -0.1967 -0.1675  0.3839
 3665SOL    HW122628   1.808   2.965   1.570 -3.1362  0.2611 -0.8693
 3665SOL    HW222629   1.733   2.844   1.562  0.8266 -0.7238  2.1395
 3666SOL     OW22630   1.099   3.267   0.180  0.0363  0.1590  0.9591
 3666SOL    HW122631   1.193   3.268   0.166 -0.1527 -1.0911 -0.4114
 3666SOL    HW222632   1.077   3.348   0.225  0.3334 -0.4950  2.3004
 3667SOL     OW22633   0.416   0.802   6.301 -0.6558  0.0306 -0.7621
 3667SOL    HW122634   0.375   0.745   6.365 -0.2559  0.6200  0.0184
 3667SOL    HW222635   0.510   0.808   6.313 -0.7467 -0.1361 -0.0136
 3668SOL     OW22636   2.332   0.391   6.402  0.6660  0.3807 -0.1071
 3668SOL    HW122637   2.390   0.323   6.368 -1.2405 -0.6140 -1.3240
 3668SOL    HW222638   2.366   0.417   6.488  0.4358 -1.7829  0.6372
 3669SOL     OW22639   2.233   3.252   3.254 -0.4967  0.6209  0.2407
 3669SOL    HW122640   2.218   3.232   3.162  0.7334  0.2691  0.1085
 3669SOL    HW222641   2.324   3.282   3.252 -0.5777  0.8855  0.6712
 3670SOL     OW22642   2.772   0.416  14.447 -0.3477  0.5194  0.0640
 3670SOL    HW122643   2.702   0.351  14.443 -0.7690  1.0907 -1.7183
 3670SOL    HW222644   2.764   0.459  14.362 -1.7844  0.4034  0.1364
 3671SOL     OW22645   0.989   2.983   7.528  0.4173 -0.1849  0.5466
 3671SOL    HW122646   0.963   3.032   7.607 -0.3791 -1.9470  1.3933
 3671SOL    HW222647   0.906   2.939   7.510  0.9582 -0.6590 -0.7655
 3672SOL     OW22648   4.314   2.245   3.450 -0.3021 -0.0872  0.5289
 3672SOL    HW122649   4.378   2.263   3.519 -0.3513  0.0734  0.5321
 3672SOL    HW222650   4.330   2.153   3.425 -1.2191 -0.3979  1.1127
 3673SOL     OW22651   4.087   1.643   7.067 -0.1943 -0.1531 -0.0501
 3673SOL    HW122652   4.142   1.574   7.104  0.4080  0.6494  0.5623
 3673SOL    HW222653   4.080   1.701   7.143  1.5533  1.7446 -1.3685
 3674SOL     OW22654   2.174   1.360   4.645  0.1635 -0.5442 -0.1759
 3674SOL    HW122655   2.141   1.302   4.576 -4.4278 -1.0792  2.4331
 3674SOL    HW222656   2.256   1.390   4.606 -0.0233 -0.5668 -0.5858
 3675SOL     OW22657   2.417   1.357   2.608 -0.1138  1.4607  0.0976
 3675SOL    HW122658   2.372   1.349   2.692 -1.4673  1.6561 -0.5957
 3675SOL    HW222659   2.353   1.308   2.556  0.0826  1.1583  0.1418
 3676SOL     OW22660   0.527   2.454   2.613  0.0243  0.5081 -0.3327
 3676SOL    HW122661   0.452   2.421   2.564 -0.2318  1.0675 -0.3134
 3676SOL    HW222662   0.597   2.418   2.558 -0.1889  0.2237 -0.4201
 3677SOL     OW22663   1.122   0.462   2.942 -0.3222 -0.0770 -0.1729
 3677SOL    HW122664   1.165   0.540   2.907 -1.3651  0.7841  0.4365
 3677SOL    HW222665   1.115   0.474   3.037  0.5230 -1.7347  0.0916
 3678SOL     OW22666   2.971   2.480   0.886 -0.3002 -0.2346  0.3073
 3678SOL    HW122667   3.045   2.424   0.859 -2.3299 -1.9269 -1.7365
 3678SOL    HW222668   2.896   2.442   0.841  0.1845 -0.4982 -0.2811
 3679SOL     OW22669   4.310   0.857  14.601  0.2255 -0.1333 -0.1089
 3679SOL    HW122670   4.403   0.874  14.619  0.9482 -2.2641 -1.7742
 3679SOL    HW222671   4.323   0.766  14.574 -1.1838 -0.5207  0.5626
 3680SOL     OW22672   0.296   4.487   4.960 -0.2731  0.4924  0.8684
 3680SOL    HW122673   0.217   4.499   4.907  0.2694  0.9959  0.1796
 3680SOL    HW222674   0.325   4.578   4.958 -0.6955  0.5454 -3.2488
 3681SOL     OW22675   2.355   0.464   2.617 -0.2865  0.0442 -0.3510
 3681SOL    HW122676   2.427   0.421   2.664 -0.1262  0.0295 -0.6100
 3681SOL    HW222677   2.401   0.541   2.585 -0.9700  1.4593  2.0763
 3682SOL     OW22678   2.039   0.726  14.210  0.2268  0.1536 -0.5052
 3682SOL    HW122679   2.090   0.780  14.270 -2.2657  1.6789  0.2178
 3682SOL    HW222680   2.091   0.743  14.131 -0.5643 -0.3413 -1.1398
 3683SOL     OW22681   1.729   3.176   4.403  0.6427  0.3840  0.5922
 3683SOL    HW122682   1.740   3.083   4.383 -1.6560  0.1758  0.3092
 3683SOL    HW222683   1.635   3.168   4.419  0.2869  1.2065 -1.0353
 3684SOL     OW22684   4.630   1.568  13.433  0.5049 -0.1893  0.4842
 3684SOL    HW122685   4.561   1.633  13.422  2.0943  1.3949 -0.0543
 3684SOL    HW222686   4.578   1.503  13.482  1.3779 -0.6153  0.8556
 3685SOL     OW22687   2.315   3.721   3.191 -0.4485  0.4101  0.4539
 3685SOL    HW122688   2.378   3.664   3.235  1.3217  0.2570 -2.3191
 3685SOL    HW222689   2.281   3.657   3.129  1.1840  0.2289 -0.2519
 3686SOL     OW22690   3.128   3.161   6.332 -0.0639  0.0443 -0.0326
 3686SOL    HW122691   3.221   3.151   6.312  0.1563 -0.9558  1.5279
 3686SOL    HW222692   3.123   3.256   6.340  0.7154  0.1079 -0.2434
 3687SOL     OW22693   1.198   4.275   6.844  0.1712  0.3674 -0.0244
 3687SOL    HW122694   1.179   4.186   6.873  2.4479  0.2432  1.0792
 3687SOL    HW222695   1.142   4.330   6.899  1.0774 -1.2278  2.4472
 3688SOL     OW22696   3.972   2.205   7.315  0.5902  0.0968  0.7741
 3688SOL    HW122697   3.910   2.200   7.388 -0.8232 -0.2819 -0.4567
 3688SOL    HW222698   3.922   2.253   7.249  2.0437  2.8350  1.6804
 3689SOL     OW22699   0.899   3.068  17.406 -0.4019 -0.1298 -0.7480
 3689SOL    HW122700   0.945   3.018  17.338  1.1439 -3.1667  2.5683
 3689SOL    HW222701   0.885   3.150  17.358  2.2911  0.5426 -0.3575
 3690SOL     OW22702   0.350   2.413  15.990  0.4401 -0.4737  0.6465
 3690SOL    HW122703   0.434   2.365  15.988  0.5465 -0.2952  0.8702
 3690SOL    HW222704   0.335   2.414  16.084  0.1780 -0.2016  0.5993
 3691SOL     OW22705   3.433   4.695   2.483 -0.0294 -0.2260  0.2551
 3691SOL    HW122706   3.338   4.692   2.493 -0.1703 -1.2617 -1.3957
 3691SOL    HW222707   3.444   4.628   2.550  0.8417  0.8813  1.2133
 3692SOL     OW22708   2.657   0.328   2.308  0.1403 -1.3074 -0.1456
 3692SOL    HW122709   2.655   0.256   2.246 -3.1331  0.1754 -1.7954
 3692SOL    HW222710   2.564   0.350   2.300 -0.1001 -2.0878  0.5048
 3693SOL     OW22711   3.562   0.490   5.518  0.8464  0.0009 -0.0391
 3693SOL    HW122712   3.556   0.403   5.478 -0.2194  0.0384  0.0558
 3693SOL    HW222713   3.498   0.539   5.467  1.9027  0.7620 -0.6475
 3694SOL     OW22714   3.737   2.721   5.974 -0.1043  0.4857  0.7403
 3694SOL    HW122715   3.749   2.815   5.983  0.9163  0.2713  1.6522
 3694SOL    HW222716   3.813   2.686   6.020 -1.1660 -1.1020  1.2704
 3695SOL     OW22717   3.346   3.741  15.717 -0.5138 -0.4417  0.3747
 3695SOL    HW122718   3.424   3.779  15.675 -1.8635  0.5985 -1.1898
 3695SOL    HW222719   3.306   3.820  15.753  0.1106 -0.0127  0.1251
 3696SOL     OW22720   2.280   4.532   5.663  0.1327 -0.1907 -0.3405
 3696SOL    HW122721   2.205   4.542   5.722 -0.1405  0.7116 -0.8384
 3696SOL    HW222722   2.314   4.445   5.681 -0.2720 -0.2568  0.0887
 3697SOL     OW22723   1.696   4.037  11.425 -0.2302 -0.9185  0.1156
 3697SOL    HW122724   1.639   4.071  11.494 -0.4388 -0.4000 -0.3118
 3697SOL    HW222725   1.760   4.105  11.444  0.2062 -1.2277 -0.2413
 3698SOL     OW22726   2.859   2.335   6.590  0.3079  0.1778 -0.5005
 3698SOL    HW122727   2.936   2.278   6.598 -0.8513 -1.2241  0.6862
 3698SOL    HW222728   2.901   2.416   6.562  1.1497  0.3056  1.1518
 3699SOL     OW22729   1.134   2.189   7.644  0.9562  0.2329  0.2245
 3699SOL    HW122730   1.176   2.236   7.716  0.4354 -0.1771  0.7944
 3699SOL    HW222731   1.042   2.190   7.669  1.2581 -2.2718  1.3885
 3700SOL     OW22732   1.417   1.924  12.152  0.3974 -0.2492  0.6646
 3700SOL    HW122733   1.364   1.969  12.086  0.4848 -2.1749 -0.7175
 3700SOL    HW222734   1.489   1.986  12.162  1.3765 -1.2602 -0.1664
 3701SOL     OW22735   3.791   4.407   7.525 -0.2202  0.3900 -0.4389
 3701SOL    HW122736   3.771   4.314   7.535  4.1731 -0.6463 -1.4451
 3701SOL    HW222737   3.748   4.421   7.440  0.8641 -3.0142 -1.5351
 3702SOL     OW22738   3.693   0.311  17.235  0.0316  0.1086  0.1066
 3702SOL    HW122739   3.750   0.242  17.270  0.7947  0.9428  0.5032
 3702SOL    HW222740   3.656   0.277  17.153 -2.2861  2.3268  0.2412
 3703SOL     OW22741   0.359   3.773  15.498 -0.9992  0.1294 -0.0320
 3703SOL    HW122742   0.277   3.723  15.496 -0.7756 -0.2904  0.9063
 3703SOL    HW222743   0.393   3.759  15.410 -0.3759  1.1674  0.0485
 3704SOL     OW22744   1.819   3.634  12.644 -0.3495 -0.1935 -0.1109
 3704SOL    HW122745   1.788   3.707  12.590 -0.5325 -0.2750 -0.1145
 3704SOL    HW222746   1.733   3.591  12.649 -1.1294  1.1994 -1.4840
 3705SOL     OW22747   0.134   4.621   5.583 -0.6082  0.0397  0.6920
 3705SOL    HW122748   0.183   4.605   5.664 -2.5229 -2.7850  1.3256
 3705SOL    HW222749   0.153   4.539   5.536  0.3016  1.0102 -0.6343
 3706SOL     OW22750   4.447   2.967  16.042 -0.0755 -0.3620 -0.1442
 3706SOL    HW122751   4.445   3.020  15.963 -1.0656  0.1982  0.2602
 3706SOL    HW222752   4.378   3.006  16.095  0.1530 -1.3267  0.8684
 3707SOL     OW22753   0.204   2.079   6.006 -0.7213  0.3289 -0.6690
 3707SOL    HW122754   0.193   2.130   6.086 -1.6546 -1.6926  0.4913
 3707SOL    HW222755   0.112   2.066   5.983 -0.4613 -0.9304 -0.9949
 3708SOL     OW22756   2.210   3.199   9.121  0.2520  0.2018 -0.2900
 3708SOL    HW122757   2.145   3.209   9.051  0.5143  3.0049 -0.1053
 3708SOL    HW222758   2.148   3.194   9.194 -1.4236 -0.6276 -1.7421
 3709SOL     OW22759   4.427   1.476   9.624  0.5863  0.2675  0.1107
 3709SOL    HW122760   4.408   1.399   9.570 -2.8388  1.1988  0.0493
 3709SOL    HW222761   4.520   1.473   9.600  0.4022 -2.6646 -0.2098
 3710SOL     OW22762   1.452   2.393   7.876  0.3601 -0.8920  0.0954
 3710SOL    HW122763   1.358   2.385   7.894  0.3725 -0.5324  0.3103
 3710SOL    HW222764   1.487   2.351   7.954 -2.2697  1.5976  2.5884
 3711SOL     OW22765   0.929   1.340   4.096 -0.1129  0.7999 -0.4600
 3711SOL    HW122766   0.843   1.300   4.109  0.8916 -1.0202  0.5530
 3711SOL    HW222767   0.985   1.264   4.081  1.6415  1.8677  0.7014
 3712SOL     OW22768   4.706   4.383  12.221  0.2857  0.8376  0.2214
 3712SOL    HW122769   4.618   4.392  12.183 -0.1556  1.2648  1.3175
 3712SOL    HW222770   4.701   4.290  12.239 -1.8352  1.0918  1.0407
 3713SOL     OW22771   2.148   2.619   8.006  0.0679  0.1854  0.3292
 3713SOL    HW122772   2.223   2.667   7.971 -1.4387 -0.4157 -3.7481
 3713SOL    HW222773   2.173   2.609   8.097  0.0144  2.0971  0.5480
 3714SOL     OW22774   3.118   4.397   7.172 -0.4647  0.7657  0.4105
 3714SOL    HW122775   3.133   4.325   7.234  0.5037  0.1819 -0.5066
 3714SOL    HW222776   3.124   4.470   7.233  3.2794  0.1069  0.8188
 3715SOL     OW22777   2.055   3.490   4.103 -0.0492 -0.0169 -0.3045
 3715SOL    HW122778   2.028   3.475   4.013 -1.1861  2.4660 -0.3971
 3715SOL    HW222779   1.986   3.466   4.164 -0.6182  1.6052 -0.2892
 3716SOL     OW22780   4.721   4.727  14.685 -0.6273 -0.0502  0.2433
 3716SOL    HW122781   0.028   0.063  14.644 -0.2151 -2.2636 -3.3659
 3716SOL    HW222782   4.692   0.034  14.764 -1.5136  0.3988 -0.3313
 3717SOL     OW22783   2.986   2.942   9.074 -0.1354  0.3297 -0.3238
 3717SOL    HW122784   2.946   2.969   8.992  0.0595 -1.5124 -1.0071
 3717SOL    HW222785   3.067   2.994   9.075  0.8870 -1.2660  0.0770
 3718SOL     OW22786   0.994   0.541  15.480  0.1079  0.0950  0.2760
 3718SOL    HW122787   0.989   0.446  15.477  1.9823  0.0262 -1.3639
 3718SOL    HW222788   0.932   0.547  15.552 -0.7564  1.2203 -0.5525
 3719SOL     OW22789   1.662   0.675  16.997 -0.3978 -0.4301  0.2618
 3719SOL    HW122790   1.732   0.665  17.061 -0.1726 -0.2368  0.0417
 3719SOL    HW222791   1.697   0.622  16.926 -0.9126  0.8775 -0.9662
 3720SOL     OW22792   1.463   3.254   3.874  0.0400  0.6478 -0.0036
 3720SOL    HW122793   1.508   3.222   3.796 -0.5478  0.5249 -0.2944
 3720SOL    HW222794   1.375   3.232   3.843  0.0377  1.6503 -0.7015
 3721SOL     OW22795   4.518   2.315   3.134  0.5232  0.2776 -0.4251
 3721SOL    HW122796   4.456   2.358   3.193  2.1344  2.6795 -0.4821
 3721SOL    HW222797   4.559   2.243   3.182 -0.1457  0.5122  0.4935
 3722SOL     OW22798   1.540   0.964   9.584  0.1205 -0.3329  0.1764
 3722SOL    HW122799   1.616   1.010   9.548 -0.9421 -0.1212 -1.7701
 3722SOL    HW222800   1.487   1.036   9.618 -2.6358 -0.6123 -3.6296
 3723SOL     OW22801   2.641   1.137   8.257 -0.2629  0.2524 -0.2386
 3723SOL    HW122802   2.711   1.076   8.233 -0.3564 -0.3456  1.0064
 3723SOL    HW222803   2.595   1.133   8.173 -0.8704 -0.0798  0.1089
 3724SOL     OW22804   1.408   0.297   6.316  0.4955 -0.0438 -0.5986
 3724SOL    HW122805   1.458   0.328   6.392  0.9377 -2.5934  0.1613
 3724SOL    HW222806   1.336   0.261   6.367  0.7729  0.1779 -0.0464
 3725SOL     OW22807   2.207   4.457  16.358 -0.1564  0.2936 -0.2862
 3725SOL    HW122808   2.189   4.528  16.419  1.1327 -0.0934  0.5495
 3725SOL    HW222809   2.255   4.508  16.293 -2.5663  1.9722 -0.7357
 3726SOL     OW22810   4.268   2.345   4.739 -0.2111  0.6358  0.0233
 3726SOL    HW122811   4.321   2.406   4.790  0.9813  0.5696 -1.1328
 3726SOL    HW222812   4.244   2.403   4.666  1.9885  0.1649 -1.0743
 3727SOL     OW22813   3.057   3.318   1.329 -0.1846  0.2528 -0.0317
 3727SOL    HW122814   3.110   3.241   1.309 -0.6462  0.3044 -1.4979
 3727SOL    HW222815   3.080   3.335   1.420  1.7701 -0.7547 -0.3274
 3728SOL     OW22816   0.466   0.344   6.598 -0.3776 -0.2634 -0.6750
 3728SOL    HW122817   0.506   0.335   6.685  0.2805 -2.9584 -1.2851
 3728SOL    HW222818   0.410   0.267   6.596 -1.7457  0.6682  1.0437
 3729SOL     OW22819   3.174   0.053   2.322  0.2774  0.1016 -0.3404
 3729SOL    HW122820   3.136   0.140   2.309 -1.0603 -0.4783 -0.2743
 3729SOL    HW222821   3.177   0.017   2.233  2.0382 -1.0130  0.1614
 3730SOL     OW22822   3.753   4.346  13.860  0.1572  0.3325 -0.0464
 3730SOL    HW122823   3.772   4.398  13.782  1.9425  0.1151  0.2428
 3730SOL    HW222824   3.741   4.423  13.916 -0.1428  0.8571 -0.8369
 3731SOL     OW22825   1.302   2.974  10.148  0.4340  0.0890  0.6577
 3731SOL    HW122826   1.277   2.894  10.101 -0.6727  0.1138  1.2050
 3731SOL    HW222827   1.313   2.930  10.233 -0.3895  1.9950  1.7548
 3732SOL     OW22828   2.988   1.561   2.342 -0.1699 -0.4649  0.3035
 3732SOL    HW122829   2.915   1.547   2.281 -0.4588  0.7460  0.3619
 3732SOL    HW222830   3.058   1.559   2.277 -0.3658 -0.2938  0.0876
 3733SOL     OW22831   0.403   1.730   4.517 -0.0175  0.5701  0.1021
 3733SOL    HW122832   0.383   1.668   4.447  4.2353 -1.4553  0.6505
 3733SOL    HW222833   0.425   1.679   4.595  0.3260  1.5719  0.6666
 3734SOL     OW22834   0.923   1.799   3.908 -0.1784  0.1364  0.0214
 3734SOL    HW122835   0.918   1.879   3.856 -1.4962 -0.4217 -0.6925
 3734SOL    HW222836   0.943   1.738   3.837 -1.0618 -1.1204  0.8499
 3735SOL     OW22837   4.021   2.753   5.821 -0.3234 -0.1384  0.0371
 3735SOL    HW122838   3.974   2.786   5.744 -0.6335  4.8817  2.3932
 3735SOL    HW222839   4.100   2.804   5.802 -0.4928  0.2741  0.4472
 3736SOL     OW22840   0.722   1.727   6.464 -0.2981 -0.2323 -0.0841
 3736SOL    HW122841   0.645   1.670   6.470 -0.3983 -0.0742  0.1381
 3736SOL    HW222842   0.670   1.806   6.478  0.2526 -0.1554  1.4972
 3737SOL     OW22843   1.574   1.397   1.048 -0.1940 -0.1983  0.2285
 3737SOL    HW122844   1.594   1.484   1.014 -0.6299 -1.0156 -2.0851
 3737SOL    HW222845   1.539   1.419   1.135 -0.5616 -0.2010  0.0815
 3738SOL     OW22846   1.788   4.217   7.911 -0.1681 -0.4132 -0.2725
 3738SOL    HW122847   1.840   4.186   7.836 -0.3129  0.9114 -0.9247
 3738SOL    HW222848   1.774   4.131   7.952  0.5457  0.2726  1.3918
 3739SOL     OW22849   2.269   3.402   8.221 -0.2792  0.2146  0.5623
 3739SOL    HW122850   2.255   3.308   8.232  0.4269 -0.1429 -1.8093
 3739SOL    HW222851   2.182   3.443   8.222  0.4095  1.7030 -2.0182
 3740SOL     OW22852   1.951   2.679   6.593 -0.1987 -0.2688  0.1505
 3740SOL    HW122853   1.932   2.595   6.553  0.5830 -0.5351  0.3405
 3740SOL    HW222854   2.008   2.659   6.667 -2.3668 -1.2981  1.5478
 3741SOL     OW22855   1.453   3.432   4.906  0.4407  0.3737  0.3427
 3741SOL    HW122856   1.408   3.383   4.975 -0.1516 -0.5217 -0.6725
 3741SOL    HW222857   1.543   3.413   4.930 -0.5804 -2.1864  2.1787
 3742SOL     OW22858   2.392   0.028   8.002  0.2298 -0.3035 -0.0339
 3742SOL    HW122859   2.392   4.695   7.937 -0.0850 -1.8211  1.6190
 3742SOL    HW222860   2.325   0.086   7.964 -0.1938 -1.0224 -0.3830
 3743SOL     OW22861   1.476   4.645   3.111  0.1863 -0.1204 -0.0765
 3743SOL    HW122862   1.520   4.698   3.045 -2.0229 -2.1261 -3.1837
 3743SOL    HW222863   1.426   4.583   3.058  1.3942 -1.0099 -0.1719
 3744SOL     OW22864   1.552   0.555   3.143 -0.3253 -0.1987 -0.2958
 3744SOL    HW122865   1.496   0.526   3.216  0.9165  0.2381  0.8231
 3744SOL    HW222866   1.567   0.474   3.094  3.9202  0.3898  0.0711
 3745SOL     OW22867   2.373   2.108   6.019 -0.1501 -0.4981 -0.0038
 3745SOL    HW122868   2.278   2.124   6.024 -0.0912  0.2434 -1.3304
 3745SOL    HW222869   2.386   2.072   5.931 -0.4172  0.9206 -0.6222
 3746SOL     OW22870   3.820   2.060   3.786 -0.0068 -0.0186 -0.4109
 3746SOL    HW122871   3.822   2.149   3.821  0.9064  0.5165 -1.8231
 3746SOL    HW222872   3.909   2.033   3.809  0.0492  0.0255 -0.5754
 3747SOL     OW22873   3.193   2.802  13.681  0.4284 -0.7812  0.3774
 3747SOL    HW122874   3.282   2.805  13.646 -0.1175 -2.0815 -1.1015
 3747SOL    HW222875   3.209   2.844  13.765 -0.6701  1.3642 -0.4933
 3748SOL     OW22876   2.683   3.676  11.026 -0.3808 -0.1588 -0.0267
 3748SOL    HW122877   2.767   3.684  10.980 -0.8521  1.4813 -0.6193
 3748SOL    HW222878   2.698   3.725  11.107 -0.5942 -4.4305  2.5873
 3749SOL     OW22879   4.709   3.425   9.365 -0.0864 -0.0220  0.5231
 3749SOL    HW122880   4.735   3.429   9.273  1.7314 -2.1835  0.9447
 3749SOL    HW222881   0.016   3.344   9.393  0.4277  0.3827  0.8741
 3750SOL     OW22882   1.344   4.027   5.732 -0.4661  0.3184  0.5462
 3750SOL    HW122883   1.277   4.095   5.742  0.0442  0.8679  0.2317
 3750SOL    HW222884   1.390   4.057   5.653 -1.0452  1.2780  0.5680
 3751SOL     OW22885   1.123   1.040   2.225  0.4128 -0.0865 -0.1231
 3751SOL    HW122886   1.204   1.004   2.261  0.7031  2.0374  1.3585
 3751SOL    HW222887   1.128   1.133   2.247  2.4033 -0.3770  0.6013
 3752SOL     OW22888   2.852   3.055  10.979 -0.2370  0.4786 -0.7525
 3752SOL    HW122889   2.799   3.131  10.954 -1.5471 -0.0883  0.3182
 3752SOL    HW222890   2.867   3.008  10.897 -0.0546  0.6493 -0.8173
 3753SOL     OW22891   2.018   2.314   8.850 -0.0088 -0.3619  0.1874
 3753SOL    HW122892   1.978   2.228   8.836 -2.0915  0.7663 -0.9196
 3753SOL    HW222893   2.113   2.302   8.846 -0.1506 -2.1011  2.5137
 3754SOL     OW22894   2.186   3.813   5.781  0.2901  0.0754 -0.7064
 3754SOL    HW122895   2.199   3.882   5.845  1.5087 -0.6368 -0.1879
 3754SOL    HW222896   2.142   3.747   5.835 -2.1235  0.6462 -1.9897
 3755SOL     OW22897   2.458   0.169   5.828  0.3024 -0.3151 -0.1706
 3755SOL    HW122898   2.404   0.148   5.751 -1.2146  1.0902  0.5124
 3755SOL    HW222899   2.450   0.094   5.887 -0.4441 -0.6706 -0.7263
 3756SOL     OW22900   2.946   3.334  15.607 -0.1857  0.5587  0.2140
 3756SOL    HW122901   2.868   3.363  15.654 -1.2420 -1.0944 -0.5081
 3756SOL    HW222902   2.942   3.385  15.527  0.8453  1.6890  0.8892
 3757SOL     OW22903   3.481   2.869   4.194 -0.2614  0.1142  0.1487
 3757SOL    HW122904   3.426   2.892   4.269 -1.8895 -2.9173 -0.1069
 3757SOL    HW222905   3.425   2.843   4.121  0.4371 -0.9024 -0.0290
 3758SOL     OW22906   2.048   3.873   1.992 -0.1139  0.1498 -0.0858
 3758SOL    HW122907   2.068   3.780   2.000 -1.1205 -0.2119 -1.8832
 3758SOL    HW222908   2.023   3.886   1.901  2.6249 -0.5891 -0.9593
 3759SOL     OW22909   1.403   2.842  15.423 -0.4168  0.2468 -0.0858
 3759SOL    HW122910   1.468   2.908  15.400 -1.4046  0.6014 -1.9120
 3759SOL    HW222911   1.372   2.861  15.511 -0.9110 -1.0218  0.0200
 3760SOL     OW22912   4.654   0.230   9.306  0.0316  0.5322 -0.3533
 3760SOL    HW122913   4.570   0.206   9.267  0.9883 -0.6827 -1.6683
 3760SOL    HW222914   4.700   0.252   9.225  0.0495  1.5910 -0.0527
 3761SOL     OW22915   3.165   3.951   7.675 -0.5001  0.1335  0.1254
 3761SOL    HW122916   3.202   3.949   7.763  0.2104 -0.9669 -0.2046
 3761SOL    HW222917   3.249   3.950   7.630 -0.5890 -3.0098  0.0412
 3762SOL     OW22918   0.165   2.268   7.677  0.0788 -0.9251 -0.4555
 3762SOL    HW122919   0.163   2.250   7.583 -2.0402  1.4759 -0.8638
 3762SOL    HW222920   0.071   2.258   7.694 -0.2953  0.5319 -1.7567
 3763SOL     OW22921   3.127   1.179  12.635 -0.1041  0.2969  0.5889
 3763SOL    HW122922   3.205   1.189  12.580 -0.8832  1.7586 -0.2516
 3763SOL    HW222923   3.162   1.171  12.724 -2.7552 -0.3312  1.5517
 3764SOL     OW22924   3.733   3.652  12.903  0.3852 -0.0881  0.2001
 3764SOL    HW122925   3.748   3.685  12.815 -1.8537 -0.0163 -0.1522
 3764SOL    HW222926   3.692   3.725  12.950 -2.1221 -1.3373 -0.0358
 3765SOL     OW22927   2.574   1.595   7.885 -0.2064  0.1126 -0.2474
 3765SOL    HW122928   2.554   1.688   7.897  1.9262  0.8180 -2.1123
 3765SOL    HW222929   2.594   1.568   7.974 -1.4287  0.8563  0.2551
 3766SOL     OW22930   2.591   3.061   8.529  0.0248 -0.4929 -0.1827
 3766SOL    HW122931   2.506   3.019   8.516 -0.1965  0.3797 -1.4823
 3766SOL    HW222932   2.605   3.099   8.443 -0.0910  0.2385  0.1239
 3767SOL     OW22933   1.103   3.292   4.083 -0.3445  0.4219  0.5318
 3767SOL    HW122934   1.029   3.310   4.025  1.8448 -0.6055 -2.5932
 3767SOL    HW222935   1.158   3.237   4.026 -1.1519 -0.4504  0.5951
 3768SOL     OW22936   3.652   1.676  15.216 -0.1883  0.0186 -0.0137
 3768SOL    HW122937   3.655   1.766  15.185  1.0941  0.1719  0.5520
 3768SOL    HW222938   3.636   1.680  15.310 -1.8102 -0.2240 -0.2821
 3769SOL     OW22939   4.097   4.512   8.055 -0.8143  0.7248 -0.3825
 3769SOL    HW122940   4.078   4.479   8.143 -3.9710 -0.0746 -1.3487
 3769SOL    HW222941   4.136   4.597   8.075  0.4470  0.1753 -0.4965
 3770SOL     OW22942   4.374   0.651   2.372  0.0184 -0.3729  0.0381
 3770SOL    HW122943   4.395   0.685   2.284 -1.4523  0.9837  0.2052
 3770SOL    HW222944   4.288   0.690   2.389  0.4470  0.0837  1.0999
 3771SOL     OW22945   1.835   2.279   4.363  0.0827  0.4972 -0.3821
 3771SOL    HW122946   1.762   2.336   4.383  1.3504  2.1828 -0.5519
 3771SOL    HW222947   1.876   2.311   4.283  0.6017  1.4495  0.2631
 3772SOL     OW22948   0.860   3.548   6.741 -0.1111 -0.3709 -0.0071
 3772SOL    HW122949   0.889   3.586   6.658  0.7530  2.0499  1.4146
 3772SOL    HW222950   0.839   3.460   6.710  0.6550 -0.0099 -1.5500
 3773SOL     OW22951   2.696   1.446   5.645 -0.5193  0.5097 -0.2146
 3773SOL    HW122952   2.772   1.462   5.702 -0.4503  0.8367 -0.4005
 3773SOL    HW222953   2.653   1.380   5.699 -1.3034  1.2281  0.0231
 3774SOL     OW22954   2.436   3.313  13.569  0.0073 -0.2524  0.0916
 3774SOL    HW122955   2.495   3.250  13.610  2.3949  2.8626  1.3979
 3774SOL    HW222956   2.430   3.379  13.638 -1.0526  0.0249 -0.2633
 3775SOL     OW22957   1.245   2.814   6.275 -0.0600  0.5222 -0.4443
 3775SOL    HW122958   1.258   2.784   6.185  1.9505 -0.7822  0.2895
 3775SOL    HW222959   1.334   2.817   6.311  0.1002 -0.3773 -0.7667
 3776SOL     OW22960   0.115   0.413   7.584 -0.4951 -0.7513  0.9782
 3776SOL    HW122961   0.091   0.502   7.608  1.5139 -0.2858  1.2340
 3776SOL    HW222962   0.050   0.369   7.638  0.2911 -2.3658  0.6114
 3777SOL     OW22963   3.753   0.553  13.341  0.5334  0.1003 -0.6272
 3777SOL    HW122964   3.836   0.530  13.383 -0.4242 -3.0017 -0.4292
 3777SOL    HW222965   3.771   0.646  13.330  3.7292 -0.4588 -0.2758
 3778SOL     OW22966   0.520   2.081   9.162 -0.2839 -0.4896  0.2181
 3778SOL    HW122967   0.585   2.021   9.199  0.3817 -0.9971 -1.8100
 3778SOL    HW222968   0.545   2.075   9.070  2.2002  2.1870  0.7412
 3779SOL     OW22969   2.125   2.046   5.667 -0.6812  0.1847  0.0364
 3779SOL    HW122970   2.060   2.079   5.729  0.2234 -1.2043  1.7481
 3779SOL    HW222971   2.099   1.954   5.661  0.8396 -0.3268  1.0997
 3780SOL     OW22972   2.652   2.265   3.721 -0.6710 -0.0478  0.5915
 3780SOL    HW122973   2.726   2.268   3.781 -0.7900 -1.2079  0.8047
 3780SOL    HW222974   2.590   2.223   3.781 -0.5682  0.4950  1.0811
 3781SOL     OW22975   0.196   1.936   2.595 -0.1026 -0.4539  0.1382
 3781SOL    HW122976   0.163   1.928   2.684  2.2460 -0.1223  1.0365
 3781SOL    HW222977   0.111   1.940   2.552 -0.0563  1.9755  0.2861
 3782SOL     OW22978   0.981   1.653   3.686  0.1383  0.1634  0.2417
 3782SOL    HW122979   0.962   1.603   3.607  0.8857 -2.3152  1.6385
 3782SOL    HW222980   1.058   1.600   3.705 -1.7269 -3.1004 -1.3267
 3783SOL     OW22981   3.886   4.549   4.519  0.3456  0.1085  0.1709
 3783SOL    HW122982   3.818   4.550   4.451 -1.0126 -2.2037  1.5054
 3783SOL    HW222983   3.907   4.642   4.521  1.0717 -0.0713  0.5837
 3784SOL     OW22984   3.471   2.852   5.751  0.0883 -0.0380  0.3675
 3784SOL    HW122985   3.468   2.946   5.769  0.1031 -0.1842  1.1297
 3784SOL    HW222986   3.489   2.816   5.838 -0.1233  1.2622  0.9360
 3785SOL     OW22987   3.860   2.347   6.046 -0.5929 -0.1593 -0.4517
 3785SOL    HW122988   3.940   2.300   6.072 -0.4838  0.0746 -0.3577
 3785SOL    HW222989   3.880   2.427   6.094  0.4986 -0.8551  0.2584
 3786SOL     OW22990   2.374   0.488   0.766 -0.4843  0.3390  0.2273
 3786SOL    HW122991   2.440   0.548   0.801 -0.2966 -0.1544  0.7200
 3786SOL    HW222992   2.403   0.405   0.805 -2.5183  0.6518  2.3864
 3787SOL     OW22993   4.463   2.880   9.081 -0.1608 -0.5002  0.0313
 3787SOL    HW122994   4.468   2.796   9.125  0.8160  0.3205  1.4979
 3787SOL    HW222995   4.368   2.895   9.089  0.0954  0.7300  0.8582
 3788SOL     OW22996   2.169   0.932   3.064 -0.3040 -0.2505 -0.0474
 3788SOL    HW122997   2.201   0.998   3.002 -0.1214 -0.0680  0.2444
 3788SOL    HW222998   2.086   0.905   3.024 -0.6797  1.0692 -0.1469
 3789SOL     OW22999   3.509   0.620  17.355  0.1745 -0.3045  0.3185
 3789SOL    HW123000   3.599   0.653  17.352  0.7640 -1.6828  3.3477
 3789SOL    HW223001   3.481   0.646  17.443  2.3415  1.1399  0.5889
 3790SOL     OW23002   1.962   3.938   5.682 -0.1813  0.2440 -0.3767
 3790SOL    HW123003   2.033   3.901   5.733  0.0663  0.8032 -0.3149
 3790SOL    HW223004   2.012   3.960   5.603 -0.1206  1.6091  0.0529
 3791SOL     OW23005   1.782   2.737   1.812 -0.0209 -0.3213 -0.1458
 3791SOL    HW123006   1.710   2.697   1.861  1.5004 -1.4902  1.1089
 3791SOL    HW223007   1.785   2.678   1.737 -0.7402 -0.9405  0.3125
 3792SOL     OW23008   0.951   2.095   7.968 -1.3965 -0.4751 -0.4759
 3792SOL    HW123009   1.018   2.029   7.955  1.0649  1.7511  0.9151
 3792SOL    HW223010   0.943   2.124   7.877  0.1886 -1.5230 -0.9384
 3793SOL     OW23011   0.176   0.225   1.907 -0.4285 -0.4124 -0.1432
 3793SOL    HW123012   0.201   0.298   1.963 -0.1336 -0.6891  0.0832
 3793SOL    HW223013   0.188   0.252   1.816  0.3239 -0.9147 -0.1934
 3794SOL     OW23014   3.509   2.636  10.370 -0.5366 -0.4261  0.6353
 3794SOL    HW123015   3.433   2.580  10.355 -1.3655 -0.0144  3.3403
 3794SOL    HW223016   3.574   2.578  10.410 -0.3665 -0.7831 -0.1620
 3795SOL     OW23017   1.569   2.747   1.520 -0.8514 -0.5837  0.1490
 3795SOL    HW123018   1.516   2.818   1.484  1.6689  0.9070 -0.6116
 3795SOL    HW223019   1.509   2.673   1.519 -0.3767 -0.9444 -0.8854
 3796SOL     OW23020   1.094   0.474   1.842  0.1531  0.4933 -0.1559
 3796SOL    HW123021   1.106   0.392   1.793  1.9237  0.3487  0.5237
 3796SOL    HW223022   1.076   0.420   1.919 -0.4533 -0.2403 -0.8125
 3797SOL     OW23023   0.743   3.955  12.730 -0.1387  0.1516  0.2920
 3797SOL    HW123024   0.752   3.908  12.647  0.0448  1.6028 -0.5007
 3797SOL    HW223025   0.800   3.906  12.789 -1.0132  1.5726  2.3151
 3798SOL     OW23026   3.971   3.754   0.155  0.1954  0.0639  0.1484
 3798SOL    HW123027   3.881   3.733   0.127 -1.0812  2.4600  2.5098
 3798SOL    HW223028   4.016   3.679   0.116  0.8424 -0.8313  2.6586
 3799SOL     OW23029   4.732   0.050   9.026 -0.1834 -0.1131 -0.6785
 3799SOL    HW123030   0.056   0.120   9.006  2.2926 -1.0694  3.4866
 3799SOL    HW223031   0.053   4.713   9.036  1.9612  1.7101  0.2294
 3800SOL     OW23032   3.885   0.146   9.178 -0.8345  0.2635 -0.1890
 3800SOL    HW123033   3.949   0.131   9.108 -0.3094  0.8700  0.1536
 3800SOL    HW223034   3.850   0.059   9.194 -0.7364  0.3242  0.3609
 3801SOL     OW23035   3.386   0.786  10.865 -0.3637  0.3105  0.1166
 3801SOL    HW123036   3.470   0.802  10.909  0.4699  2.6659 -2.3064
 3801SOL    HW223037   3.331   0.788  10.942  0.6707 -2.0551  0.9123
 3802SOL     OW23038   2.715   0.277   0.946  0.4163  0.5497  0.3164
 3802SOL    HW123039   2.717   0.238   0.859 -3.9393  3.2323 -1.0264
 3802SOL    HW223040   2.646   0.344   0.945  0.9357  1.0959  1.4717
 3803SOL     OW23041   0.791   4.486   5.772 -0.2707 -0.1717  0.2371
 3803SOL    HW123042   0.707   4.488   5.725  0.4853 -3.1438 -1.2563
 3803SOL    HW223043   0.843   4.501   5.693 -0.0697 -2.1963 -0.0210
 3804SOL     OW23044   3.864   3.526   1.229 -0.3612 -0.1472  0.0977
 3804SOL    HW123045   3.931   3.491   1.289  0.0489 -2.0104 -1.4468
 3804SOL    HW223046   3.847   3.604   1.282  2.0512  1.7297 -1.8459
 3805SOL     OW23047   1.958   0.642   6.389  0.3958 -0.1509 -0.3968
 3805SOL    HW123048   2.051   0.628   6.408  0.3388 -0.2224 -0.1723
 3805SOL    HW223049   1.964   0.602   6.302 -0.0832  0.4239 -0.6959
 3806SOL     OW23050   2.350   4.318   6.310 -0.2122 -0.0145 -0.0520
 3806SOL    HW123051   2.375   4.239   6.262 -0.4410 -0.3323  0.3546
 3806SOL    HW223052   2.430   4.331   6.361 -1.2534  0.2314  1.5014
 3807SOL     OW23053   4.260   2.998   5.397  0.0946  0.2466 -0.5916
 3807SOL    HW123054   4.317   3.022   5.324 -0.1153 -0.7354 -1.0937
 3807SOL    HW223055   4.177   3.003   5.349 -0.7816  0.9694  0.9952
 3808SOL     OW23056   1.945   3.704  14.056  0.3714 -0.8735 -0.3307
 3808SOL    HW123057   1.953   3.692  13.962  4.5943  0.6544 -0.1795
 3808SOL    HW223058   1.904   3.790  14.062  1.5731 -0.3119 -0.1763
 3809SOL     OW23059   1.589   4.128   5.014  0.1113 -0.3073  0.3681
 3809SOL    HW123060   1.578   4.033   5.017  1.6735 -0.5798 -2.0158
 3809SOL    HW223061   1.514   4.171   5.054 -0.9172  0.9242 -2.8181
 3810SOL     OW23062   2.510   3.789   0.332 -0.1908 -0.3736 -0.2575
 3810SOL    HW123063   2.478   3.857   0.391  0.8035 -0.8429  0.8154
 3810SOL    HW223064   2.492   3.844   0.256 -0.9847 -0.5429 -0.1950
 3811SOL     OW23065   4.228   3.368   4.704  0.4341 -1.0925 -0.4111
 3811SOL    HW123066   4.247   3.375   4.797  0.3397 -1.8208 -0.3375
 3811SOL    HW223067   4.259   3.281   4.682  1.0356 -0.5448 -1.7100
 3812SOL     OW23068   0.972   1.864  11.763  0.2153 -0.0455  0.4089
 3812SOL    HW123069   0.961   1.796  11.829 -0.2770 -0.5510 -0.1936
 3812SOL    HW223070   0.952   1.819  11.681  2.2937  0.9890 -0.6610
 3813SOL     OW23071   0.891   3.873   2.488  0.2197  0.3483 -0.4653
 3813SOL    HW123072   0.801   3.891   2.459  0.4015  1.5392 -0.2911
 3813SOL    HW223073   0.932   3.834   2.411  2.1908 -0.4066  0.9955
 3814SOL     OW23074   3.292   4.696   4.349 -0.4896  0.3593  0.1753
 3814SOL    HW123075   3.341   0.041   4.345  1.1856 -0.6953 -0.9990
 3814SOL    HW223076   3.287   4.684   4.444  1.6949  0.4374  0.3059
 3815SOL     OW23077   2.889   1.685   9.364  0.0458  1.3288  0.4345
 3815SOL    HW123078   2.880   1.602   9.316  1.2629  1.6744 -0.3734
 3815SOL    HW223079   2.823   1.675   9.433  0.0535  1.3291  0.4418
 3816SOL     OW23080   2.133   0.148   9.803 -0.2861 -0.0731  0.0116
 3816SOL    HW123081   2.156   0.072   9.750 -0.0376 -0.2117  0.3187
 3816SOL    HW223082   2.217   0.179   9.838 -0.4766  0.2755  0.1620
 3817SOL     OW23083   0.580   4.155   5.030 -0.2872 -0.4073  0.4036
 3817SOL    HW123084   0.610   4.235   4.987 -0.3886  0.1308  1.3348
 3817SOL    HW223085   0.541   4.181   5.113  1.8463  1.0748  0.9617
 3818SOL     OW23086   4.293   2.947   9.381 -0.2146  0.3688 -0.5258
 3818SOL    HW123087   4.305   3.037   9.352 -1.7334  0.0419 -2.1253
 3818SOL    HW223088   4.377   2.900   9.378 -0.4901 -0.1587 -0.1391
 3819SOL     OW23089   3.641   0.645  15.854  0.4170  0.5489  0.2779
 3819SOL    HW123090   3.601   0.570  15.811 -2.0707 -0.0534  3.6214
 3819SOL    HW223091   3.584   0.642  15.931 -1.1220 -1.0275 -0.9377
 3820SOL     OW23092   3.315   2.562   9.803  0.3895  0.5033 -0.2147
 3820SOL    HW123093   3.249   2.507   9.846  0.7773 -0.7517 -1.2334
 3820SOL    HW223094   3.275   2.646   9.829 -0.3533 -0.3236  1.3026
 3821SOL     OW23095   4.001   1.370   6.681 -0.2327 -0.2347 -0.0971
 3821SOL    HW123096   3.988   1.448   6.735 -2.4184  0.3372 -1.4323
 3821SOL    HW223097   4.093   1.347   6.694 -0.6642 -0.9356  1.7686
 3822SOL     OW23098   0.671   1.643   6.114  0.4165  0.0579 -0.8237
 3822SOL    HW123099   0.683   1.736   6.132 -1.5213 -0.0172  0.9350
 3822SOL    HW223100   0.644   1.626   6.205  0.4687 -1.9898 -1.2019
 3823SOL     OW23101   0.322   4.726  16.101  0.0774  0.2104  0.5659
 3823SOL    HW123102   0.301   0.078  16.074  0.7840 -0.2229 -1.4271
 3823SOL    HW223103   0.304   4.729  16.195  0.3877 -2.6558  0.7236
 3824SOL     OW23104   0.886   4.375   3.074  0.7264 -0.2259 -0.0571
 3824SOL    HW123105   0.793   4.396   3.089  0.9484  2.0134 -1.7733
 3824SOL    HW223106   0.893   4.398   2.982  1.0966  2.5296  0.6510
 3825SOL     OW23107   0.865   4.274   5.935 -0.6368  0.1400 -0.1163
 3825SOL    HW123108   0.849   4.364   5.907 -0.2551  0.3114  0.2123
 3825SOL    HW223109   0.787   4.229   5.904  1.7912 -1.7997 -3.5564
 3826SOL     OW23110   4.365   2.673   6.263 -0.1827 -0.4114  0.3057
 3826SOL    HW123111   4.442   2.623   6.288 -0.5242 -1.5404 -0.9401
 3826SOL    HW223112   4.325   2.622   6.193  0.3448 -2.0015  1.1747
 3827SOL     OW23113   1.351   3.618   0.604 -0.9416  0.1213 -0.1542
 3827SOL    HW123114   1.332   3.654   0.517  0.2507  0.3148 -0.3354
 3827SOL    HW223115   1.307   3.693   0.644  0.3380  0.7152  0.1651
 3828SOL     OW23116   0.042   3.773   5.506 -0.0198 -0.1421 -0.7554
 3828SOL    HW123117   4.716   3.750   5.574 -0.2830  0.5026 -0.7823
 3828SOL    HW223118   0.040   3.693   5.454 -0.9817  1.0937 -2.6292
 3829SOL     OW23119   4.531   0.019  13.526 -0.1736 -0.8420  0.5030
 3829SOL    HW123120   4.464   0.084  13.505  0.8077  0.6591  1.9516
 3829SOL    HW223121   4.589   0.031  13.450 -0.2000 -1.5688  0.3719
 3830SOL     OW23122   0.364   2.946   5.618  0.0332 -0.6882  0.3703
 3830SOL    HW123123   0.419   2.924   5.693 -1.4290 -0.8916  1.4023
 3830SOL    HW223124   0.420   2.910   5.550  1.3077  0.1168  0.9835
 3831SOL     OW23125   0.800   2.380  16.292 -0.4927 -0.0252  0.6746
 3831SOL    HW123126   0.777   2.315  16.358  1.7958 -1.0127  0.5126
 3831SOL    HW223127   0.889   2.348  16.277  0.8398  4.4254 -0.7711
 3832SOL     OW23128   1.488   4.735   1.726 -0.4726 -0.0559  0.4272
 3832SOL    HW123129   1.564   0.001   1.667 -2.1353  1.2659 -1.6388
 3832SOL    HW223130   1.416   4.723   1.664  0.2290 -2.3478  0.0422
 3833SOL     OW23131   4.072   4.537   6.949 -0.6428  0.1615 -0.0061
 3833SOL    HW123132   4.158   4.539   6.907 -1.5183  1.2293 -1.8033
 3833SOL    HW223133   4.045   4.625   6.922 -1.4916 -0.1907 -0.3089
 3834SOL     OW23134   1.627   2.835  13.166 -0.3104  0.1483 -0.0094
 3834SOL    HW123135   1.653   2.871  13.082  0.3538 -0.6783 -0.1491
 3834SOL    HW223136   1.548   2.888  13.178 -1.1389 -0.6440 -1.8910
 3835SOL     OW23137   4.385   0.495   8.382 -0.3473  0.0979  0.1907
 3835SOL    HW123138   4.441   0.535   8.449  0.7117 -0.3804 -0.3962
 3835SOL    HW223139   4.381   0.575   8.330 -0.5968 -0.1401 -0.1575
 3836SOL     OW23140   1.924   1.547   2.219  0.2750 -0.1329  0.1272
 3836SOL    HW123141   2.014   1.579   2.225  0.2517 -0.0233 -0.1171
 3836SOL    HW223142   1.904   1.577   2.131  0.8579 -0.7968 -0.2278
 3837SOL     OW23143   0.284   0.974  11.936 -0.5467  0.0269 -0.5273
 3837SOL    HW123144   0.239   0.938  11.860  1.0773  0.4514 -1.6881
 3837SOL    HW223145   0.221   0.970  12.008 -0.2067 -0.9186 -0.2734
 3838SOL     OW23146   2.437   3.300   2.440 -0.3035  0.6995 -0.0469
 3838SOL    HW123147   2.390   3.328   2.362  0.6648  0.6406 -0.6526
 3838SOL    HW223148   2.502   3.242   2.401 -1.5132  0.0271 -1.0623
 3839SOL     OW23149   0.902   3.093   0.082  0.4886 -0.2200 -0.2929
 3839SOL    HW123150   0.884   3.040   0.159 -0.2357  0.5304  0.0491
 3839SOL    HW223151   0.975   3.146   0.114 -0.7014  1.5138 -0.4489
 3840SOL     OW23152   4.190   1.040  13.609 -0.3638 -1.0158  0.2075
 3840SOL    HW123153   4.216   1.065  13.521 -2.6351  3.3051  0.7527
 3840SOL    HW223154   4.107   1.081  13.632  0.7493  0.8153  0.9920
 3841SOL     OW23155   2.016   1.352   2.596  0.6676  0.4461 -0.2930
 3841SOL    HW123156   1.990   1.414   2.664 -0.5662 -0.5874  0.1909
 3841SOL    HW223157   2.069   1.408   2.540  0.8433  0.2982 -0.2744
 3842SOL     OW23158   1.198   2.846   4.332  0.2165  0.4323  0.2301
 3842SOL    HW123159   1.124   2.793   4.303 -0.9666  1.0011  2.1489
 3842SOL    HW223160   1.157   2.932   4.318  0.1811  0.4170  0.2402
 3843SOL     OW23161   0.632   1.035   5.154 -0.1055 -0.0010  0.0463
 3843SOL    HW123162   0.557   1.004   5.204  0.9869 -3.1858 -0.2884
 3843SOL    HW223163   0.643   1.125   5.185 -1.4217  0.1135  0.2035
 3844SOL     OW23164   3.924   1.405   2.258 -0.2052 -0.1795  0.1574
 3844SOL    HW123165   3.835   1.371   2.249 -0.3288 -0.0553  0.8468
 3844SOL    HW223166   3.970   1.325   2.284 -0.1681 -0.1823  0.0809
 3845SOL     OW23167   2.353   2.708  11.655 -0.3341  0.2170  0.5261
 3845SOL    HW123168   2.382   2.624  11.618 -2.0924 -0.7873  1.4208
 3845SOL    HW223169   2.311   2.687  11.739 -0.8403  2.7981  0.9187
 3846SOL     OW23170   4.284   1.668   8.432  0.1994 -0.1768  0.4466
 3846SOL    HW123171   4.358   1.723   8.407 -0.3667  0.3612 -0.0344
 3846SOL    HW223172   4.216   1.710   8.379  0.2632  1.1607  1.4336
 3847SOL     OW23173   2.162   3.490   0.841  0.4402 -0.0617  0.5749
 3847SOL    HW123174   2.188   3.399   0.826  1.5972  0.4596 -0.5588
 3847SOL    HW223175   2.079   3.481   0.794 -0.2136  2.9349  1.1623
 3848SOL     OW23176   3.532   1.807   6.682 -0.3070 -0.0573  0.2638
 3848SOL    HW123177   3.548   1.890   6.636 -1.1592 -0.6069 -1.0515
 3848SOL    HW223178   3.495   1.748   6.616  2.6189 -1.0356 -0.5272
 3849SOL     OW23179   1.179   2.698   3.498 -0.5698 -0.2962 -0.2678
 3849SOL    HW123180   1.199   2.623   3.441 -0.5394 -0.3125 -0.2359
 3849SOL    HW223181   1.206   2.662   3.582 -1.8457  0.2535  0.3631
 3850SOL     OW23182   4.082   0.637   7.958 -0.1354  0.3537  0.0968
 3850SOL    HW123183   4.166   0.595   7.975  0.0308 -0.1658 -2.0285
 3850SOL    HW223184   4.022   0.563   7.946 -0.2485  0.3714  0.5685
 3851SOL     OW23185   3.814   1.850   2.457  0.6290  0.1740  0.1661
 3851SOL    HW123186   3.762   1.770   2.464  1.3562 -0.4236 -1.2018
 3851SOL    HW223187   3.738   1.907   2.461  0.6952  0.0831  2.9549
 3852SOL     OW23188   0.944   2.206   2.642 -0.2715 -0.1689 -0.3478
 3852SOL    HW123189   0.977   2.295   2.632  1.0230 -0.4163  1.6433
 3852SOL    HW223190   0.876   2.202   2.574  0.7621 -0.7400 -1.3522
 3853SOL     OW23191   4.604   0.918   8.840 -0.0955 -0.1980 -0.0114
 3853SOL    HW123192   4.518   0.911   8.882 -1.1908  1.7288 -1.9363
 3853SOL    HW223193   4.595   0.998   8.789  0.0496  1.2891  2.3106
 3854SOL     OW23194   1.526   4.410  12.849 -0.0618 -0.0544 -0.4576
 3854SOL    HW123195   1.495   4.324  12.877 -2.4574 -0.1896 -3.5456
 3854SOL    HW223196   1.621   4.399  12.852 -0.4513 -3.2586  0.7214
 3855SOL     OW23197   3.678   0.694   5.710 -0.0200  0.1974 -0.5030
 3855SOL    HW123198   3.728   0.746   5.647 -0.9203 -0.0800 -1.4424
 3855SOL    HW223199   3.607   0.658   5.659  0.8821 -1.0243 -0.8926
 3856SOL     OW23200   0.820   0.527   9.871  0.0840 -0.0247  0.0328
 3856SOL    HW123201   0.868   0.460   9.822 -2.0732  0.3711 -2.6105
 3856SOL    HW223202   0.841   0.614   9.837 -1.6790 -0.8480 -3.2337
 3857SOL     OW23203   1.165   0.758   5.493  0.2714  0.6016  0.6014
 3857SOL    HW123204   1.111   0.719   5.424 -0.1361 -0.1412  1.3306
 3857SOL    HW223205   1.238   0.696   5.488 -0.1993  0.0315  0.7613
 3858SOL     OW23206   1.393   4.484   9.446  0.0427  0.6708  0.6287
 3858SOL    HW123207   1.455   4.455   9.379 -2.1548 -1.7352 -0.3221
 3858SOL    HW223208   1.383   4.578   9.430  0.5826  0.5231 -0.5900
 3859SOL     OW23209   1.224   1.657   7.485 -0.3507  0.6038 -0.5621
 3859SOL    HW123210   1.209   1.677   7.578  1.2738 -2.2429  0.2931
 3859SOL    HW223211   1.201   1.565   7.478 -1.7722  0.9340 -0.2494
 3860SOL     OW23212   3.103   0.534  14.167  0.4750  0.7088  0.1167
 3860SOL    HW123213   3.039   0.466  14.187  1.0129  0.4920  1.1163
 3860SOL    HW223214   3.100   0.547  14.072 -1.1479 -0.5979 -0.0205
 3861SOL     OW23215   2.996   3.050   9.681 -0.3031  0.3002 -0.3144
 3861SOL    HW123216   2.921   3.097   9.644  0.6911  1.7585 -0.4549
 3861SOL    HW223217   3.047   3.046   9.601  1.6467 -2.4153  1.0344
 3862SOL     OW23218   0.686   3.634   3.872 -1.2334  0.1457 -0.2872
 3862SOL    HW123219   0.628   3.598   3.805  0.8374 -0.0611 -1.9581
 3862SOL    HW223220   0.771   3.590   3.871 -1.1080  0.3752  0.4507
 3863SOL     OW23221   2.654   2.220   0.988  0.7600 -0.5333 -0.5077
 3863SOL    HW123222   2.665   2.256   1.076  0.2358  0.4824 -0.8640
 3863SOL    HW223223   2.570   2.176   1.003 -0.7862  3.1145  1.3892
 3864SOL     OW23224   0.441   0.434  12.255 -0.3892 -0.1350  0.1299
 3864SOL    HW123225   0.419   0.522  12.286  1.3148 -0.2000  1.5152
 3864SOL    HW223226   0.521   0.419  12.305  0.1948 -0.5571 -0.9293
 3865SOL     OW23227   0.673   1.823   4.015  0.4608  0.3095  0.5260
 3865SOL    HW123228   0.683   1.768   3.937 -2.3015 -0.6749  0.8335
 3865SOL    HW223229   0.760   1.860   4.019  0.9348 -0.9865  2.6140
 3866SOL     OW23230   0.360   4.484   1.617 -0.0507  0.3550  0.0055
 3866SOL    HW123231   0.315   4.420   1.562  1.4124  0.5272 -1.4145
 3866SOL    HW223232   0.308   4.482   1.697  0.2069 -0.0988  0.1620
 3867SOL     OW23233   0.838   1.325   0.554 -0.2672  0.2461 -0.3805
 3867SOL    HW123234   0.832   1.371   0.470  0.1937 -1.4196 -1.3275
 3867SOL    HW223235   0.827   1.398   0.615 -2.3062  0.6319 -1.2162
 3868SOL     OW23236   4.723   1.675   5.919  0.6592  0.4401  0.3845
 3868SOL    HW123237   0.005   1.582   5.925 -0.4914  0.4902  4.6732
 3868SOL    HW223238   4.639   1.688   5.876 -1.2146 -0.8795  3.6361
 3869SOL     OW23239   1.844   3.468  15.529  0.3600  0.1794  0.1800
 3869SOL    HW123240   1.779   3.431  15.469  0.6575 -2.2832  1.3873
 3869SOL    HW223241   1.922   3.479  15.474  1.2699 -0.3000  1.3936
 3870SOL     OW23242   3.140   3.555   8.028 -0.1076 -0.5820 -0.6407
 3870SOL    HW123243   3.085   3.507   8.090  0.8061  1.1385  1.4850
 3870SOL    HW223244   3.088   3.542   7.948  0.2084  1.4112 -1.1538
 3871SOL     OW23245   0.879   2.268   1.026  0.0296 -0.2515 -0.3118
 3871SOL    HW123246   0.883   2.229   0.939  1.8680  0.0813 -0.3946
 3871SOL    HW223247   0.790   2.255   1.057  0.0163  2.3432  0.7860
 3872SOL     OW23248   4.576   2.222  14.491 -0.0563  0.1498 -0.0819
 3872SOL    HW123249   4.526   2.244  14.412 -0.8426  0.2681  0.4513
 3872SOL    HW223250   4.569   2.311  14.525 -0.7396  0.5124 -1.1450
 3873SOL     OW23251   1.845   4.055   1.859  0.5324  0.1074 -0.4643
 3873SOL    HW123252   1.809   4.033   1.945  1.6374  0.4744  0.1000
 3873SOL    HW223253   1.781   4.122   1.835 -1.2838 -1.0196  1.1903
 3874SOL     OW23254   3.929   3.153   5.508 -0.4008 -0.2164 -0.3806
 3874SOL    HW123255   3.961   3.170   5.597  1.3362 -2.0264 -0.6597
 3874SOL    HW223256   3.943   3.058   5.511  0.3289 -0.1523 -1.8362
 3875SOL     OW23257   3.385   2.188   3.295  0.2264 -0.1567  0.4330
 3875SOL    HW123258   3.311   2.188   3.234 -0.5301  0.6897  1.3425
 3875SOL    HW223259   3.351   2.242   3.367 -0.1886 -0.5447  0.5293
 3876SOL     OW23260   2.347   1.858   8.132 -0.8392  0.3671  0.1394
 3876SOL    HW123261   2.395   1.940   8.143  1.5283 -0.9372 -0.4758
 3876SOL    HW223262   2.285   1.876   8.203 -0.1698  2.1843  0.2537
 3877SOL     OW23263   1.136   3.165   8.361 -0.7260 -0.4650  0.1854
 3877SOL    HW123264   1.212   3.127   8.405 -2.0410 -0.6977  2.2116
 3877SOL    HW223265   1.155   3.143   8.270  2.1591  2.8728 -0.0407
 3878SOL     OW23266   0.497   3.364   7.370  0.1462 -0.0558 -0.3918
 3878SOL    HW123267   0.459   3.443   7.408  1.2889 -1.0871  2.8293
 3878SOL    HW223268   0.439   3.358   7.294 -0.5669  0.4324  0.1082
 3879SOL     OW23269   1.611   1.343  11.642  0.2117  0.3145 -0.1146
 3879SOL    HW123270   1.667   1.420  11.656  0.1423  0.5952 -1.3484
 3879SOL    HW223271   1.590   1.339  11.549  0.1847 -0.2472 -0.0864
 3880SOL     OW23272   0.564   4.498   3.829  0.3465  0.2913  0.4223
 3880SOL    HW123273   0.608   4.482   3.913  2.0243 -1.1258 -0.7429
 3880SOL    HW223274   0.634   4.497   3.765 -0.7871 -2.5097 -0.7727
 3881SOL     OW23275   1.731   3.042   6.039 -0.3783 -0.0612 -0.1971
 3881SOL    HW123276   1.650   3.010   6.078 -0.8529  2.5170  0.9458
 3881SOL    HW223277   1.727   3.137   6.050  0.0996  0.0057 -0.5876
 3882SOL     OW23278   1.689   0.191   5.206 -0.4931  0.5996 -0.1238
 3882SOL    HW123279   1.785   0.201   5.207 -0.4967  0.5436  2.1919
 3882SOL    HW223280   1.681   0.195   5.111  3.3021 -0.3500 -0.4870
 3883SOL     OW23281   1.042   2.498   8.477 -0.0819 -0.1891  0.1888
 3883SOL    HW123282   0.979   2.444   8.429  0.1751  0.3772 -0.7929
 3883SOL    HW223283   1.019   2.585   8.443 -0.8190 -0.1002  0.9234
 3884SOL     OW23284   2.939   1.266  12.928  0.3230  0.5483 -0.4199
 3884SOL    HW123285   2.971   1.355  12.942 -1.8430  1.1410  0.6549
 3884SOL    HW223286   2.922   1.266  12.834 -1.2918  2.1100 -0.1151
 3885SOL     OW23287   1.523   2.968   6.180  0.3489  0.1970  0.2267
 3885SOL    HW123288   1.529   3.032   6.252  2.9490 -0.6858  0.7981
 3885SOL    HW223289   1.500   2.894   6.236  2.1669 -0.7174 -0.2598
 3886SOL     OW23290   2.185   3.548  16.348 -1.1040  0.2014 -0.2851
 3886SOL    HW123291   2.198   3.642  16.332 -2.6447  0.7523  1.7533
 3886SOL    HW223292   2.116   3.533  16.283 -1.7406  1.0229  0.2070
 3887SOL     OW23293   1.540   3.371  12.217 -0.4991  0.0270  0.3354
 3887SOL    HW123294   1.557   3.347  12.126 -1.5643  1.9376 -0.3674
 3887SOL    HW223295   1.509   3.287  12.250 -2.1040  1.3350  2.1729
 3888SOL     OW23296   1.220   2.564   8.084  0.1491  0.0514  0.1345
 3888SOL    HW123297   1.179   2.482   8.112 -0.2593  0.5318  0.9413
 3888SOL    HW223298   1.140   2.616   8.089 -1.4858 -2.3517 -1.0137
 3889SOL     OW23299   3.352   2.034  13.941  0.5849 -0.5653 -0.0596
 3889SOL    HW123300   3.390   2.051  13.855 -0.7627 -2.3916 -1.0223
 3889SOL    HW223301   3.424   2.051  14.001  1.9961 -0.4533 -1.7601
 3890SOL     OW23302   1.011   1.532  13.205 -0.2618  0.2190  0.4347
 3890SOL    HW123303   0.948   1.569  13.267  1.6548  0.8290  2.0477
 3890SOL    HW223304   1.048   1.612  13.168 -1.8875  0.3301 -0.9690
 3891SOL     OW23305   1.588   1.247   5.041 -0.3915  0.4514  1.0791
 3891SOL    HW123306   1.531   1.323   5.029  0.6410  1.0396 -0.1438
 3891SOL    HW223307   1.676   1.274   5.015 -1.0797 -0.4776 -2.1444
 3892SOL     OW23308   1.234   3.514   7.222  0.0691  0.2757  0.6103
 3892SOL    HW123309   1.247   3.428   7.261  2.4478  0.5130  0.3183
 3892SOL    HW223310   1.273   3.505   7.135  0.7406 -1.2244  1.0667
 3893SOL     OW23311   0.187   4.526   3.322 -0.2205  0.0096  0.4586
 3893SOL    HW123312   0.218   4.591   3.386  2.0850  0.5051 -1.1575
 3893SOL    HW223313   0.105   4.564   3.292  0.1228 -0.9207 -1.6320
 3894SOL     OW23314   2.154   1.020   8.969 -0.2375  0.4420  0.5796
 3894SOL    HW123315   2.168   0.936   9.011 -0.8894  0.1731  0.2643
 3894SOL    HW223316   2.102   1.064   9.036 -1.7210 -1.4448  0.6790
 3895SOL     OW23317   2.430   4.154   4.441  0.3775 -0.7843 -0.2505
 3895SOL    HW123318   2.519   4.118   4.443  0.5324 -0.4185 -0.4945
 3895SOL    HW223319   2.448   4.247   4.433  0.1732 -0.7171  0.0420
 3896SOL     OW23320   0.283   4.620   6.561 -0.0294  0.0595 -0.2894
 3896SOL    HW123321   0.337   4.550   6.523  0.0752 -0.1883  0.3134
 3896SOL    HW223322   0.206   4.568   6.582 -1.3859  1.7783 -1.0120
 3897SOL     OW23323   2.330   1.126   5.667  0.1902 -0.1392  0.5673
 3897SOL    HW123324   2.293   1.214   5.666  1.7249  0.4617 -2.2107
 3897SOL    HW223325   2.332   1.117   5.762  2.7921 -0.6777  0.4532
 3898SOL     OW23326   0.025   0.071   1.193 -0.3394  0.1566 -0.0085
 3898SOL    HW123327   4.719   0.038   1.114 -0.8590 -1.8632  1.1049
 3898SOL    HW223328   0.013   4.730   1.247  0.2272 -0.7175 -1.1464
 3899SOL     OW23329   2.938   2.213   8.230 -0.0062 -0.6946  0.3904
 3899SOL    HW123330   2.955   2.304   8.258 -1.7091 -0.3287  0.1850
 3899SOL    HW223331   2.958   2.227   8.138 -1.8465  0.3018  0.1541
 3900SOL     OW23332   2.180   2.972   0.927 -0.1326  0.3262 -0.4580
 3900SOL    HW123333   2.129   2.892   0.931 -1.2032  0.9277 -2.1633
 3900SOL    HW223334   2.189   3.010   1.015 -0.9139  0.8754 -0.6200
 3901SOL     OW23335   0.427   1.272   9.342 -0.1331 -0.4059 -0.4474
 3901SOL    HW123336   0.468   1.322   9.413  0.9114  1.0327 -2.0822
 3901SOL    HW223337   0.337   1.266   9.374  0.4778 -0.3841  1.3047
 3902SOL     OW23338   0.041   4.715  15.178  0.2633 -0.2053  0.3747
 3902SOL    HW123339   0.063   4.638  15.230 -0.9507 -1.6280 -1.2104
 3902SOL    HW223340   4.686   4.699  15.159 -0.0071 -1.1004  2.5123
 3903SOL     OW23341   2.773   3.944   2.512 -0.5081  0.2011 -0.0164
 3903SOL    HW123342   2.775   4.039   2.527 -0.4512  0.5305 -2.1861
 3903SOL    HW223343   2.776   3.939   2.417  2.3683 -0.4434  0.1083
 3904SOL     OW23344   0.454   3.944   9.153  0.5270 -0.0419 -0.2771
 3904SOL    HW123345   0.509   3.886   9.100  1.7981  0.3197  0.6366
 3904SOL    HW223346   0.450   3.898   9.237 -0.7264 -1.0810 -0.9011
 3905SOL     OW23347   2.314   1.680   6.316  0.1255 -0.0229 -0.4688
 3905SOL    HW123348   2.337   1.638   6.234 -0.6730  0.8003 -1.1208
 3905SOL    HW223349   2.277   1.763   6.284  0.8934 -0.5707 -2.6952
 3906SOL     OW23350   3.400   3.977   6.278 -0.4058  0.0034 -0.2642
 3906SOL    HW123351   3.487   4.014   6.291 -0.3587  0.1918 -1.0848
 3906SOL    HW223352   3.355   4.056   6.307  0.3284  0.6233 -0.7834
 3907SOL     OW23353   0.910   3.275   7.126 -0.1230 -0.0162  0.1691
 3907SOL    HW123354   0.961   3.321   7.059  2.8665 -3.2566  0.2165
 3907SOL    HW223355   0.844   3.343   7.142  0.0446  0.7838 -2.4859
 3908SOL     OW23356   3.462   2.570   4.430  0.0945 -0.2578 -0.3707
 3908SOL    HW123357   3.500   2.494   4.475 -1.8742 -0.9148  0.1645
 3908SOL    HW223358   3.373   2.571   4.464  0.2019 -0.6458 -0.0750
 3909SOL     OW23359   3.941   2.225  11.975  0.2511 -0.0162 -0.4803
 3909SOL    HW123360   3.946   2.287  12.048  1.6118  0.9019 -1.3431
 3909SOL    HW223361   3.996   2.266  11.908  1.8030 -4.2982 -1.8453
 3910SOL     OW23362   4.733   2.159   2.154  0.5889 -0.4244 -0.0999
 3910SOL    HW123363   0.015   2.228   2.218 -2.3114 -1.1357  1.5599
 3910SOL    HW223364   4.645   2.177   2.122  1.2918  0.6373 -1.4288
 3911SOL     OW23365   2.317   3.017   5.816  0.2562 -0.1693  1.0004
 3911SOL    HW123366   2.300   3.005   5.723 -1.4482 -0.0839  1.2847
 3911SOL    HW223367   2.331   2.929   5.849  1.7600 -0.9814 -1.8121
 3912SOL     OW23368   0.736   3.694   5.874  0.4621 -0.8377 -0.6840
 3912SOL    HW123369   0.768   3.604   5.876  1.6851 -0.4245 -2.6871
 3912SOL    HW223370   0.712   3.705   5.782 -2.0549 -1.8607 -0.1741
 3913SOL     OW23371   1.356   2.848   3.011  0.3537  0.6435  0.6397
 3913SOL    HW123372   1.359   2.878   3.102 -1.4957  0.8057  0.6460
 3913SOL    HW223373   1.448   2.841   2.989 -0.1389 -0.3077 -1.1470
 3914SOL     OW23374   4.552   4.052   4.861  0.2775  1.2611  0.5936
 3914SOL    HW123375   4.531   4.144   4.849 -0.1312  0.9874 -0.7967
 3914SOL    HW223376   4.600   4.035   4.779 -0.6071 -1.0004  0.5392
 3915SOL     OW23377   4.678   0.479   7.861  0.0217  0.4075  0.4236
 3915SOL    HW123378   0.033   0.461   7.877  0.3272  0.7881 -0.8702
 3915SOL    HW223379   4.642   0.413   7.919  1.0531  0.3740  1.0293
 3916SOL     OW23380   3.312   2.086   8.881  0.2123 -0.1160  0.1863
 3916SOL    HW123381   3.312   2.070   8.975  0.4567 -0.9033  0.0467
 3916SOL    HW223382   3.253   2.162   8.887 -0.1238 -0.4149  0.6072
 3917SOL     OW23383   1.583   1.958   7.868  0.3212  0.1587  0.4770
 3917SOL    HW123384   1.501   1.994   7.900  0.9709  1.8990  0.1940
 3917SOL    HW223385   1.603   2.037   7.818 -0.6787 -0.4540 -0.8825
 3918SOL     OW23386   3.513   3.118   1.251  0.0022 -0.2860 -0.3739
 3918SOL    HW123387   3.498   3.086   1.162  3.1713 -1.9016 -0.3185
 3918SOL    HW223388   3.576   3.188   1.233 -0.7014  0.5218  0.2778
 3919SOL     OW23389   0.927   0.264   8.450  0.4006  0.2406 -0.2451
 3919SOL    HW123390   0.924   0.293   8.359 -1.5291  0.3391 -0.1519
 3919SOL    HW223391   1.015   0.294   8.472  0.0292  0.6281  0.7106
 3920SOL     OW23392   2.389   4.345   3.103 -0.3335 -0.3395  0.0941
 3920SOL    HW123393   2.387   4.263   3.153  0.3945 -0.6954 -0.4686
 3920SOL    HW223394   2.311   4.332   3.049  0.7448 -0.8720 -1.3138
 3921SOL     OW23395   3.115   1.260   2.224  0.0606  0.0741  0.1713
 3921SOL    HW123396   3.159   1.214   2.295 -0.1868  0.4806  0.5841
 3921SOL    HW223397   3.197   1.295   2.189 -0.2496  3.2864  2.7224
 3922SOL     OW23398   2.601   1.497   3.271 -0.6873  0.3627 -0.0150
 3922SOL    HW123399   2.531   1.436   3.291 -1.4448  1.0368 -0.6154
 3922SOL    HW223400   2.646   1.504   3.355  0.4696 -2.8865 -0.3883
 3923SOL     OW23401   4.726   3.818  12.351  0.3155  0.4278  0.4027
 3923SOL    HW123402   0.073   3.779  12.370 -0.5086 -1.3191  0.5121
 3923SOL    HW223403   0.007   3.833  12.258 -0.4461  1.1190  0.3621
 3924SOL     OW23404   2.098   3.874   0.546 -0.4238  0.1001 -0.0356
 3924SOL    HW123405   2.060   3.942   0.602 -0.1500 -0.7795  1.2119
 3924SOL    HW223406   2.075   3.916   0.463 -0.0219  0.4558  0.0339
 3925SOL     OW23407   1.819   3.205   5.129 -0.2786  0.3930  0.0211
 3925SOL    HW123408   1.810   3.184   5.222 -0.7105 -0.8883 -0.3054
 3925SOL    HW223409   1.911   3.229   5.135  0.2010 -1.1785 -1.2049
 3926SOL     OW23410   0.626   3.554   3.138 -0.9032 -0.3142 -0.4374
 3926SOL    HW123411   0.534   3.579   3.141 -0.6612  0.7877 -2.1492
 3926SOL    HW223412   0.623   3.464   3.169  0.4019 -0.1391  0.2027
 3927SOL     OW23413   1.626   1.729   0.378  0.6332  0.3176  0.0641
 3927SOL    HW123414   1.641   1.636   0.364 -3.3594  0.3292 -3.9538
 3927SOL    HW223415   1.534   1.750   0.365  0.4568 -0.5754 -0.1283
 3928SOL     OW23416   2.951   4.735   0.962 -0.2752 -0.1233 -0.1522
 3928SOL    HW123417   2.884   4.690   1.014  0.0400  0.9151  1.1463
 3928SOL    HW223418   2.968   4.670   0.894 -1.8328  1.1103 -1.7067
 3929SOL     OW23419   1.093   2.793   4.763  0.5415 -0.4955 -0.1621
 3929SOL    HW123420   1.059   2.740   4.690  0.6545 -0.9598  0.1250
 3929SOL    HW223421   1.146   2.860   4.719 -0.4566  0.0306 -0.5629
 3930SOL     OW23422   4.301   1.668   6.020  0.5739  0.5281 -0.0787
 3930SOL    HW123423   4.325   1.656   6.112  2.4958 -1.6012 -0.8569
 3930SOL    HW223424   4.263   1.754   6.005  3.3864  2.2145  2.3775
 3931SOL     OW23425   0.683   2.735  12.176 -0.4264 -0.2331  0.1153
 3931SOL    HW123426   0.732   2.714  12.256 -2.9037  0.3705  1.7938
 3931SOL    HW223427   0.603   2.764  12.220 -1.4076 -1.2582 -1.0311
 3932SOL     OW23428   2.386   0.160   2.838  0.0101 -0.0289 -0.3960
 3932SOL    HW123429   2.446   0.228   2.810  0.8150 -0.5331  0.0885
 3932SOL    HW223430   2.434   0.128   2.915 -1.6977  1.4350  1.2923
 3933SOL     OW23431   1.434   3.149   2.292  0.1998  0.6537 -0.6042
 3933SOL    HW123432   1.436   3.238   2.328 -2.0598  0.4851 -0.1007
 3933SOL    HW223433   1.484   3.108   2.363  0.7123 -2.5254 -2.7873
 3934SOL     OW23434   2.962   1.489   3.194  0.5625  0.2673 -0.3601
 3934SOL    HW123435   2.936   1.419   3.254  1.8592 -1.4313 -1.7684
 3934SOL    HW223436   3.000   1.443   3.119 -0.6758 -0.9223 -0.2520
 3935SOL     OW23437   3.892   1.377   8.237  0.3233 -0.1082 -0.1274
 3935SOL    HW123438   3.834   1.445   8.273  0.0396 -0.3279 -0.1714
 3935SOL    HW223439   3.882   1.299   8.291 -1.9341 -1.7246 -2.8807
 3936SOL     OW23440   0.631   2.807  14.163 -0.0392 -0.2332 -0.3164
 3936SOL    HW123441   0.566   2.870  14.192  1.6496  1.3829 -0.0497
 3936SOL    HW223442   0.578   2.735  14.130  1.8400 -1.0600 -1.5477
 3937SOL     OW23443   2.574   1.739   8.513 -0.8264  0.1344  0.2626
 3937SOL    HW123444   2.584   1.833   8.524  2.0465 -0.3097  1.3849
 3937SOL    HW223445   2.595   1.707   8.600  1.3335  0.9442  0.0352
 3938SOL     OW23446   3.241   3.502   0.348  0.1579 -0.6698 -0.3305
 3938SOL    HW123447   3.245   3.478   0.441 -0.9336  0.1966 -0.0748
 3938SOL    HW223448   3.170   3.446   0.319  2.2370 -2.9222 -1.0697
 3939SOL     OW23449   0.756   3.211  17.626 -0.4049 -0.0993  0.1125
 3939SOL    HW123450   0.809   3.163  17.690 -0.7177  1.8642  1.8518
 3939SOL    HW223451   0.802   3.195  17.544  0.2006 -0.0576  0.4376
 3940SOL     OW23452   0.008   1.528  11.944 -0.1015 -0.2519 -0.0007
 3940SOL    HW123453   0.039   1.593  12.008 -0.1270 -1.0455  0.8172
 3940SOL    HW223454   4.725   1.588  11.872  0.2103  0.5659  0.5839
 3941SOL     OW23455   3.235   2.747  10.255 -0.1432  0.0957  0.6533
 3941SOL    HW123456   3.251   2.667  10.305  1.1946  0.7816  1.3050
 3941SOL    HW223457   3.184   2.706  10.185  1.7945 -2.1890  0.5854
 3942SOL     OW23458   3.891   0.983   3.375 -0.1493 -0.2962 -0.0892
 3942SOL    HW123459   3.910   1.018   3.288 -4.0892 -0.1479 -0.8593
 3942SOL    HW223460   3.841   0.904   3.355  2.0155 -1.6679 -0.1275
 3943SOL     OW23461   1.707   3.373   2.559 -0.0887  0.0544 -0.2062
 3943SOL    HW123462   1.743   3.452   2.519 -1.8344  1.5207  1.1427
 3943SOL    HW223463   1.785   3.327   2.590  1.0846  1.4715 -1.0799
 3944SOL     OW23464   0.989   4.100   7.891  0.4622 -0.3144 -0.3167
 3944SOL    HW123465   1.047   4.170   7.860 -2.4255  1.6635 -1.1757
 3944SOL    HW223466   1.052   4.062   7.952  1.9694  0.8388 -1.1547
 3945SOL     OW23467   0.486   3.771  11.285  0.3460 -0.6003  0.3058
 3945SOL    HW123468   0.432   3.850  11.281  1.3896  0.0762 -0.5424
 3945SOL    HW223469   0.445   3.723  11.213  1.3715  0.1683 -0.7741
 3946SOL     OW23470   0.146   3.837   3.591  0.0969 -0.0493 -0.1507
 3946SOL    HW123471   0.055   3.809   3.579  1.2626 -3.6882 -0.6049
 3946SOL    HW223472   0.190   3.769   3.540 -1.1331 -0.5224 -0.5775
 3947SOL     OW23473   0.607   0.281   8.213 -0.0972  0.2264 -0.8046
 3947SOL    HW123474   0.557   0.294   8.293 -1.0696 -0.3033 -1.3178
 3947SOL    HW223475   0.692   0.319   8.232  0.4358 -1.5255  0.2298
 3948SOL     OW23476   2.459   2.822   0.262 -0.6159  0.1782  0.2190
 3948SOL    HW123477   2.446   2.727   0.268  0.3618  0.0203 -0.1920
 3948SOL    HW223478   2.553   2.824   0.245 -1.1241 -2.1985 -2.8213
 3949SOL     OW23479   3.509   0.860   5.322  0.4370 -0.0062 -0.0801
 3949SOL    HW123480   3.573   0.832   5.256 -2.6441 -1.5217 -2.4394
 3949SOL    HW223481   3.450   0.786   5.314  1.9947 -1.4006  1.2739
 3950SOL     OW23482   3.941   1.089   8.385  0.1416  0.3408  0.5076
 3950SOL    HW123483   3.959   1.004   8.344 -1.9087  0.6350 -1.0290
 3950SOL    HW223484   3.846   1.095   8.387  0.1092 -0.2867  0.6507
 3951SOL     OW23485   3.288   1.317  15.898 -0.2843  0.5188 -0.2360
 3951SOL    HW123486   3.208   1.369  15.908  0.1400  0.8483  1.4357
 3951SOL    HW223487   3.363   1.372  15.877  0.7161  0.1201  2.3202
 3952SOL     OW23488   1.697   1.561   8.162  0.4775  0.2086  0.0045
 3952SOL    HW123489   1.763   1.570   8.093 -0.3700  1.5021 -0.6414
 3952SOL    HW223490   1.756   1.575   8.237 -1.4485  3.7350  0.8762
 3953SOL     OW23491   1.910   2.059   5.035  0.7841 -1.0770  0.3031
 3953SOL    HW123492   1.836   2.108   5.070 -0.3922 -1.3652 -1.7737
 3953SOL    HW223493   1.958   2.127   4.988 -0.1933 -1.2670 -0.9861
 3954SOL     OW23494   0.740   4.702   6.541 -0.9739  0.2087  0.7636
 3954SOL    HW123495   0.708   4.703   6.451 -1.1644 -2.1649  0.7896
 3954SOL    HW223496   0.665   4.734   6.590 -1.4222  1.3924 -0.6991
 3955SOL     OW23497   3.424   3.830   7.908 -0.0178 -0.3280  1.0458
 3955SOL    HW123498   3.481   3.805   7.836  1.1364  0.6795  1.6115
 3955SOL    HW223499   3.399   3.740   7.930 -0.3723 -0.2682  0.8764
 3956SOL     OW23500   0.719   1.017   2.496 -0.0595 -0.0888 -0.0075
 3956SOL    HW123501   0.757   1.105   2.494 -2.4178  0.9024 -0.7342
 3956SOL    HW223502   0.795   0.968   2.464 -2.0200 -2.5008 -0.9729
 3957SOL     OW23503   0.596   3.307   5.023  0.4308  0.1904 -0.4605
 3957SOL    HW123504   0.506   3.285   5.048  0.7579 -0.0724  0.4807
 3957SOL    HW223505   0.576   3.371   4.955 -1.3643  0.1527  0.0322
 3958SOL     OW23506   0.854   2.462   0.245  0.2279  0.2750  0.4122
 3958SOL    HW123507   0.866   2.367   0.243  0.8548  0.3253  2.5271
 3958SOL    HW223508   0.896   2.495   0.166 -0.8054 -0.9600 -0.6637
 3959SOL     OW23509   0.713   3.498   2.151 -0.3433  0.0266  0.2774
 3959SOL    HW123510   0.743   3.425   2.097 -1.1104 -0.8730  1.0785
 3959SOL    HW223511   0.791   3.510   2.206  0.9980 -4.0259 -0.7521
 3960SOL     OW23512   1.166   3.038   4.614 -0.1171  0.1840 -0.2071
 3960SOL    HW123513   1.165   3.132   4.596 -0.3849  0.2610  0.1986
 3960SOL    HW223514   1.255   3.022   4.585 -0.4968  1.5119 -2.1391
 3961SOL     OW23515   1.167   2.176   8.697 -0.0117 -0.1642  0.2614
 3961SOL    HW123516   1.210   2.100   8.657  0.0244  0.1351 -0.2769
 3961SOL    HW223517   1.172   2.154   8.790 -1.0729  0.1793  0.3966
 3962SOL     OW23518   0.360   0.177   3.070 -0.7179 -0.2635  0.1071
 3962SOL    HW123519   0.307   0.207   3.143  0.8676  2.1072  0.3131
 3962SOL    HW223520   0.445   0.199   3.108  0.5570 -1.6754 -1.8830
 3963SOL     OW23521   2.128   0.385   8.940 -0.6941  0.0318  0.0471
 3963SOL    HW123522   2.152   0.299   8.906 -0.1091 -0.6191  2.1342
 3963SOL    HW223523   2.167   0.437   8.869  0.3070  1.5763  1.7471
 3964SOL     OW23524   4.626   0.937   9.359  0.1360 -0.5313  0.2116
 3964SOL    HW123525   4.676   0.992   9.298  1.9275 -1.5889  0.7158
 3964SOL    HW223526   4.607   0.857   9.311  0.7670 -0.7279  0.2929
 3965SOL     OW23527   3.966   2.033   5.251  0.2574 -0.8012 -0.1919
 3965SOL    HW123528   4.032   1.986   5.200  0.5655 -1.0194  0.4019
 3965SOL    HW223529   4.011   2.051   5.334 -0.8207  2.4068 -0.2934
 3966SOL     OW23530   3.720   0.328   5.703  0.2486 -0.4597  0.1562
 3966SOL    HW123531   3.658   0.397   5.681 -1.0706 -0.7888  2.8473
 3966SOL    HW223532   3.754   0.302   5.617 -0.0014 -0.9413  0.2043
 3967SOL     OW23533   2.573   1.617  16.399  0.2140 -0.8915 -0.3129
 3967SOL    HW123534   2.572   1.698  16.347 -3.6853 -0.3666  0.5806
 3967SOL    HW223535   2.554   1.654  16.485  4.3454  1.4127 -0.3500
 3968SOL     OW23536   3.713   1.693   6.428 -0.3429 -0.3548 -0.2271
 3968SOL    HW123537   3.786   1.631   6.433  0.0573  0.2672  1.6557
 3968SOL    HW223538   3.655   1.653   6.493  0.8090 -0.8702  0.4863
 3969SOL     OW23539   1.792   2.084   7.566 -0.1396 -0.4882  0.7056
 3969SOL    HW123540   1.763   2.134   7.489  2.2229 -0.7962 -0.3985
 3969SOL    HW223541   1.711   2.090   7.617  0.3556  3.6504  1.0658
 3970SOL     OW23542   2.561   1.863   5.411 -0.2793  0.1288 -0.0725
 3970SOL    HW123543   2.628   1.795   5.399 -0.6584 -0.2878  0.1961
 3970SOL    HW223544   2.576   1.909   5.328  1.9365  0.5661  0.5638
 3971SOL     OW23545   4.036   1.093  10.225 -0.1044  0.3467 -0.4301
 3971SOL    HW123546   4.073   1.024  10.170 -1.3880  0.2504 -1.1781
 3971SOL    HW223547   3.990   1.036  10.287 -0.1310  2.8117  1.8423
 3972SOL     OW23548   2.338   3.321   2.072 -0.0966 -0.3348  0.1863
 3972SOL    HW123549   2.379   3.241   2.041  0.9165  0.6369 -0.9905
 3972SOL    HW223550   2.268   3.280   2.123  1.6076  0.4449  3.1657
 3973SOL     OW23551   0.444   3.064  13.365  0.1265 -0.2204  1.4923
 3973SOL    HW123552   0.522   3.119  13.357  0.3549 -0.4672  2.0207
 3973SOL    HW223553   0.452   3.009  13.286 -0.3925 -1.3293  2.2076
 3974SOL     OW23554   1.879   4.615   4.511 -0.0536 -0.2464  0.0863
 3974SOL    HW123555   1.804   4.558   4.492 -0.2749  1.3344 -3.7970
 3974SOL    HW223556   1.888   4.621   4.606 -2.5597 -1.1312  0.3726
 3975SOL     OW23557   0.886   2.565  14.000  0.0333 -0.8544  0.6289
 3975SOL    HW123558   0.955   2.619  13.962 -0.2972 -0.7200  0.2091
 3975SOL    HW223559   0.926   2.520  14.074 -1.2053 -2.0613  0.5758
 3976SOL     OW23560   0.787   1.626  13.482 -0.5647 -0.3077  0.1168
 3976SOL    HW123561   0.772   1.617  13.388  0.6008  1.6749 -0.2595
 3976SOL    HW223562   0.697   1.642  13.508 -0.4713  0.8900 -0.2839
 3977SOL     OW23563   3.787   0.503   7.685 -0.6991 -0.1407 -0.1580
 3977SOL    HW123564   3.758   0.416   7.659 -1.2934  0.0831 -0.2434
 3977SOL    HW223565   3.784   0.557   7.606  0.0089  0.5268  0.2663
 3978SOL     OW23566   1.096   3.872  12.031  0.0417 -0.0472 -0.2934
 3978SOL    HW123567   1.045   3.953  12.040  0.1599 -0.0480  0.4115
 3978SOL    HW223568   1.039   3.817  11.977  0.1288  0.9380 -1.3977
 3979SOL     OW23569   3.429   0.907   5.835  0.2621  0.3170  0.7142
 3979SOL    HW123570   3.504   0.888   5.778 -1.5236 -2.0932 -0.8232
 3979SOL    HW223571   3.367   0.840   5.806 -0.1215  0.5959  0.8758
 3980SOL     OW23572   3.098   3.172   0.084 -0.0482  0.5760 -0.2167
 3980SOL    HW123573   3.055   3.257   0.074  1.4321  1.2037 -1.2584
 3980SOL    HW223574   3.180   3.186   0.037  0.2261 -0.5623 -0.0753
 3981SOL     OW23575   0.246   3.106  15.968 -0.1293  0.0498 -0.2163
 3981SOL    HW123576   0.314   3.166  15.936  1.4061 -1.7197 -0.2530
 3981SOL    HW223577   0.168   3.150  15.934 -0.3061 -0.6412 -0.6949
 3982SOL     OW23578   4.540   3.498   8.243 -0.7596  0.1176  0.4809
 3982SOL    HW123579   4.563   3.419   8.193 -3.8943  0.1120 -0.9366
 3982SOL    HW223580   4.620   3.551   8.240  0.7929 -2.2576 -0.5630
 3983SOL     OW23581   2.397   0.396   7.932 -0.0414 -0.3926  0.0677
 3983SOL    HW123582   2.405   0.461   7.862  0.5384  1.0602  1.4854
 3983SOL    HW223583   2.416   0.448   8.010  0.3979 -0.2027 -0.1708
 3984SOL     OW23584   3.453   2.416   6.954 -0.4697  0.7808  0.0767
 3984SOL    HW123585   3.504   2.485   6.998  1.1956  0.0015 -0.6019
 3984SOL    HW223586   3.445   2.464   6.872 -0.1388  0.3084 -0.2306
 3985SOL     OW23587   0.381   0.556  13.797  0.3851 -0.6889 -0.5849
 3985SOL    HW123588   0.411   0.532  13.709  2.9026  0.1863  0.0303
 3985SOL    HW223589   0.286   0.547  13.793  0.6713 -3.2718 -2.0378
 3986SOL     OW23590   0.794   1.112   8.590 -0.0243  0.0959  0.1731
 3986SOL    HW123591   0.735   1.187   8.601 -0.2478  0.2623 -2.1066
 3986SOL    HW223592   0.876   1.149   8.557  0.9302 -1.9621  0.3098
 3987SOL     OW23593   1.525   0.945   3.172 -0.2518 -0.2527 -0.1182
 3987SOL    HW123594   1.514   1.040   3.171 -1.5404 -0.3912  1.3912
 3987SOL    HW223595   1.452   0.931   3.231 -1.0217  0.5246 -0.8813
 3988SOL     OW23596   3.384   4.681  14.270  0.1019 -0.0056 -0.5574
 3988SOL    HW123597   3.406   4.646  14.184  1.4615 -0.2352 -0.1150
 3988SOL    HW223598   3.469   4.719  14.293 -0.1429 -1.1108  2.1279
 3989SOL     OW23599   1.568   3.392   1.041 -0.1006  0.7821  0.2268
 3989SOL    HW123600   1.659   3.421   1.052 -0.0207  1.1706 -1.5040
 3989SOL    HW223601   1.555   3.423   0.952 -1.6607 -2.2365 -0.5762
 3990SOL     OW23602   0.320   3.869   7.077 -0.2666 -0.2232 -0.8319
 3990SOL    HW123603   0.234   3.834   7.053 -0.5503  0.2106 -0.4391
 3990SOL    HW223604   0.361   3.854   6.992 -0.0643 -0.9573 -0.6035
 3991SOL     OW23605   1.992   2.448   3.211  0.1533 -0.3683  0.0941
 3991SOL    HW123606   1.924   2.502   3.251 -0.1414 -0.4625 -0.2783
 3991SOL    HW223607   2.070   2.485   3.252 -0.0352  0.0059  0.1172
 3992SOL     OW23608   4.176   2.758   1.917 -0.4784  0.1707  0.9191
 3992SOL    HW123609   4.257   2.743   1.966  0.3308 -0.6406 -0.6443
 3992SOL    HW223610   4.132   2.673   1.908 -0.5461  0.4271 -1.1853
 3993SOL     OW23611   4.579   1.050   8.379 -0.1689  0.0647  0.3391
 3993SOL    HW123612   4.553   1.105   8.454 -2.6262 -2.5015  1.3623
 3993SOL    HW223613   4.619   1.120   8.327 -0.4461 -0.1019 -0.0965
 3994SOL     OW23614   0.516   0.138  17.061 -0.4936  0.0431  0.1188
 3994SOL    HW123615   0.518   0.230  17.086 -0.3206  0.4076 -1.2515
 3994SOL    HW223616   0.587   0.121  16.999 -0.4856 -1.2862  0.4947
 3995SOL     OW23617   3.342   1.796   3.633  0.2890 -0.0502  0.0498
 3995SOL    HW123618   3.365   1.785   3.541  0.0920 -0.0224 -0.0036
 3995SOL    HW223619   3.410   1.858   3.656 -1.5718  2.7155 -1.9073
 3996SOL     OW23620   1.571   2.043   8.794 -0.8516  0.9875  0.5292
 3996SOL    HW123621   1.543   1.984   8.864  0.2611 -0.0212  0.1328
 3996SOL    HW223622   1.513   2.019   8.721 -0.2979 -3.5651  1.5683
 3997SOL     OW23623   4.365   3.448   3.030  0.3756  0.6988  0.2315
 3997SOL    HW123624   4.335   3.361   3.058  0.2947  0.8836  0.7276
 3997SOL    HW223625   4.300   3.503   3.074 -1.1703  0.2595 -1.5213
 3998SOL     OW23626   1.019   3.702   1.990 -0.1672 -0.2360 -0.3354
 3998SOL    HW123627   1.076   3.769   1.950  1.1046 -0.6404  0.7949
 3998SOL    HW223628   1.059   3.618   1.968  3.1225  0.5861  2.3905
 3999SOL     OW23629   3.295   1.310   6.803 -0.3439  0.6935 -0.1882
 3999SOL    HW123630   3.338   1.327   6.719  2.9292 -2.1757  0.9045
 3999SOL    HW223631   3.240   1.388   6.800  1.2093  1.8201  0.4022
 4000SOL     OW23632   1.571   1.074  12.901 -0.1574 -0.0043 -0.0392
 4000SOL    HW123633   1.522   0.996  12.875  0.4574 -0.3158 -0.2496
 4000SOL    HW223634   1.513   1.150  12.893 -1.7891 -1.2272  0.3399
 4001SOL     OW23635   3.609   3.393   6.145 -0.0478 -0.2733 -0.5582
 4001SOL    HW123636   3.563   3.434   6.072  0.1451  1.3892  0.2571
 4001SOL    HW223637   3.604   3.461   6.212 -0.5885  0.1025 -0.9816
 4002SOL     OW23638   3.978   0.700   7.325 -0.0310  0.3693 -0.8991
 4002SOL    HW123639   3.943   0.789   7.324 -1.7437 -0.2673  1.6167
 4002SOL    HW223640   4.066   0.708   7.362 -0.0515 -1.1455 -0.5193
 4003SOL     OW23641   3.028   0.476   4.421  0.0090  0.6102 -0.3978
 4003SOL    HW123642   2.937   0.491   4.394  0.0694  2.8686  0.7012
 4003SOL    HW223643   3.024   0.519   4.506 -2.5075  2.5593 -1.4980
 4004SOL     OW23644   0.888   2.291   8.676 -0.0345  0.2362  0.2344
 4004SOL    HW123645   0.983   2.286   8.685  0.0208 -0.7964 -0.9050
 4004SOL    HW223646   0.868   2.257   8.589 -1.8355  1.1302  0.3006
 4005SOL     OW23647   3.934   0.109   7.959 -0.2090 -0.4659 -0.4123
 4005SOL    HW123648   3.922   0.022   7.921  1.0899 -0.2523 -1.3251
 4005SOL    HW223649   3.848   0.146   7.938  0.4541  2.0146  1.2606
 4006SOL     OW23650   1.994   1.349  12.274 -0.1631  0.2578  0.1942
 4006SOL    HW123651   2.069   1.369  12.218  0.6884 -2.4926  0.3408
 4006SOL    HW223652   1.984   1.254  12.262 -1.5594  0.1658  2.0622
 4007SOL     OW23653   3.513   0.944   8.706  0.0080  0.9202  0.0101
 4007SOL    HW123654   3.601   0.960   8.741  0.6377 -2.9798  0.2117
 4007SOL    HW223655   3.465   0.940   8.789  0.3385 -0.5299  0.1239
 4008SOL     OW23656   2.178   3.028   4.618 -0.0296 -0.0274 -0.4713
 4008SOL    HW123657   2.156   3.101   4.675  1.6403  0.4788 -0.4625
 4008SOL    HW223658   2.143   3.048   4.531  0.7228 -3.0739 -1.4826
 4009SOL     OW23659   4.683   1.288   8.264 -0.0517 -0.4313 -0.4369
 4009SOL    HW123660   4.736   1.251   8.194 -0.1793 -0.4668 -0.5147
 4009SOL    HW223661   4.596   1.298   8.224  0.2955 -0.4955 -1.2211
 4010SOL     OW23662   3.367   4.540   3.247 -0.0515  0.2454  0.6976
 4010SOL    HW123663   3.392   4.462   3.197  0.3475 -0.7279  2.4108
 4010SOL    HW223664   3.309   4.589   3.189 -0.3619 -0.5004  0.3726
 4011SOL     OW23665   4.321   2.883  15.372  0.0639  0.0927  0.1406
 4011SOL    HW123666   4.316   2.950  15.304 -1.4324 -0.7339 -0.5755
 4011SOL    HW223667   4.367   2.810  15.330  0.0868  0.1339  0.0949
 4012SOL     OW23668   0.657   2.407   1.301  0.4062 -0.2660  0.0500
 4012SOL    HW123669   0.680   2.404   1.393  0.4527 -1.6506 -0.0040
 4012SOL    HW223670   0.678   2.317   1.275  0.3735  0.3401 -2.1471
 4013SOL     OW23671   3.861   3.085   1.408  0.2993  0.5501  0.1585
 4013SOL    HW123672   3.794   3.066   1.474 -1.0377 -1.4385 -1.7610
 4013SOL    HW223673   3.834   3.020   1.343  0.1645  2.6338 -1.8818
 4014SOL     OW23674   2.250   3.845   7.178 -0.4529 -0.1325  0.1472
 4014SOL    HW123675   2.301   3.768   7.201 -1.4613  0.1217  3.2718
 4014SOL    HW223676   2.245   3.890   7.262 -0.3725  2.0966 -1.0197
 4015SOL     OW23677   4.525   1.679   8.079  0.1110 -0.5604  0.2909
 4015SOL    HW123678   4.565   1.712   8.159 -2.2836  1.6237  0.6056
 4015SOL    HW223679   4.594   1.617   8.055 -0.2858 -1.1799  0.7619
 4016SOL     OW23680   2.827   2.895   8.469 -0.6201  0.0889  0.1443
 4016SOL    HW123681   2.757   2.943   8.513 -3.4862 -1.2968 -2.9651
 4016SOL    HW223682   2.913   2.916   8.507 -0.1453 -0.8753 -0.3866
 4017SOL     OW23683   3.938   4.625   4.154 -0.0647 -0.0706  0.3322
 4017SOL    HW123684   3.926   4.687   4.083 -0.6735  1.5956  1.8883
 4017SOL    HW223685   3.922   4.542   4.109 -1.9275  0.8304 -0.6448
 4018SOL     OW23686   3.925   0.571   6.194 -0.2003 -0.3394 -0.0244
 4018SOL    HW123687   3.846   0.588   6.142  0.2824 -0.9153 -0.9270
 4018SOL    HW223688   3.940   0.658   6.230  0.8111 -0.3510 -0.4235
 4019SOL     OW23689   1.385   0.211   9.692 -0.1042 -0.3746 -0.2505
 4019SOL    HW123690   1.342   0.133   9.726 -0.7148 -0.6852 -1.7399
 4019SOL    HW223691   1.352   0.282   9.747 -0.9487 -0.6882 -0.3580
 4020SOL     OW23692   1.609   3.801   5.016  0.1734 -0.0193 -0.9336
 4020SOL    HW123693   1.699   3.826   4.995  0.2676 -0.5766 -1.2074
 4020SOL    HW223694   1.623   3.707   5.023  0.0880 -0.1539 -2.4419
 4021SOL     OW23695   1.338   4.482   4.542  0.4446  0.3276 -0.2088
 4021SOL    HW123696   1.291   4.463   4.624  0.3974 -1.3618 -0.6221
 4021SOL    HW223697   1.382   4.398   4.526  0.9872  0.6875 -0.5881
 4022SOL     OW23698   2.031   4.259   9.124 -0.3687  0.1982 -0.1175
 4022SOL    HW123699   2.092   4.259   9.049  0.4710  1.4211  0.5536
 4022SOL    HW223700   2.063   4.343   9.159  3.0077 -1.4775  0.8488
 4023SOL     OW23701   2.911   3.141   1.615 -0.1156 -0.3429 -0.6379
 4023SOL    HW123702   2.893   3.114   1.525 -1.2245 -1.2539 -0.1380
 4023SOL    HW223703   2.830   3.191   1.626 -0.4762 -0.8233 -1.1186
 4024SOL     OW23704   3.361   1.911   2.187 -0.3372 -0.3241  0.3964
 4024SOL    HW123705   3.429   1.844   2.181  0.0451  0.1762 -0.8440
 4024SOL    HW223706   3.282   1.860   2.204 -0.8930 -0.4261 -2.5039
 4025SOL     OW23707   2.372   2.586  17.523  0.0339  0.2326  0.4065
 4025SOL    HW123708   2.367   2.593  17.618 -0.9384  1.1675  0.2880
 4025SOL    HW223709   2.373   2.682  17.514 -0.3955  0.0074 -2.2365
 4026SOL     OW23710   1.006   2.401   3.657  0.1348  0.5637  0.3449
 4026SOL    HW123711   1.056   2.374   3.734 -0.4804 -0.2482  0.4619
 4026SOL    HW223712   0.920   2.361   3.668  0.0639  0.7264  0.3760
 4027SOL     OW23713   1.940   0.252   6.787  0.3586  0.4843  0.0141
 4027SOL    HW123714   1.939   0.310   6.863 -3.0937  0.5047 -0.0551
 4027SOL    HW223715   1.856   0.282   6.751 -0.0488 -2.0412 -1.1339
 4028SOL     OW23716   4.126   3.213   1.699 -0.8488  0.0561  0.0865
 4028SOL    HW123717   4.191   3.248   1.760 -1.1893 -0.0470  0.5052
 4028SOL    HW223718   4.144   3.120   1.693 -0.2413  0.2951 -1.9171
 4029SOL     OW23719   3.279   4.729   8.617 -0.1528 -0.1525 -0.3108
 4029SOL    HW123720   3.223   0.017   8.689 -0.1901  1.5309 -0.9366
 4029SOL    HW223721   3.206   4.718   8.556  1.3868  0.5757 -2.2891
 4030SOL     OW23722   1.034   2.365   3.397 -0.2797  0.0806 -0.3057
 4030SOL    HW123723   1.019   2.385   3.490 -0.7484 -0.9081 -0.1761
 4030SOL    HW223724   0.975   2.292   3.381 -0.5401  0.5892 -1.6472
 4031SOL     OW23725   1.171   4.445  15.102 -0.2664  0.4302  0.0362
 4031SOL    HW123726   1.226   4.517  15.131 -0.1889  0.5714 -0.4507
 4031SOL    HW223727   1.231   4.378  15.069 -1.1531 -0.2079 -0.2931
 4032SOL     OW23728   3.468   2.764   8.434 -0.4098  0.3539 -0.3751
 4032SOL    HW123729   3.547   2.711   8.444 -0.2086  0.2678 -2.4473
 4032SOL    HW223730   3.428   2.724   8.357 -0.2615 -0.1071 -0.2116
 4033SOL     OW23731   3.618   3.319   5.739  0.4595 -0.0275  0.0902
 4033SOL    HW123732   3.647   3.348   5.653 -0.3446 -2.2717 -0.9125
 4033SOL    HW223733   3.632   3.406   5.778  2.4768 -0.7748  1.0574
 4034SOL     OW23734   3.909   4.319   3.671 -0.9516 -0.2115  0.4771
 4034SOL    HW123735   3.814   4.303   3.670 -1.1527  1.0307 -0.0771
 4034SOL    HW223736   3.943   4.230   3.686 -0.4291 -0.0301  0.3418
 4035SOL     OW23737   2.031   3.628  11.229 -0.2788  0.5932  0.1124
 4035SOL    HW123738   1.959   3.588  11.276 -1.3233  3.0234  0.6133
 4035SOL    HW223739   2.013   3.719  11.256  1.2306  0.7853  0.4892
 4036SOL     OW23740   1.447   4.260   6.952  0.4381 -0.2836 -0.1912
 4036SOL    HW123741   1.358   4.294   6.946  1.1541  1.2934 -1.6279
 4036SOL    HW223742   1.454   4.250   7.047 -1.5460 -0.1632 -0.0273
 4037SOL     OW23743   2.226   2.986   9.347  0.2637 -0.1228 -0.7150
 4037SOL    HW123744   2.299   2.969   9.288  0.4081  0.3699 -0.6811
 4037SOL    HW223745   2.151   2.980   9.288  0.3079 -0.6993 -0.7171
 4038SOL     OW23746   0.689   2.591  12.873  0.4208 -0.1953 -0.0686
 4038SOL    HW123747   0.755   2.560  12.935  0.7586 -0.3050 -0.4918
 4038SOL    HW223748   0.613   2.607  12.930  0.8485 -3.4916  1.4061
 4039SOL     OW23749   0.483   3.518   6.636 -0.0333  0.2314  0.0388
 4039SOL    HW123750   0.498   3.613   6.634  1.0196  0.0498 -1.1706
 4039SOL    HW223751   0.548   3.485   6.699 -0.5810  0.7585  0.8811
 4040SOL     OW23752   1.432   3.489   3.298 -0.4725  0.5132 -0.0289
 4040SOL    HW123753   1.486   3.567   3.308  1.7331 -1.2720  2.1042
 4040SOL    HW223754   1.351   3.532   3.325 -1.2854 -1.6594  1.0273
 4041SOL     OW23755   2.800   0.006   6.743 -0.3209 -0.1794 -0.3541
 4041SOL    HW123756   2.842   0.077   6.792 -1.2716  1.2929 -1.6601
 4041SOL    HW223757   2.740   4.709   6.809 -0.0850  0.0480 -0.0124
 4042SOL     OW23758   2.857   2.531   6.348 -0.2376 -0.0743 -0.4332
 4042SOL    HW123759   2.933   2.511   6.293  0.1824 -0.9441  0.4739
 4042SOL    HW223760   2.805   2.452   6.340 -0.9533  0.4639 -1.0798
 4043SOL     OW23761   2.793   1.250  14.180  0.2806 -0.1913 -0.2000
 4043SOL    HW123762   2.759   1.324  14.230 -1.6757 -1.1356 -0.1475
 4043SOL    HW223763   2.724   1.185  14.169 -1.0037  1.5456 -2.3708
 4044SOL     OW23764   1.243   0.851   7.958 -0.0959  0.2118  0.2318
 4044SOL    HW123765   1.314   0.914   7.944  0.2795  0.2120  2.1165
 4044SOL    HW223766   1.187   0.884   7.888 -0.1323 -0.5773 -0.1158
 4045SOL     OW23767   1.860   3.716   4.650 -0.1450  0.0052  0.1223
 4045SOL    HW123768   1.804   3.738   4.575  0.3872 -0.0196 -0.2863
 4045SOL    HW223769   1.832   3.788   4.706  2.5430  0.7662  0.5001
 4046SOL     OW23770   1.468   0.714   5.146  0.0483 -0.0346 -0.0169
 4046SOL    HW123771   1.454   0.634   5.095  0.0553  1.0670 -1.7527
 4046SOL    HW223772   1.487   0.675   5.231 -2.6043 -0.3828  0.4127
 4047SOL     OW23773   3.710   2.524  11.212 -0.2231 -0.0075  0.0377
 4047SOL    HW123774   3.767   2.601  11.213  2.4095 -2.0049  0.9036
 4047SOL    HW223775   3.750   2.466  11.277  1.9196  2.2331  0.7082
 4048SOL     OW23776   0.287   2.630  15.629  0.5249 -0.2314 -0.2597
 4048SOL    HW123777   0.343   2.684  15.685 -1.7689 -0.5884  2.3364
 4048SOL    HW223778   0.248   2.571  15.693  2.2890  0.2134  1.2501
 4049SOL     OW23779   1.258   2.851  15.675 -0.1230  0.0526  0.2347
 4049SOL    HW123780   1.205   2.773  15.695  0.2010 -0.8647 -2.4536
 4049SOL    HW223781   1.241   2.893  15.760 -0.1303 -1.3893  0.9460
 4050SOL     OW23782   1.225   0.485   6.544 -0.4323  0.0454  0.5148
 4050SOL    HW123783   1.239   0.560   6.486  1.0088 -0.8231 -0.2802
 4050SOL    HW223784   1.227   0.514   6.635  2.3122 -0.3504  0.6056
 4051SOL     OW23785   1.579   2.671   9.280 -0.4079  0.1413 -0.0136
 4051SOL    HW123786   1.496   2.716   9.289  0.9274  2.5573  0.1506
 4051SOL    HW223787   1.573   2.636   9.191  2.4855  0.1405 -0.2081
 4052SOL     OW23788   3.202   2.687   8.720 -0.2406 -0.4168 -0.2953
 4052SOL    HW123789   3.127   2.673   8.777 -0.7168  0.5416 -0.6890
 4052SOL    HW223790   3.268   2.682   8.790  0.8799 -2.3907 -1.4789
 4053SOL     OW23791   1.922   3.547   3.171  0.0314  0.0134 -0.0840
 4053SOL    HW123792   1.852   3.555   3.107 -0.3440  2.2003  0.6227
 4053SOL    HW223793   1.993   3.581   3.116 -0.4201  1.8458  0.4694
 4054SOL     OW23794   0.937   0.228   9.022  0.2115 -1.0319 -0.3345
 4054SOL    HW123795   1.005   0.191   9.078 -0.1787  0.5663  1.1933
 4054SOL    HW223796   0.900   0.293   9.082  1.6240  1.3930 -2.0895
 4055SOL     OW23797   4.041   4.009   8.601 -0.4889  0.1235  0.2205
 4055SOL    HW123798   4.102   3.979   8.534 -1.1780  2.2573 -1.3213
 4055SOL    HW223799   3.980   3.936   8.611 -0.3000 -0.3022 -1.7038
 4056SOL     OW23800   0.023   1.776   6.199  0.4758 -0.7712 -0.1329
 4056SOL    HW123801   0.024   1.709   6.131 -1.0417  0.2353 -1.1268
 4056SOL    HW223802   4.673   1.811   6.185  0.1480 -2.1870 -1.6467
 4057SOL     OW23803   0.610   2.516  16.135  0.0212 -0.4581  0.0390
 4057SOL    HW123804   0.527   2.486  16.172  0.3279  0.4686  1.5070
 4057SOL    HW223805   0.674   2.472  16.191  0.0346  2.8436  2.6629
 4058SOL     OW23806   2.830   3.668  17.321 -0.8413  0.1050  0.2286
 4058SOL    HW123807   2.883   3.622  17.386  1.4217  0.8755 -1.0715
 4058SOL    HW223808   2.901   3.705  17.270 -1.0435 -1.5870 -1.2967
 4059SOL     OW23809   1.484   0.095   7.103 -0.2529  0.0451  0.2720
 4059SOL    HW123810   1.443   0.035   7.040  0.7073 -0.4624  0.1276
 4059SOL    HW223811   1.567   0.050   7.123 -0.3074  0.0586  0.5281
 4060SOL     OW23812   1.625   1.877  10.783 -0.0615 -0.6576  0.3112
 4060SOL    HW123813   1.536   1.839  10.784  0.6242 -2.2723  0.4454
 4060SOL    HW223814   1.624   1.943  10.853 -1.2223 -0.3137 -0.0254
 4061SOL     OW23815   3.254   1.732   3.907  0.3246 -0.8466  1.0783
 4061SOL    HW123816   3.286   1.811   3.949 -0.0807  0.8376 -1.7711
 4061SOL    HW223817   3.252   1.765   3.817  0.1503  0.2856  1.5049
 4062SOL     OW23818   1.223   2.376  11.413  0.1419 -0.3005  0.1954
 4062SOL    HW123819   1.245   2.468  11.431  5.0004 -1.3166 -0.5105
 4062SOL    HW223820   1.304   2.340  11.448 -0.9604 -1.6208  1.4012
 4063SOL     OW23821   2.745   4.538   9.621 -0.2578 -0.2032  0.2952
 4063SOL    HW123822   2.686   4.567   9.691 -0.4284  2.7536 -1.0889
 4063SOL    HW223823   2.766   4.447   9.642  0.2332  0.3944  2.4222
 4064SOL     OW23824   0.422   0.057   8.827 -0.1561  0.6815 -0.2342
 4064SOL    HW123825   0.481   0.091   8.760  0.6371  0.3658  0.3079
 4064SOL    HW223826   0.372   4.733   8.773 -0.5637  1.8542 -1.2047
 4065SOL     OW23827   2.280   3.536   2.315 -0.2259  0.6037 -0.3278
 4065SOL    HW123828   2.270   3.618   2.266  2.1973  1.1264  0.0762
 4065SOL    HW223829   2.200   3.494   2.284 -0.1481  0.4465 -0.3161
 4066SOL     OW23830   1.936   2.576   5.625 -0.1508  0.3726  0.5411
 4066SOL    HW123831   1.952   2.482   5.614  0.0258  0.5075 -0.3320
 4066SOL    HW223832   1.861   2.597   5.568 -1.6504 -1.5229  1.8203
 4067SOL     OW23833   1.188   0.925   1.325  0.1054  0.1187 -0.2551
 4067SOL    HW123834   1.227   0.970   1.250  2.4469  0.8034  1.3812
 4067SOL    HW223835   1.118   0.985   1.351  0.3905 -0.0357  0.8363
 4068SOL     OW23836   2.673   2.659   8.493 -0.3645 -0.4588 -0.0068
 4068SOL    HW123837   2.711   2.574   8.469  0.4024  0.6844 -2.9351
 4068SOL    HW223838   2.737   2.719   8.454 -1.4445 -0.4371 -1.7590
 4069SOL     OW23839   4.710   0.972   3.921  0.1751  0.0518  0.4811
 4069SOL    HW123840   4.633   1.010   3.879  0.2499 -1.5401 -1.1076
 4069SOL    HW223841   4.693   0.988   4.014  2.0261 -2.1776  1.1857
 4070SOL     OW23842   4.500   4.621   9.072  0.5445  0.4465 -0.5091
 4070SOL    HW123843   4.523   4.544   9.020 -0.4955 -1.2913  1.5756
 4070SOL    HW223844   4.587   4.662   9.069  0.8106 -0.3699 -3.4086
 4071SOL     OW23845   3.112   2.951   7.654  0.6040  0.1588 -0.1530
 4071SOL    HW123846   3.186   3.011   7.659  1.4355 -1.0280  1.8215
 4071SOL    HW223847   3.074   2.964   7.567  0.3463  1.4609  0.1574
 4072SOL     OW23848   2.333   2.264   3.255 -0.2526 -0.9326 -0.8344
 4072SOL    HW123849   2.238   2.257   3.243 -0.7391 -1.2673  3.1628
 4072SOL    HW223850   2.347   2.345   3.207  1.2209  0.1928  1.4778
 4073SOL     OW23851   0.240   0.773   8.754 -0.9046  0.3389 -0.1559
 4073SOL    HW123852   0.181   0.800   8.684  0.8549  1.0830 -1.3577
 4073SOL    HW223853   0.181   0.776   8.830 -0.8990  1.0384 -0.1783
 4074SOL     OW23854   1.072   4.015   9.531  0.1685 -0.1013  0.3543
 4074SOL    HW123855   1.128   4.039   9.605  2.4006 -0.9815 -1.0340
 4074SOL    HW223856   1.085   3.920   9.525 -0.0355 -0.0825 -0.4345
 4075SOL     OW23857   1.750   4.673   9.253  0.1984  0.0201 -0.3325
 4075SOL    HW123858   1.718   4.630   9.332  0.3456 -2.1449 -1.4512
 4075SOL    HW223859   1.795   0.016   9.280 -1.2806  0.1975  1.5604
 4076SOL     OW23860   3.665   2.058   1.500 -0.1048  0.1405 -0.6756
 4076SOL    HW123861   3.669   2.023   1.589  0.2177  1.0070 -0.3532
 4076SOL    HW223862   3.572   2.053   1.477 -0.1790  0.9813 -0.5692
 4077SOL     OW23863   0.869   2.877   0.863  0.0857  0.2619 -0.1683
 4077SOL    HW123864   0.796   2.824   0.832  0.8713 -0.4943 -0.7316
 4077SOL    HW223865   0.845   2.966   0.838  2.0432  0.8849  0.1567
 4078SOL     OW23866   0.154   4.157   0.744  0.0660 -0.4210 -0.0983
 4078SOL    HW123867   0.223   4.117   0.797  0.5026 -0.4538 -0.6940
 4078SOL    HW223868   0.091   4.086   0.733  0.5024 -0.6225 -1.2884
 4079SOL     OW23869   3.699   2.437   5.068  1.0373 -0.0291  0.0704
 4079SOL    HW123870   3.753   2.359   5.054  0.1076 -0.6327 -0.0963
 4079SOL    HW223871   3.688   2.430   5.162 -0.7563 -1.0140 -0.2221
 4080SOL     OW23872   1.775   0.847  11.708  0.0624 -0.2567 -0.1801
 4080SOL    HW123873   1.843   0.780  11.712 -0.9704 -1.1951  1.5285
 4080SOL    HW223874   1.758   0.860  11.615  1.6235  0.9364 -0.3109
 4081SOL     OW23875   3.875   3.922   3.206 -0.0143 -0.4485  0.6943
 4081SOL    HW123876   3.878   3.931   3.301 -1.0311  1.1369  0.5953
 4081SOL    HW223877   3.821   3.997   3.182  0.8613  0.0693  0.3467
 4082SOL     OW23878   1.310   4.262   0.859 -0.2277 -0.1593  1.2378
 4082SOL    HW123879   1.393   4.249   0.813  1.0930  1.3948  3.1847
 4082SOL    HW223880   1.250   4.263   0.784 -1.3026  2.4032  2.1428
 4083SOL     OW23881   0.735   2.920   7.445  0.0982  0.0966  0.4014
 4083SOL    HW123882   0.680   2.991   7.479  0.3126  0.3030  0.3234
 4083SOL    HW223883   0.747   2.944   7.354  0.2631 -0.4168  0.2874
 4084SOL     OW23884   1.173   3.500   4.224  0.4476 -0.0472 -0.4943
 4084SOL    HW123885   1.258   3.516   4.182  0.3041 -0.6122 -0.9933
 4084SOL    HW223886   1.133   3.434   4.168 -1.0872 -0.9968  1.7342
 4085SOL     OW23887   3.558   1.667   6.157  0.2645 -0.1197 -0.4012
 4085SOL    HW123888   3.578   1.594   6.099  0.7511  0.2184 -0.6626
 4085SOL    HW223889   3.623   1.664   6.227  0.8036 -2.7405 -1.0269
 4086SOL     OW23890   0.053   4.092  16.356 -0.1903  1.0949 -0.4979
 4086SOL    HW123891   0.077   4.168  16.303  0.5587  0.9436 -0.3805
 4086SOL    HW223892   0.140   4.053  16.364 -1.5468 -2.1328 -1.3960
 4087SOL     OW23893   3.440   1.127   8.475  0.5840  0.2624 -0.2679
 4087SOL    HW123894   3.355   1.164   8.500 -0.1519 -0.7828 -1.2151
 4087SOL    HW223895   3.472   1.093   8.558  2.0137 -0.9044 -1.2838
 4088SOL     OW23896   4.166   4.355   5.435  0.0426  0.7514 -0.2196
 4088SOL    HW123897   4.116   4.416   5.381 -1.0151 -0.2149 -0.3343
 4088SOL    HW223898   4.220   4.414   5.488 -1.2393 -0.1967  2.1377
 4089SOL     OW23899   0.470   3.966  15.110  0.0596  0.0775  0.1747
 4089SOL    HW123900   0.477   4.015  15.029  0.4121 -0.2757 -0.0066
 4089SOL    HW223901   0.434   4.036  15.165 -1.8428 -0.6020 -0.2109
 4090SOL     OW23902   4.144   3.239   8.038 -0.7373  0.4334  0.0197
 4090SOL    HW123903   4.189   3.295   8.102  0.5202 -2.2320  1.4516
 4090SOL    HW223904   4.181   3.152   8.050  0.3314  0.7284 -1.1323
 4091SOL     OW23905   3.420   1.220   2.363 -0.8715  0.4772 -0.4451
 4091SOL    HW123906   3.346   1.163   2.385  0.6410 -1.8633 -1.4039
 4091SOL    HW223907   3.403   1.240   2.271 -0.7607  0.7001 -0.4167
 4092SOL     OW23908   2.318   1.388   2.193 -0.3343 -0.5882  0.1576
 4092SOL    HW123909   2.378   1.462   2.179 -0.7230 -0.6636 -1.9368
 4092SOL    HW223910   2.353   1.334   2.123  0.5016 -1.3688  1.1779
 4093SOL     OW23911   0.031   3.470   3.380 -0.1481  0.1916 -0.4008
 4093SOL    HW123912   4.676   3.458   3.403 -0.1514 -1.4371 -1.2358
 4093SOL    HW223913   0.026   3.544   3.321 -0.5307  0.2545 -0.2899
 4094SOL     OW23914   0.419   2.067   6.274 -0.4531  0.2658  0.0402
 4094SOL    HW123915   0.355   2.000   6.249  1.5881 -1.4276 -0.6169
 4094SOL    HW223916   0.401   2.074   6.368  2.1565 -0.7433  0.6240
 4095SOL     OW23917   3.335   4.454   2.215 -0.2211 -0.2265  0.3619
 4095SOL    HW123918   3.335   4.460   2.120 -1.4638  0.4980  0.4113
 4095SOL    HW223919   3.361   4.545   2.231  1.3999 -0.3616 -1.4195
 4096SOL     OW23920   0.545   2.281   7.194  0.6489  0.0686 -0.4269
 4096SOL    HW123921   0.540   2.192   7.160 -0.6364 -0.8351  2.1314
 4096SOL    HW223922   0.561   2.324   7.110 -1.2550 -0.6707 -1.1504
 4097SOL     OW23923   2.812   4.007   1.684  0.0943  0.1237 -0.5661
 4097SOL    HW123924   2.796   4.059   1.606 -0.5058  0.5146 -0.1798
 4097SOL    HW223925   2.883   3.951   1.651 -0.1424 -1.3900  1.4584
 4098SOL     OW23926   3.533   4.032   4.785  0.6742  0.0794  0.1842
 4098SOL    HW123927   3.494   3.998   4.705 -1.0633 -1.1040  1.5220
 4098SOL    HW223928   3.461   4.025   4.848 -0.3691 -1.0910 -1.1444
 4099SOL     OW23929   0.509   1.486   8.046 -0.2811 -0.1961  0.0490
 4099SOL    HW123930   0.416   1.466   8.057 -0.1784 -0.1871  0.9235
 4099SOL    HW223931   0.539   1.406   8.002  1.1874 -1.1903  2.8868
 4100SOL     OW23932   1.611   1.271   4.291 -0.0490  0.4349 -0.4361
 4100SOL    HW123933   1.674   1.301   4.226 -0.7732 -1.7125 -2.1400
 4100SOL    HW223934   1.554   1.348   4.295 -0.4049  0.1476  0.0775
 4101SOL     OW23935   2.443   3.123   6.500  0.3256 -0.4763 -0.1726
 4101SOL    HW123936   2.385   3.159   6.433 -1.1281 -1.9837  0.2634
 4101SOL    HW223937   2.379   3.075   6.553 -0.4956 -0.0594 -0.8000
 4102SOL     OW23938   3.147   1.521   7.758  0.1534  0.2785 -0.5928
 4102SOL    HW123939   3.173   1.527   7.850 -2.3649  2.8254 -0.0609
 4102SOL    HW223940   3.186   1.437   7.735 -1.3742 -0.5409 -0.2256
 4103SOL     OW23941   0.378   2.324   9.243 -0.2309 -0.0645 -0.4050
 4103SOL    HW123942   0.445   2.392   9.248  0.3432 -0.7213  0.9310
 4103SOL    HW223943   0.426   2.243   9.225  1.2617  0.6017  0.5670
 4104SOL     OW23944   0.010   2.466   5.270 -0.0152 -0.1042  0.1238
 4104SOL    HW123945   4.669   2.446   5.218  0.3938 -1.2495 -0.0451
 4104SOL    HW223946   0.038   2.385   5.312  1.3896  0.7889  0.9265
 4105SOL     OW23947   1.685   3.726   0.378 -0.0503 -0.0185 -0.4724
 4105SOL    HW123948   1.767   3.716   0.331  0.1807 -3.6693  0.7502
 4105SOL    HW223949   1.668   3.818   0.357  0.4374  0.5041  1.4222
 4106SOL     OW23950   0.760   4.476   2.346  0.5231 -0.2021  0.4783
 4106SOL    HW123951   0.704   4.407   2.311  0.1985  0.6296 -0.6355
 4106SOL    HW223952   0.772   4.436   2.432  1.0145 -1.9795 -0.4093
 4107SOL     OW23953   1.802   0.305   3.274 -0.6911 -0.6409 -0.3119
 4107SOL    HW123954   1.835   0.264   3.353 -0.7252 -0.0074  0.0348
 4107SOL    HW223955   1.803   0.399   3.293 -2.0375 -0.7695  0.3982
 4108SOL     OW23956   1.017   3.064   8.011 -0.7782  0.0319 -0.3617
 4108SOL    HW123957   0.972   3.149   8.015  2.1853  1.5656  0.3312
 4108SOL    HW223958   1.110   3.086   8.008 -0.0496 -2.3445  4.4850
 4109SOL     OW23959   4.585   1.669   2.484  0.5995 -0.0640 -1.2020
 4109SOL    HW123960   4.594   1.752   2.531  3.1576 -1.6144  1.0653
 4109SOL    HW223961   4.670   1.625   2.494  1.8825  2.7395  0.2065
 4110SOL     OW23962   3.252   3.029  16.695 -0.1918  0.1716 -0.1515
 4110SOL    HW123963   3.310   2.994  16.627  0.6609  0.1479  0.5821
 4110SOL    HW223964   3.206   3.106  16.661  0.0278  0.2192 -0.3448
 4111SOL     OW23965   3.539   3.621  10.470 -0.8879  0.7985  0.5652
 4111SOL    HW123966   3.497   3.537  10.453 -1.9563  1.4088  0.2276
 4111SOL    HW223967   3.548   3.607  10.564  3.8068  1.6930  0.2615
 4112SOL     OW23968   2.419   2.690   6.624 -0.1956  0.1153  0.4212
 4112SOL    HW123969   2.482   2.671   6.694  0.9897  1.9546 -0.1379
 4112SOL    HW223970   2.387   2.602   6.608 -0.5826  0.1171  1.2136
 4113SOL     OW23971   1.821   4.187  12.327 -0.1002 -0.1854 -0.1820
 4113SOL    HW123972   1.749   4.163  12.386 -0.4584 -0.5748 -0.7637
 4113SOL    HW223973   1.843   4.102  12.288  1.4271  0.7946 -1.4589
 4114SOL     OW23974   2.660   1.997   8.532  0.1416  0.4405 -0.7560
 4114SOL    HW123975   2.605   2.075   8.530 -1.8084 -0.9120 -0.4064
 4114SOL    HW223976   2.716   2.012   8.456 -1.0455  2.7240 -1.1650
 4115SOL     OW23977   1.095   0.251   2.498 -0.1681 -0.9125  0.5482
 4115SOL    HW123978   1.025   0.248   2.432  1.6860  0.1686 -1.4944
 4115SOL    HW223979   1.084   0.331   2.550  1.9294  1.7968 -3.1881
 4116SOL     OW23980   1.967   1.583   5.958 -0.2092  0.0883 -0.2305
 4116SOL    HW123981   1.936   1.512   5.902 -1.1023  0.4032 -0.1350
 4116SOL    HW223982   1.906   1.575   6.032 -2.1758  4.3726 -1.3756
 4117SOL     OW23983   1.960   0.016   3.918  0.0622  0.5612  0.4849
 4117SOL    HW123984   2.005   0.096   3.890  1.4395 -0.6173 -0.6647
 4117SOL    HW223985   1.895   0.051   3.980 -1.2565  2.7031 -2.1237
 4118SOL     OW23986   0.427   4.675  12.438  0.0832  0.0296 -0.5658
 4118SOL    HW123987   0.357   4.736  12.459 -0.7158 -0.8330 -0.7033
 4118SOL    HW223988   0.480   4.729  12.379 -0.5993 -0.1148 -1.3235
 4119SOL     OW23989   1.988   0.653   8.925 -0.2941  0.0738 -0.2480
 4119SOL    HW123990   1.965   0.560   8.931 -1.2560  0.2290 -1.5952
 4119SOL    HW223991   2.083   0.646   8.911 -0.1451  2.7347 -0.6013
 4120SOL     OW23992   2.123   4.187   8.541  0.3136 -0.8286  0.1183
 4120SOL    HW123993   2.078   4.269   8.560  0.6303 -0.7162  0.3914
 4120SOL    HW223994   2.208   4.216   8.509  0.6623 -2.4188 -0.3957
 4121SOL     OW23995   3.007   0.588   7.596 -0.2772  0.8573  0.1324
 4121SOL    HW123996   3.068   0.657   7.569 -0.6870  1.4070  0.6344
 4121SOL    HW223997   3.032   0.587   7.688  4.9345 -1.3661 -1.2944
 4122SOL     OW23998   4.079   1.850   9.030  0.2802 -0.0667  0.2897
 4122SOL    HW123999   4.115   1.877   9.114 -0.4495  1.1124  0.2223
 4122SOL    HW224000   4.159   1.815   8.990 -0.1356  0.6523 -1.1846
 4123SOL     OW24001   4.676   3.852  16.411  0.2684 -0.1522  0.1458
 4123SOL    HW124002   4.705   3.941  16.390 -0.1420  0.3160  1.5263
 4123SOL    HW224003   0.012   3.819  16.462 -0.3663 -0.3268  0.9600
 4124SOL     OW24004   0.846   4.671   3.819 -0.2341 -0.1240  0.4369
 4124SOL    HW124005   0.848   4.576   3.809 -1.5108 -0.1746  0.6697
 4124SOL    HW224006   0.878   4.695   3.732 -0.5492 -0.5025  0.2156
 4125SOL     OW24007   0.578   2.379   9.665  0.3883  0.6658 -0.1457
 4125SOL    HW124008   0.596   2.312   9.731 -0.2271 -1.6868 -2.3811
 4125SOL    HW224009   0.668   2.390   9.635  0.7382 -0.2183  0.6097
 4126SOL     OW24010   2.868   3.660   7.206  0.0815  0.6725  0.2549
 4126SOL    HW124011   2.844   3.617   7.124  1.8480 -2.9117  1.5909
 4126SOL    HW224012   2.805   3.731   7.197 -1.4161 -0.7007 -0.0647
 4127SOL     OW24013   3.128   3.196  15.755 -0.0110 -0.1234  0.4415
 4127SOL    HW124014   3.068   3.235  15.691 -0.5835  0.3450  1.2599
 4127SOL    HW224015   3.202   3.256  15.750 -1.2691  1.2728 -1.3883
 4128SOL     OW24016   3.686   0.768  14.432  0.6308 -0.3034  0.1793
 4128SOL    HW124017   3.708   0.834  14.497 -0.3244 -1.0566  1.2559
 4128SOL    HW224018   3.599   0.798  14.406  0.9539  0.6096  0.1394
 4129SOL     OW24019   1.203   4.726   6.998  0.3313  0.8331 -0.2049
 4129SOL    HW124020   1.187   0.070   6.951  0.9583  0.5757 -0.8602
 4129SOL    HW224021   1.255   4.680   6.931  0.6211  0.7381  0.0832
 4130SOL     OW24022   4.104   2.137   2.623  0.8267 -0.0658  0.3261
 4130SOL    HW124023   4.015   2.151   2.592  1.2868 -0.7160 -1.3310
 4130SOL    HW224024   4.139   2.207   2.568  2.6922 -1.1330  0.1256
 4131SOL     OW24025   0.942   0.099   3.586  0.9871  0.0035  0.2079
 4131SOL    HW124026   0.934   0.141   3.671 -1.2536  0.7217 -0.3521
 4131SOL    HW224027   1.036   0.087   3.577  0.9164  1.5608 -2.5601
 4132SOL     OW24028   0.601   0.444   1.792 -0.2140 -0.8075  0.1514
 4132SOL    HW124029   0.662   0.371   1.803  0.6161 -0.2511 -0.8114
 4132SOL    HW224030   0.566   0.462   1.880 -0.2059  1.5291 -0.3205
 4133SOL     OW24031   4.672   0.709   6.443  0.3974  0.1336  0.1899
 4133SOL    HW124032   4.683   0.630   6.388  0.0693  0.0443  0.2511
 4133SOL    HW224033   4.581   0.692   6.465  0.7048  0.8986  2.0451
 4134SOL     OW24034   3.972   0.267   9.404  0.3508 -0.2345 -0.0110
 4134SOL    HW124035   4.040   0.318   9.360  1.4023 -1.2929  0.3761
 4134SOL    HW224036   3.949   0.217   9.325  1.4802  0.3836 -0.7368
 4135SOL     OW24037   4.257   0.186   7.387 -0.2283 -0.3126 -0.0969
 4135SOL    HW124038   4.350   0.168   7.373  0.2025  1.1291  0.9007
 4135SOL    HW224039   4.250   0.270   7.432 -0.1886 -0.3659  0.0099
 4136SOL     OW24040   3.999   0.518  16.928 -0.0157 -0.3947 -0.3055
 4136SOL    HW124041   3.927   0.515  16.865 -2.7573  1.4973  2.7060
 4136SOL    HW224042   4.025   0.426  16.925 -1.8846 -0.8954 -1.4119
 4137SOL     OW24043   2.267   0.912  10.347 -0.4550 -0.0558  0.0507
 4137SOL    HW124044   2.307   0.887  10.431 -2.2818 -0.0394  0.9204
 4137SOL    HW224045   2.335   0.903  10.281 -2.2533 -2.8201 -1.4293
 4138SOL     OW24046   3.371   2.274   7.331 -0.3670 -0.4267  0.0274
 4138SOL    HW124047   3.346   2.182   7.324 -1.6513 -0.3177  2.8980
 4138SOL    HW224048   3.282   2.309   7.338 -0.2189 -0.4625  2.3465
 4139SOL     OW24049   0.659   4.724   8.030 -0.6024 -0.0215  0.2911
 4139SOL    HW124050   0.645   4.689   8.118 -1.0463 -1.0167 -0.1768
 4139SOL    HW224051   0.610   4.654   7.987 -0.7759 -0.2558  0.8712
 4140SOL     OW24052   3.694   4.659   6.729  0.1046  0.1366 -0.0564
 4140SOL    HW124053   3.695   4.705   6.645 -2.7657  0.9287  0.3442
 4140SOL    HW224054   3.749   4.584   6.708 -0.1531  0.1373 -0.7228
 4141SOL     OW24055   0.360   1.335  13.212  0.4340  0.0479 -0.3830
 4141SOL    HW124056   0.370   1.369  13.301  0.2771 -1.0833  0.0563
 4141SOL    HW224057   0.303   1.398  13.167 -1.2145  0.3969  2.2052
 4142SOL     OW24058   1.257   0.331  10.291 -0.1246 -0.3083  0.4329
 4142SOL    HW124059   1.243   0.236  10.285  0.3994 -0.5206  2.3844
 4142SOL    HW224060   1.335   0.346  10.238  0.9941 -0.6787  1.9540
 4143SOL     OW24061   0.921   3.293   5.891  0.4926  0.4164  0.3739
 4143SOL    HW124062   0.903   3.209   5.931  2.0258  0.8707  2.0441
 4143SOL    HW224063   0.852   3.352   5.921 -1.9462 -2.1668 -0.2661
 4144SOL     OW24064   2.189   4.678  16.508  0.3646 -0.7226 -0.1253
 4144SOL    HW124065   2.116   4.667  16.569 -0.4574 -2.4606 -1.3986
 4144SOL    HW224066   2.154   0.021  16.470  0.3639  0.0952  1.6251
 4145SOL     OW24067   2.615   0.214   6.943 -0.4427 -0.1614 -0.4494
 4145SOL    HW124068   2.638   0.306   6.932  0.9541 -0.3274  1.1448
 4145SOL    HW224069   2.702   0.176   6.952  0.3595  2.1436  1.5055
 4146SOL     OW24070   0.653   4.571   2.952  0.3493  0.4696  0.3983
 4146SOL    HW124071   0.631   4.584   2.860  0.4133 -1.4666  0.1085
 4146SOL    HW224072   0.647   4.475   2.944  0.7937  0.4614  0.1782
 4147SOL     OW24073   1.490   2.757   6.361  0.3286  0.2576  0.6375
 4147SOL    HW124074   1.530   2.765   6.448 -0.1244  3.0988  0.5701
 4147SOL    HW224075   1.546   2.688   6.326 -1.4215 -2.0742  2.4094
 4148SOL     OW24076   3.175   2.911   2.527 -0.0485  0.2912 -0.0125
 4148SOL    HW124077   3.205   2.941   2.441 -1.1360  1.9622  0.2082
 4148SOL    HW224078   3.248   2.853   2.551 -1.6374 -2.1369 -0.9945
 4149SOL     OW24079   1.271   3.657   2.562 -0.3918 -0.5247 -0.0474
 4149SOL    HW124080   1.278   3.661   2.467 -0.2923 -1.6157 -0.0813
 4149SOL    HW224081   1.338   3.589   2.566  0.5410  0.4458  0.8752
 4150SOL     OW24082   1.019   2.771   4.029  0.0597 -0.2578  0.2094
 4150SOL    HW124083   0.957   2.844   4.020  0.8609  0.5868  1.5375
 4150SOL    HW224084   0.964   2.694   4.043  1.3013 -0.7191  2.4810
 4151SOL     OW24085   4.512   1.261   7.893 -0.4632 -0.3385  0.3364
 4151SOL    HW124086   4.469   1.199   7.834  0.5431 -0.8242  0.1006
 4151SOL    HW224087   4.466   1.240   7.974  1.0563  1.7444  1.7540
 4152SOL     OW24088   4.193   1.931   6.060  0.0777  0.2489 -0.5341
 4152SOL    HW124089   4.273   1.972   6.092 -0.9736  1.3738  0.6330
 4152SOL    HW224090   4.190   1.971   5.974  1.8320 -1.0788 -1.2081
 4153SOL     OW24091   2.968   3.718  12.846  0.1419 -0.0609 -0.1092
 4153SOL    HW124092   3.034   3.740  12.780  1.6233 -0.1423  1.3321
 4153SOL    HW224093   2.897   3.672  12.802 -0.7855  1.4754 -0.2433
 4154SOL     OW24094   1.405   1.906   4.665 -0.1614  0.3810  0.1263
 4154SOL    HW124095   1.465   1.981   4.664  0.2711  0.0406  0.6251
 4154SOL    HW224096   1.360   1.925   4.583  0.1527 -1.6463 -0.5269
 4155SOL     OW24097   0.336   4.167   4.817 -0.0906  0.5143  0.1526
 4155SOL    HW124098   0.380   4.176   4.902 -1.0139  0.2032  0.6641
 4155SOL    HW224099   0.278   4.242   4.814  1.1124  1.5527  2.2399
 4156SOL     OW24100   1.056   2.012  11.526  0.2317 -0.4049  0.5097
 4156SOL    HW124101   1.038   2.105  11.534 -1.5220 -0.6359 -0.8070
 4156SOL    HW224102   1.046   1.971  11.612  3.9665 -0.5009  0.8894
 4157SOL     OW24103   3.005   4.190   1.122  0.1131 -0.6996  0.0498
 4157SOL    HW124104   2.983   4.256   1.057 -1.4792 -0.7517  0.5376
 4157SOL    HW224105   3.095   4.170   1.094  0.6294 -0.8044  1.7669
 4158SOL     OW24106   1.234   0.586   6.804 -0.2870  0.2763 -0.1747
 4158SOL    HW124107   1.294   0.638   6.856 -0.2915 -0.1744  0.2755
 4158SOL    HW224108   1.151   0.631   6.817 -0.3767 -0.3821  1.5468
 4159SOL     OW24109   2.417   2.559   0.269 -0.0815 -0.6969 -0.0955
 4159SOL    HW124110   2.363   2.511   0.206 -0.9501 -0.8878  0.7948
 4159SOL    HW224111   2.398   2.526   0.357 -1.4133  1.8279  0.5488
 4160SOL     OW24112   0.966   1.381  13.945  0.7832 -0.0099 -0.1909
 4160SOL    HW124113   0.971   1.293  13.906 -0.7562 -0.5507  0.8122
 4160SOL    HW224114   0.974   1.436  13.868 -1.0477  1.6642  0.8000
 4161SOL     OW24115   2.904   1.996   8.764 -0.2290 -0.0556  0.1361
 4161SOL    HW124116   2.849   1.981   8.687 -1.1937  3.0674  0.2123
 4161SOL    HW224117   2.956   1.916   8.773  2.5261  1.5453 -1.6696
 4162SOL     OW24118   2.857   2.245   3.893 -0.6624 -1.0699  0.2155
 4162SOL    HW124119   2.936   2.231   3.841 -1.0872 -0.8904 -0.4676
 4162SOL    HW224120   2.877   2.309   3.961 -3.5510 -0.3427  0.3980
 4163SOL     OW24121   2.743   3.240  16.771 -0.4606 -0.0436 -0.1828
 4163SOL    HW124122   2.723   3.288  16.852 -1.7757  1.6184 -1.5163
 4163SOL    HW224123   2.677   3.172  16.761  0.9562 -1.3976 -0.3644
 4164SOL     OW24124   0.333   4.611   4.486  0.4289 -0.2613  0.0748
 4164SOL    HW124125   0.239   4.632   4.490  0.0036 -2.2706  0.8403
 4164SOL    HW224126   0.375   4.697   4.485  0.4456 -0.2884 -1.1339
 4165SOL     OW24127   3.493   1.776  10.168 -0.1620 -0.2686 -0.3347
 4165SOL    HW124128   3.468   1.690  10.133 -0.8194  0.1113 -0.8028
 4165SOL    HW224129   3.504   1.761  10.262  1.8815  0.2748 -0.4862
 4166SOL     OW24130   0.437   0.242  14.946  0.3262 -0.4062 -0.0939
 4166SOL    HW124131   0.426   0.147  14.955 -1.2465 -0.3270 -1.1697
 4166SOL    HW224132   0.401   0.279  15.026 -0.9267  2.4434 -1.9482
 4167SOL     OW24133   2.153   3.126   8.291 -0.5126 -0.1177  0.5636
 4167SOL    HW124134   2.195   3.052   8.334  0.3168 -0.2779 -0.5196
 4167SOL    HW224135   2.138   3.101   8.200 -1.0701  2.4109 -0.0422
 4168SOL     OW24136   1.330   2.883   3.277 -0.3096  0.1235  0.5463
 4168SOL    HW124137   1.288   2.797   3.275  0.5926 -0.2767 -1.7129
 4168SOL    HW224138   1.271   2.937   3.330 -0.6636  2.1636 -1.9406
 4169SOL     OW24139   4.160   0.260   7.931 -0.1432  0.2406  0.4536
 4169SOL    HW124140   4.064   0.258   7.935 -0.2114  0.1399 -1.2508
 4169SOL    HW224141   4.164   0.230   7.840  0.8386  0.5675  0.3904
 4170SOL     OW24142   3.063   3.444   4.096 -0.1965  0.0418 -0.4042
 4170SOL    HW124143   3.042   3.352   4.113  1.0299 -0.2308 -0.3822
 4170SOL    HW224144   3.157   3.439   4.075  0.3883  0.7554  2.0903
 4171SOL     OW24145   0.937   2.424   7.100 -0.0981 -0.6405  0.4423
 4171SOL    HW124146   0.958   2.346   7.049 -0.2004 -0.3684 -0.0126
 4171SOL    HW224147   1.022   2.462   7.125  0.4060 -0.6961 -1.1977
 4172SOL     OW24148   2.714   4.251   8.401 -0.0503 -0.4430  0.1826
 4172SOL    HW124149   2.733   4.161   8.376  1.6733  0.0329 -0.2190
 4172SOL    HW224150   2.673   4.279   8.319  0.5768  1.6521  0.5641
 4173SOL     OW24151   4.602   4.037   3.734 -0.0547 -0.0711 -0.4612
 4173SOL    HW124152   4.566   4.113   3.779  1.5560  0.6408 -0.3731
 4173SOL    HW224153   4.688   4.069   3.707 -0.0428 -0.6341 -1.0931
 4174SOL     OW24154   4.135   1.907  12.853  0.6739  0.4597  0.2786
 4174SOL    HW124155   4.177   1.840  12.908 -0.4908  1.0169  1.8408
 4174SOL    HW224156   4.208   1.962  12.825  1.3558  0.0993  1.3111
 4175SOL     OW24157   1.967   4.120   6.738 -0.6037  0.0479 -0.1348
 4175SOL    HW124158   1.903   4.191   6.725 -2.5132 -1.7226 -0.4414
 4175SOL    HW224159   2.043   4.169   6.769 -2.5964  0.6599  3.6927
 4176SOL     OW24160   0.068   0.249  15.217 -0.9623  0.4007 -0.5091
 4176SOL    HW124161   0.160   0.275  15.219 -0.8002 -0.0897 -1.3347
 4176SOL    HW224162   0.075   0.155  15.196 -0.3049  0.1552  0.8710
 4177SOL     OW24163   3.395   3.083   3.934 -0.1297 -0.2146  0.0937
 4177SOL    HW124164   3.470   3.105   3.879 -0.0988 -0.8219 -0.1058
 4177SOL    HW224165   3.432   3.110   4.018  0.5505  1.2572 -0.6809
 4178SOL     OW24166   4.311   1.524   7.959  0.3179  0.2263  0.0811
 4178SOL    HW124167   4.371   1.578   8.010 -1.8014  2.2969  0.4006
 4178SOL    HW224168   4.241   1.515   8.023 -0.0961 -0.0700 -0.4186
 4179SOL     OW24169   1.982   2.632   7.538  0.2569 -0.2533 -0.3330
 4179SOL    HW124170   1.952   2.666   7.622  0.6352  0.6287 -0.5497
 4179SOL    HW224171   1.964   2.538   7.544  0.4334 -0.2618  0.0876
 4180SOL     OW24172   4.019   4.145   7.970 -0.5037  0.5926 -0.5337
 4180SOL    HW124173   4.036   4.239   7.975  0.4635  0.3757  0.2592
 4180SOL    HW224174   4.091   4.120   7.911 -0.4680  1.3077 -0.7946
 4181SOL     OW24175   3.539   0.768  16.527  0.6777 -0.0350 -0.2439
 4181SOL    HW124176   3.581   0.780  16.613 -1.4603  0.8255  0.6569
 4181SOL    HW224177   3.529   0.674  16.514 -1.0135 -0.0980  1.4812
 4182SOL     OW24178   0.663   0.237   8.922 -0.3972 -0.5338 -0.4577
 4182SOL    HW124179   0.670   0.261   8.830  0.4938  0.7005 -0.0730
 4182SOL    HW224180   0.732   0.171   8.930 -0.4415 -0.3653  1.3393
 4183SOL     OW24181   0.641   3.037   5.158 -0.4153 -0.2099 -0.1300
 4183SOL    HW124182   0.689   3.112   5.123  0.0408  0.2050  1.3862
 4183SOL    HW224183   0.616   3.063   5.247  0.6929  1.0717 -0.2035
 4184SOL     OW24184   4.579   0.966   5.247  0.1141 -0.0673 -0.4121
 4184SOL    HW124185   4.566   0.874   5.224 -0.1626 -0.4662  1.3948
 4184SOL    HW224186   4.613   0.963   5.336  0.1988  0.7194 -0.4135
 4185SOL     OW24187   1.724   0.549   6.856 -0.0968  0.1781  0.1180
 4185SOL    HW124188   1.652   0.604   6.826  2.4715  3.7585  0.4572
 4185SOL    HW224189   1.716   0.470   6.803 -1.9879 -0.3598  1.1667
 4186SOL     OW24190   4.693   2.569   8.415 -0.0716  0.2556  0.3109
 4186SOL    HW124191   4.657   2.517   8.343  0.1403  0.5233  0.0136
 4186SOL    HW224192   4.616   2.613   8.449 -1.0770 -0.5981 -0.8881
 4187SOL     OW24193   4.394   1.106   7.667 -0.8880 -0.3832 -0.9236
 4187SOL    HW124194   4.485   1.097   7.641 -0.5859  1.1536 -0.3761
 4187SOL    HW224195   4.349   1.130   7.586 -0.2274  0.0374 -1.1577
 4188SOL     OW24196   2.978   0.255  17.562 -0.4440 -0.1676  0.0960
 4188SOL    HW124197   3.068   0.263  17.532 -0.9054 -2.2019 -1.7802
 4188SOL    HW224198   2.994   0.203  17.640 -0.1809  1.1377  0.9077
 4189SOL     OW24199   1.570   3.142   2.540  0.1252  0.7693  0.1493
 4189SOL    HW124200   1.576   3.126   2.634  1.1011  2.3681  0.3695
 4189SOL    HW224201   1.615   3.227   2.533  0.3268  0.8420  2.1071
 4190SOL     OW24202   2.786   1.442   3.878  0.7898 -0.4368 -0.0197
 4190SOL    HW124203   2.832   1.387   3.942 -1.7637 -0.3780  1.8628
 4190SOL    HW224204   2.845   1.441   3.802 -0.7869  1.1608 -1.2695
 4191SOL     OW24205   2.402   1.218   2.007  0.0308 -0.4769  0.1528
 4191SOL    HW124206   2.360   1.154   1.949 -1.7951  0.4915  0.4091
 4191SOL    HW224207   2.475   1.172   2.049 -0.8400 -1.0396  1.0688
 4192SOL     OW24208   3.921   0.803   8.335  0.3151 -0.0966 -0.5552
 4192SOL    HW124209   3.922   0.713   8.304 -1.0317 -0.0066 -0.8454
 4192SOL    HW224210   4.012   0.815   8.306  0.4294 -0.5008 -0.3685
 4193SOL     OW24211   0.231   0.868   9.117 -0.3911  0.2343 -0.6086
 4193SOL    HW124212   0.183   0.802   9.066  2.1028 -0.4989 -2.0200
 4193SOL    HW224213   0.283   0.811   9.174 -0.7596  1.2813  0.7558
 4194SOL     OW24214   2.117   3.110   8.822  0.1180 -0.1895  0.4165
 4194SOL    HW124215   2.023   3.098   8.814 -0.2139  0.1549  3.8425
 4194SOL    HW224216   2.137   3.123   8.729  0.0928  1.1163  0.5951
 4195SOL     OW24217   0.314   2.155   6.810 -0.3957  0.0577 -0.4017
 4195SOL    HW124218   0.396   2.188   6.846 -1.2282  0.9893  0.6558
 4195SOL    HW224219   0.266   2.237   6.800 -0.1171  0.1406 -1.0575
 4196SOL     OW24220   1.169   3.580   6.490 -0.7539 -0.3469  0.0960
 4196SOL    HW124221   1.196   3.597   6.400 -0.4945 -0.2825  0.1870
 4196SOL    HW224222   1.235   3.522   6.528 -0.0413  1.2306  1.2753
 4197SOL     OW24223   1.908   4.314   4.052  0.4108 -0.3595 -0.0532
 4197SOL    HW124224   1.895   4.228   4.093 -2.3628 -0.5421 -1.3069
 4197SOL    HW224225   1.955   4.288   3.973  0.7717  2.1934 -0.6541
 4198SOL     OW24226   3.349   0.102   8.119  0.2688 -0.8620 -0.0210
 4198SOL    HW124227   3.334   0.193   8.093  1.9465 -1.3924 -2.8217
 4198SOL    HW224228   3.350   0.059   8.033 -1.8035 -2.1824  0.6143
 4199SOL     OW24229   4.220   2.751   2.410  0.5446 -0.0466 -0.0519
 4199SOL    HW124230   4.304   2.731   2.367  1.2435 -1.3204  1.9387
 4199SOL    HW224231   4.249   2.795   2.490  0.3268  1.5526 -0.8437
 4200SOL     OW24232   0.122   0.780   4.148  0.1701  0.2495  0.6534
 4200SOL    HW124233   0.071   0.858   4.171  0.9538  2.0578 -3.7678
 4200SOL    HW224234   0.183   0.776   4.222  0.8386 -0.2853  0.0673
 4201SOL     OW24235   3.002   3.771   0.221 -0.3588 -0.0432  0.0972
 4201SOL    HW124236   3.083   3.730   0.191  0.8326  0.7619  2.1559
 4201SOL    HW224237   2.950   3.755   0.143 -1.1401 -1.1295  0.8410
 4202SOL     OW24238   1.613   1.299   2.991 -0.8021 -0.8062 -0.0362
 4202SOL    HW124239   1.604   1.207   2.968  0.5383 -0.8297 -0.4657
 4202SOL    HW224240   1.606   1.283   3.085  1.7782 -0.2142  0.2494
 4203SOL     OW24241   1.256   1.283  12.594  0.1916  0.0921 -0.1277
 4203SOL    HW124242   1.292   1.363  12.632 -0.0981  0.5380 -0.8068
 4203SOL    HW224243   1.332   1.258  12.542  2.3980 -1.5502  3.8472
 4204SOL     OW24244   3.073   3.507   3.306  0.4428 -0.3107  0.2701
 4204SOL    HW124245   3.162   3.509   3.341  1.1461  1.3333 -1.6037
 4204SOL    HW224246   3.038   3.593   3.328  0.9201 -0.3418  1.1549
 4205SOL     OW24247   2.862   1.194   6.277  0.4187 -0.2335 -0.2442
 4205SOL    HW124248   2.930   1.133   6.305 -0.8145 -2.1415 -1.4167
 4205SOL    HW224249   2.872   1.258   6.348  2.7798 -0.2374 -0.5577
 4206SOL     OW24250   3.025   1.056  10.318 -0.1509  0.6950  0.1045
 4206SOL    HW124251   3.118   1.052  10.294 -0.2258  1.1993 -0.2687
 4206SOL    HW224252   2.991   1.065  10.229 -2.6905 -0.0798  1.0087
 4207SOL     OW24253   1.511   2.602   2.712  0.0479 -0.3004 -0.2373
 4207SOL    HW124254   1.463   2.529   2.751  0.6843 -0.5194  0.1390
 4207SOL    HW224255   1.597   2.563   2.696 -0.3458 -1.2705  0.0070
 4208SOL     OW24256   3.616   4.297   9.460 -0.2388 -0.7695 -0.1750
 4208SOL    HW124257   3.564   4.248   9.397 -2.8185  1.6767  0.0539
 4208SOL    HW224258   3.679   4.329   9.395 -0.2045  0.3799  0.4202
 4209SOL     OW24259   3.930   0.096   3.957 -0.2448 -0.2355  0.2233
 4209SOL    HW124260   3.858   0.127   3.901  1.0869 -1.5599 -2.2287
 4209SOL    HW224261   3.963   0.171   4.007 -1.4030  0.0843  0.5019
 4210SOL     OW24262   2.380   2.277   0.279 -0.0082 -0.0389 -0.3943
 4210SOL    HW124263   2.322   2.225   0.334  0.0634 -0.8650 -1.1066
 4210SOL    HW224264   2.370   2.236   0.194  1.1676  1.7934 -1.4294
 4211SOL     OW24265   4.064   1.007   5.317 -0.3017 -0.1352 -0.4628
 4211SOL    HW124266   4.061   0.915   5.345 -0.1253 -0.0090 -0.0218
 4211SOL    HW224267   4.098   1.054   5.393  0.6838 -0.2130 -0.8512
 4212SOL     OW24268   3.477   4.689   2.206  0.5096  0.7558 -0.0444
 4212SOL    HW124269   3.569   4.705   2.230  0.6350  1.6318 -1.0790
 4212SOL    HW224270   3.447   4.702   2.296 -2.1627 -0.7272 -0.7254
 4213SOL     OW24271   1.525   1.049   2.911 -0.1558 -0.0616  0.1525
 4213SOL    HW124272   1.562   0.994   2.842  0.6432  1.6041 -0.7572
 4213SOL    HW224273   1.539   0.996   2.989  2.3853 -1.4736 -1.2679
 4214SOL     OW24274   0.819   3.025   7.209 -0.3764 -0.1679  0.2080
 4214SOL    HW124275   0.815   3.116   7.179 -0.0981 -0.0619  0.4983
 4214SOL    HW224276   0.756   2.992   7.145 -0.1915 -3.6798  1.8837
 4215SOL     OW24277   3.134   4.706  17.398  0.1237 -0.0359 -0.1897
 4215SOL    HW124278   3.096   4.734  17.482 -0.7733 -1.8141  0.0144
 4215SOL    HW224279   3.058   4.656  17.368 -1.7788  1.2672  2.4455
 4216SOL     OW24280   4.191   2.900   9.121  0.4723 -0.7780  0.0490
 4216SOL    HW124281   4.143   2.982   9.119  0.2822 -0.9227 -1.1280
 4216SOL    HW224282   4.184   2.884   9.215  2.1370 -2.1156 -0.0425
 4217SOL     OW24283   1.805   4.443   3.487 -0.2101  0.1537  0.3285
 4217SOL    HW124284   1.757   4.506   3.433 -1.1844 -2.3180 -1.6835
 4217SOL    HW224285   1.804   4.353   3.454 -2.8966 -0.4376  2.0079
 4218SOL     OW24286   3.086   1.405  16.757 -0.4187 -0.4521 -0.0240
 4218SOL    HW124287   3.130   1.482  16.793 -2.1435  0.5941 -0.1313
 4218SOL    HW224288   3.067   1.351  16.833  0.3746  0.2108  0.6494
 4219SOL     OW24289   4.268   3.027   7.324 -0.0628 -0.2208  0.5265
 4219SOL    HW124290   4.225   3.029   7.409  0.7624  1.4075  0.9078
 4219SOL    HW224291   4.292   3.119   7.314  0.0872 -0.2939  0.2042
 4220SOL     OW24292   0.295   1.484  12.426 -0.1514  0.2094 -0.2476
 4220SOL    HW124293   0.388   1.464  12.434 -0.7459 -2.8800 -1.1691
 4220SOL    HW224294   0.261   1.410  12.376  0.9793  0.0069 -0.7018
 4221SOL     OW24295   0.699   4.064   6.984  0.1490  0.1954 -0.5321
 4221SOL    HW124296   0.763   4.016   6.931  0.8377 -0.5547  0.9929
 4221SOL    HW224297   0.736   4.050   7.071 -2.1897  1.6078  0.6776
 4222SOL     OW24298   3.756   0.560   7.410 -0.2954 -0.1947 -0.5749
 4222SOL    HW124299   3.786   0.473   7.386  2.2055  0.2490  0.8633
 4222SOL    HW224300   3.830   0.618   7.392 -1.2353  1.3020  0.3499
 4223SOL     OW24301   2.780   0.210  12.979  0.4583  0.2224  0.1634
 4223SOL    HW124302   2.780   0.144  13.048 -4.0040 -0.0901 -0.1498
 4223SOL    HW224303   2.717   0.274  13.012  1.6539  0.7087  1.4991
 4224SOL     OW24304   1.044   0.495   2.596  0.2038  0.3192 -0.0843
 4224SOL    HW124305   1.137   0.508   2.613  0.0165  0.3322  0.9144
 4224SOL    HW224306   1.043   0.527   2.505  1.9896  0.3808 -0.0778
 4225SOL     OW24307   2.429   0.467  10.859 -0.6560  0.6203  0.4305
 4225SOL    HW124308   2.355   0.488  10.802  1.0118  2.4744 -1.0777
 4225SOL    HW224309   2.399   0.418  10.935 -2.2703  2.1485  0.8046
 4226SOL     OW24310   4.548   0.269   8.391  0.1013  0.0473  1.0517
 4226SOL    HW124311   4.472   0.324   8.408  0.1478  0.4866 -0.0921
 4226SOL    HW224312   4.622   0.325   8.417  0.9878  0.4920 -2.3873
 4227SOL     OW24313   0.624   0.365   6.242 -0.3756 -0.2768 -0.5206
 4227SOL    HW124314   0.583   0.286   6.208  1.0788 -1.1861 -0.1659
 4227SOL    HW224315   0.718   0.350   6.233 -0.2651  0.6825 -0.9300
 4228SOL     OW24316   0.733   1.104   3.173 -0.2040 -0.0010 -0.3054
 4228SOL    HW124317   0.780   1.132   3.251 -0.8691  0.4493 -0.0632
 4228SOL    HW224318   0.647   1.095   3.214 -1.5974 -0.4717 -3.2767
 4229SOL     OW24319   2.048   3.143  16.172 -0.0469 -0.1908 -0.2216
 4229SOL    HW124320   1.965   3.158  16.125 -0.6277 -3.7943 -0.3392
 4229SOL    HW224321   2.109   3.196  16.121  1.1173  0.1571  1.5521
 4230SOL     OW24322   3.775   0.997   8.790  0.5952  0.3349 -0.2654
 4230SOL    HW124323   3.819   1.082   8.799 -0.1392  0.6143  0.6411
 4230SOL    HW224324   3.820   0.953   8.717  0.4424 -0.2556  0.0001
 4231SOL     OW24325   1.266   0.268   7.511  0.1303  0.5909  0.2221
 4231SOL    HW124326   1.335   0.234   7.569 -0.3932 -0.8435 -0.0015
 4231SOL    HW224327   1.221   0.184   7.505  1.5024  0.0142 -1.7537
 4232SOL     OW24328   1.139   0.770   9.307  0.8015 -0.5432  0.0405
 4232SOL    HW124329   1.226   0.810   9.307  0.4482  0.2302 -0.1195
 4232SOL    HW224330   1.106   0.794   9.220  1.5481  0.8474  0.1336
 4233SOL     OW24331   1.629   0.521  12.409 -0.0368 -0.0777 -0.0183
 4233SOL    HW124332   1.561   0.463  12.375 -0.4812  0.3454  0.1511
 4233SOL    HW224333   1.691   0.453  12.437 -0.1876 -0.8638 -1.6029
 4234SOL     OW24334   4.602   2.014   7.395 -0.1668  0.5991 -0.2224
 4234SOL    HW124335   4.666   2.077   7.428 -0.4050  1.3273 -1.1704
 4234SOL    HW224336   4.539   2.034   7.464 -1.9403 -0.5074 -1.5100
 4235SOL     OW24337   1.794   3.491   7.824 -0.5384 -0.8954  0.0471
 4235SOL    HW124338   1.718   3.434   7.834  0.8522 -2.5705  1.0798
 4235SOL    HW224339   1.815   3.469   7.733 -1.1114 -1.8755  0.1477
 4236SOL     OW24340   2.971   2.358   9.744  0.4209  0.4854 -0.1779
 4236SOL    HW124341   2.981   2.453   9.736  1.3189  0.4313  0.3096
 4236SOL    HW224342   2.967   2.342   9.650 -2.4214  0.7472 -0.0993
 4237SOL     OW24343   1.909   0.134   6.322  0.8064 -0.1248 -0.7298
 4237SOL    HW124344   1.972   0.164   6.388 -0.9027  2.1442 -0.1134
 4237SOL    HW224345   1.864   0.067   6.373  0.1773  0.3846 -0.6194
 4238SOL     OW24346   3.925   3.502   4.688  0.4489  0.5097 -0.0793
 4238SOL    HW124347   3.881   3.567   4.742  1.3182  1.8235 -0.9333
 4238SOL    HW224348   4.012   3.506   4.728  0.0389  0.3799  0.8226
 4239SOL     OW24349   1.721   4.291   5.245 -0.4667  0.5451 -0.1845
 4239SOL    HW124350   1.730   4.263   5.336 -2.5050 -2.9551 -1.0694
 4239SOL    HW224351   1.754   4.211   5.204  2.6389  0.8961  1.6686
 4240SOL     OW24352   1.288   3.927   7.941  0.6321 -0.0595 -0.1593
 4240SOL    HW124353   1.338   4.008   7.948 -0.6625  0.6405  0.7976
 4240SOL    HW224354   1.278   3.916   7.846  0.5483 -3.4763  0.2446
 4241SOL     OW24355   3.677   3.165   7.141 -0.5950  0.5858  0.0984
 4241SOL    HW124356   3.642   3.211   7.065 -0.8373 -1.0089 -0.7505
 4241SOL    HW224357   3.671   3.074   7.111  1.3490  0.2733  0.6373
 4242SOL     OW24358   3.223   0.153   4.065 -0.1894  0.1863  0.3491
 4242SOL    HW124359   3.210   0.212   4.140 -1.2011  2.2949 -1.4749
 4242SOL    HW224360   3.158   0.201   4.014  2.9537  1.5259 -2.3932
 4243SOL     OW24361   1.370   3.340   0.161 -0.4802  0.4016 -0.0994
 4243SOL    HW124362   1.414   3.281   0.222 -0.6585 -0.5794 -0.9271
 4243SOL    HW224363   1.426   3.412   0.131 -1.3413  2.5593  3.4500
 4244SOL     OW24364   2.402   3.342   0.598  0.7829  0.3771  0.5336
 4244SOL    HW124365   2.342   3.310   0.665  0.7066  0.0930  0.3283
 4244SOL    HW224366   2.358   3.312   0.519 -0.0732  1.6308  0.5291
 4245SOL     OW24367   4.632   0.454   1.312 -0.0465 -0.3413  0.1564
 4245SOL    HW124368   4.665   0.500   1.389  2.2442  1.2574 -1.7631
 4245SOL    HW224369   4.703   0.392   1.323  0.7727  0.2971 -1.5986
 4246SOL     OW24370   3.594   0.672   4.788 -0.1220  0.5081 -0.1861
 4246SOL    HW124371   3.535   0.616   4.838 -1.9951  1.4631 -1.3244
 4246SOL    HW224372   3.564   0.662   4.698  2.4146  1.1764 -1.1235
 4247SOL     OW24373   3.100   2.068   7.101  0.8814  0.3391  0.1584
 4247SOL    HW124374   3.139   2.149   7.135 -0.9421  0.0929  2.8899
 4247SOL    HW224375   3.023   2.071   7.159  0.6419 -1.6383 -0.0516
 4248SOL     OW24376   3.395   2.727  16.119  0.0371 -0.0745 -0.1521
 4248SOL    HW124377   3.376   2.639  16.086  0.9377 -0.6038  0.7708
 4248SOL    HW224378   3.367   2.784  16.047 -0.3901  2.2265  1.8463
 4249SOL     OW24379   4.211   1.838  10.165 -0.4158  0.3085 -0.2805
 4249SOL    HW124380   4.216   1.933  10.174 -1.7956  0.5234 -1.6143
 4249SOL    HW224381   4.120   1.816  10.184 -0.1742 -1.1346 -0.7109
 4250SOL     OW24382   2.458   0.285   6.674  0.2088  0.1978 -0.0626
 4250SOL    HW124383   2.374   0.306   6.717  1.0213  3.6304 -0.1267
 4250SOL    HW224384   2.495   0.373   6.665 -2.9158  1.5292 -0.1151
 4251SOL     OW24385   0.878   2.040   4.364  0.5311 -0.1306  0.6515
 4251SOL    HW124386   0.887   2.135   4.378 -2.4339  0.0977  0.8401
 4251SOL    HW224387   0.791   2.015   4.395  0.0145  2.1351  1.0728
 4252SOL     OW24388   0.209   2.739  17.326 -0.1976  0.0787  0.7328
 4252SOL    HW124389   0.151   2.790  17.382 -0.7281  0.9285 -0.5909
 4252SOL    HW224390   0.158   2.660  17.307 -0.6805  0.5258  0.1829
 4253SOL     OW24391   0.657   3.650   6.944  0.0817 -0.2484  0.1474
 4253SOL    HW124392   0.647   3.569   6.994 -3.3149 -0.4347 -0.8403
 4253SOL    HW224393   0.742   3.625   6.907  0.3182  2.0097 -0.8477
 4254SOL     OW24394   2.779   2.862   6.656  0.0160 -0.1425 -0.4401
 4254SOL    HW124395   2.852   2.801   6.647  1.5794  1.4380  1.4991
 4254SOL    HW224396   2.807   2.925   6.589 -0.4362  0.2852 -0.2312
 4255SOL     OW24397   0.448   1.967   5.326  0.6449  0.8044  0.3095
 4255SOL    HW124398   0.364   1.943   5.287  0.4371  0.2045  1.1278
 4255SOL    HW224399   0.409   2.023   5.393 -1.1404  0.8250 -0.7342
 4256SOL     OW24400   4.495   3.186   2.423 -0.5037 -0.3448 -0.2051
 4256SOL    HW124401   4.523   3.106   2.379 -0.8548 -0.2714 -0.5611
 4256SOL    HW224402   4.576   3.235   2.436 -0.4938 -0.1293 -1.0865
 4257SOL     OW24403   2.119   0.957   4.002  0.2301 -0.1618 -0.6827
 4257SOL    HW124404   2.046   0.896   3.993  0.9763 -1.1121 -0.2280
 4257SOL    HW224405   2.128   0.956   4.097  1.8213  3.1592 -0.7764
 4258SOL     OW24406   3.386   1.881   5.054 -0.8741 -0.2130  0.5792
 4258SOL    HW124407   3.374   1.938   4.978  2.0544 -0.0339  0.2411
 4258SOL    HW224408   3.458   1.931   5.092 -0.9111  0.6601 -0.4923
 4259SOL     OW24409   4.362   1.667   2.862 -0.0991 -0.0113  0.7421
 4259SOL    HW124410   4.450   1.699   2.843  0.4797 -1.3257  1.2119
 4259SOL    HW224411   4.354   1.702   2.951 -0.4933  1.2501  0.2116
 4260SOL     OW24412   3.909   1.205   4.443 -0.1363  0.4390 -0.2892
 4260SOL    HW124413   3.838   1.214   4.379  0.3332 -0.2821 -0.9199
 4260SOL    HW224414   3.982   1.256   4.407  1.6214 -2.0473 -0.3249
 4261SOL     OW24415   2.762   3.248   1.928  0.0224 -0.1173 -0.3543
 4261SOL    HW124416   2.856   3.228   1.931  0.4145  2.2493  3.5606
 4261SOL    HW224417   2.751   3.274   1.837  0.0570  1.6573  0.1559
 4262SOL     OW24418   1.212   0.166   8.329 -0.0711  0.5210  0.2062
 4262SOL    HW124419   1.211   0.247   8.379  3.6894  1.2854 -1.0118
 4262SOL    HW224420   1.195   0.109   8.404  1.1709 -0.8932 -0.5945
 4263SOL     OW24421   4.211   2.204   4.336  0.3415 -0.1028  0.9046
 4263SOL    HW124422   4.274   2.270   4.308 -0.7845  0.0362 -1.2859
 4263SOL    HW224423   4.267   2.126   4.331  1.9305  0.8662  3.1351
 4264SOL     OW24424   0.754   4.219   3.395  0.1506  1.0650  0.5084
 4264SOL    HW124425   0.730   4.304   3.356 -2.1556 -0.8670 -2.3048
 4264SOL    HW224426   0.816   4.186   3.330 -1.4387 -0.4134 -0.2631
 4265SOL     OW24427   3.225   2.039  13.563 -0.0237  0.1081 -0.5020
 4265SOL    HW124428   3.319   2.045  13.578 -0.3627 -0.4618  1.8961
 4265SOL    HW224429   3.210   1.945  13.570 -0.8114  0.0174 -3.3836
 4266SOL     OW24430   3.398   0.275  13.162  1.1225 -0.5219 -0.3227
 4266SOL    HW124431   3.335   0.214  13.123  1.9490 -2.2543  1.0586
 4266SOL    HW224432   3.363   0.349  13.111 -0.7041  0.2681  2.1027
 4267SOL     OW24433   0.608   4.509   4.197 -0.5160  0.1403  0.3999
 4267SOL    HW124434   0.629   4.573   4.130 -1.0335 -1.9012 -1.7105
 4267SOL    HW224435   0.520   4.484   4.167 -0.4547  2.5059 -1.6860
 4268SOL     OW24436   4.727   1.638   6.969 -0.0006 -0.0255 -0.4782
 4268SOL    HW124437   4.664   1.669   6.904  0.3105  0.5168 -0.5152
 4268SOL    HW224438   4.668   1.577   7.012 -0.8708  0.7783 -0.5351
 4269SOL     OW24439   1.263   3.471   9.929 -0.3771 -0.7916 -0.4562
 4269SOL    HW124440   1.283   3.496  10.019 -3.0462 -0.8015  0.1471
 4269SOL    HW224441   1.268   3.376   9.933 -1.0471 -0.9033 -1.9970
 4270SOL     OW24442   1.593   2.137   3.268 -0.0549  0.3052 -0.1935
 4270SOL    HW124443   1.678   2.107   3.236 -1.6496 -2.6674 -1.6272
 4270SOL    HW224444   1.603   2.230   3.289 -3.8265  0.2602  1.7475
 4271SOL     OW24445   0.780   3.452   3.681  0.1071 -0.0601  0.1026
 4271SOL    HW124446   0.865   3.468   3.640 -0.7892 -1.8544 -2.4426
 4271SOL    HW224447   0.781   3.356   3.685 -2.8775 -0.0740  0.4332
 4272SOL     OW24448   1.448   2.694   2.309 -0.1731 -0.1946 -0.3014
 4272SOL    HW124449   1.487   2.672   2.225  1.0143  1.3448 -0.1619
 4272SOL    HW224450   1.502   2.762   2.350  0.8417 -1.3384  0.2502
 4273SOL     OW24451   3.305   2.888  15.925 -0.5514 -0.5082  0.2417
 4273SOL    HW124452   3.335   2.939  15.850  0.1194 -2.5239 -0.8696
 4273SOL    HW224453   3.249   2.954  15.966 -0.7677  0.0339 -0.9241
 4274SOL     OW24454   1.207   1.308   2.315 -0.2905  0.5066 -0.1296
 4274SOL    HW124455   1.268   1.380   2.334 -2.1379  2.2493 -0.8732
 4274SOL    HW224456   1.132   1.345   2.269  0.3733 -2.0433 -3.2594
 4275SOL     OW24457   2.884   1.767   4.051 -0.2489 -0.6216 -0.5518
 4275SOL    HW124458   2.816   1.700   4.054 -1.2343  0.4343  0.3948
 4275SOL    HW224459   2.859   1.829   4.119 -0.6076 -1.7871  0.3799
 4276SOL     OW24460   0.666   4.362   4.881 -0.2794 -0.0183  0.0006
 4276SOL    HW124461   0.663   4.436   4.941  1.6477 -0.5487  0.7503
 4276SOL    HW224462   0.667   4.413   4.800  1.6313 -0.9782 -0.5714
 4277SOL     OW24463   2.139   3.038   3.696  0.4871 -0.3206 -0.2879
 4277SOL    HW124464   2.192   3.037   3.776 -0.8787  0.8528  0.6448
 4277SOL    HW224465   2.063   2.983   3.717  1.3971 -0.7770  1.8325
 4278SOL     OW24466   4.481   4.619   2.350 -0.0523  0.2578  0.2355
 4278SOL    HW124467   4.551   4.580   2.402 -0.6960 -1.5129 -0.2125
 4278SOL    HW224468   4.406   4.619   2.409 -0.9355 -1.8698 -0.8573
 4279SOL     OW24469   2.208   1.152  14.412  0.0570  0.7611 -0.2629
 4279SOL    HW124470   2.275   1.174  14.348 -1.7687 -0.8125 -2.7292
 4279SOL    HW224471   2.188   1.232  14.461  2.0197  0.2359  1.3521
 4280SOL     OW24472   4.171   0.245   9.603 -0.1033 -0.6163 -0.3491
 4280SOL    HW124473   4.101   0.254   9.539  0.9200  0.8534 -1.2550
 4280SOL    HW224474   4.226   0.182   9.556  1.3456  1.4715 -1.4487
 4281SOL     OW24475   4.389   0.871   9.026  0.0787  0.3820 -0.0813
 4281SOL    HW124476   4.297   0.872   9.001  0.5392  2.8746 -1.7176
 4281SOL    HW224477   4.399   0.843   9.117 -0.6487  1.7113  0.4014
 4282SOL     OW24478   1.922   2.416   8.035  0.0673 -0.0981  0.1949
 4282SOL    HW124479   1.987   2.465   7.985 -3.2864  2.7329 -1.3308
 4282SOL    HW224480   1.864   2.482   8.073 -1.7280 -2.7955  2.1458
 4283SOL     OW24481   3.764   2.302   1.488 -0.0287  0.3202  0.3740
 4283SOL    HW124482   3.855   2.274   1.477 -0.3412 -0.6478  0.1904
 4283SOL    HW224483   3.721   2.217   1.473  1.7881 -0.3092 -1.3482
 4284SOL     OW24484   2.599   2.245   6.026  0.2944  0.6860  0.0685
 4284SOL    HW124485   2.518   2.194   6.021  0.1060  0.8833  1.0401
 4284SOL    HW224486   2.619   2.243   5.932  0.4568 -0.5876  0.1202
 4285SOL     OW24487   2.142   3.643   6.291  0.0337 -0.0040 -0.4377
 4285SOL    HW124488   2.094   3.705   6.345 -0.1616 -0.2654 -0.3104
 4285SOL    HW224489   2.223   3.647   6.342  0.0627  0.5106 -0.5200
 4286SOL     OW24490   1.980   0.894   2.476  0.2793 -0.0966  0.4847
 4286SOL    HW124491   1.926   0.947   2.534 -1.5594 -0.6308 -0.7373
 4286SOL    HW224492   2.039   0.851   2.538  0.4619  0.6278  0.8099
 4287SOL     OW24493   2.154   3.014   2.418 -0.5320  0.1382 -0.2012
 4287SOL    HW124494   2.083   2.976   2.470 -1.2057  0.0220 -1.2207
 4287SOL    HW224495   2.167   3.098   2.463 -0.1039 -0.1383  0.1888
 4288SOL     OW24496   3.739   3.504  10.953  0.2014  0.2199  0.2194
 4288SOL    HW124497   3.721   3.455  11.033 -1.0060 -1.4308 -1.0690
 4288SOL    HW224498   3.721   3.590  10.992 -4.0581 -0.2906 -0.5803
 4289SOL     OW24499   4.375   2.017   3.652 -0.0229  0.1114 -0.1851
 4289SOL    HW124500   4.361   2.112   3.652 -1.2193 -0.0646 -0.3415
 4289SOL    HW224501   4.396   2.006   3.559  0.8000 -1.8302  0.2407
 4290SOL     OW24502   3.410   3.704   5.501  0.1832 -0.1769 -0.3599
 4290SOL    HW124503   3.463   3.674   5.428  1.0037  0.3214  0.0344
 4290SOL    HW224504   3.349   3.634   5.526 -1.1288  1.1564  0.1358
 4291SOL     OW24505   3.105   0.688   1.072  0.7404 -0.1882 -0.5254
 4291SOL    HW124506   3.174   0.648   1.125 -1.6642 -1.2155  1.8803
 4291SOL    HW224507   3.153   0.712   0.993  0.3024 -1.0394 -1.0533
 4292SOL     OW24508   4.172   3.777   8.145  0.4290 -0.0852  0.6747
 4292SOL    HW124509   4.091   3.829   8.146 -0.0670 -0.7324 -3.9265
 4292SOL    HW224510   4.238   3.846   8.152  1.5935 -1.6014  4.4381
 4293SOL     OW24511   0.563   4.202  13.547 -0.6293  0.1060 -0.4252
 4293SOL    HW124512   0.612   4.124  13.523  0.7826  1.0117 -0.4828
 4293SOL    HW224513   0.532   4.167  13.630 -0.7300  1.6025  0.1710
 4294SOL     OW24514   2.516   1.834   8.952 -0.4743 -0.3175  0.3513
 4294SOL    HW124515   2.537   1.925   8.931  0.0721 -0.7069 -0.7805
 4294SOL    HW224516   2.557   1.820   9.037  1.3890 -0.5475 -0.5829
 4295SOL     OW24517   3.865   2.804   3.460 -0.2499  0.2289 -0.0883
 4295SOL    HW124518   3.922   2.863   3.509  1.0160 -1.2711  0.2574
 4295SOL    HW224519   3.831   2.866   3.395 -0.3348 -0.6168 -0.8456
 4296SOL     OW24520   2.611   1.210   4.141 -0.2785 -0.0753  0.0748
 4296SOL    HW124521   2.524   1.226   4.176 -0.1767  0.7887 -0.0725
 4296SOL    HW224522   2.661   1.245   4.214 -2.2934  2.3632  0.2901
 4297SOL     OW24523   2.239   2.562   7.430 -0.0482  0.6411 -0.0829
 4297SOL    HW124524   2.174   2.615   7.477 -0.9546  0.3384 -0.9977
 4297SOL    HW224525   2.228   2.578   7.336  0.1626  0.4525 -0.1406
 4298SOL     OW24526   1.426   3.047   4.527 -0.2883 -0.1528  0.0682
 4298SOL    HW124527   1.449   3.113   4.593  3.1701 -1.7492  0.4388
 4298SOL    HW224528   1.405   3.111   4.459 -0.9577  0.9578  1.2994
 4299SOL     OW24529   4.491   1.899   5.849  0.4438  0.0300  0.1595
 4299SOL    HW124530   4.472   1.806   5.844  1.1072 -0.1869  1.5095
 4299SOL    HW224531   4.416   1.942   5.808 -0.7178 -0.3409  1.8751
 4300SOL     OW24532   1.553   0.091   2.363  0.1426 -0.3706  0.1553
 4300SOL    HW124533   1.555   0.031   2.288 -1.4856 -0.6021  0.2925
 4300SOL    HW224534   1.472   0.134   2.337 -0.1955 -1.5640 -0.7958
 4301SOL     OW24535   0.409   4.083  13.741 -0.1713  0.2804 -0.1882
 4301SOL    HW124536   0.368   4.142  13.804  2.8938  1.2913  0.8861
 4301SOL    HW224537   0.439   4.015  13.802 -1.2366 -0.4328 -0.4663
 4302SOL     OW24538   4.303   4.579   6.273  0.5204  0.7343 -0.4689
 4302SOL    HW124539   4.298   4.615   6.361  1.4046 -0.5140  0.1011
 4302SOL    HW224540   4.388   4.534   6.274  0.6639  1.0844  3.1878
 4303SOL     OW24541   1.665   1.458   0.665  0.4325 -0.1787 -0.0526
 4303SOL    HW124542   1.612   1.531   0.633 -1.3211 -0.7682  1.5259
 4303SOL    HW224543   1.613   1.385   0.632 -0.3508  0.5965 -0.5351
 4304SOL     OW24544   3.581   2.442   5.790  0.2759  0.2538  0.1321
 4304SOL    HW124545   3.609   2.354   5.815  0.5125 -0.1169 -1.4292
 4304SOL    HW224546   3.604   2.435   5.697 -0.1629 -1.5456  0.1505
 4305SOL     OW24547   1.774   4.318   5.686 -0.1554  0.5952  0.7501
 4305SOL    HW124548   1.726   4.283   5.611  1.2471 -1.0950  0.6567
 4305SOL    HW224549   1.777   4.242   5.745  0.5085 -0.3756 -0.5476
 4306SOL     OW24550   0.904   1.042   7.168 -0.4607 -0.3642  0.1142
 4306SOL    HW124551   0.888   1.135   7.183  1.8024  0.2469 -1.3995
 4306SOL    HW224552   0.994   1.042   7.137 -0.6811 -0.1643 -0.5299
 4307SOL     OW24553   4.262   3.031   0.135 -0.3234 -0.2297 -0.1387
 4307SOL    HW124554   4.349   3.019   0.096 -0.6919 -0.8540 -0.7672
 4307SOL    HW224555   4.242   2.938   0.146 -0.6057 -0.0516  0.7829
 4308SOL     OW24556   0.924   0.720   2.920 -0.4591 -0.4965  0.0899
 4308SOL    HW124557   0.878   0.803   2.930  1.0268  0.6289 -2.1914
 4308SOL    HW224558   0.857   0.660   2.887 -0.1256 -0.8892  0.1173
 4309SOL     OW24559   0.468   2.394   5.764 -0.3058  0.4729 -0.0701
 4309SOL    HW124560   0.552   2.395   5.719  0.5444 -0.8369  1.4849
 4309SOL    HW224561   0.490   2.357   5.850  0.8912  2.2269  0.3882
 4310SOL     OW24562   2.035   4.535   3.624 -0.0391 -0.0757  0.1260
 4310SOL    HW124563   2.108   4.552   3.564 -2.7731  1.9484 -2.6781
 4310SOL    HW224564   1.969   4.501   3.563  1.3959 -0.5475 -1.1811
 4311SOL     OW24565   0.204   3.540   2.431 -0.6360 -0.3548 -0.2718
 4311SOL    HW124566   0.173   3.605   2.494  1.5193 -0.1886  0.6095
 4311SOL    HW224567   0.283   3.578   2.395  0.3539 -1.9463  0.2190
 4312SOL     OW24568   4.292   1.681   3.121 -0.6420 -0.0325  0.7905
 4312SOL    HW124569   4.303   1.590   3.092 -0.3588  0.0138  0.7541
 4312SOL    HW224570   4.222   1.668   3.185 -1.2181 -0.6416  0.0442
 4313SOL     OW24571   3.937   0.461   6.871 -0.3666  0.4230  0.4620
 4313SOL    HW124572   3.910   0.526   6.937  2.1113  0.7478  1.1707
 4313SOL    HW224573   4.027   0.444   6.899 -0.3814 -1.9652 -1.0459
 4314SOL     OW24574   3.698   0.964   9.135 -1.0371 -0.2059  0.5471
 4314SOL    HW124575   3.645   1.038   9.105  0.3846 -0.5784 -2.7807
 4314SOL    HW224576   3.779   1.004   9.167 -1.3897  2.0256 -1.3264
 4315SOL     OW24577   3.229   0.246   2.912  0.0267  0.1127  0.0770
 4315SOL    HW124578   3.156   0.184   2.918  2.0325 -2.2519  0.2013
 4315SOL    HW224579   3.184   0.308   2.855 -0.3735  1.5250  1.9018
 4316SOL     OW24580   1.469   1.265   9.517  0.3209  0.2002 -0.6220
 4316SOL    HW124581   1.525   1.293   9.589  2.7357 -2.1244 -1.6036
 4316SOL    HW224582   1.539   1.229   9.463  2.3624 -1.1772  2.9451
 4317SOL     OW24583   0.783   0.713  10.451 -0.3531  0.1308  0.0621
 4317SOL    HW124584   0.766   0.806  10.469  0.0491  0.1133  0.5327
 4317SOL    HW224585   0.815   0.683  10.536 -0.3064 -0.7437 -0.2679
 4318SOL     OW24586   2.622   2.370   0.349  0.5456  0.3887 -0.1868
 4318SOL    HW124587   2.537   2.352   0.309 -0.8953  0.1953  2.9881
 4318SOL    HW224588   2.597   2.387   0.440  0.6066  0.5542 -0.2014
 4319SOL     OW24589   0.222   1.547   4.348  0.2684 -0.1321  0.1083
 4319SOL    HW124590   0.179   1.527   4.264 -0.6965  1.9503  0.0988
 4319SOL    HW224591   0.216   1.464   4.395  3.6265 -1.1312 -1.2061
 4320SOL     OW24592   3.978   0.888   4.069 -0.2410  0.3263 -0.6571
 4320SOL    HW124593   3.937   0.824   4.127  0.4050 -0.1821 -0.7577
 4320SOL    HW224594   3.906   0.920   4.015  0.0799 -0.9264 -1.8204
 4321SOL     OW24595   0.687   3.178  16.111  0.1046 -0.0570 -0.0195
 4321SOL    HW124596   0.670   3.228  16.031  0.8423  3.6120  2.0787
 4321SOL    HW224597   0.741   3.108  16.075  0.3053 -0.1872  0.5310
 4322SOL     OW24598   0.882   0.279   4.509  0.2650  0.1318  0.1282
 4322SOL    HW124599   0.959   0.253   4.459 -1.1318  0.4769 -2.1597
 4322SOL    HW224600   0.908   0.361   4.553 -1.3229  1.1532 -0.8181
 4323SOL     OW24601   0.746   2.702   5.589  0.5339  0.4687 -0.2976
 4323SOL    HW124602   0.774   2.669   5.504 -1.7213  0.5460 -1.0579
 4323SOL    HW224603   0.805   2.775   5.608  3.1056 -1.6491 -0.1483
 4324SOL     OW24604   2.910   1.642   3.598 -0.4405  0.2807  0.1645
 4324SOL    HW124605   2.901   1.667   3.690  1.7244  3.2021 -0.4455
 4324SOL    HW224606   2.959   1.718   3.568 -0.7121  0.2864 -0.2558
 4325SOL     OW24607   1.926   1.384   7.918  0.2942  0.6042 -0.2125
 4325SOL    HW124608   1.847   1.338   7.948  1.1494 -1.1365 -0.6259
 4325SOL    HW224609   1.976   1.379   8.000 -0.2848 -0.2031  0.1015
 4326SOL     OW24610   1.999   2.440  11.409  0.5709  0.6748 -0.3326
 4326SOL    HW124611   1.971   2.455  11.319 -0.2267 -4.2088 -0.8827
 4326SOL    HW224612   1.984   2.533  11.429  0.2419  0.7708 -1.0214
 4327SOL     OW24613   2.730   3.823   9.384  0.7956 -0.2704 -0.2065
 4327SOL    HW124614   2.670   3.815   9.310 -0.9368  1.1664  1.0572
 4327SOL    HW224615   2.796   3.762   9.351  1.6112 -0.1246  1.1622
 4328SOL     OW24616   3.341   1.907   5.918  0.0009 -0.1936  0.2657
 4328SOL    HW124617   3.246   1.911   5.931  0.0122 -1.5372  0.8379
 4328SOL    HW224618   3.347   1.846   5.845 -0.5075  0.6581 -0.4847
 4329SOL     OW24619   0.379   3.518   8.575  0.2520  0.0901 -0.1389
 4329SOL    HW124620   0.359   3.425   8.563 -0.2974  0.1720  0.1796
 4329SOL    HW224621   0.418   3.523   8.662 -0.7974  2.9980  0.1714
 4330SOL     OW24622   3.880   2.332   9.400 -0.1089 -0.3275  0.1918
 4330SOL    HW124623   3.945   2.401   9.383 -0.0802 -1.4067 -4.1163
 4330SOL    HW224624   3.814   2.343   9.331 -0.0886 -0.3051  0.1757
 4331SOL     OW24625   1.430   3.369   0.748 -0.3387  0.0666 -0.9075
 4331SOL    HW124626   1.383   3.448   0.720 -0.2429  0.5272  0.2132
 4331SOL    HW224627   1.516   3.402   0.725  0.7706 -2.4842 -0.3954
 4332SOL     OW24628   0.221   2.596   7.562 -0.2632  0.3003  0.0014
 4332SOL    HW124629   0.232   2.558   7.475 -0.6990 -0.1782  0.1600
 4332SOL    HW224630   0.293   2.660   7.566  2.4556 -2.8589  1.3980
 4333SOL     OW24631   1.195   3.220  17.624 -0.5756 -0.2142  0.0625
 4333SOL    HW124632   1.207   3.133  17.587  0.8489  0.1330 -0.2951
 4333SOL    HW224633   1.116   3.205  17.676 -0.6244  1.2388  0.4103
 4334SOL     OW24634   4.370   0.852   2.105  0.4263  0.0883  0.0010
 4334SOL    HW124635   4.315   0.900   2.167 -1.1976 -2.1020  0.2327
 4334SOL    HW224636   4.451   0.900   2.126 -0.7092  2.5634 -1.3910
 4335SOL     OW24637   3.985   0.841   6.319  0.3019  0.5387 -0.1182
 4335SOL    HW124638   4.003   0.826   6.412  2.3484  1.3265 -0.3726
 4335SOL    HW224639   3.890   0.851   6.330  0.3724 -0.4970  1.5251
 4336SOL     OW24640   2.027   1.742  12.175  0.2646  0.0586 -0.1599
 4336SOL    HW124641   1.945   1.706  12.210 -0.0690  0.9206 -0.0517
 4336SOL    HW224642   2.057   1.785  12.255  0.9361 -0.9336  0.1254
 4337SOL     OW24643   1.615   0.311   9.209 -0.2159  0.1124 -0.4729
 4337SOL    HW124644   1.563   0.231   9.208 -0.2610  0.1088  2.2555
 4337SOL    HW224645   1.562   0.370   9.262  0.0118 -1.3471  1.3820
 4338SOL     OW24646   2.215   0.063   5.599  0.3906  0.5682  0.4884
 4338SOL    HW124647   2.252   4.713   5.608 -2.0367 -0.3728  1.2877
 4338SOL    HW224648   2.120   0.049   5.600  0.4640  0.0764  0.6188
 4339SOL     OW24649   2.438   2.257  10.062  0.2185 -0.0221 -0.1187
 4339SOL    HW124650   2.494   2.183  10.041  1.3183  1.5591 -2.7531
 4339SOL    HW224651   2.355   2.218  10.090  0.0935  1.0406  0.9813
 4340SOL     OW24652   4.222   3.406  14.580  0.2163 -0.0096 -0.5054
 4340SOL    HW124653   4.202   3.381  14.490 -1.5042 -1.3573  0.2359
 4340SOL    HW224654   4.235   3.320  14.620  1.6697  1.5079  2.2560
 4341SOL     OW24655   1.536   3.647   6.456 -0.1111  0.0799 -0.3215
 4341SOL    HW124656   1.490   3.676   6.377 -0.9192 -1.1431 -0.2887
 4341SOL    HW224657   1.532   3.729   6.505  1.5325  0.0658 -0.1530
 4342SOL     OW24658   4.090   2.248   6.133  0.1809 -0.0986 -0.3403
 4342SOL    HW124659   4.059   2.159   6.118 -1.0857  0.1912  0.5112
 4342SOL    HW224660   4.104   2.245   6.228 -1.0985  1.7778 -0.0808
 4343SOL     OW24661   0.457   4.689  10.903 -0.4203 -0.2942 -0.4978
 4343SOL    HW124662   0.515   4.624  10.942 -0.8451  0.4772  1.4436
 4343SOL    HW224663   0.392   4.704  10.972 -0.8756 -1.0247 -0.7664
 4344SOL     OW24664   3.048   1.470   2.606 -0.3697  0.0548 -0.1593
 4344SOL    HW124665   3.015   1.546   2.654  3.2388  0.0981  2.2533
 4344SOL    HW224666   3.057   1.501   2.515 -0.3610 -1.4069 -0.6613
 4345SOL     OW24667   4.636   2.528   4.176 -0.1374  0.0309 -0.0905
 4345SOL    HW124668   4.624   2.563   4.265  0.7036 -1.5047  0.6277
 4345SOL    HW224669   4.731   2.536   4.163 -0.3005 -0.1802 -1.4088
 4346SOL     OW24670   0.620   3.180  15.604 -0.1890  0.5517  0.1382
 4346SOL    HW124671   0.565   3.103  15.613  0.6044 -0.0759 -0.4774
 4346SOL    HW224672   0.644   3.175  15.512  1.9027 -1.3122  0.8000
 4347SOL     OW24673   4.010   2.835  11.948 -0.3397 -0.9508 -0.2758
 4347SOL    HW124674   4.099   2.857  11.975  0.1820 -1.1368 -1.8273
 4347SOL    HW224675   3.958   2.915  11.959 -0.4709 -1.1859  0.7801
 4348SOL     OW24676   3.675   0.502   2.847 -0.0585  0.2674 -0.3247
 4348SOL    HW124677   3.632   0.572   2.895  1.0475  1.9573 -1.7962
 4348SOL    HW224678   3.738   0.541   2.786  0.7223 -0.8556 -0.2401
 4349SOL     OW24679   3.248   2.194   8.228 -0.0966 -0.2950 -0.5472
 4349SOL    HW124680   3.187   2.246   8.281  0.6704 -0.6337  0.6813
 4349SOL    HW224681   3.193   2.170   8.153  1.0863 -0.6854 -1.2774
 4350SOL     OW24682   3.315   1.424   5.025  0.2701 -0.2702 -0.6156
 4350SOL    HW124683   3.347   1.484   5.091 -0.8839 -0.0017 -0.3063
 4350SOL    HW224684   3.229   1.409   5.064 -0.7008 -1.1743 -3.0943
 4351SOL     OW24685   0.662   1.822   4.698  0.1656  0.1782 -0.3019
 4351SOL    HW124686   0.700   1.754   4.642  0.4222 -0.5143  0.7115
 4351SOL    HW224687   0.611   1.762   4.751  0.2616 -2.3526 -3.0527
 4352SOL     OW24688   0.633   4.453  13.015  0.5563  0.1123  0.1653
 4352SOL    HW124689   0.685   4.386  13.061  0.4053 -0.0930  0.0355
 4352SOL    HW224690   0.659   4.433  12.925 -0.9094  0.9662 -0.4436
 4353SOL     OW24691   3.003   0.542   5.844  0.2046  0.1591 -0.5421
 4353SOL    HW124692   2.965   0.478   5.785 -1.2155 -0.0634  0.6261
 4353SOL    HW224693   2.920   0.560   5.887 -0.3969  0.7207 -1.9398
 4354SOL     OW24694   4.334   0.494  16.194  0.2881 -0.4000  0.1274
 4354SOL    HW124695   4.243   0.499  16.165  0.7088  1.4202 -0.8850
 4354SOL    HW224696   4.382   0.546  16.130  1.8103  0.2364  1.8074
 4355SOL     OW24697   0.522   2.452   0.640  0.2875  0.0730 -0.7882
 4355SOL    HW124698   0.456   2.511   0.678 -0.1702 -0.4674 -0.7489
 4355SOL    HW224699   0.573   2.502   0.576  0.0580 -0.1041 -1.1069
 4356SOL     OW24700   2.046   1.111  12.163  0.2682  0.1048  0.3585
 4356SOL    HW124701   2.021   1.059  12.088  0.3452  1.2462 -0.4618
 4356SOL    HW224702   2.138   1.088  12.177  0.0584 -0.7195  0.3782
 4357SOL     OW24703   0.427   3.959   9.971  0.2844 -0.2720  0.1629
 4357SOL    HW124704   0.511   3.942   9.930  0.7158 -0.0403  0.9401
 4357SOL    HW224705   0.457   4.042  10.007 -1.0127  0.4799 -0.4984
 4358SOL     OW24706   2.958   3.950   6.235  0.4502  0.2047 -0.1196
 4358SOL    HW124707   2.962   3.987   6.324 -1.4010 -0.2856  0.1670
 4358SOL    HW224708   3.043   3.906   6.228  0.9651  1.3457 -1.0537
 4359SOL     OW24709   1.189   3.416  13.618 -0.1756 -0.0753 -0.5402
 4359SOL    HW124710   1.095   3.434  13.605 -0.5959 -0.9392  1.2589
 4359SOL    HW224711   1.188   3.331  13.661  0.4651  1.1746  1.9626
 4360SOL     OW24712   3.418   4.210   2.395 -0.2703  0.1908 -0.1590
 4360SOL    HW124713   3.411   4.265   2.317 -0.5078  1.8651  1.0547
 4360SOL    HW224714   3.341   4.240   2.442 -0.5328 -1.8636  0.6994
 4361SOL     OW24715   3.179   2.277  14.634  0.8381 -0.6803 -0.6502
 4361SOL    HW124716   3.102   2.274  14.578 -0.7469  3.1167  1.3445
 4361SOL    HW224717   3.185   2.183  14.655 -0.6376 -1.2204 -2.7210
 4362SOL     OW24718   0.839   4.052  11.819  0.2071 -0.0883 -0.6300
 4362SOL    HW124719   0.831   3.976  11.761 -1.0155 -1.9214  1.9366
 4362SOL    HW224720   0.792   4.115  11.765  0.4117  0.8477  0.2934
 4363SOL     OW24721   3.830   0.391   4.952 -0.0900  0.2285  0.1315
 4363SOL    HW124722   3.771   0.359   5.020 -0.1970  2.0699  0.9014
 4363SOL    HW224723   3.872   0.463   4.998  0.7378 -0.0296 -0.2085
 4364SOL     OW24724   1.688   1.540   7.569  0.1011  0.1441 -0.2120
 4364SOL    HW124725   1.683   1.596   7.646  1.1516  0.8023 -0.6353
 4364SOL    HW224726   1.695   1.453   7.608 -0.3638 -0.0784 -0.6075
 4365SOL     OW24727   1.470   4.443   5.215 -0.1215 -0.2376  0.5502
 4365SOL    HW124728   1.432   4.360   5.187 -0.3954 -0.4533  1.5509
 4365SOL    HW224729   1.557   4.407   5.230 -0.3310 -1.5219 -1.3335
 4366SOL     OW24730   3.055   2.038   5.217 -0.1497  0.6052 -0.5798
 4366SOL    HW124731   3.021   1.963   5.267  0.3891  0.2103 -0.8028
 4366SOL    HW224732   3.148   2.018   5.209 -1.1243 -4.2075  0.1674
 4367SOL     OW24733   2.200   1.910  15.017  0.0125 -0.5036 -0.0106
 4367SOL    HW124734   2.228   1.926  15.107  1.3065 -1.9674 -0.1612
 4367SOL    HW224735   2.256   1.975  14.973 -1.5651 -0.3704 -1.8355
 4368SOL     OW24736   4.300   0.479   7.988 -0.0413 -0.0127 -0.2923
 4368SOL    HW124737   4.347   0.504   7.908  3.1677  0.2994  1.6602
 4368SOL    HW224738   4.258   0.402   7.949 -0.6911  0.3612 -0.3219
 4369SOL     OW24739   0.866   3.284   3.945  0.8098  0.1714 -0.2634
 4369SOL    HW124740   0.877   3.378   3.937  0.4508  0.1956 -0.4614
 4369SOL    HW224741   0.908   3.255   3.864 -1.7788 -0.9789 -1.2081
 4370SOL     OW24742   0.577   1.334   5.145 -0.5051 -0.3480 -0.2223
 4370SOL    HW124743   0.587   1.403   5.210 -1.4943 -0.2831 -0.1315
 4370SOL    HW224744   0.615   1.374   5.067 -0.2539  0.8114  0.5028
 4371SOL     OW24745   4.108   0.176   7.684  0.5766  0.5184  0.2384
 4371SOL    HW124746   4.172   0.206   7.618  2.0784  1.5500  2.1753
 4371SOL    HW224747   4.023   0.193   7.643  1.3165  0.3352 -1.3864
 4372SOL     OW24748   1.745   2.113   8.599  0.3154  0.1334 -0.1703
 4372SOL    HW124749   1.789   2.028   8.595  1.6368  0.8183 -0.3198
 4372SOL    HW224750   1.678   2.099   8.665 -0.5163  1.2633 -0.7675
 4373SOL     OW24751   4.293   3.089   8.854 -0.6849 -0.4863 -0.4771
 4373SOL    HW124752   4.306   2.994   8.853  2.9518 -0.0123  0.9790
 4373SOL    HW224753   4.266   3.108   8.943  0.1924 -0.0223 -0.3085
 4374SOL     OW24754   0.648   4.094   9.770 -0.0240 -0.1093  0.2058
 4374SOL    HW124755   0.681   4.019   9.819 -0.2042 -0.5260 -0.3032
 4374SOL    HW224756   0.719   4.107   9.707 -0.2050  0.5956  0.1435
 4375SOL     OW24757   2.106   1.209   5.312 -0.1035  0.4774 -0.2361
 4375SOL    HW124758   2.121   1.135   5.371 -1.3738 -0.5285 -1.2040
 4375SOL    HW224759   2.195   1.226   5.280  0.2031  0.5852  0.6595
 4376SOL     OW24760   2.497   2.296   5.418  0.2548 -0.2790  0.0796
 4376SOL    HW124761   2.522   2.319   5.508  0.6049  0.6472 -0.2577
 4376SOL    HW224762   2.575   2.250   5.387  0.3969 -0.3607  0.5581
 4377SOL     OW24763   1.489   1.435  15.500  0.0663  0.3673  0.2603
 4377SOL    HW124764   1.521   1.382  15.573 -1.4040 -2.5028 -1.1876
 4377SOL    HW224765   1.449   1.506  15.550  0.8974  1.1794 -0.2416
 4378SOL     OW24766   1.795   1.558  14.925 -0.7360  0.1979  0.0115
 4378SOL    HW124767   1.860   1.613  14.882 -0.8191 -0.6058 -1.1490
 4378SOL    HW224768   1.715   1.578  14.877 -0.3719  1.9669  0.1552
 4379SOL     OW24769   3.827   1.073   1.714  0.3884  0.7644  0.0004
 4379SOL    HW124770   3.891   1.050   1.647 -0.9228  0.1477 -1.0635
 4379SOL    HW224771   3.746   1.059   1.663 -0.2324 -1.2005  1.5231
 4380SOL     OW24772   0.543   0.558   7.010 -0.2166  0.0605  0.0766
 4380SOL    HW124773   0.595   0.478   7.015  1.6664  1.1989 -1.0472
 4380SOL    HW224774   0.509   0.551   6.921 -0.0398  1.4799 -0.1165
 4381SOL     OW24775   2.795   2.516   0.182 -0.4727  0.2319  0.1111
 4381SOL    HW124776   2.882   2.476   0.185 -0.1914  0.8856  0.6688
 4381SOL    HW224777   2.741   2.458   0.236 -3.5984  1.9130 -1.1504
 4382SOL     OW24778   2.077   4.602  17.407 -0.3483  0.0586 -0.3774
 4382SOL    HW124779   1.997   4.636  17.447  0.2969  1.3503 -0.1921
 4382SOL    HW224780   2.041   4.533  17.351 -1.6223  0.7919 -0.4559
 4383SOL     OW24781   3.989   3.364   5.356 -0.0541 -0.2451 -0.4220
 4383SOL    HW124782   3.987   3.279   5.401  1.0306  0.0299  0.1384
 4383SOL    HW224783   4.021   3.337   5.270 -0.0494  4.6097 -1.9161
 4384SOL     OW24784   1.660   2.612  15.250 -0.2246 -0.1853  0.8654
 4384SOL    HW124785   1.645   2.567  15.166  1.7307  0.6263  0.0831
 4384SOL    HW224786   1.630   2.700  15.228  0.7076  0.3899  1.9488
 4385SOL     OW24787   2.296   1.211   2.405 -0.5239 -0.0484 -0.0350
 4385SOL    HW124788   2.252   1.141   2.356 -2.9814  1.7570 -0.3878
 4385SOL    HW224789   2.319   1.272   2.336  0.1407  0.6815  0.8293
 4386SOL     OW24790   1.052   0.951   9.121 -0.1895 -0.1469 -0.0066
 4386SOL    HW124791   0.961   0.980   9.116  0.1611  1.1937  1.3954
 4386SOL    HW224792   1.062   0.910   9.035  0.8767  0.0766  0.0127
 4387SOL     OW24793   2.474   0.644   8.530 -0.0647  0.2847  0.0723
 4387SOL    HW124794   2.512   0.568   8.486 -1.3765  0.6472 -1.7124
 4387SOL    HW224795   2.461   0.714   8.466 -1.0875 -0.5702 -0.6620
 4388SOL     OW24796   0.899   2.601  16.763  0.5191  0.2352 -0.6170
 4388SOL    HW124797   0.853   2.682  16.783 -0.8217 -1.0460  1.5514
 4388SOL    HW224798   0.872   2.595  16.671  0.0455 -1.6258 -0.3648
 4389SOL     OW24799   4.366   3.406  16.730  0.2297 -0.0909 -0.2779
 4389SOL    HW124800   4.375   3.325  16.781  3.4759  0.1115 -0.5106
 4389SOL    HW224801   4.307   3.381  16.659  1.9509 -0.7895 -1.4540
 4390SOL     OW24802   0.803   4.413   3.665  0.1323  0.3324  0.3295
 4390SOL    HW124803   0.850   4.423   3.582 -1.4282  2.2681 -0.3324
 4390SOL    HW224804   0.798   4.317   3.664 -1.2299  0.3744  2.8226
 4391SOL     OW24805   0.329   1.504   1.082  0.3520 -0.2602 -0.1853
 4391SOL    HW124806   0.300   1.551   1.004 -0.4380 -1.1776 -0.4559
 4391SOL    HW224807   0.273   1.427   1.073 -0.2174 -0.0892  1.7487
 4392SOL     OW24808   2.862   3.466   2.948  0.6568 -0.0395 -0.0264
 4392SOL    HW124809   2.813   3.435   3.024 -3.1256 -0.7869 -2.7796
 4392SOL    HW224810   2.925   3.394   2.951  0.3624 -0.2885  0.1882
 4393SOL     OW24811   1.612   3.796   1.765  0.2639  0.1116 -0.5804
 4393SOL    HW124812   1.652   3.733   1.826 -1.6861 -1.7059 -1.1581
 4393SOL    HW224813   1.693   3.829   1.726 -0.6353  1.4571 -1.2808
 4394SOL     OW24814   4.126   4.665  13.723 -0.1928  0.2142  0.4399
 4394SOL    HW124815   4.062   4.721  13.766 -1.2709 -2.1375  1.8960
 4394SOL    HW224816   4.199   4.726  13.729  2.0547 -2.1574 -2.8136
 4395SOL     OW24817   3.845   3.397  11.460  0.2740  0.0676  0.2566
 4395SOL    HW124818   3.775   3.418  11.522 -0.3318  1.1020 -0.7787
 4395SOL    HW224819   3.921   3.439  11.500 -0.2911 -0.6231  2.0926
 4396SOL     OW24820   3.260   0.968   4.316  0.0295 -0.0917 -0.2144
 4396SOL    HW124821   3.249   0.880   4.279  0.6629 -0.3294  0.1569
 4396SOL    HW224822   3.173   0.979   4.354 -1.0292 -0.8928 -2.4126
 4397SOL     OW24823   3.348   0.620   5.383 -0.5831 -0.7667  0.5348
 4397SOL    HW124824   3.344   0.565   5.304 -0.6833 -0.5166  0.3657
 4397SOL    HW224825   3.254   0.632   5.401 -0.6183 -0.1289 -0.0653
 4398SOL     OW24826   2.696   3.326  14.223  0.4206  0.1365 -0.2263
 4398SOL    HW124827   2.702   3.417  14.250 -0.1992  0.0269  0.2832
 4398SOL    HW224828   2.617   3.306  14.272  0.3410  0.4670 -0.2272
 4399SOL     OW24829   2.386   4.244   7.531  0.4471  0.2468  0.0475
 4399SOL    HW124830   2.372   4.244   7.626  0.8999  0.5021  0.1184
 4399SOL    HW224831   2.432   4.326   7.509 -0.5800  0.6755 -0.4920
 4400SOL     OW24832   1.922   2.784  14.297 -0.1693  0.0377 -0.2274
 4400SOL    HW124833   1.893   2.718  14.235 -1.0182  0.1499  0.0596
 4400SOL    HW224834   1.889   2.751  14.381 -1.3595 -3.1728 -1.9920
 4401SOL     OW24835   2.212   3.804  16.251  0.0783  0.3822  0.6620
 4401SOL    HW124836   2.163   3.878  16.216 -1.0065 -1.5653 -1.8669
 4401SOL    HW224837   2.302   3.838  16.248  1.3878 -3.2029 -0.4684
 4402SOL     OW24838   2.090   4.233  17.102 -1.0657  0.1697 -0.7019
 4402SOL    HW124839   2.118   4.143  17.087 -2.4330 -0.2065 -1.0041
 4402SOL    HW224840   2.067   4.258  17.013 -0.9299  1.8692 -0.2511
 4403SOL     OW24841   0.716   4.699  15.312 -0.0748 -0.3749  0.3600
 4403SOL    HW124842   0.728   4.606  15.330  2.0883  0.2452  2.1810
 4403SOL    HW224843   0.644   4.689  15.250  1.0557  1.1247 -1.1780
 4404SOL     OW24844   4.697   3.315   3.792 -0.0275  0.2142  0.0749
 4404SOL    HW124845   4.655   3.290   3.875 -2.3043 -0.7785 -1.3539
 4404SOL    HW224846   4.628   3.287   3.731  1.1510 -0.3099 -1.0133
 4405SOL     OW24847   1.884   3.780   8.346 -0.2564 -0.1671 -0.5182
 4405SOL    HW124848   1.903   3.873   8.350 -0.8027 -0.1090  0.5496
 4405SOL    HW224849   1.887   3.765   8.440 -0.5963  1.7307 -0.2074
 4406SOL     OW24850   0.214   2.629   1.218  0.2776  0.3618 -0.2308
 4406SOL    HW124851   0.275   2.556   1.208  1.4183  1.3193 -0.2857
 4406SOL    HW224852   0.222   2.636   1.313 -1.1355  1.8079 -0.2272
 4407SOL     OW24853   3.440   4.585  14.022 -0.4400 -0.1661  0.0330
 4407SOL    HW124854   3.506   4.519  13.999  0.6404  1.1202 -0.5038
 4407SOL    HW224855   3.374   4.575  13.954 -3.3605  0.5822  2.7354
 4408SOL     OW24856   2.401   1.221  14.657  0.5751  0.1905 -0.0508
 4408SOL    HW124857   2.319   1.269  14.645  2.1441  2.4954 -1.5705
 4408SOL    HW224858   2.367   1.148  14.710 -0.2419  2.1713  2.1552
 4409SOL     OW24859   3.843   3.017  13.556 -0.4798 -0.6931  0.2260
 4409SOL    HW124860   3.860   3.110  13.572 -1.3432 -0.7668  1.6030
 4409SOL    HW224861   3.752   3.025  13.527 -1.1739 -2.2998  1.9977
 4410SOL     OW24862   1.251   1.169   3.304 -0.1690  0.2689 -0.7886
 4410SOL    HW124863   1.250   1.073   3.308  1.1328  0.4008  2.8859
 4410SOL    HW224864   1.192   1.197   3.373 -0.5150  1.6408 -1.6580
 4411SOL     OW24865   2.172   1.526   2.445 -0.1039 -0.6355  0.2167
 4411SOL    HW124866   2.230   1.484   2.381  0.8530 -1.7336  1.7996
 4411SOL    HW224867   2.231   1.593   2.476  0.1053 -0.8221  0.2213
 4412SOL     OW24868   1.262   2.437   2.062 -0.4606  0.5014  0.2417
 4412SOL    HW124869   1.358   2.437   2.056 -0.4801  0.6000 -0.0960
 4412SOL    HW224870   1.234   2.454   1.972 -3.7284  1.4595  1.4547
 4413SOL     OW24871   2.525   1.542   3.854  0.0329 -0.2675  0.4263
 4413SOL    HW124872   2.531   1.582   3.767  0.0425 -2.3171 -0.5183
 4413SOL    HW224873   2.615   1.516   3.869 -0.2766 -0.8297  1.3401
 4414SOL     OW24874   4.512   0.073   8.778  0.2211  0.6550  0.7041
 4414SOL    HW124875   4.584   0.067   8.714 -1.7247 -0.6737 -1.3711
 4414SOL    HW224876   4.540   0.157   8.812 -1.0023  1.5464 -0.4971
 4415SOL     OW24877   4.229   3.061  16.487  0.1825 -0.1273  0.0815
 4415SOL    HW124878   4.250   3.139  16.539  0.6353  0.1585 -0.5384
 4415SOL    HW224879   4.135   3.064  16.470 -0.4187 -1.6925  3.0280
 4416SOL     OW24880   2.012   0.630   4.754  0.2148  0.3298  0.1613
 4416SOL    HW124881   1.956   0.580   4.694  0.7244 -0.8158  0.6382
 4416SOL    HW224882   2.079   0.668   4.697  0.6375  1.6872  1.5605
 4417SOL     OW24883   4.547   4.072  14.186  0.2672  0.1550 -0.0813
 4417SOL    HW124884   4.495   4.106  14.259 -0.2366 -0.2678 -0.2398
 4417SOL    HW224885   4.638   4.090  14.207  0.4401 -0.0773 -0.6321
 4418SOL     OW24886   1.767   1.917  16.212 -0.9719 -0.2473  0.0905
 4418SOL    HW124887   1.731   1.912  16.123 -2.3717 -0.9146  0.7010
 4418SOL    HW224888   1.710   1.987  16.244 -1.9576 -2.0916  2.2963
 4419SOL     OW24889   4.345   2.630  10.296 -0.5125  0.4775 -0.2127
 4419SOL    HW124890   4.353   2.720  10.265  1.0429 -0.1046 -1.5063
 4419SOL    HW224891   4.322   2.585  10.215  0.0197  0.0993 -0.1591
 4420SOL     OW24892   0.867   2.911  14.057 -0.0578 -0.0660  0.0922
 4420SOL    HW124893   0.850   3.003  14.076  0.6791 -0.1712  1.2680
 4420SOL    HW224894   0.793   2.867  14.098 -0.3669  0.7829  0.4381
 4421SOL     OW24895   1.077   2.047   1.476 -0.3756  0.3575 -0.5218
 4421SOL    HW124896   1.098   2.045   1.569 -4.4468  0.7089  0.4084
 4421SOL    HW224897   1.164   2.070   1.445 -0.3223 -0.8321 -1.2673
 4422SOL     OW24898   2.831   0.051   7.109  0.8340 -0.0892  1.1795
 4422SOL    HW124899   2.869   4.702   7.097 -3.0313 -1.3122 -2.2926
 4422SOL    HW224900   2.899   0.115   7.086  0.4064  0.4831  1.4930
 4423SOL     OW24901   1.545   0.672   0.724  0.0576 -0.2207  0.0412
 4423SOL    HW124902   1.527   0.721   0.644 -0.1601  0.0793  0.2763
 4423SOL    HW224903   1.597   0.741   0.765 -0.1949  0.0540 -0.1029
 4424SOL     OW24904   0.016   2.660   4.494  0.0900  0.0916 -0.0885
 4424SOL    HW124905   4.666   2.663   4.458  0.3383  0.8294 -0.6105
 4424SOL    HW224906   0.003   2.687   4.585 -0.7167  0.7085 -0.3929
 4425SOL     OW24907   3.726   2.364   9.184  0.9399 -0.4268 -0.2251
 4425SOL    HW124908   3.684   2.290   9.141  0.5877 -0.7737  0.7379
 4425SOL    HW224909   3.680   2.440   9.148  1.4246  0.3253  0.7444
 4426SOL     OW24910   0.902   4.668  14.390  0.2207 -0.2335  0.0636
 4426SOL    HW124911   0.957   4.641  14.463 -0.3310  1.4791  1.0949
 4426SOL    HW224912   0.928   4.602  14.325  4.8468  1.8263 -0.2281
 4427SOL     OW24913   0.617   3.636  14.293 -0.1781  0.3771 -0.1555
 4427SOL    HW124914   0.544   3.587  14.330 -0.8883  2.0909  0.7197
 4427SOL    HW224915   0.625   3.707  14.357 -0.8737  1.1590 -0.9571
 4428SOL     OW24916   0.327   2.952   0.491 -0.1809 -0.0421 -0.0358
 4428SOL    HW124917   0.320   2.993   0.577 -1.9185  0.9862 -0.6677
 4428SOL    HW224918   0.421   2.939   0.486 -0.0373 -0.4179  3.4272
 4429SOL     OW24919   4.233   3.394  16.392 -0.0675  0.4156 -0.2647
 4429SOL    HW124920   4.187   3.393  16.476 -0.6250 -0.6891 -0.5788
 4429SOL    HW224921   4.286   3.473  16.402  1.1564 -0.5438  0.8153
 4430SOL     OW24922   1.264   0.691  16.836  1.0559  0.7451  0.0715
 4430SOL    HW124923   1.239   0.622  16.898 -2.2120  0.4023 -1.6018
 4430SOL    HW224924   1.177   0.731  16.830  1.1526  0.6940 -1.6983
 4431SOL     OW24925   0.572   0.230   9.171  0.0069 -0.3960  0.0377
 4431SOL    HW124926   0.582   0.319   9.207 -0.6471 -1.0562  1.8834
 4431SOL    HW224927   0.592   0.233   9.078  1.6119 -1.0022  0.3666
 4432SOL     OW24928   0.582   1.973  16.650  0.3042  0.6727  0.6244
 4432SOL    HW124929   0.501   1.927  16.628 -0.0696  1.1325  1.0368
 4432SOL    HW224930   0.626   1.910  16.707 -0.4313 -1.0148 -0.6809
 4433SOL     OW24931   4.589   2.960   4.083 -0.1192 -0.3865  0.6255
 4433SOL    HW124932   4.629   2.934   4.167  1.5086  0.4930  0.1284
 4433SOL    HW224933   4.514   2.905   4.106 -1.3848  1.2103  0.3138
 4434SOL     OW24934   2.888   3.068  14.489 -0.1009 -0.1625 -0.0744
 4434SOL    HW124935   2.808   3.102  14.529  1.1929  1.5773  1.0689
 4434SOL    HW224936   2.875   2.974  14.502 -1.8658 -0.2867 -2.7743
 4435SOL     OW24937   1.283   2.520   6.170  0.4026  0.2933  0.4184
 4435SOL    HW124938   1.378   2.531   6.161  0.5496  0.0724  1.8376
 4435SOL    HW224939   1.281   2.428   6.195  1.7808  0.0317 -0.4429
 4436SOL     OW24940   1.945   0.156   1.661  0.4156  0.1187  0.4515
 4436SOL    HW124941   1.919   0.171   1.752 -1.7774  2.6357 -0.5872
 4436SOL    HW224942   2.008   0.227   1.652  0.0989  0.3591  0.1141
 4437SOL     OW24943   2.845   0.072  15.290  0.1918 -0.4363 -0.2702
 4437SOL    HW124944   2.916   0.008  15.287 -0.6942 -1.6026  4.3269
 4437SOL    HW224945   2.882   0.141  15.236 -0.9235  0.1292 -0.3142
 4438SOL     OW24946   3.983   0.827   2.112 -0.4899 -0.1285 -0.2215
 4438SOL    HW124947   4.055   0.767   2.092 -1.6510 -1.8583  0.8169
 4438SOL    HW224948   3.934   0.833   2.030 -0.5289  3.2769  0.0707
 4439SOL     OW24949   3.057   3.562   6.117 -0.3415 -0.1747 -0.1641
 4439SOL    HW124950   3.070   3.471   6.089  1.8128  0.1248 -0.1386
 4439SOL    HW224951   2.962   3.560   6.123 -0.2924 -1.2114  0.2926
 4440SOL     OW24952   1.278   3.905   6.210 -0.0192  0.1067 -0.2246
 4440SOL    HW124953   1.245   3.910   6.120 -0.6889 -3.9719 -0.1849
 4440SOL    HW224954   1.263   3.814   6.232 -0.8641  0.5621  1.0664
 4441SOL     OW24955   3.270   3.296  15.117  0.1985 -0.1178 -1.0001
 4441SOL    HW124956   3.226   3.295  15.032 -2.4360  1.7980  0.3308
 4441SOL    HW224957   3.259   3.203  15.136 -1.4193  0.6969  1.9501
 4442SOL     OW24958   4.271   0.124   3.555 -0.9102 -0.1236 -0.4841
 4442SOL    HW124959   4.190   0.095   3.513 -0.0451 -3.5455  0.2318
 4442SOL    HW224960   4.230   0.185   3.617  0.6523  0.9409 -0.5244
 4443SOL     OW24961   2.186   2.673   3.358 -0.1253 -0.2160 -0.5013
 4443SOL    HW124962   2.260   2.690   3.416 -1.3197  1.8064  0.4279
 4443SOL    HW224963   2.149   2.758   3.336  1.8107  0.5459 -0.7934
 4444SOL     OW24964   3.801   1.146   1.976  0.4151  0.2363 -0.0677
 4444SOL    HW124965   3.717   1.190   1.991 -0.4214 -0.4923 -2.7464
 4444SOL    HW224966   3.798   1.159   1.882  1.3346 -2.1801 -0.4295
 4445SOL     OW24967   2.362   0.177  16.120  0.0137 -0.2519  0.0279
 4445SOL    HW124968   2.329   0.188  16.209  0.9645  0.8655  0.2502
 4445SOL    HW224969   2.326   0.095  16.087 -0.3847 -0.4894  1.0572
 4446SOL     OW24970   3.787   4.604  17.336 -0.2143 -0.3319 -0.1633
 4446SOL    HW124971   3.756   4.560  17.257  1.6309  0.2296 -1.1961
 4446SOL    HW224972   3.801   4.525  17.389 -3.3919  0.5814  2.0655
 4447SOL     OW24973   4.318   4.029   4.060  0.4690 -0.2727 -0.2826
 4447SOL    HW124974   4.243   3.998   4.111  0.3122 -0.3106 -0.5322
 4447SOL    HW224975   4.392   4.010   4.118  1.6625 -1.5651 -2.2172
 4448SOL     OW24976   0.721   2.321   3.153  0.1318 -0.0585  0.0125
 4448SOL    HW124977   0.746   2.282   3.069  0.9209 -0.4889  0.4575
 4448SOL    HW224978   0.665   2.394   3.127  0.2257 -0.0563 -0.1841
 4449SOL     OW24979   1.814   0.150   3.487 -0.7621 -0.3513  0.0757
 4449SOL    HW124980   1.902   0.136   3.523 -0.3805  2.1406  0.1198
 4449SOL    HW224981   1.762   0.084   3.534 -1.2502 -0.0646 -0.0572
 4450SOL     OW24982   2.344   4.503   4.247  0.2441 -0.4478  0.2634
 4450SOL    HW124983   2.291   4.450   4.187 -0.7962 -0.1916  0.9564
 4450SOL    HW224984   2.292   4.499   4.327 -0.5395 -0.0062 -0.2301
 4451SOL     OW24985   0.425   4.365  12.698  0.3337  0.2385 -0.0139
 4451SOL    HW124986   0.333   4.370  12.672  0.3607  0.7337 -0.0258
 4451SOL    HW224987   0.409   4.342  12.789  2.5496 -0.0970  0.2913
 4452SOL     OW24988   0.272   3.107   7.773  0.2369  0.4019 -0.0292
 4452SOL    HW124989   0.279   3.202   7.767  1.7751  0.1304 -2.3303
 4452SOL    HW224990   0.306   3.092   7.861  2.5322  1.0702 -0.8240
 4453SOL     OW24991   1.726   3.952   7.384  0.1981  0.4414  0.0161
 4453SOL    HW124992   1.639   3.969   7.419  0.2846  0.1423  0.3797
 4453SOL    HW224993   1.725   3.857   7.369  2.9389  0.3184  0.6671
 4454SOL     OW24994   2.790   1.590   2.820 -0.1769  0.5958 -0.4670
 4454SOL    HW124995   2.772   1.497   2.805 -1.8331  0.7592  0.4826
 4454SOL    HW224996   2.757   1.617   2.906 -1.9336  0.8087 -1.2159
 4455SOL     OW24997   2.829   1.640  16.306  0.1893 -0.0359  0.3019
 4455SOL    HW124998   2.859   1.605  16.389 -1.4803 -2.3502 -0.0813
 4455SOL    HW224999   2.739   1.608  16.311  0.2637 -0.1594  0.8730
 4456SOL     OW25000   0.768   1.224   6.377 -0.2036 -0.1555 -0.3717
 4456SOL    HW125001   0.746   1.293   6.440  1.1277  0.7807 -0.9424
 4456SOL    HW225002   0.730   1.269   6.302  2.0505  0.5546 -1.0650
 4457SOL     OW25003   0.728   3.775   4.769  0.1389 -0.4410 -0.4460
 4457SOL    HW125004   0.753   3.708   4.832 -0.9323 -0.0651  0.3714
 4457SOL    HW225005   0.645   3.745   4.733  0.7081 -0.7463 -1.5161
 4458SOL     OW25006   3.764   3.869  13.189 -0.5343  0.8659  0.4590
 4458SOL    HW125007   3.709   3.826  13.255 -1.0210  1.4309  0.4174
 4458SOL    HW225008   3.850   3.858  13.229  0.2573  1.6156 -1.0585
 4459SOL     OW25009   2.490   3.879  16.894 -0.0056  0.0172 -0.4742
 4459SOL    HW125010   2.468   3.898  16.803 -2.2184  2.0620  0.5052
 4459SOL    HW225011   2.579   3.915  16.888 -0.3594  0.9538 -0.0762
 4460SOL     OW25012   2.890   3.125   6.737  0.2033 -0.5804 -0.3298
 4460SOL    HW125013   2.849   3.195   6.686  0.5761  0.0964  0.2953
 4460SOL    HW225014   2.857   3.046   6.694  1.7399 -0.3982 -1.8639
 4461SOL     OW25015   4.207   0.628   2.109 -0.2215 -0.1665 -0.4316
 4461SOL    HW125016   4.273   0.682   2.064 -0.3506 -0.2828 -0.7621
 4461SOL    HW225017   4.253   0.546   2.126  1.0870  0.9248  1.3769
 4462SOL     OW25018   4.066   1.369  10.320  0.0874 -0.3346 -0.2510
 4462SOL    HW125019   4.143   1.357  10.376 -0.0896  1.6883  0.4137
 4462SOL    HW225020   4.051   1.281  10.285  0.0242 -0.2608 -0.4112
 4463SOL     OW25021   3.414   4.626   5.646 -0.1859 -0.1893  0.3075
 4463SOL    HW125022   3.392   4.718   5.662  1.8568  0.4288 -0.4769
 4463SOL    HW225023   3.504   4.633   5.612  0.5881 -2.1552  1.9469
 4464SOL     OW25024   0.244   1.340  15.112  0.1419 -0.2138 -0.4219
 4464SOL    HW125025   0.340   1.344  15.108  0.1303  0.6304  0.2489
 4464SOL    HW225026   0.243   1.244  15.114 -0.3173 -0.2083 -0.4923
 4465SOL     OW25027   0.005   2.392  10.944  0.3530 -0.0163  0.2598
 4465SOL    HW125028   4.708   2.392  10.855  1.6838 -1.5425 -0.2741
 4465SOL    HW225029   0.094   2.356  10.935 -0.3248 -0.9559 -2.7345
 4466SOL     OW25030   2.275   4.279   3.613 -0.0616 -0.5008  0.0540
 4466SOL    HW125031   2.321   4.201   3.645  0.1994 -1.0016 -1.5757
 4466SOL    HW225032   2.315   4.350   3.665  0.3345 -0.7150  0.0435
 4467SOL     OW25033   1.541   0.504   2.524 -0.2950  0.1873 -0.3365
 4467SOL    HW125034   1.628   0.478   2.554  0.3298  1.3627 -1.1344
 4467SOL    HW225035   1.564   0.505   2.431  1.4522  0.3078  0.0939
 4468SOL     OW25036   2.100   2.655   3.685 -0.0532  0.1378  0.1689
 4468SOL    HW125037   2.070   2.732   3.638  1.7990  0.9279  0.2656
 4468SOL    HW225038   2.121   2.691   3.771  2.3961  0.8481 -0.7189
 4469SOL     OW25039   3.296   3.390  17.382 -0.3035 -0.4076 -1.0437
 4469SOL    HW125040   3.319   3.427  17.297  1.3535  1.4383  0.2018
 4469SOL    HW225041   3.340   3.306  17.375 -1.9519 -1.3943  0.2618
 4470SOL     OW25042   4.041   1.727   4.840 -0.0881  0.2267  0.2028
 4470SOL    HW125043   3.986   1.724   4.918  1.3632  0.3473  1.2373
 4470SOL    HW225044   3.981   1.766   4.777 -1.2028  0.7844  1.6266
 4471SOL     OW25045   0.950   2.614   6.576 -0.1059  1.3069  0.2645
 4471SOL    HW125046   1.013   2.566   6.630  0.2066  2.3837  0.8596
 4471SOL    HW225047   0.877   2.552   6.574 -0.6718  2.0424 -1.3665
 4472SOL     OW25048   3.905   3.012   2.380  0.0750  0.4040  0.7641
 4472SOL    HW125049   3.839   3.046   2.319 -2.6005 -1.0703  2.7938
 4472SOL    HW225050   3.954   2.949   2.328  1.1755  0.4399  1.7672
 4473SOL     OW25051   3.381   1.097  15.766 -0.4791 -0.3335  0.0728
 4473SOL    HW125052   3.398   1.165  15.701 -1.0731  0.5822  0.8638
 4473SOL    HW225053   3.339   1.158  15.827 -0.1032  0.6168 -0.6280
 4474SOL     OW25054   3.511   4.271  13.264  0.6406 -0.6143  0.5141
 4474SOL    HW125055   3.596   4.238  13.236  1.0114  1.1854 -0.4264
 4474SOL    HW225056   3.532   4.358  13.297  0.8702 -0.7475  0.7267
 4475SOL     OW25057   3.809   3.307  17.598  0.2898  0.5943  0.5991
 4475SOL    HW125058   3.854   3.382  17.637 -0.0025  0.2934  1.5252
 4475SOL    HW225059   3.827   3.231  17.654 -1.7080 -0.8037 -0.6604
 4476SOL     OW25060   2.832   2.492  11.259 -0.0545 -0.7084  0.2041
 4476SOL    HW125061   2.903   2.428  11.265 -0.3965 -0.8106  3.0533
 4476SOL    HW225062   2.772   2.466  11.189 -1.8867 -0.7235  1.7926
 4477SOL     OW25063   4.647   1.734   7.332  0.3800 -0.2034  0.1725
 4477SOL    HW125064   0.003   1.714   7.335  0.3227 -0.2116  2.0811
 4477SOL    HW225065   4.654   1.829   7.342  0.7264 -0.2018 -0.0995
 4478SOL     OW25066   2.032   3.579   8.215  0.1115 -0.0117 -0.4687
 4478SOL    HW125067   2.040   3.617   8.128  0.6073 -0.1517 -0.4885
 4478SOL    HW225068   1.988   3.654   8.255  0.4593 -0.9360  1.6852
 4479SOL     OW25069   1.582   0.518   1.983  0.1824  0.4072 -1.0406
 4479SOL    HW125070   1.576   0.565   1.899 -1.4604 -0.1199 -1.2068
 4479SOL    HW225071   1.518   0.449   1.967  1.4104 -0.8295 -0.5830
 4480SOL     OW25072   3.766   3.752   3.002  0.0362 -0.0741 -0.0830
 4480SOL    HW125073   3.829   3.787   3.065  0.8342 -3.9400  1.2938
 4480SOL    HW225074   3.792   3.660   3.010  0.7188  0.5312  4.4136
 4481SOL     OW25075   0.579   3.368  15.333 -0.4121 -0.0518  0.6290
 4481SOL    HW125076   0.611   3.314  15.261  1.9442  1.0146  0.9056
 4481SOL    HW225077   0.661   3.395  15.373 -1.2335  1.9019  0.9956
 4482SOL     OW25078   1.925   0.176   4.692 -0.5347  0.1888  0.3788
 4482SOL    HW125079   1.833   0.168   4.664 -0.0896 -1.0126 -0.7210
 4482SOL    HW225080   1.945   0.245   4.628  0.0252  0.0969  0.4555
 4483SOL     OW25081   0.701   1.634   4.489  0.1217 -0.3024  0.2908
 4483SOL    HW125082   0.786   1.652   4.449 -1.1179  1.4789 -1.5558
 4483SOL    HW225083   0.649   1.656   4.412 -0.5698 -2.0172  0.2701
 4484SOL     OW25084   2.298   0.678   3.099 -0.2548 -0.2860  0.0454
 4484SOL    HW125085   2.214   0.633   3.101  0.4701 -1.6299  0.5208
 4484SOL    HW225086   2.263   0.767   3.103  1.4898  0.3558  1.1215
 4485SOL     OW25087   3.755   0.433  13.106 -0.6511 -0.1658 -0.1738
 4485SOL    HW125088   3.752   0.481  13.188  0.5644 -0.1194 -0.1612
 4485SOL    HW225089   3.705   0.489  13.046  0.0567 -0.4295 -1.0148
 4486SOL     OW25090   0.341   1.344   3.954  0.1906  0.6355  0.0171
 4486SOL    HW125091   0.297   1.260   3.966  1.4331 -0.5346 -3.3749
 4486SOL    HW225092   0.320   1.361   3.862 -1.6338 -0.4803  0.2207
 4487SOL     OW25093   4.675   4.518   5.756 -0.1403 -0.5150 -0.0095
 4487SOL    HW125094   4.591   4.561   5.772 -0.3944  0.0220 -2.7603
 4487SOL    HW225095   4.651   4.459   5.685  4.3815  0.0723 -2.0167
 4488SOL     OW25096   1.044   0.276   5.340 -0.3789  0.4126  0.3399
 4488SOL    HW125097   1.137   0.253   5.336 -0.5501 -0.0548 -0.9941
 4488SOL    HW225098   1.042   0.343   5.409  2.0830 -0.2592  1.0582
 4489SOL     OW25099   4.191   3.678   4.475  0.5513 -0.0248  0.0639
 4489SOL    HW125100   4.105   3.715   4.453  1.2997  2.3223  1.0892
 4489SOL    HW225101   4.182   3.691   4.570 -0.8811 -0.9666  0.0682
 4490SOL     OW25102   3.090   0.168   7.361 -0.1627  0.2406 -0.3669
 4490SOL    HW125103   3.174   0.129   7.383 -1.6507 -2.4247  0.5311
 4490SOL    HW225104   3.085   0.244   7.420 -0.0553 -1.2241  1.5308
 4491SOL     OW25105   4.202   2.786   8.358 -0.1151 -0.4573 -0.4085
 4491SOL    HW125106   4.209   2.878   8.335 -0.5689 -0.6743 -1.4028
 4491SOL    HW225107   4.292   2.761   8.381  0.3643  1.2120 -0.5312
 4492SOL     OW25108   3.759   0.879   6.024  0.3396  0.4478  0.3145
 4492SOL    HW125109   3.729   0.969   6.012  1.1732  0.4698 -1.5688
 4492SOL    HW225110   3.754   0.871   6.119  2.7770  1.6283  0.5710
 4493SOL     OW25111   1.829   2.666   8.542 -0.0632  0.1964 -0.1385
 4493SOL    HW125112   1.747   2.714   8.532  1.4612  2.5667 -1.0377
 4493SOL    HW225113   1.888   2.731   8.506 -0.6374  1.1488  0.6406
 4494SOL     OW25114   4.673   1.380  13.221 -0.2715 -0.0807  0.4589
 4494SOL    HW125115   4.664   1.433  13.301 -0.1305  3.6001 -1.9612
 4494SOL    HW225116   0.024   1.403  13.193 -0.8141  0.5221 -0.7250
 4495SOL     OW25117   0.849   1.756   4.915 -0.3220 -0.0111  0.5367
 4495SOL    HW125118   0.779   1.778   4.977  0.0704 -0.6874  1.2246
 4495SOL    HW225119   0.822   1.810   4.841 -1.1314  0.0823  0.8930
 4496SOL     OW25120   3.983   3.194   9.425 -0.1232 -0.0978 -0.2283
 4496SOL    HW125121   4.070   3.156   9.440 -0.1659  0.0356  0.3423
 4496SOL    HW225122   3.946   3.189   9.513  2.0903  0.2804  0.7204
 4497SOL     OW25123   3.995   0.224   4.740 -0.2041  0.1462  0.2223
 4497SOL    HW125124   3.934   0.250   4.810  0.7494  1.3498  0.6157
 4497SOL    HW225125   4.028   0.310   4.712  0.7767 -0.3758 -0.2182
 4498SOL     OW25126   3.223   0.668   6.672 -0.2475 -0.6523  0.2495
 4498SOL    HW125127   3.247   0.578   6.648 -0.7036 -1.4248  2.7131
 4498SOL    HW225128   3.255   0.677   6.761  1.6960 -0.9840 -0.4166
 4499SOL     OW25129   0.255   3.455   6.328 -0.0706  0.1437  0.1399
 4499SOL    HW125130   0.165   3.454   6.362  0.5084  0.8200  1.6926
 4499SOL    HW225131   0.244   3.405   6.247 -0.3861 -1.6761  1.2921
 4500SOL     OW25132   4.185   2.107  15.996  0.3041 -0.5682  0.5772
 4500SOL    HW125133   4.223   2.172  15.936 -0.8739  0.0725  0.5285
 4500SOL    HW225134   4.117   2.073  15.937  2.4209 -0.1562 -2.1014
 4501SOL     OW25135   2.109   3.229   2.206  0.3228  0.2760 -0.1436
 4501SOL    HW125136   2.014   3.221   2.215  0.8340  0.5681  5.4884
 4501SOL    HW225137   2.121   3.139   2.237  0.0639 -0.1545 -1.2863
 4502SOL     OW25138   1.509   3.331   5.386 -0.1273 -0.6100  0.0105
 4502SOL    HW125139   1.440   3.346   5.451 -0.6355 -1.9460 -0.2158
 4502SOL    HW225140   1.580   3.322   5.450  0.4667  1.4394 -0.3521
 4503SOL     OW25141   4.043   2.780   4.961 -0.6400  0.0832  0.5884
 4503SOL    HW125142   3.956   2.747   4.937 -1.0389 -0.6414  3.0762
 4503SOL    HW225143   4.049   2.724   5.038  0.5774 -2.4363 -1.3506
 4504SOL     OW25144   1.293   4.234  11.684 -0.0864 -0.0912  0.3823
 4504SOL    HW125145   1.226   4.206  11.746 -1.9311  2.5998 -0.3732
 4504SOL    HW225146   1.249   4.300  11.630  0.0193 -1.0448 -0.8751
 4505SOL     OW25147   3.254   3.443   5.062  0.1432 -0.0268 -0.1127
 4505SOL    HW125148   3.233   3.374   4.999  1.4259  0.7557 -1.3961
 4505SOL    HW225149   3.273   3.506   4.993 -1.7137  1.5325  0.7793
 4506SOL     OW25150   0.343   3.453   5.419 -0.0051 -0.5318 -0.0336
 4506SOL    HW125151   0.294   3.387   5.468 -1.4285  0.6112  0.0541
 4506SOL    HW225152   0.358   3.523   5.482  2.8472  1.0299 -2.4219
 4507SOL     OW25153   1.566   2.821  12.360  0.1094 -0.0810 -0.3692
 4507SOL    HW125154   1.479   2.815  12.321  0.5158 -2.1606 -0.9693
 4507SOL    HW225155   1.589   2.728  12.356  2.4569  0.4869 -0.2452
 4508SOL     OW25156   3.699   0.705  11.704  0.3347  0.6496 -0.5430
 4508SOL    HW125157   3.675   0.745  11.787  1.7938 -0.6526  0.5201
 4508SOL    HW225158   3.772   0.644  11.712  1.0238  1.7953  1.8788
 4509SOL     OW25159   2.238   1.887   6.980  0.3322  0.0445  0.4737
 4509SOL    HW125160   2.304   1.830   6.940 -1.5584 -0.8082 -1.4144
 4509SOL    HW225161   2.163   1.872   6.922 -0.8742  0.3461  1.9550
 4510SOL     OW25162   3.047   2.489   3.569 -0.4836 -0.6770 -0.0019
 4510SOL    HW125163   3.035   2.566   3.625  1.4731 -0.7950  0.5970
 4510SOL    HW225164   2.983   2.508   3.501  0.2096 -2.0644 -1.0507
 4511SOL     OW25165   3.859   0.099   4.481  0.5504  0.0112 -0.2165
 4511SOL    HW125166   3.765   0.082   4.487  0.8348 -1.0470  0.9727
 4511SOL    HW225167   3.876   0.143   4.564 -1.1281  0.4847 -0.1086
 4512SOL     OW25168   1.826   1.079   3.609 -0.6432 -0.0144 -0.5252
 4512SOL    HW125169   1.911   1.119   3.631 -0.9156  0.0508  0.3963
 4512SOL    HW225170   1.788   1.158   3.571 -0.4698 -0.3294 -1.3437
 4513SOL     OW25171   4.703   0.718   3.256 -0.0250  0.1510  0.2725
 4513SOL    HW125172   4.613   0.738   3.228  0.4069 -0.5360 -1.5890
 4513SOL    HW225173   4.688   0.730   3.350 -1.5940  0.0239  0.0441
 4514SOL     OW25174   1.905   0.504  14.365 -0.3249  0.6569 -0.4746
 4514SOL    HW125175   1.904   0.600  14.356 -0.3595  0.7479  0.4742
 4514SOL    HW225176   1.819   0.492  14.406  0.7507 -1.7660  1.0190
 4515SOL     OW25177   0.449   0.503   6.116 -0.7697  0.4947 -0.3948
 4515SOL    HW125178   0.524   0.466   6.164 -0.5441  3.4447  1.5659
 4515SOL    HW225179   0.498   0.562   6.058  2.5498 -1.6952  0.1848
 4516SOL     OW25180   3.358   2.623   8.237 -0.1124 -0.0445  0.4010
 4516SOL    HW125181   3.388   2.536   8.262 -2.3106 -0.5034  1.4849
 4516SOL    HW225182   3.303   2.605   8.160  0.3851 -0.9593  0.2742
 4517SOL     OW25183   2.386   1.252   6.179  0.1454  0.1520  0.0477
 4517SOL    HW125184   2.317   1.272   6.242 -3.6631 -3.3067 -3.0042
 4517SOL    HW225185   2.466   1.251   6.231  1.1797  0.7978 -1.5516
 4518SOL     OW25186   0.635   4.539  15.629 -0.0154 -0.5548  1.0264
 4518SOL    HW125187   0.658   4.516  15.539 -1.1405 -1.2657  0.9318
 4518SOL    HW225188   0.612   4.458  15.675  0.8216 -0.2124  2.0549
 4519SOL     OW25189   2.741   1.541   4.127 -0.0261 -0.3952  0.3193
 4519SOL    HW125190   2.740   1.489   4.047  1.3066 -0.5534  0.4020
 4519SOL    HW225191   2.753   1.477   4.197  0.3107 -2.3606 -1.5169
 4520SOL     OW25192   2.004   3.622  13.546  0.2517 -0.5573 -0.2708
 4520SOL    HW125193   1.998   3.586  13.634  1.7826 -0.6971 -0.2346
 4520SOL    HW225194   1.929   3.588  13.497 -1.8663  1.0953  1.8555
 4521SOL     OW25195   1.424   1.539   1.274 -0.0491 -0.4332 -0.1078
 4521SOL    HW125196   1.400   1.630   1.256 -0.2062 -0.2014  1.2005
 4521SOL    HW225197   1.361   1.512   1.341 -1.4384 -1.4185 -1.8228
 4522SOL     OW25198   1.421   0.880  16.554  0.1750  0.1853 -0.6597
 4522SOL    HW125199   1.450   0.838  16.635 -1.6825 -0.3639 -0.2938
 4522SOL    HW225200   1.487   0.838  16.498  0.6741  0.2565 -0.1268
 4523SOL     OW25201   1.096   2.602   9.237 -0.3075 -0.1406  0.0597
 4523SOL    HW125202   1.126   2.594   9.327  2.3685  1.3107 -0.6910
 4523SOL    HW225203   1.012   2.645   9.252  0.3577  1.1383  0.1136
 4524SOL     OW25204   2.522   0.274  13.827  0.2474  0.2618 -0.0083
 4524SOL    HW125205   2.583   0.233  13.888 -0.8119 -1.2470  0.0458
 4524SOL    HW225206   2.545   0.233  13.743  1.3921 -1.2732  1.0580
 4525SOL     OW25207   2.644   3.407   5.662 -0.1404 -0.1719  0.0451
 4525SOL    HW125208   2.622   3.436   5.574 -0.7968 -1.4974 -0.2315
 4525SOL    HW225209   2.558   3.374   5.689 -0.4111 -0.7101 -1.4715
 4526SOL     OW25210   1.460   2.968   8.424  0.1086 -0.7609 -0.6480
 4526SOL    HW125211   1.436   3.058   8.444  0.1889 -0.6192 -1.1741
 4526SOL    HW225212   1.399   2.953   8.352 -0.9368 -1.4527  0.3811
 4527SOL     OW25213   1.825   3.909   4.855 -0.1892  0.3067 -0.4084
 4527SOL    HW125214   1.831   4.005   4.855  1.0407  0.2341  1.0720
 4527SOL    HW225215   1.908   3.890   4.899 -1.3908 -1.7724  0.9635
 4528SOL     OW25216   2.781   2.473   1.375 -0.3521 -0.7096  0.1106
 4528SOL    HW125217   2.751   2.535   1.442 -1.0800 -0.0930 -0.7803
 4528SOL    HW225218   2.775   2.524   1.294  0.5148  0.0163  0.5047
 4529SOL     OW25219   0.969   0.670  15.248 -0.0124 -0.6163 -0.6805
 4529SOL    HW125220   1.027   0.645  15.320 -0.7797  1.2480  0.5703
 4529SOL    HW225221   1.027   0.725  15.196  0.7194 -1.4693 -0.7696
 4530SOL     OW25222   0.778   2.497   5.143 -0.5265 -0.5016  0.2832
 4530SOL    HW125223   0.783   2.592   5.142 -0.1226 -0.5393 -1.5142
 4530SOL    HW225224   0.710   2.486   5.209 -0.1112 -2.5643  0.3971
 4531SOL     OW25225   1.687   0.813  13.088  0.1383 -0.0523  0.4156
 4531SOL    HW125226   1.610   0.860  13.055  1.2306 -0.0710 -2.1240
 4531SOL    HW225227   1.727   0.786  13.005  3.7115 -0.3944  2.2894
 4532SOL     OW25228   2.250   0.947   0.320 -0.4699  0.0414 -0.2794
 4532SOL    HW125229   2.315   0.891   0.362  0.1711  0.0582 -1.2550
 4532SOL    HW225230   2.204   0.966   0.401 -0.8163 -0.1324 -0.4318
 4533SOL     OW25231   2.874   4.127   3.697 -0.1859  0.0236  0.1474
 4533SOL    HW125232   2.950   4.071   3.712 -1.9497 -2.9305 -2.0324
 4533SOL    HW225233   2.802   4.076   3.735 -1.5925  1.4001 -0.6796
 4534SOL     OW25234   2.650   2.996   2.864  0.5445  0.0505 -0.2874
 4534SOL    HW125235   2.600   3.059   2.812 -1.9001 -0.5336  1.3518
 4534SOL    HW225236   2.740   3.028   2.858  0.9682 -1.1484 -0.2521
 4535SOL     OW25237   0.873   1.465   5.222  0.6294 -0.6234  0.1432
 4535SOL    HW125238   0.856   1.560   5.223  0.5707 -0.6303 -0.3785
 4535SOL    HW225239   0.894   1.463   5.129  2.0550  2.2908  0.3745
 4536SOL     OW25240   1.449   0.564   9.317  0.2738 -0.1167  0.1183
 4536SOL    HW125241   1.375   0.625   9.319 -0.6396 -1.1943 -0.5565
 4536SOL    HW225242   1.450   0.540   9.410 -0.0339  1.3423  0.4984
 4537SOL     OW25243   0.439   1.875  11.330  0.3754  0.1659  0.0259
 4537SOL    HW125244   0.442   1.961  11.371 -2.3913  1.3183 -2.2413
 4537SOL    HW225245   0.495   1.827  11.391 -0.5163 -0.9116 -0.0016
 4538SOL     OW25246   1.552   1.780   8.966 -0.1806 -0.0547 -0.1415
 4538SOL    HW125247   1.465   1.802   8.998 -1.0862 -1.5547 -1.5728
 4538SOL    HW225248   1.550   1.684   8.972 -3.2741 -0.0552 -1.3649
 4539SOL     OW25249   1.047   4.132   2.230 -0.0836 -0.2669  0.2695
 4539SOL    HW125250   0.957   4.158   2.249  0.5584  2.2264 -0.1224
 4539SOL    HW225251   1.080   4.109   2.318  1.8353 -0.8085 -0.5956
 4540SOL     OW25252   2.174   1.072   3.471  0.7548  0.0450  0.8592
 4540SOL    HW125253   2.123   1.146   3.503 -0.7194 -0.7365  0.3070
 4540SOL    HW225254   2.242   1.072   3.539  0.1264 -1.2934  1.5050
 4541SOL     OW25255   3.928   2.762  13.610  0.1527  0.5635 -0.6294
 4541SOL    HW125256   3.876   2.837  13.579  1.7618  0.5682 -3.3084
 4541SOL    HW225257   4.014   2.803  13.622  0.9288 -0.9990 -0.9815
 4542SOL     OW25258   0.336   2.124   6.537  0.1990 -1.2161  0.0420
 4542SOL    HW125259   0.240   2.120   6.534  0.1295  0.6988 -0.7321
 4542SOL    HW225260   0.336   2.106   6.631 -0.1415 -0.0423  0.2691
 4543SOL     OW25261   0.742   3.926   9.105 -0.3361 -0.9298  0.1022
 4543SOL    HW125262   0.789   3.880   9.175 -0.5763 -0.0652  0.8351
 4543SOL    HW225263   0.783   3.886   9.029  1.9029  0.4618  0.5846
 4544SOL     OW25264   1.603   0.819   0.093 -0.0587 -0.4827 -0.0778
 4544SOL    HW125265   1.589   0.757   0.022 -3.1755  1.3033 -0.9864
 4544SOL    HW225266   1.662   0.877   0.044  2.8074 -1.0129  2.6959
 4545SOL     OW25267   4.430   0.915   2.496 -0.1364 -0.2528 -0.4061
 4545SOL    HW125268   4.497   0.879   2.554  0.5997 -0.1109 -1.1653
 4545SOL    HW225269   4.367   0.843   2.504  0.1533 -0.4232  0.3793
 4546SOL     OW25270   3.650   3.172   9.338 -0.5925  0.4043 -0.0407
 4546SOL    HW125271   3.628   3.221   9.417  1.2874  1.1648  0.0023
 4546SOL    HW225272   3.588   3.100   9.351 -2.3149  1.2825 -3.2577
 4547SOL     OW25273   0.964   2.590   3.174 -0.1344 -0.0683  0.1828
 4547SOL    HW125274   0.970   2.494   3.167  0.7425 -0.2173  2.7410
 4547SOL    HW225275   1.043   2.616   3.126 -0.2297  1.4015  0.8320
 4548SOL     OW25276   3.750   4.120   9.755  0.6305 -0.4420 -0.2692
 4548SOL    HW125277   3.662   4.152   9.779  1.2018  2.5692 -2.1164
 4548SOL    HW225278   3.786   4.196   9.709  0.8580  0.7974  1.9229
 4549SOL     OW25279   2.485   4.308  11.615 -0.0337 -0.4337 -0.0017
 4549SOL    HW125280   2.473   4.263  11.698  0.7197  0.9373  0.8397
 4549SOL    HW225281   2.455   4.238  11.557 -0.6755 -0.2098  0.0625
 4550SOL     OW25282   1.915   3.257   2.938 -0.0860  0.1066  0.1088
 4550SOL    HW125283   1.904   3.261   3.033  0.1540  1.0959  0.0918
 4550SOL    HW225284   1.855   3.324   2.903 -1.1133  0.6462  2.9353
 4551SOL     OW25285   1.599   2.131   4.692  0.6207 -0.0096 -0.3569
 4551SOL    HW125286   1.572   2.185   4.617  1.8668  2.3515  0.8949
 4551SOL    HW225287   1.679   2.172   4.726 -0.7186  1.5034  0.9396
 4552SOL     OW25288   3.735   3.980   1.646  0.7160 -0.0347  0.8606
 4552SOL    HW125289   3.693   3.895   1.638 -0.9152  1.0151 -1.8053
 4552SOL    HW225290   3.658   4.032   1.666  1.0399  0.7105  0.1791
 4553SOL     OW25291   1.092   1.895   3.532  0.4931 -0.0190 -0.6835
 4553SOL    HW125292   1.160   1.945   3.577  2.0845 -2.9559  0.1975
 4553SOL    HW225293   1.091   1.817   3.587  1.0359  0.4657  0.0054
 4554SOL     OW25294   0.197   1.284   9.051  0.5780 -0.1627 -0.2940
 4554SOL    HW125295   0.233   1.220   8.989  0.7297 -0.7254  0.3677
 4554SOL    HW225296   0.276   1.311   9.099 -0.8808 -0.7392  2.4700
 4555SOL     OW25297   4.616   4.062  10.154  0.0981 -0.6316 -0.1863
 4555SOL    HW125298   4.668   4.142  10.161 -1.1546  0.1809 -0.1812
 4555SOL    HW225299   4.543   4.098  10.103 -0.8289 -3.0402 -0.5568
 4556SOL     OW25300   2.337   2.045  13.223  0.2661  0.0328 -0.6442
 4556SOL    HW125301   2.315   2.116  13.162  0.1307 -0.0346 -0.6742
 4556SOL    HW225302   2.339   1.968  13.166 -0.8832 -1.3310  1.1815
 4557SOL     OW25303   2.823   1.509   2.121  0.6898 -0.5965  0.0925
 4557SOL    HW125304   2.827   1.414   2.108 -0.4412 -0.3668 -1.9715
 4557SOL    HW225305   2.730   1.517   2.140  0.8021 -0.0910  0.4431
 4558SOL     OW25306   2.551   0.773   7.274  0.2614 -0.1609 -0.4973
 4558SOL    HW125307   2.601   0.816   7.344  0.1227 -2.8493  1.2195
 4558SOL    HW225308   2.462   0.774   7.307  1.2662 -0.9199  2.2205
 4559SOL     OW25309   1.013   3.627   5.858 -0.7973 -0.2318  0.7678
 4559SOL    HW125310   1.080   3.686   5.824 -0.9658 -1.7594 -2.2632
 4559SOL    HW225311   1.010   3.566   5.784 -0.4458 -0.1514  0.6913
 4560SOL     OW25312   0.840   1.622   9.572 -0.1467 -0.0523  0.2330
 4560SOL    HW125313   0.845   1.633   9.667  1.2589  0.9374  0.0356
 4560SOL    HW225314   0.923   1.576   9.560 -1.2047 -2.4206  2.0404
 4561SOL     OW25315   2.396   2.900   9.157 -0.1235 -0.0530  0.0387
 4561SOL    HW125316   2.410   2.805   9.161  2.2714  0.3584  1.3476
 4561SOL    HW225317   2.424   2.915   9.067 -0.5391  0.0137 -0.0832
 4562SOL     OW25318   0.526   0.822  13.803 -0.0259 -0.2156  0.3885
 4562SOL    HW125319   0.446   0.873  13.821 -0.5310 -0.9592  0.2651
 4562SOL    HW225320   0.495   0.732  13.811 -0.4624 -0.0676  0.3662
 4563SOL     OW25321   2.017   0.035  11.624  0.2332 -0.1209 -0.0331
 4563SOL    HW125322   2.108   0.009  11.636  0.1131  1.4508  4.5492
 4563SOL    HW225323   1.984   4.733  11.705  0.3768 -0.6205 -0.2227
 4564SOL     OW25324   1.780   2.259   6.299 -0.4484  0.1447  0.2230
 4564SOL    HW125325   1.813   2.170   6.306  1.4777  0.8925  0.6793
 4564SOL    HW225326   1.762   2.261   6.205 -0.9248 -1.3727  0.2950
 4565SOL     OW25327   2.505   3.175   5.902  0.0242 -0.0062  0.1196
 4565SOL    HW125328   2.421   3.135   5.877 -0.5830  2.7647 -2.2756
 4565SOL    HW225329   2.554   3.154   5.823  2.9374 -0.6309  2.1026
 4566SOL     OW25330   1.783   0.254   8.508 -0.1561 -0.9076  0.5584
 4566SOL    HW125331   1.713   0.267   8.572 -1.0988  0.3039 -0.6968
 4566SOL    HW225332   1.787   0.345   8.477  0.8324 -0.7094  1.2576
 4567SOL     OW25333   3.471   2.940   9.439 -0.3125 -0.0407  0.1508
 4567SOL    HW125334   3.501   2.854   9.469 -0.2233 -1.3842 -3.7870
 4567SOL    HW225335   3.402   2.920   9.375 -1.4196  0.4731  1.1921
 4568SOL     OW25336   3.227   4.520   6.887  0.3695 -0.2080 -0.3764
 4568SOL    HW125337   3.197   4.442   6.934 -1.1604  0.3634 -0.3903
 4568SOL    HW225338   3.322   4.514   6.892  0.3848 -0.1866 -0.6348
 4569SOL     OW25339   1.575   1.510   9.070 -0.0603  0.0120 -0.2454
 4569SOL    HW125340   1.531   1.513   9.155 -3.7340 -1.0267 -2.1413
 4569SOL    HW225341   1.529   1.447   9.015  0.6544  0.3159 -1.2014
 4570SOL     OW25342   3.445   2.763   3.453  0.7431 -0.2240  0.2513
 4570SOL    HW125343   3.438   2.766   3.358 -0.8195 -0.4612  0.3609
 4570SOL    HW225344   3.506   2.835   3.468  1.6465 -0.7345 -0.9995
 4571SOL     OW25345   4.587   4.428   0.600 -0.2120 -0.0924 -0.4026
 4571SOL    HW125346   4.626   4.349   0.563  4.0359  1.4887  0.7533
 4571SOL    HW225347   4.531   4.457   0.528 -1.8001  0.5839  1.0714
 4572SOL     OW25348   4.733   1.351   5.502  0.2321 -0.5970  0.1283
 4572SOL    HW125349   4.641   1.352   5.531 -0.3535  3.1751 -1.8383
 4572SOL    HW225350   0.003   1.437   5.462 -1.8707  0.3326  1.7376
 4573SOL     OW25351   3.294   4.237   2.770  0.0606 -0.2486 -0.1085
 4573SOL    HW125352   3.375   4.188   2.785 -0.3206 -1.1223 -0.8839
 4573SOL    HW225353   3.321   4.326   2.793 -1.8028  0.6743 -1.4869
 4574SOL     OW25354   4.232   1.353   6.476  0.5044 -0.0005 -0.2014
 4574SOL    HW125355   4.194   1.355   6.388  0.0179  0.6752  0.0163
 4574SOL    HW225356   4.192   1.434   6.509  1.9731  0.3073  0.7996
 4575SOL     OW25357   3.720   0.045   6.275 -0.4699 -0.1246 -0.0320
 4575SOL    HW125358   3.728   0.139   6.291 -1.4648  0.2329 -1.6278
 4575SOL    HW225359   3.671   0.051   6.193 -0.2712 -0.0883 -0.1472
 4576SOL     OW25360   2.955   0.911   3.270 -0.0491 -0.0270  0.0269
 4576SOL    HW125361   2.867   0.948   3.271 -0.1496 -0.2380 -1.0491
 4576SOL    HW225362   2.960   0.859   3.350 -2.2138 -2.4814 -1.4293
 4577SOL     OW25363   3.630   0.862   7.419 -0.0221 -0.0163  0.1619
 4577SOL    HW125364   3.625   0.824   7.332 -0.0544  1.0794 -0.3141
 4577SOL    HW225365   3.540   0.849   7.451  0.3720 -0.9518  0.8845
 4578SOL     OW25366   0.446   0.786   6.673  0.2090  0.2615  0.3911
 4578SOL    HW125367   0.370   0.788   6.615  0.1109  0.6387  0.5313
 4578SOL    HW225368   0.507   0.767   6.602 -1.2817 -1.5440 -0.3895
 4579SOL     OW25369   2.510   4.525   7.523 -0.1736  0.0213 -0.5609
 4579SOL    HW125370   2.603   4.505   7.508 -0.1740 -1.5716  1.5483
 4579SOL    HW225371   2.470   4.531   7.437 -0.6048  1.4770 -0.2595
 4580SOL     OW25372   3.966   2.850   5.555 -0.2356 -0.5047  0.1320
 4580SOL    HW125373   4.053   2.840   5.516 -0.4035 -1.9445  0.1425
 4580SOL    HW225374   3.923   2.783   5.502  0.4043  0.8164 -2.0587
 4581SOL     OW25375   4.333   0.378  17.312 -0.3075  0.1917  0.4620
 4581SOL    HW125376   4.386   0.410  17.238  0.4232  0.2448  1.0101
 4581SOL    HW225377   4.246   0.365  17.273 -0.2566  1.5412 -0.1376
 4582SOL     OW25378   3.725   0.554  17.100  0.1667 -0.4987  0.4023
 4582SOL    HW125379   3.796   0.583  17.157 -1.4812  0.6669  1.8385
 4582SOL    HW225380   3.687   0.483  17.152  1.5790 -0.9760  0.7777
 4583SOL     OW25381   0.913   1.940   3.054 -0.7843  0.1276 -0.0768
 4583SOL    HW125382   0.980   1.878   3.026  2.4257  3.2715  0.6334
 4583SOL    HW225383   0.950   1.972   3.137  0.1043  0.4992 -0.6141
 4584SOL     OW25384   1.904   2.045   5.829  0.5133  0.2944 -0.1857
 4584SOL    HW125385   1.885   2.093   5.749 -1.1697 -1.7027 -1.0005
 4584SOL    HW225386   1.835   1.978   5.825 -0.4942  1.3161  0.1243
 4585SOL     OW25387   4.225   1.993   5.804 -0.0896  0.2823 -0.3353
 4585SOL    HW125388   4.252   1.963   5.717  0.1522 -2.3182  0.6513
 4585SOL    HW225389   4.193   2.081   5.784 -0.1940  0.2127 -0.4746
 4586SOL     OW25390   3.534   0.617  13.988  0.4159 -0.0855  0.2831
 4586SOL    HW125391   3.593   0.545  14.009 -0.0861 -0.4293  0.5220
 4586SOL    HW225392   3.480   0.618  14.067 -2.8880 -0.7178 -1.9532
 4587SOL     OW25393   2.795   2.569   1.813 -0.4228  0.3008  0.3274
 4587SOL    HW125394   2.820   2.634   1.747  2.1123  0.6039  1.5977
 4587SOL    HW225395   2.773   2.631   1.882 -0.8614  2.0413 -1.3657
 4588SOL     OW25396   1.340   4.565   2.521  0.3772  0.7079 -0.4308
 4588SOL    HW125397   1.330   4.658   2.501  1.9753  0.8639 -0.5299
 4588SOL    HW225398   1.433   4.542   2.526 -0.1166 -0.9389  0.9541
 4589SOL     OW25399   0.299   0.219   7.567 -0.2081 -0.6400 -0.3645
 4589SOL    HW125400   0.225   0.279   7.556  0.6652  0.3491 -0.7971
 4589SOL    HW225401   0.268   0.131   7.590 -2.0821  0.1294  0.0664
 4590SOL     OW25402   1.559   1.250   3.275 -0.2635 -0.0932 -0.8515
 4590SOL    HW125403   1.467   1.229   3.287  0.3385 -1.9938  0.4218
 4590SOL    HW225404   1.546   1.344   3.267  1.0555  0.2972  1.8473
 4591SOL     OW25405   3.243   4.484  13.836 -0.6480 -0.7766  0.1721
 4591SOL    HW125406   3.223   4.485  13.742  1.6374  0.7540 -0.3234
 4591SOL    HW225407   3.305   4.411  13.831  0.4311 -0.0727  3.1066
 4592SOL     OW25408   1.747   0.017   7.101 -0.0119  0.0740 -0.6499
 4592SOL    HW125409   1.785   0.014   7.013 -2.6992  1.6127 -1.8853
 4592SOL    HW225410   1.826   0.013   7.154 -2.1764  3.1717  2.7676
 4593SOL     OW25411   2.155   3.210   6.740 -0.3104 -0.4091  0.3600
 4593SOL    HW125412   2.216   3.240   6.672  1.9800 -0.2113  2.5030
 4593SOL    HW225413   2.208   3.216   6.819  0.7626  1.4245 -0.4949
 4594SOL     OW25414   0.448   2.234   4.428 -0.2398 -0.1438  0.5754
 4594SOL    HW125415   0.509   2.219   4.356 -1.2333 -1.3182 -0.0171
 4594SOL    HW225416   0.401   2.151   4.426 -0.8671  0.2131  0.3038
 4595SOL     OW25417   1.222   4.043  15.278 -0.0309 -0.1476 -0.7211
 4595SOL    HW125418   1.279   4.101  15.229 -0.4765  0.3083 -0.7037
 4595SOL    HW225419   1.288   3.976  15.295  0.2055  1.1941  3.6681
 4596SOL     OW25420   3.134   2.568   0.228  0.1092 -0.0546 -0.4794
 4596SOL    HW125421   3.225   2.594   0.233 -0.1581  1.3285 -3.5209
 4596SOL    HW225422   3.091   2.645   0.266  0.9211  2.2930 -4.3905
 4597SOL     OW25423   0.482   2.818   5.383  0.2011  0.2779  0.3081
 4597SOL    HW125424   0.551   2.884   5.392 -0.4555  1.0730 -0.3983
 4597SOL    HW225425   0.513   2.767   5.308 -1.2183 -0.3890  0.1756
 4598SOL     OW25426   2.392   2.862  17.523  0.0797  0.3552  0.2627
 4598SOL    HW125427   2.483   2.884  17.504 -0.2886  1.5641 -0.1236
 4598SOL    HW225428   2.358   2.940  17.479  0.0966 -0.2894 -0.9191
 4599SOL     OW25429   2.411   1.759   9.599 -0.1468 -0.3616 -0.1946
 4599SOL    HW125430   2.374   1.825   9.541  0.2677 -1.7940 -2.0668
 4599SOL    HW225431   2.418   1.816   9.677 -3.5416 -1.2439  0.7317
 4600SOL     OW25432   2.801   1.791   6.840  0.7731  0.5182  0.1889
 4600SOL    HW125433   2.735   1.860   6.857  0.5749 -0.1629  2.2410
 4600SOL    HW225434   2.885   1.830   6.865  1.6457 -1.0053 -0.4049
 4601SOL     OW25435   3.810   0.248  11.608  0.2190 -0.4417  0.5199
 4601SOL    HW125436   3.754   0.265  11.532  1.1122  0.2495  0.0252
 4601SOL    HW225437   3.899   0.263  11.577 -0.4734 -0.9733 -1.6842
 4602SOL     OW25438   4.603   3.177   3.440  0.1396 -0.1658 -0.4458
 4602SOL    HW125439   4.692   3.183   3.406  0.3262  0.7265  0.1815
 4602SOL    HW225440   4.603   3.091   3.481  0.3720 -1.0838 -2.3626
 4603SOL     OW25441   2.106   0.665  13.262 -0.4199  0.1587  0.6952
 4603SOL    HW125442   2.029   0.619  13.295  0.0786 -1.3390 -0.2398
 4603SOL    HW225443   2.065   0.747  13.232  0.2226 -0.9669 -3.2786
 4604SOL     OW25444   3.302   2.853   1.231 -0.6007 -0.1225  0.0232
 4604SOL    HW125445   3.315   2.780   1.169 -0.3120 -0.1857  0.1597
 4604SOL    HW225446   3.314   2.925   1.169 -2.3409  2.6793  2.9369
 4605SOL     OW25447   3.546   3.591   9.304  0.6419  0.1769 -0.1751
 4605SOL    HW125448   3.570   3.643   9.227  0.4169  2.0422  1.0373
 4605SOL    HW225449   3.453   3.614   9.309  0.2563 -0.6379 -3.2237
 4606SOL     OW25450   1.102   4.699  16.737 -0.0238  0.1160  0.0252
 4606SOL    HW125451   1.112   0.019  16.814 -2.8567  1.7793 -0.8563
 4606SOL    HW225452   1.190   4.661  16.732 -0.2990 -0.7322  1.6265
 4607SOL     OW25453   2.525   0.551  17.124  0.4273  0.2009 -0.4229
 4607SOL    HW125454   2.430   0.565  17.120  0.0535 -1.3026  3.3822
 4607SOL    HW225455   2.537   0.498  17.203 -1.3119 -1.9122 -1.5842
 4608SOL     OW25456   3.531   0.808  11.294  0.5446 -0.1141 -0.1851
 4608SOL    HW125457   3.449   0.828  11.339  0.7422 -1.8757  0.9826
 4608SOL    HW225458   3.589   0.857  11.352 -1.0376 -0.6116  1.8249
 4609SOL     OW25459   1.734   3.410   1.716 -0.1095  0.5849  0.9210
 4609SOL    HW125460   1.800   3.433   1.651 -0.2390 -0.3853  0.4399
 4609SOL    HW225461   1.786   3.415   1.796  1.6035 -0.9310 -0.0799
 4610SOL     OW25462   4.282   3.415   5.959  0.6014 -0.0412 -0.4758
 4610SOL    HW125463   4.186   3.414   5.951  0.3079  1.3230  2.6626
 4610SOL    HW225464   4.316   3.370   5.882  1.1959  1.2378 -0.9611
 4611SOL     OW25465   4.469   2.807   8.381 -0.1491  0.1413 -0.0609
 4611SOL    HW125466   4.487   2.788   8.289 -2.5870  1.2784 -0.7680
 4611SOL    HW225467   4.473   2.903   8.383  0.6580  0.0969  0.9925
 4612SOL     OW25468   1.786   3.101   1.667  0.0427 -0.5033  0.3842
 4612SOL    HW125469   1.738   3.089   1.749  0.3562 -1.4715  0.4315
 4612SOL    HW225470   1.817   3.191   1.664  0.1558 -0.5618 -0.2650
 4613SOL     OW25471   4.696   1.435   9.590 -0.0178 -0.0608  0.1659
 4613SOL    HW125472   0.046   1.467   9.570  0.6827 -1.7147  0.5798
 4613SOL    HW225473   4.687   1.361   9.530 -0.1861  0.3020 -0.2552
 4614SOL     OW25474   4.722   2.738   3.088 -0.0907  0.2182  0.0183
 4614SOL    HW125475   4.680   2.728   3.174  1.1444 -0.8114  0.5037
 4614SOL    HW225476   0.057   2.676   3.094  1.1988  1.5355 -1.7898
 4615SOL     OW25477   2.052   1.220   3.687  0.2056 -0.5196  0.2646
 4615SOL    HW125478   2.138   1.180   3.700  0.8121  0.1581 -1.7739
 4615SOL    HW225479   2.035   1.232   3.781  1.0455  2.0751  0.0905
 4616SOL     OW25480   1.188   3.314  11.164  0.8111 -0.4052  0.0729
 4616SOL    HW125481   1.151   3.376  11.228  0.4751  0.0785 -0.5852
 4616SOL    HW225482   1.278   3.300  11.193  0.5269  1.7168  1.9475
 4617SOL     OW25483   1.302   2.519   9.433  0.0987  0.1882  0.0066
 4617SOL    HW125484   1.218   2.557   9.458  0.2007 -0.5323  1.4266
 4617SOL    HW225485   1.356   2.593   9.460  2.8370 -1.8069 -0.1007
 4618SOL     OW25486   0.735   0.580   5.312 -0.2189 -0.4531  0.1189
 4618SOL    HW125487   0.747   0.591   5.406  1.6199 -1.1707 -0.0271
 4618SOL    HW225488   0.764   0.664   5.276  1.7926 -1.0949  0.2430
 4619SOL     OW25489   3.098   2.166   4.862 -0.2442  0.3179 -0.3089
 4619SOL    HW125490   3.031   2.198   4.801  0.2659  0.6607 -0.6937
 4619SOL    HW225491   3.049   2.171   4.944  1.7502 -1.6614  0.9876
 4620SOL     OW25492   1.479   1.700   7.413  0.0944  0.3337  0.1779
 4620SOL    HW125493   1.533   1.646   7.470 -0.7126 -0.1473  0.4961
 4620SOL    HW225494   1.393   1.661   7.431  0.6142 -1.6893 -1.7390
 4621SOL     OW25495   0.991   2.506   0.930 -0.1206 -0.1083 -0.0522
 4621SOL    HW125496   0.952   2.420   0.944  1.1764 -0.0912  3.8191
 4621SOL    HW225497   0.960   2.548   1.010 -1.3462 -0.8026 -0.1642
 4622SOL     OW25498   2.720   2.386  15.668  0.2719  0.1641  0.2463
 4622SOL    HW125499   2.698   2.431  15.586 -0.6031  0.7012  0.7738
 4622SOL    HW225500   2.664   2.441  15.722 -2.6016 -1.2998 -1.2808
 4623SOL     OW25501   2.064   3.776  11.507 -0.1384  0.2428  0.0027
 4623SOL    HW125502   2.087   3.696  11.554  3.4556 -0.2353 -2.5742
 4623SOL    HW225503   1.982   3.749  11.468  0.7625  0.6931 -2.1994
 4624SOL     OW25504   3.989   0.053   5.532 -0.3865  0.3446 -0.3277
 4624SOL    HW125505   4.006   4.705   5.493  1.8060  0.1262  1.1239
 4624SOL    HW225506   3.939   0.021   5.607 -0.6319  3.0572  0.6503
 4625SOL     OW25507   1.659   4.695   6.377 -0.0337 -0.1269 -0.8627
 4625SOL    HW125508   1.616   4.728   6.297  0.4141 -0.9650 -1.4554
 4625SOL    HW225509   1.701   4.616   6.342 -0.5143 -1.1933  0.9896
 4626SOL     OW25510   2.103   2.582  13.785  0.3726  0.4459 -0.4645
 4626SOL    HW125511   2.048   2.564  13.709 -2.9324 -0.8501  2.2481
 4626SOL    HW225512   2.131   2.669  13.757  1.6741  0.1372 -0.1260
 4627SOL     OW25513   1.015   3.730   2.272  0.1294  0.4841  0.4207
 4627SOL    HW125514   0.970   3.645   2.282  1.5881 -0.3939 -0.4321
 4627SOL    HW225515   1.011   3.733   2.177  1.1445  1.4349  0.4207
 4628SOL     OW25516   0.352   2.291   9.529 -0.0629  0.0340 -0.0268
 4628SOL    HW125517   0.401   2.257   9.453 -0.9449 -1.1222 -0.0700
 4628SOL    HW225518   0.421   2.299   9.595  0.1292 -1.2381 -0.0705
 4629SOL     OW25519   0.398   0.427   8.897 -0.3199 -0.0611 -0.6860
 4629SOL    HW125520   0.376   0.463   8.983  2.1792  2.0130 -0.9307
 4629SOL    HW225521   0.493   0.424   8.901 -0.3838  0.3906  1.1975
 4630SOL     OW25522   3.634   0.815   1.617  0.8134  0.3723  0.2410
 4630SOL    HW125523   3.596   0.903   1.610 -2.4084 -0.7508  3.5032
 4630SOL    HW225524   3.714   0.835   1.569  1.1081 -0.8766  0.2203
 4631SOL     OW25525   1.218   3.158   3.828 -0.7341  0.3808  0.4595
 4631SOL    HW125526   1.208   3.068   3.797 -1.2810 -0.3580  2.7653
 4631SOL    HW225527   1.173   3.191   3.751  0.6536  1.7855  0.2563
 4632SOL     OW25528   1.513   2.434   2.198  0.6173 -0.1293  0.3243
 4632SOL    HW125529   1.562   2.452   2.279  0.3666 -2.1631  0.9303
 4632SOL    HW225530   1.511   2.339   2.212  0.3297 -0.4100 -1.6003
 4633SOL     OW25531   2.074   3.212   4.801  0.0806  0.0555  0.1752
 4633SOL    HW125532   2.028   3.140   4.844  0.6130  0.4005  1.3211
 4633SOL    HW225533   2.006   3.266   4.761 -0.1935 -2.8144 -3.2384
 4634SOL     OW25534   1.199   0.501  10.050  0.6212  0.6392  0.3175
 4634SOL    HW125535   1.229   0.478  10.138  1.7067  0.2514 -0.1546
 4634SOL    HW225536   1.194   0.597  10.048 -1.8473  0.5259  1.2891
 4635SOL     OW25537   4.332   2.933   6.581 -0.2565 -0.4381  0.9129
 4635SOL    HW125538   4.294   2.861   6.631 -2.0908  0.4594  0.8346
 4635SOL    HW225539   4.256   2.938   6.523 -0.2109 -1.1931  0.7949
 4636SOL     OW25540   4.011   3.076   6.839  0.6366  0.5198  0.2778
 4636SOL    HW125541   4.060   3.136   6.895 -0.1282  1.3450  0.0542
 4636SOL    HW225542   4.080   3.026   6.795  2.2176  0.1484  3.1933
 4637SOL     OW25543   3.453   3.372   2.250 -0.0534 -0.1725 -0.1612
 4637SOL    HW125544   3.481   3.362   2.159  1.0119  0.4533  0.0951
 4637SOL    HW225545   3.528   3.409   2.297  1.1538 -0.6291 -1.7079
 4638SOL     OW25546   0.518   4.204  10.758  0.6127  0.1836 -0.0998
 4638SOL    HW125547   0.437   4.252  10.742  1.5725  1.9930  0.5627
 4638SOL    HW225548   0.489   4.170  10.843 -1.8257  1.2536 -0.5087
 4639SOL     OW25549   0.297   2.311   4.622 -0.2072 -0.1134 -0.1997
 4639SOL    HW125550   0.361   2.283   4.557 -0.7207 -1.1830 -0.2464
 4639SOL    HW225551   0.255   2.390   4.587  0.0312  0.0847 -0.0365
 4640SOL     OW25552   1.775   3.679   7.324  0.3342  0.8085 -0.3253
 4640SOL    HW125553   1.727   3.654   7.245  0.2777  3.2352 -1.0540
 4640SOL    HW225554   1.856   3.629   7.316 -0.2340 -0.0557 -0.6940
 4641SOL     OW25555   3.636   1.304  14.245  0.0941  0.0657  0.3939
 4641SOL    HW125556   3.543   1.323  14.235  0.3043  1.3056  0.8479
 4641SOL    HW225557   3.648   1.308  14.340  0.1351  1.9424  0.3107
 4642SOL     OW25558   3.082   2.839   7.896 -0.0704 -0.1343  0.1505
 4642SOL    HW125559   3.169   2.858   7.931  0.8894 -0.8785 -1.8351
 4642SOL    HW225560   3.093   2.859   7.803 -1.0772  1.1930  0.3124
 4643SOL     OW25561   1.736   4.641   1.695 -0.4767 -0.1333  0.2150
 4643SOL    HW125562   1.752   4.687   1.777 -1.7375  0.4249  0.1509
 4643SOL    HW225563   1.820   4.618   1.655  0.3478  1.9488  0.7668
 4644SOL     OW25564   1.795   1.054  13.204 -0.5062 -0.3990  0.3143
 4644SOL    HW125565   1.746   1.111  13.144  1.3580  1.1763  0.2801
 4644SOL    HW225566   1.787   0.967  13.165 -0.0539  0.4144 -1.6341
 4645SOL     OW25567   4.685   0.983  15.030 -0.3696 -0.2929  0.2143
 4645SOL    HW125568   4.665   1.016  14.943  1.3356 -0.0026 -0.0676
 4645SOL    HW225569   4.691   0.889  15.014  0.9631 -0.4218  1.4579
 4646SOL     OW25570   2.046   4.123  17.482  0.0262  0.2216  0.1821
 4646SOL    HW125571   2.072   4.050  17.426  0.5767  0.9841 -0.5488
 4646SOL    HW225572   2.031   4.067  17.558  1.5548 -0.6903 -0.2035
 4647SOL     OW25573   1.623   1.283   3.597 -0.2531 -0.0212 -0.2914
 4647SOL    HW125574   1.566   1.283   3.520  1.1236  0.8947 -1.3186
 4647SOL    HW225575   1.583   1.210   3.645  0.7555  1.9665  3.5448
 4648SOL     OW25576   4.120   0.579   0.461  0.0943  0.8808 -0.1781
 4648SOL    HW125577   4.074   0.646   0.410  1.5614  0.3396 -2.2161
 4648SOL    HW225578   4.083   0.599   0.547  0.3253 -0.2555  0.1790
 4649SOL     OW25579   1.685   2.359   7.404  0.1053  0.2653  0.1420
 4649SOL    HW125580   1.643   2.445   7.414  0.7203  0.4071  1.5960
 4649SOL    HW225581   1.614   2.295   7.414 -0.6593  0.9026 -1.2487
 4650SOL     OW25582   1.490   4.334   7.231 -0.2201  0.0907  0.3726
 4650SOL    HW125583   1.578   4.307   7.259 -0.7140 -0.9590  0.9328
 4650SOL    HW225584   1.496   4.424   7.199  3.7477 -1.0699 -2.0409
 4651SOL     OW25585   0.173   3.874   4.625  0.5372 -0.4252 -0.3766
 4651SOL    HW125586   0.152   3.784   4.649 -1.2840  0.2590  0.6502
 4651SOL    HW225587   0.234   3.869   4.552  0.9346 -0.8309 -0.0181
 4652SOL     OW25588   3.116   3.680   1.350  0.4338  0.4629  0.0469
 4652SOL    HW125589   3.180   3.691   1.280 -1.5366 -3.6307 -2.3585
 4652SOL    HW225590   3.096   3.587   1.341 -2.4576  1.0710  0.3735
 4653SOL     OW25591   2.585   1.685  13.991 -0.1934  0.2287  0.0224
 4653SOL    HW125592   2.535   1.763  14.017  0.0849 -0.3345  2.2687
 4653SOL    HW225593   2.582   1.707  13.898  0.0882  0.2081  0.0101
 4654SOL     OW25594   3.924   2.711   1.377  0.1995 -0.5133 -0.2234
 4654SOL    HW125595   3.846   2.764   1.361  0.6201  0.4165  0.8832
 4654SOL    HW225596   3.990   2.776   1.399  0.3745 -0.4340 -0.9673
 4655SOL     OW25597   4.537   3.854  13.533  0.5190  0.2095  0.1098
 4655SOL    HW125598   4.446   3.829  13.523  0.7053 -0.1339 -0.7302
 4655SOL    HW225599   4.532   3.949  13.540  1.6818  0.3365 -0.7609
 4656SOL     OW25600   3.438   3.172  17.304 -0.2525 -0.5935  0.0450
 4656SOL    HW125601   3.421   3.105  17.238 -0.4580  0.1949 -0.6946
 4656SOL    HW225602   3.496   3.225  17.250  2.7229 -0.5671  3.2623
 4657SOL     OW25603   3.776   3.328  16.929 -0.2184  0.0771  0.1473
 4657SOL    HW125604   3.758   3.404  16.873 -0.5080 -0.1912 -0.1181
 4657SOL    HW225605   3.703   3.329  16.991 -1.3197  1.5993 -1.1818
 4658SOL     OW25606   0.542   2.196   2.930 -0.0234  0.4459 -0.0376
 4658SOL    HW125607   0.545   2.291   2.918  2.1232  0.2011 -1.2852
 4658SOL    HW225608   0.486   2.178   2.854 -1.3653  1.2035  0.7504
 4659SOL     OW25609   0.222   0.024  14.981  0.0437  0.3428 -0.2198
 4659SOL    HW125610   0.242   4.681  14.934 -1.4352 -0.9686  1.4275
 4659SOL    HW225611   0.154   4.737  15.043  0.2686  2.3594  0.8318
 4660SOL     OW25612   3.272   1.583   6.017  0.0577 -0.0645 -0.1189
 4660SOL    HW125613   3.289   1.574   5.924 -0.8879  1.8150 -0.4769
 4660SOL    HW225614   3.180   1.559   6.019 -0.5126  2.1121  0.6882
 4661SOL     OW25615   2.416   2.573  10.555 -0.7481  0.4735 -0.3688
 4661SOL    HW125616   2.441   2.588  10.647  0.5599 -1.4880 -0.4259
 4661SOL    HW225617   2.322   2.581  10.572 -0.5851  0.8387  0.4144
 4662SOL     OW25618   0.625   2.945   2.399  0.6286 -0.2250 -0.2404
 4662SOL    HW125619   0.688   2.905   2.340  2.3975  2.7469 -0.3733
 4662SOL    HW225620   0.575   2.865   2.415 -0.3812 -0.0656 -2.5775
 4663SOL     OW25621   1.812   3.818   5.868  0.0323  0.2322  0.3039
 4663SOL    HW125622   1.804   3.891   5.929  0.3469  1.1045 -0.7083
 4663SOL    HW225623   1.818   3.864   5.784 -0.9070  1.8697  1.1495
 4664SOL     OW25624   3.349   0.254   1.968 -0.6843  0.4788  0.2838
 4664SOL    HW125625   3.257   0.227   1.968 -1.0596  1.7973  1.1569
 4664SOL    HW225626   3.357   0.277   2.060  0.5351 -1.1756  0.5816
 4665SOL     OW25627   2.517   3.095   1.987  0.0348 -0.1469  0.5589
 4665SOL    HW125628   2.604   3.127   1.965 -0.2216  0.0138 -0.2103
 4665SOL    HW225629   2.474   3.079   1.903  0.3189 -0.0993  0.4059
 4666SOL     OW25630   2.884   2.334  10.031  0.5462 -0.0811  0.5163
 4666SOL    HW125631   2.827   2.411  10.025  0.3885 -0.1517  1.1575
 4666SOL    HW225632   2.924   2.338   9.944  0.5815 -0.1212  0.5303
 4667SOL     OW25633   2.663   3.128  17.384 -0.1325 -0.2459  0.5553
 4667SOL    HW125634   2.683   3.094  17.472  2.3997 -0.9965 -0.3171
 4667SOL    HW225635   2.748   3.149  17.347  1.2051 -1.8275  2.6929
 4668SOL     OW25636   0.295   2.656   8.247 -0.3126  0.1988  0.3562
 4668SOL    HW125637   0.286   2.570   8.289  1.9316 -1.7331 -3.1095
 4668SOL    HW225638   0.319   2.634   8.156 -0.1239  0.5592  0.3220
 4669SOL     OW25639   0.257   2.537   4.476 -0.1337 -0.3218 -0.1198
 4669SOL    HW125640   0.185   2.592   4.506 -1.1189 -0.8844 -1.4416
 4669SOL    HW225641   0.326   2.595   4.507  0.9017 -0.5043 -2.0811
 4670SOL     OW25642   0.051   3.816   6.887  0.1995  0.5123  0.6508
 4670SOL    HW125643   0.048   3.783   6.797  1.6684  0.0840  0.7600
 4670SOL    HW225644   0.001   3.756   6.943 -0.9364  0.3584 -0.5304
 4671SOL     OW25645   1.419   0.383  12.244  0.3030 -0.1601 -0.1820
 4671SOL    HW125646   1.351   0.449  12.230  0.9773  0.2328 -1.5883
 4671SOL    HW225647   1.367   0.304  12.227  2.3884 -1.0620 -2.3732
 4672SOL     OW25648   0.413   4.120   3.878 -0.2562 -0.4446 -0.4960
 4672SOL    HW125649   0.399   4.061   3.804 -0.1499  1.4964 -2.0589
 4672SOL    HW225650   0.324   4.136   3.909 -0.9205  0.5539 -2.9781
 4673SOL     OW25651   2.920   0.365   5.656 -0.4858 -0.1159 -0.2617
 4673SOL    HW125652   2.986   0.295   5.653 -0.5533 -0.1672 -0.6092
 4673SOL    HW225653   2.842   0.308   5.654  0.6622 -1.6567 -0.9767
 4674SOL     OW25654   1.244   0.291   4.680  0.6041  0.2886  0.6024
 4674SOL    HW125655   1.280   0.261   4.597 -0.8507  1.8343 -0.5861
 4674SOL    HW225656   1.237   0.209   4.729 -0.2226 -0.3414 -0.5908
 4675SOL     OW25657   2.578   3.963  14.875  1.3238  0.4128 -0.2020
 4675SOL    HW125658   2.509   3.907  14.912  2.3460 -0.4557  0.3825
 4675SOL    HW225659   2.541   3.969  14.787 -0.0566  0.9845  0.4133
 4676SOL     OW25660   4.289   3.194   6.266 -0.1139 -0.5009  0.0928
 4676SOL    HW125661   4.326   3.248   6.336 -0.5764  0.1226 -0.1470
 4676SOL    HW225662   4.347   3.201   6.190 -0.3320 -2.0846 -0.2167
 4677SOL     OW25663   4.331   1.924  17.162  0.1254 -0.0785  0.5066
 4677SOL    HW125664   4.358   1.865  17.232  0.1623 -1.0484 -0.3187
 4677SOL    HW225665   4.333   1.858  17.092  0.6314 -0.3652  0.7910
 4678SOL     OW25666   0.607   1.748  11.483 -0.3365  0.7806 -0.4137
 4678SOL    HW125667   0.642   1.753  11.571 -1.2227  0.1999 -0.0233
 4678SOL    HW225668   0.679   1.786  11.432 -0.7500  1.9881 -0.0732
 4679SOL     OW25669   1.699   1.158   9.409  0.1097 -0.1370  0.4755
 4679SOL    HW125670   1.795   1.158   9.408  0.1375 -1.1160  2.5776
 4679SOL    HW225671   1.697   1.216   9.333 -0.2143 -0.2257  0.4174
 4680SOL     OW25672   2.432   4.596  16.633 -0.4451  0.2566 -0.4074
 4680SOL    HW125673   2.342   4.592  16.602 -0.4679  0.2614 -0.3412
 4680SOL    HW225674   2.427   4.684  16.670 -0.1515 -1.0314  2.6906
 4681SOL     OW25675   3.896   1.291   8.776 -0.2707  0.0127 -0.8763
 4681SOL    HW125676   3.902   1.382   8.807 -0.2500 -0.1239 -0.4835
 4681SOL    HW225677   3.834   1.312   8.706 -1.0218 -0.2408 -0.2844
 4682SOL     OW25678   0.626   2.559   5.364 -0.2316  0.7578 -0.1587
 4682SOL    HW125679   0.580   2.608   5.296  0.1169 -1.7297 -2.2191
 4682SOL    HW225680   0.557   2.539   5.426 -0.8940  3.2380 -0.1032
 4683SOL     OW25681   1.752   2.098   2.295 -0.5159  0.1481  0.0900
 4683SOL    HW125682   1.815   2.169   2.284  0.6705 -1.0345 -0.6767
 4683SOL    HW225683   1.805   2.027   2.259 -0.3353  0.9444 -1.2320
 4684SOL     OW25684   1.392   1.481   2.294 -0.3204 -0.0307 -0.2295
 4684SOL    HW125685   1.412   1.570   2.265  0.5151  0.3901  1.6175
 4684SOL    HW225686   1.425   1.479   2.384 -1.0201 -0.1828  0.0250
 4685SOL     OW25687   4.084   0.865   8.833 -0.2882 -0.1582  0.2650
 4685SOL    HW125688   4.039   0.854   8.749 -2.3229 -0.7228  1.4590
 4685SOL    HW225689   4.132   0.943   8.803  0.0361 -0.3453  0.2985
 4686SOL     OW25690   3.187   1.950  14.690  0.8124 -0.7240 -0.0798
 4686SOL    HW125691   3.098   1.917  14.689  0.3701  0.5084 -1.2002
 4686SOL    HW225692   3.208   1.938  14.783  2.2623  0.4832 -0.2378
 4687SOL     OW25693   4.134   0.567   2.781  0.3163  0.5759  0.2589
 4687SOL    HW125694   4.152   0.479   2.747  0.1494  0.1355  1.3152
 4687SOL    HW225695   4.041   0.570   2.756 -0.0733  1.7983  1.8385
 4688SOL     OW25696   2.391   3.928   9.232  0.0878 -0.2289  0.5064
 4688SOL    HW125697   2.413   3.958   9.144 -0.4293 -0.0897  0.4253
 4688SOL    HW225698   2.371   3.836   9.219 -1.5599  0.3943 -1.3107
 4689SOL     OW25699   3.732   0.284   6.849 -0.5159  0.2054 -0.7079
 4689SOL    HW125700   3.808   0.337   6.870  0.1037 -0.2432 -1.8598
 4689SOL    HW225701   3.749   0.222   6.920 -1.9832 -0.6074 -1.0685
 4690SOL     OW25702   3.743   3.128   3.028  0.2768  0.4153 -0.2792
 4690SOL    HW125703   3.833   3.136   2.996  0.2816  1.7226  0.0651
 4690SOL    HW225704   3.715   3.217   3.049 -2.3427 -0.0931 -1.5691
 4691SOL     OW25705   4.384   4.710  13.232  0.4113 -0.1138 -0.3369
 4691SOL    HW125706   4.343   4.710  13.145 -1.7358  0.8463  0.6643
 4691SOL    HW225707   4.321   0.031  13.274 -0.3137 -1.0198 -0.1552
 4692SOL     OW25708   0.714   2.395  16.882 -0.0715  0.3450 -0.3937
 4692SOL    HW125709   0.700   2.324  16.819 -1.1313  0.7309 -0.5966
 4692SOL    HW225710   0.760   2.468  16.839  0.7766 -1.1601 -2.0368
 4693SOL     OW25711   1.101   2.071   3.871  0.6710 -0.5732  0.4396
 4693SOL    HW125712   1.073   2.056   3.961 -1.1502 -2.7574 -0.4610
 4693SOL    HW225713   1.018   2.073   3.823  1.1703 -2.3227 -0.4898
 4694SOL     OW25714   3.469   2.680   9.632 -0.1361 -0.2530  0.0414
 4694SOL    HW125715   3.477   2.614   9.563 -0.3564  1.1732 -1.3462
 4694SOL    HW225716   3.406   2.650   9.697 -0.4776 -1.7881 -1.0087
 4695SOL     OW25717   3.321   2.466   3.729  0.0538  0.2254  0.4525
 4695SOL    HW125718   3.388   2.487   3.794  1.7760  0.7242 -1.5264
 4695SOL    HW225719   3.246   2.504   3.775 -0.0500  0.3056  0.2128
 4696SOL     OW25720   0.493   4.003   8.640  0.0618 -0.0791 -0.2828
 4696SOL    HW125721   0.461   4.054   8.566  1.4309  0.7998 -0.2672
 4696SOL    HW225722   0.413   3.960   8.671  1.0766 -0.8790  1.2607
 4697SOL     OW25723   4.103   1.071   1.542 -0.4225  0.3170  0.2533
 4697SOL    HW125724   4.081   1.034   1.456  0.5643 -0.4036  0.3128
 4697SOL    HW225725   4.191   1.107   1.533 -0.0854 -0.2325  1.4469
 4698SOL     OW25726   4.047   1.154   7.541 -0.0610 -0.3223  0.3749
 4698SOL    HW125727   3.954   1.176   7.542  0.0627  0.2573 -0.8462
 4698SOL    HW225728   4.085   1.230   7.583 -0.7990 -0.7857  1.8681
 4699SOL     OW25729   0.927   0.097   5.586 -0.2942  0.2541  0.2425
 4699SOL    HW125730   0.972   0.055   5.513  1.4993  2.1302  0.2646
 4699SOL    HW225731   0.925   0.193   5.581  1.9174  0.2604 -0.6589
 4700SOL     OW25732   3.710   1.060  15.366  0.0926 -0.1040 -0.1488
 4700SOL    HW125733   3.723   0.996  15.297  0.5217 -3.2503  2.8373
 4700SOL    HW225734   3.654   1.015  15.429  0.8826 -0.1018  0.5721
 4701SOL     OW25735   2.609   2.810   3.310  0.1123  0.2983  0.5883
 4701SOL    HW125736   2.702   2.820   3.329  0.1649 -0.5227  0.7914
 4701SOL    HW225737   2.595   2.734   3.253  0.6887  0.4552  0.2365
 4702SOL     OW25738   1.497   0.022   9.436 -0.2315  0.0820  0.0049
 4702SOL    HW125739   1.558   4.720   9.498 -0.0420 -1.3679 -1.1031
 4702SOL    HW225740   1.529   0.112   9.443  1.4366 -0.4412 -0.6431
 4703SOL     OW25741   1.779   0.000  14.379 -0.1862  0.0830  0.6270
 4703SOL    HW125742   1.838   0.075  14.372  0.2692 -0.3026  0.3754
 4703SOL    HW225743   1.726   0.017  14.301 -0.5394 -2.2255  0.3636
 4704SOL     OW25744   1.042   3.570  11.562 -0.2059 -0.4356  0.3302
 4704SOL    HW125745   1.118   3.575  11.504  1.1019 -1.0923  1.9933
 4704SOL    HW225746   0.975   3.587  11.495  1.1630 -2.1175 -1.4656
 4705SOL     OW25747   1.000   3.538   0.273 -0.0613  0.6680  0.0439
 4705SOL    HW125748   0.946   3.519   0.197 -0.7490  2.4021  0.0969
 4705SOL    HW225749   0.939   3.556   0.344  0.5607 -1.0359  0.9933
 4706SOL     OW25750   0.445   0.825   7.071  0.0117 -0.5110  0.5780
 4706SOL    HW125751   0.484   0.738   7.078  1.5435  0.1725  0.5138
 4706SOL    HW225752   0.527   0.873   7.058 -0.6268 -0.1965 -2.2262
 4707SOL     OW25753   1.046   2.375  12.867  0.1991 -0.1565  0.2030
 4707SOL    HW125754   1.121   2.416  12.910  2.5330 -1.6423 -2.4167
 4707SOL    HW225755   0.980   2.399  12.932 -1.7899  0.1728 -1.9260
 4708SOL     OW25756   2.285   3.477   4.298 -0.4021 -0.1029  0.6187
 4708SOL    HW125757   2.224   3.508   4.231 -0.5199  0.5713  1.0359
 4708SOL    HW225758   2.291   3.383   4.280  0.2781  0.4159 -1.8345
 4709SOL     OW25759   3.183   3.032   2.292 -0.2338  0.0986  0.0272
 4709SOL    HW125760   3.233   2.987   2.224  0.5715  0.9525  0.0594
 4709SOL    HW225761   3.200   3.121   2.259 -0.4997  0.0741 -0.1808
 4710SOL     OW25762   2.496   4.685   7.126 -0.4294 -0.0629 -0.1590
 4710SOL    HW125763   2.572   0.002   7.109  0.9079 -1.5406  1.0267
 4710SOL    HW225764   2.429   0.005   7.089 -1.5355 -2.2693 -1.5930
 4711SOL     OW25765   2.562   3.846  15.674  0.3518 -0.3756  0.1693
 4711SOL    HW125766   2.643   3.829  15.723 -1.7697 -0.6635  3.5732
 4711SOL    HW225767   2.589   3.930  15.635 -0.5077  0.1058  0.5963
 4712SOL     OW25768   4.278   2.733  16.221 -0.2576  0.0231 -0.0701
 4712SOL    HW125769   4.362   2.733  16.175 -1.7374  2.6796 -2.7995
 4712SOL    HW225770   4.278   2.666  16.289  1.7999  0.5466  0.4397
 4713SOL     OW25771   1.098   1.635   2.397  0.0133 -0.1242 -0.2737
 4713SOL    HW125772   1.007   1.624   2.424 -0.3728 -1.0816 -1.9410
 4713SOL    HW225773   1.143   1.579   2.461  1.0959  1.1540  0.0749
 4714SOL     OW25774   0.637   0.080   4.325  0.0917  0.3305  0.0701
 4714SOL    HW125775   0.586   0.118   4.396  1.8847 -1.0016  2.0702
 4714SOL    HW225776   0.571   0.079   4.255  0.1162 -2.3439  0.0864
 4715SOL     OW25777   0.674   3.936   8.056  0.1454  0.3732  0.1208
 4715SOL    HW125778   0.720   3.953   7.973 -1.9591  2.1814 -0.6711
 4715SOL    HW225779   0.741   3.972   8.114  0.5399 -1.0583  0.5411
 4716SOL     OW25780   1.772   3.956   8.031 -0.2054  0.1319 -0.3579
 4716SOL    HW125781   1.802   3.868   8.054 -1.3485 -0.6717 -1.9143
 4716SOL    HW225782   1.714   3.971   8.105  0.2026  0.0002 -0.0140
 4717SOL     OW25783   3.902   3.168  16.621 -1.1544  0.1629 -0.2128
 4717SOL    HW125784   3.913   3.110  16.546  2.7493  1.1949 -0.4240
 4717SOL    HW225785   3.824   3.218  16.595  0.4227  3.1346  0.7386
 4718SOL     OW25786   0.045   2.928   5.484 -0.8362 -0.1689 -0.0018
 4718SOL    HW125787   0.001   2.875   5.550 -0.5228  0.7265  0.9239
 4718SOL    HW225788   0.138   2.910   5.501 -1.6128 -3.0528  1.1610
 4719SOL     OW25789   1.380   2.394  11.116 -0.1491  0.0057  0.5658
 4719SOL    HW125790   1.380   2.307  11.157  1.9670 -1.5132 -2.7249
 4719SOL    HW225791   1.451   2.433  11.167  0.0674  1.3373 -0.7504
 4720SOL     OW25792   2.349   1.655   4.632  0.5447  0.3087 -0.4333
 4720SOL    HW125793   2.300   1.644   4.550 -2.2170  2.2864  0.9655
 4720SOL    HW225794   2.284   1.655   4.703  0.1322 -1.7619 -0.8140
 4721SOL     OW25795   2.996   1.028   4.490  0.0670 -0.0515 -0.4208
 4721SOL    HW125796   3.003   1.025   4.585  1.8958 -2.5673 -0.6408
 4721SOL    HW225797   2.935   1.102   4.484 -0.7927 -0.8345 -1.4012
 4722SOL     OW25798   2.196   0.243  11.833  0.1763  0.4409  0.6994
 4722SOL    HW125799   2.213   0.216  11.923  1.1537  1.0124  0.6873
 4722SOL    HW225800   2.205   0.159  11.789 -0.5239  0.8737 -0.2812
 4723SOL     OW25801   0.697   1.363   4.334  0.1141 -0.0546  0.1410
 4723SOL    HW125802   0.768   1.363   4.398  0.0944 -2.6007  0.1748
 4723SOL    HW225803   0.702   1.447   4.289  1.8477 -1.5668 -2.5237
 4724SOL     OW25804   1.270   1.079   2.790 -0.3187  0.1929  0.0382
 4724SOL    HW125805   1.317   1.088   2.873  0.2657 -0.4752 -0.2145
 4724SOL    HW225806   1.334   1.122   2.733 -3.1620  0.9586 -2.5466
 4725SOL     OW25807   4.626   4.016  16.691  0.1162  0.2963 -0.2749
 4725SOL    HW125808   4.671   3.973  16.763 -2.1579  0.4669  1.2593
 4725SOL    HW225809   4.555   3.953  16.676  1.5455 -1.4865  0.4438
 4726SOL     OW25810   4.337   4.238   7.361 -0.2156  0.3539 -0.4729
 4726SOL    HW125811   4.361   4.331   7.353 -0.0855  0.2988 -0.7138
 4726SOL    HW225812   4.243   4.240   7.343 -0.0832 -1.9386 -1.3541
 4727SOL     OW25813   3.700   2.396   2.964 -0.0851  0.5366  0.0474
 4727SOL    HW125814   3.680   2.332   2.895  2.3098  0.6736 -0.7487
 4727SOL    HW225815   3.667   2.351   3.042  0.2873 -0.9367 -0.6296
 4728SOL     OW25816   1.237   4.484  11.210  0.0482 -0.4341 -0.2252
 4728SOL    HW125817   1.171   4.427  11.170 -0.3935 -0.7914  1.0176
 4728SOL    HW225818   1.185   4.565  11.209 -1.4113 -1.3902 -2.0899
 4729SOL     OW25819   4.531   0.280   0.115  0.0925  0.0287  0.4321
 4729SOL    HW125820   4.537   0.359   0.061  0.7378 -2.1747 -2.6882
 4729SOL    HW225821   4.584   0.225   0.058  3.7673  1.7810  2.1986
 4730SOL     OW25822   0.973   3.068  13.791 -0.1001  0.1640 -0.3252
 4730SOL    HW125823   0.946   3.054  13.882  2.5446 -1.3533  0.2156
 4730SOL    HW225824   0.926   3.007  13.733  0.1268 -1.0510  0.7773
 4731SOL     OW25825   0.138   2.475  16.321  0.2651 -0.2527 -0.2574
 4731SOL    HW125826   0.083   2.398  16.305 -0.7913  0.1188  1.4722
 4731SOL    HW225827   0.129   2.482  16.416 -1.3710  0.5260 -0.4658
 4732SOL     OW25828   3.058   0.731   3.484  0.1750  0.0573  0.2579
 4732SOL    HW125829   3.135   0.699   3.437  0.0424  0.0900  0.0204
 4732SOL    HW225830   2.993   0.664   3.465 -0.9621  1.0865  0.5449
 4733SOL     OW25831   0.641   3.879   2.364 -0.0880  0.3581  0.3181
 4733SOL    HW125832   0.648   3.785   2.380  0.5241 -0.1605 -3.0469
 4733SOL    HW225833   0.547   3.876   2.346  0.3021 -0.9489 -1.4559
 4734SOL     OW25834   0.915   0.250   2.308 -0.4891 -0.0376 -0.0489
 4734SOL    HW125835   0.923   0.175   2.250 -0.4162 -0.6557  0.7525
 4734SOL    HW225836   0.824   0.246   2.337 -0.8703 -0.8575 -1.3774
 4735SOL     OW25837   4.143   2.813   7.904  0.1525  0.0545  0.0016
 4735SOL    HW125838   4.064   2.800   7.852 -0.0966 -1.6162  0.8063
 4735SOL    HW225839   4.192   2.879   7.855  1.9233 -0.1950  1.4004
 4736SOL     OW25840   0.227   0.200   8.933 -0.3100 -0.0635 -0.0504
 4736SOL    HW125841   0.288   0.154   8.876 -0.9433 -0.8168 -0.1226
 4736SOL    HW225842   0.259   0.290   8.936 -0.8955  0.1172  0.9196
 4737SOL     OW25843   4.137   1.953   9.302  0.3540 -0.3829 -0.7868
 4737SOL    HW125844   4.057   1.989   9.339 -0.2408 -0.3379 -2.0895
 4737SOL    HW225845   4.140   1.878   9.360 -0.6778  0.9626  1.0131
 4738SOL     OW25846   2.797   2.139   5.799  0.3490 -0.2502 -0.7776
 4738SOL    HW125847   2.806   2.110   5.890 -0.0787  0.6682 -0.4398
 4738SOL    HW225848   2.882   2.122   5.760 -0.3256 -1.1113 -1.8687
 4739SOL     OW25849   2.225   0.653   4.267 -0.1007 -0.2680  0.3074
 4739SOL    HW125850   2.316   0.683   4.265 -0.4621  0.5874 -5.3326
 4739SOL    HW225851   2.198   0.702   4.345  1.2057  1.7781 -0.5144
 4740SOL     OW25852   3.369   1.554   2.237 -0.7003 -0.2803 -0.3105
 4740SOL    HW125853   3.395   1.469   2.199 -2.2232 -0.6716 -0.4966
 4740SOL    HW225854   3.425   1.611   2.184  1.5692 -0.9899  1.3227
 4741SOL     OW25855   1.444   3.170   2.004  0.1726 -0.0970  0.4506
 4741SOL    HW125856   1.511   3.111   1.971 -0.5394 -0.0564 -1.0437
 4741SOL    HW225857   1.453   3.156   2.099 -0.5767 -0.3915  0.4789
 4742SOL     OW25858   0.408   1.210   2.804  0.1267  0.3486  0.1449
 4742SOL    HW125859   0.342   1.201   2.872  0.4287 -0.3450  0.3536
 4742SOL    HW225860   0.467   1.279   2.832  0.9076  1.4220 -4.0905
 4743SOL     OW25861   1.440   3.426   2.366  0.5873 -0.4155 -0.5053
 4743SOL    HW125862   1.508   3.485   2.334  1.6286 -0.6385  1.2777
 4743SOL    HW225863   1.449   3.442   2.460 -1.0832  0.8862 -0.5637
 4744SOL     OW25864   4.550   1.474   6.112 -0.1217  0.6867 -0.2283
 4744SOL    HW125865   4.493   1.541   6.072 -0.9063  0.2258  0.1107
 4744SOL    HW225866   4.536   1.486   6.206  1.3541 -0.8042  0.1778
 4745SOL     OW25867   0.068   3.533  13.952 -0.2900  0.1166 -0.6075
 4745SOL    HW125868   0.131   3.504  14.018 -3.9675 -0.3790  2.6992
 4745SOL    HW225869   0.062   3.463  13.887  0.5851 -0.0621 -0.4978
 4746SOL     OW25870   1.732   1.759   9.214  0.3146  0.0682  0.2097
 4746SOL    HW125871   1.645   1.760   9.175  0.4283 -0.3339 -0.0548
 4746SOL    HW225872   1.781   1.826   9.166 -0.7184 -1.4072 -2.8921
 4747SOL     OW25873   0.376   4.675   4.779  0.3134  0.6875 -0.1966
 4747SOL    HW125874   0.311   0.008   4.773 -0.2439  0.0410 -1.9684
 4747SOL    HW225875   0.383   4.632   4.693  1.1629 -0.0399  0.2405
 4748SOL     OW25876   2.093   0.460   6.204 -0.1177  0.1173 -0.0520
 4748SOL    HW125877   2.097   0.379   6.153 -0.2582 -1.5140  2.5572
 4748SOL    HW225878   2.144   0.444   6.283 -1.0895 -0.7961  0.3857
 4749SOL     OW25879   1.010   2.262   5.621 -0.1435  0.9082  0.3302
 4749SOL    HW125880   0.940   2.200   5.642 -0.4118  0.5633 -1.5501
 4749SOL    HW225881   1.059   2.263   5.703  0.8812  0.1820 -0.2659
 4750SOL     OW25882   1.927   0.150   5.604 -0.4686 -0.7901 -0.7777
 4750SOL    HW125883   1.913   0.233   5.558 -0.3335  1.1204  2.6182
 4750SOL    HW225884   1.852   0.106   5.566 -0.8535 -0.7197 -0.1062
 4751SOL     OW25885   3.077   4.716   8.382 -0.3863  0.2641 -0.1136
 4751SOL    HW125886   3.015   0.048   8.359 -0.9794 -0.3894 -0.5295
 4751SOL    HW225887   3.024   4.653   8.431  0.1146 -0.9324 -1.0852
 4752SOL     OW25888   3.349   1.465   6.293 -0.7534 -0.2187 -0.7114
 4752SOL    HW125889   3.361   1.494   6.203  2.1607 -1.7645 -0.8314
 4752SOL    HW225890   3.272   1.409   6.284 -0.6131 -0.5260 -0.0067
 4753SOL     OW25891   2.013   3.874   5.037  0.6883  0.5845 -0.4882
 4753SOL    HW125892   2.076   3.946   5.034  1.0977  0.3594  2.4509
 4753SOL    HW225893   2.064   3.810   5.087  0.1890  0.0617 -0.6510
 4754SOL     OW25894   2.355   0.437  14.580 -0.7555  0.2879 -0.5952
 4754SOL    HW125895   2.439   0.483  14.580 -1.5767  1.7824  3.2156
 4754SOL    HW225896   2.306   0.464  14.503 -1.7398  0.5445  0.1212
 4755SOL     OW25897   1.210   4.127   6.346 -0.4684  0.3983  0.1364
 4755SOL    HW125898   1.243   4.057   6.289  0.6711  1.1205 -0.0859
 4755SOL    HW225899   1.285   4.186   6.340 -2.7570  3.3239  0.1948
 4756SOL     OW25900   2.806   3.265  15.338  0.0162 -0.2734  0.2874
 4756SOL    HW125901   2.879   3.246  15.280  0.7084 -1.8276  1.7015
 4756SOL    HW225902   2.827   3.354  15.366 -0.2453  0.1586 -0.8682
 4757SOL     OW25903   3.385   3.986  15.361  0.4616 -0.2907 -0.5695
 4757SOL    HW125904   3.426   4.028  15.285  0.1019  0.1845 -0.5079
 4757SOL    HW225905   3.416   3.896  15.351 -1.3928 -0.9039 -0.7580
 4758SOL     OW25906   1.486   4.661  16.991 -0.1058 -0.2858  0.2067
 4758SOL    HW125907   1.489   4.706  17.076 -0.5416  0.0021  0.0693
 4758SOL    HW225908   1.546   4.591  17.016 -0.1482 -0.5285 -0.3848
 4759SOL     OW25909   3.452   0.925  13.618 -0.0661 -0.1685 -0.2087
 4759SOL    HW125910   3.518   0.884  13.673 -0.6288  0.7739  1.1520
 4759SOL    HW225911   3.483   0.902  13.530  1.1639  2.3371 -0.4324
 4760SOL     OW25912   1.287   3.010  14.008  0.3425 -0.0420 -0.5142
 4760SOL    HW125913   1.269   3.104  14.002  0.1675 -0.0019  0.6617
 4760SOL    HW225914   1.300   3.004  14.103 -0.3465 -0.9184 -0.4729
 4761SOL     OW25915   1.824   4.117   5.901 -0.5158 -0.5984 -1.0002
 4761SOL    HW125916   1.845   4.135   5.993 -1.0746 -0.1243 -0.9625
 4761SOL    HW225917   1.729   4.118   5.914 -0.7688 -1.1800 -2.9395
 4762SOL     OW25918   4.661   3.524   0.731  0.3811 -0.0784 -0.0901
 4762SOL    HW125919   4.578   3.523   0.779  1.7581  1.5485  2.3429
 4762SOL    HW225920   4.682   3.617   0.737  1.4773 -0.2123 -2.0530
 4763SOL     OW25921   2.154   1.592   0.760  0.1967 -0.5947 -0.5239
 4763SOL    HW125922   2.080   1.531   0.759 -0.6214  0.4237 -4.0033
 4763SOL    HW225923   2.223   1.541   0.716  1.9156  1.4442 -0.2104
 4764SOL     OW25924   2.926   1.882  14.606  0.3133  0.2842  0.5283
 4764SOL    HW125925   2.936   1.901  14.513  3.7186 -1.3745  0.5449
 4764SOL    HW225926   2.895   1.792  14.597  1.1910  0.0998 -0.6118
 4765SOL     OW25927   4.244   3.163   3.494  0.9540  0.1181  0.1920
 4765SOL    HW125928   4.198   3.084   3.522  2.8525 -0.6297  1.2509
 4765SOL    HW225929   4.180   3.193   3.429 -1.3210 -2.9662  0.9860
 4766SOL     OW25930   4.054   4.395   8.354 -0.2548 -0.9370  0.5358
 4766SOL    HW125931   4.054   4.477   8.402  0.1498 -1.3012  1.1582
 4766SOL    HW225932   3.989   4.342   8.400 -0.7324 -0.6016  0.2433
 4767SOL     OW25933   3.750   0.026  16.173 -0.0087  0.0754 -0.3924
 4767SOL    HW125934   3.773   0.013  16.265  0.4907  2.8136 -0.1255
 4767SOL    HW225935   3.689   0.099  16.186 -1.5390 -1.5604  1.6493
 4768SOL     OW25936   1.045   2.960  17.633 -0.5523 -0.3526  0.2704
 4768SOL    HW125937   0.989   2.993  17.563 -0.2315 -0.0869  0.1390
 4768SOL    HW225938   0.986   2.970  17.709  0.4608 -2.1049  1.2832
 4769SOL     OW25939   2.525   3.443  11.188 -0.1645  0.1477  0.0793
 4769SOL    HW125940   2.447   3.482  11.147  0.3686  0.5640 -0.5397
 4769SOL    HW225941   2.541   3.521  11.240 -2.5313  1.0706 -0.5235
 4770SOL     OW25942   3.919   3.563  13.126 -1.0288 -0.1909  0.1050
 4770SOL    HW125943   3.857   3.531  13.061  1.2598 -1.9968 -1.2006
 4770SOL    HW225944   3.860   3.589  13.197 -0.8771 -2.0257  0.8992
 4771SOL     OW25945   1.969   3.194  11.148 -0.0312  0.3136 -0.4095
 4771SOL    HW125946   2.047   3.212  11.201 -0.6788 -1.0215  1.0084
 4771SOL    HW225947   1.990   3.212  11.057 -2.7238  0.1062 -1.0515
 4772SOL     OW25948   2.097   3.874   1.232 -0.3556 -0.0944 -0.0433
 4772SOL    HW125949   2.075   3.847   1.143  3.1081 -0.9347 -0.6446
 4772SOL    HW225950   2.160   3.807   1.258 -1.6223 -1.2373  0.0690
 4773SOL     OW25951   4.052   3.032   5.203  0.4573 -0.1340  0.2318
 4773SOL    HW125952   4.117   3.099   5.182 -0.8519  0.0687 -3.1451
 4773SOL    HW225953   4.020   2.998   5.120  2.7838 -2.9954  0.5049
 4774SOL     OW25954   0.546   3.324   2.922  0.5180 -0.0667  0.0876
 4774SOL    HW125955   0.552   3.351   3.014 -0.8628 -0.2585  0.2321
 4774SOL    HW225956   0.516   3.234   2.938  0.8253 -0.2296 -0.2622
 4775SOL     OW25957   1.446   2.334   4.471  0.4296 -0.0832 -0.9217
 4775SOL    HW125958   1.356   2.359   4.451  0.4960  2.0595  1.4100
 4775SOL    HW225959   1.478   2.405   4.527 -1.5530  1.2103 -1.3878
 4776SOL     OW25960   3.428   3.063   1.868 -0.1343  0.3057 -0.2329
 4776SOL    HW125961   3.387   3.112   1.797  0.3588  1.2935  0.1601
 4776SOL    HW225962   3.510   3.113   1.869  1.0242 -1.5842 -0.7286
 4777SOL     OW25963   0.259   1.400   4.803  0.2481 -0.2184  0.6249
 4777SOL    HW125964   0.186   1.356   4.846  0.5947 -1.9550 -0.5843
 4777SOL    HW225965   0.241   1.487   4.837 -1.6420 -0.3752 -0.0146
 4778SOL     OW25966   0.023   0.346   5.622  0.4421 -0.5599 -0.0267
 4778SOL    HW125967   0.116   0.343   5.600  0.1613 -2.2105 -1.0093
 4778SOL    HW225968   0.018   0.266   5.675 -1.0136 -0.3190  0.2217
 4779SOL     OW25969   2.794   3.076  14.179 -0.3218 -0.2211  0.2633
 4779SOL    HW125970   2.778   3.167  14.203 -2.7954  0.1765 -2.9461
 4779SOL    HW225971   2.811   3.044  14.268  0.8530  0.1315  0.1662
 4780SOL     OW25972   1.212   2.514   4.114 -0.5422  0.1682 -0.1443
 4780SOL    HW125973   1.209   2.509   4.019 -1.8567 -1.3612 -0.0251
 4780SOL    HW225974   1.304   2.524   4.139 -1.0151 -0.4199  1.7877
 4781SOL     OW25975   1.154   0.525   9.398 -0.0108 -0.1162  0.2756
 4781SOL    HW125976   1.122   0.613   9.379 -0.4150 -0.4969 -0.8123
 4781SOL    HW225977   1.155   0.525   9.494 -1.0944  1.0652  0.2862
 4782SOL     OW25978   2.410   2.939  11.786  0.6101  0.3733 -0.5435
 4782SOL    HW125979   2.401   2.861  11.732  3.0942 -0.7211  0.6139
 4782SOL    HW225980   2.322   2.973  11.771  1.2456  2.4109  0.2446
 4783SOL     OW25981   2.609   4.125  10.353 -0.2415 -0.5118  0.1750
 4783SOL    HW125982   2.552   4.201  10.362  0.1618 -0.4537  2.0916
 4783SOL    HW225983   2.682   4.158  10.405 -0.2169  1.0562 -0.8537
 4784SOL     OW25984   3.932   1.223   9.776 -0.0089  0.4628  0.3109
 4784SOL    HW125985   3.894   1.190   9.695  3.2350  1.0673 -1.4568
 4784SOL    HW225986   4.022   1.246   9.753  0.1523  0.9085  1.3557
 4785SOL     OW25987   4.329   2.986   7.047 -0.6273  0.3347  0.4310
 4785SOL    HW125988   4.311   2.990   7.141  1.0998 -1.5221  0.8277
 4785SOL    HW225989   4.337   3.080   7.031  0.9799 -0.0195 -0.8474
 4786SOL     OW25990   4.216   1.099  17.602  0.2816 -0.1443 -0.5019
 4786SOL    HW125991   4.187   1.099  17.693  1.7610  0.6028 -0.0320
 4786SOL    HW225992   4.220   1.007  17.575 -1.2474 -0.6494  1.0176
 4787SOL     OW25993   1.218   0.764   0.740  0.9358 -0.2357 -0.1412
 4787SOL    HW125994   1.248   0.855   0.743 -1.1657  0.3172  3.3942
 4787SOL    HW225995   1.172   0.766   0.823  1.6072  0.5649  0.2143
 4788SOL     OW25996   1.228   2.868   5.037  0.3806 -0.2773  0.3700
 4788SOL    HW125997   1.257   2.777   5.048 -1.4203 -1.0146 -0.8980
 4788SOL    HW225998   1.164   2.861   4.966  1.0085  2.3257 -0.4563
 4789SOL     OW25999   0.398   0.030   1.590 -0.1025  0.4349  0.2282
 4789SOL    HW126000   0.414   4.692   1.646  1.8336  0.8135  0.1926
 4789SOL    HW226001   0.450   0.092   1.642  1.4445  0.1971 -1.0436
 4790SOL     OW26002   4.590   0.419   4.813 -0.1026  0.1361  0.4401
 4790SOL    HW126003   4.532   0.476   4.864  0.1379  1.8132 -1.1630
 4790SOL    HW226004   4.600   0.344   4.871 -0.5418 -0.9926 -0.9597
 4791SOL     OW26005   0.985   4.310  10.247 -0.0000 -0.8524 -0.3551
 4791SOL    HW126006   0.929   4.306  10.170 -2.5739 -0.1302  1.4777
 4791SOL    HW226007   0.948   4.248  10.309 -0.2142 -0.6098 -0.2383
 4792SOL     OW26008   2.064   3.298   5.148 -0.4144  0.3346  0.0876
 4792SOL    HW126009   2.130   3.237   5.114 -0.5584  1.1789 -1.7254
 4792SOL    HW226010   2.111   3.341   5.219  0.1390  0.5415 -0.4029
 4793SOL     OW26011   1.525   0.588   4.336 -0.2840  0.3156 -0.0593
 4793SOL    HW126012   1.506   0.503   4.296 -0.2128 -0.3218  1.2582
 4793SOL    HW226013   1.586   0.610   4.266 -0.0752 -1.0686 -0.3104
 4794SOL     OW26014   2.703   3.965   2.041  0.6142  0.1964  0.6191
 4794SOL    HW126015   2.624   3.914   2.060  0.8390  0.1086  1.3227
 4794SOL    HW226016   2.682   4.022   1.967  0.7751 -2.2462 -1.3170
 4795SOL     OW26017   2.174   2.173   2.106  0.2821 -0.6513 -0.1869
 4795SOL    HW126018   2.079   2.171   2.113  0.2879  1.7893  0.5335
 4795SOL    HW226019   2.181   2.184   2.011 -1.0381  2.4452  0.0680
 4796SOL     OW26020   4.459   1.198   2.926  0.3842 -0.1424  0.7653
 4796SOL    HW126021   4.385   1.143   2.903  0.3391 -0.2322  1.1234
 4796SOL    HW226022   4.437   1.277   2.876 -0.3997 -0.5429  0.4713
 4797SOL     OW26023   2.602   2.434   4.350  0.4580  0.1276  0.4163
 4797SOL    HW126024   2.604   2.523   4.387 -0.0054  1.0290 -1.7127
 4797SOL    HW226025   2.509   2.415   4.365  0.6034  0.1567  1.3989
 4798SOL     OW26026   0.147   3.089   2.421  0.3156  0.3105  0.0007
 4798SOL    HW126027   0.104   3.175   2.427 -1.1053 -0.3521 -0.5567
 4798SOL    HW226028   0.233   3.119   2.451  0.4077  2.2100 -2.1377
 4799SOL     OW26029   3.355   2.198   5.925  0.1322 -0.0846  0.3423
 4799SOL    HW126030   3.445   2.225   5.908  0.2273  0.0824  1.1105
 4799SOL    HW226031   3.371   2.104   5.931 -1.7293 -0.3508  1.1046
 4800SOL     OW26032   2.973   3.223  11.143  0.2664 -0.0928 -0.2772
 4800SOL    HW126033   2.892   3.245  11.190 -0.4532  0.7308 -1.8678
 4800SOL    HW226034   2.940   3.154  11.085  1.5325 -2.2410  1.6138
 4801SOL     OW26035   3.385   1.118   4.521  0.3234  0.1064  0.4215
 4801SOL    HW126036   3.316   1.077   4.469  0.9005 -1.0363  0.5627
 4801SOL    HW226037   3.379   1.208   4.489  3.1917  0.0900 -0.1242
 4802SOL     OW26038   1.146   0.931   2.606 -0.4435 -0.9461 -0.1487
 4802SOL    HW126039   1.182   0.850   2.643  0.8533 -0.4999 -0.4366
 4802SOL    HW226040   1.180   0.994   2.670  2.3912 -1.6060 -0.9790
 4803SOL     OW26041   4.090   4.530   3.646  1.0557  0.2509  0.8256
 4803SOL    HW126042   4.128   4.502   3.563 -0.4077  1.6905 -0.3375
 4803SOL    HW226043   4.009   4.479   3.639  0.2618  1.6332 -0.2268
 4804SOL     OW26044   1.201   0.848   6.988 -0.4312 -0.2523  0.8030
 4804SOL    HW126045   1.150   0.832   6.909  0.2186 -0.6096  0.4542
 4804SOL    HW226046   1.163   0.933   7.012  0.8122  1.2062 -2.4470
 4805SOL     OW26047   3.877   1.149   9.507  0.5555 -0.1394  0.0064
 4805SOL    HW126048   3.789   1.185   9.519  0.2460 -2.0054  3.4508
 4805SOL    HW226049   3.894   1.192   9.423 -0.7919  0.1927 -0.0930
 4806SOL     OW26050   1.057   0.717   8.605 -0.1111  0.1920 -0.0410
 4806SOL    HW126051   1.096   0.699   8.520  0.8354  1.0212  0.2168
 4806SOL    HW226052   1.047   0.812   8.594 -0.5436 -0.0032 -1.3288
 4807SOL     OW26053   3.840   4.105  11.830 -0.0899 -0.2673 -0.4572
 4807SOL    HW126054   3.841   4.183  11.885 -1.5076 -0.1183 -0.6382
 4807SOL    HW226055   3.745   4.113  11.821  0.2662  1.8518 -2.5849
 4808SOL     OW26056   3.676   0.731   6.811  0.2492 -0.1961  0.0466
 4808SOL    HW126057   3.760   0.691   6.833  0.2710  0.3197  0.9164
 4808SOL    HW226058   3.611   0.663   6.830 -0.4167  0.0218 -1.4789
 4809SOL     OW26059   0.787   4.322   7.920  0.2865  0.3126  0.2650
 4809SOL    HW126060   0.869   4.314   7.969  1.3387 -1.4731 -1.8354
 4809SOL    HW226061   0.722   4.303   7.988 -0.1501 -0.5159 -0.3826
 4810SOL     OW26062   3.125   3.889   5.479 -0.0704 -0.2690  0.4047
 4810SOL    HW126063   3.134   3.855   5.568 -0.3559 -2.1434 -0.2842
 4810SOL    HW226064   3.109   3.983   5.493 -0.8897 -0.5019  1.0005
 4811SOL     OW26065   3.978   2.343   0.016 -0.2386 -0.1521  0.0109
 4811SOL    HW126066   3.943   2.345  17.675 -0.9717 -2.2326  0.2520
 4811SOL    HW226067   3.945   2.417   0.067  2.0530  1.1642 -0.4053
 4812SOL     OW26068   2.493   1.247   2.942  0.4345  0.0237  0.6121
 4812SOL    HW126069   2.476   1.298   3.022  1.0901  1.4410 -0.1369
 4812SOL    HW226070   2.553   1.301   2.890  0.8688  0.1862  1.2716
 4813SOL     OW26071   3.471   1.171   3.874  0.3899 -0.3856  0.2063
 4813SOL    HW126072   3.518   1.246   3.837  1.1919 -1.1113 -0.2393
 4813SOL    HW226073   3.386   1.201   3.842  0.0184 -1.0166  0.6123
 4814SOL     OW26074   3.698   4.690   8.099  0.1320 -0.8361  0.2105
 4814SOL    HW126075   3.644   4.614   8.123 -2.0019  1.2698  2.0730
 4814SOL    HW226076   3.773   4.677   8.156 -0.4370  0.5844  1.2701
 4815SOL     OW26077   2.030   1.381   5.122 -0.0996 -0.2991  0.2215
 4815SOL    HW126078   2.062   1.308   5.175 -1.9598 -0.3562  1.2682
 4815SOL    HW226079   2.076   1.450   5.170  1.1020  0.2514 -1.7116
 4816SOL     OW26080   1.280   1.798   3.763 -0.0622 -0.4841  0.4041
 4816SOL    HW126081   1.375   1.811   3.761 -0.3885  1.7321 -0.4822
 4816SOL    HW226082   1.270   1.741   3.839 -1.3844  1.9133  2.0003
 4817SOL     OW26083   4.469   0.447  12.731  0.5820  1.0876 -0.1728
 4817SOL    HW126084   4.471   0.540  12.710  1.0931  1.5499  1.8716
 4817SOL    HW226085   4.520   0.450  12.812  0.4468 -2.1861  0.0204
 4818SOL     OW26086   1.484   2.145  16.949  0.2680  0.6314  0.2084
 4818SOL    HW126087   1.423   2.082  16.910  1.1122  0.0640 -0.2007
 4818SOL    HW226088   1.545   2.090  16.998 -0.0231 -0.0740 -0.2144
 4819SOL     OW26089   1.103   4.257  17.552 -0.3296  0.0506 -0.8260
 4819SOL    HW126090   1.119   4.171  17.512  0.2076  0.0679 -0.6426
 4819SOL    HW226091   1.186   4.277  17.594 -0.0671 -1.0691 -0.8039
 4820SOL     OW26092   3.084   1.583   7.067 -0.1955  0.2569  0.2434
 4820SOL    HW126093   3.144   1.562   6.996  1.1065  1.5444  0.9477
 4820SOL    HW226094   3.134   1.639   7.127  0.3432  0.4940 -0.4304
 4821SOL     OW26095   1.893   3.302   6.034  0.0515 -0.2041 -0.2310
 4821SOL    HW126096   1.934   3.219   6.009  0.4455 -0.0078 -0.2350
 4821SOL    HW226097   1.967   3.343   6.081 -1.0617  1.6804 -0.1220
 4822SOL     OW26098   3.173   3.058   1.383  0.3035 -0.0889 -0.1861
 4822SOL    HW126099   3.145   2.990   1.445  1.5310  1.0134  1.5795
 4822SOL    HW226100   3.169   3.013   1.298 -0.5593  2.9537 -1.7499
 4823SOL     OW26101   0.814   1.379  10.758 -0.2718 -0.3876 -0.0321
 4823SOL    HW126102   0.778   1.316  10.820 -0.4149  0.0473  0.3210
 4823SOL    HW226103   0.904   1.369  10.787  0.5416  2.5303 -1.5095
 4824SOL     OW26104   3.061   2.454   8.295  0.4697 -0.0922 -0.1554
 4824SOL    HW126105   3.059   2.518   8.225  1.5625  0.0401 -0.0672
 4824SOL    HW226106   3.105   2.513   8.355 -0.4002 -0.6052  0.9992
 4825SOL     OW26107   4.659   1.977   4.877 -0.1118  0.3229 -0.0752
 4825SOL    HW126108   0.004   2.002   4.836  0.4232  1.1427  1.5058
 4825SOL    HW226109   4.593   2.035   4.838 -3.2529 -3.1899 -0.0123
 4826SOL     OW26110   1.955   1.939  13.221  0.2747  0.1206 -0.3547
 4826SOL    HW126111   1.974   1.864  13.165  0.2653  0.4115 -0.7466
 4826SOL    HW226112   1.863   1.927  13.244  0.6622 -3.4652 -0.7204
 4827SOL     OW26113   4.097   2.160   5.456 -0.0079 -0.3847 -0.1051
 4827SOL    HW126114   4.083   2.155   5.551  0.3605  1.8200  0.0768
 4827SOL    HW226115   4.165   2.229   5.457 -0.4348  0.0352 -0.0164
 4828SOL     OW26116   4.098   3.213  17.546  0.2724 -0.0197  0.2421
 4828SOL    HW126117   4.152   3.203  17.624 -0.8438 -2.6935  0.6539
 4828SOL    HW226118   4.084   3.307  17.544 -0.0631 -0.0568  1.0651
 4829SOL     OW26119   2.461   0.562   3.338 -0.0900  0.0311  0.3539
 4829SOL    HW126120   2.406   0.618   3.283  1.4255  2.5404  1.3688
 4829SOL    HW226121   2.494   0.618   3.409  1.3871 -0.2914 -0.0907
 4830SOL     OW26122   1.171   2.364   5.894  1.0186 -0.1464  0.9262
 4830SOL    HW126123   1.109   2.400   5.957 -0.9335 -0.1000 -1.0350
 4830SOL    HW226124   1.192   2.276   5.925  1.2678  0.6862  3.1142
 4831SOL     OW26125   0.620   2.406   4.742 -0.8340 -0.8175 -0.0422
 4831SOL    HW126126   0.650   2.391   4.653  1.8231 -2.0450  1.0686
 4831SOL    HW226127   0.671   2.483   4.765  0.8948 -1.5374 -1.5402
 4832SOL     OW26128   0.380   3.983  14.076  0.6617 -0.1209  0.6369
 4832SOL    HW126129   0.455   3.936  14.039  0.8264  0.5014  0.1691
 4832SOL    HW226130   0.384   3.947  14.165  0.0115  3.0331  1.9691
 4833SOL     OW26131   2.472   1.832  12.015  0.5062 -0.3745 -0.1066
 4833SOL    HW126132   2.542   1.839  11.950 -1.7557  2.8868 -2.2158
 4833SOL    HW226133   2.399   1.857  11.957 -1.1755 -1.4698  1.5536
 4834SOL     OW26134   3.011   2.788   7.027 -0.5290 -0.2365 -0.1470
 4834SOL    HW126135   3.094   2.742   7.040 -1.2320 -1.7037 -0.7760
 4834SOL    HW226136   3.035   2.870   6.984 -1.3453  0.6655  1.1289
 4835SOL     OW26137   2.161   4.277   0.821  0.3526 -0.0009 -0.6832
 4835SOL    HW126138   2.173   4.315   0.908  3.3298  2.4682 -2.1855
 4835SOL    HW226139   2.147   4.355   0.768 -4.3476 -0.8460 -0.6775
 4836SOL     OW26140   0.766   3.083   2.639 -0.0609  0.3292 -0.0368
 4836SOL    HW126141   0.710   3.056   2.711 -1.5986  1.8986 -0.6613
 4836SOL    HW226142   0.722   3.042   2.565 -1.0322 -0.2869  0.8888
 4837SOL     OW26143   2.312   2.275   7.459  0.3825  0.0446 -0.0085
 4837SOL    HW126144   2.381   2.276   7.526  0.5960  2.4104 -0.2597
 4837SOL    HW226145   2.305   2.369   7.444  0.6476 -0.3014 -2.3056
 4838SOL     OW26146   3.371   2.787   7.921 -0.2361  0.1952 -0.7580
 4838SOL    HW126147   3.393   2.698   7.948  1.0735  1.3352  1.9004
 4838SOL    HW226148   3.387   2.784   7.827 -1.8965 -1.7671 -0.9879
 4839SOL     OW26149   4.574   4.206  12.520  0.0635  0.0959 -0.5179
 4839SOL    HW126150   4.617   4.174  12.441  0.9101 -0.3138  0.1066
 4839SOL    HW226151   4.499   4.256  12.488  0.3665 -0.3839 -1.9494
 4840SOL     OW26152   2.026   2.304   2.537  0.7405  0.0385 -0.2947
 4840SOL    HW126153   2.054   2.232   2.594  1.2834  1.0348  0.6812
 4840SOL    HW226154   2.117   2.324   2.516  0.8996 -1.0105 -0.6273
 4841SOL     OW26155   0.228   1.484   9.580 -0.3254  0.0634  0.1443
 4841SOL    HW126156   0.311   1.523   9.552 -0.8388  0.8372 -0.2879
 4841SOL    HW226157   0.265   1.398   9.600 -0.0684 -0.0168 -0.6667
 4842SOL     OW26158   2.777   3.819   4.207  0.4607  0.4426  0.1988
 4842SOL    HW126159   2.821   3.871   4.274 -0.3703  1.1290  0.2182
 4842SOL    HW226160   2.774   3.732   4.246  4.4937 -1.1470 -3.0554
 4843SOL     OW26161   4.654   3.395   5.708 -0.3101 -0.5325 -0.2516
 4843SOL    HW126162   4.726   3.411   5.769  1.1421 -0.0189 -2.1219
 4843SOL    HW226163   4.639   3.482   5.671  0.1268 -0.9529 -1.4178
 4844SOL     OW26164   0.157   0.362   8.148 -0.3673  0.2555  0.1283
 4844SOL    HW126165   0.249   0.388   8.143  0.1333 -1.8210 -1.5596
 4844SOL    HW226166   0.149   0.315   8.065  0.7588 -0.7619  0.5912
 4845SOL     OW26167   3.538   1.185  15.076 -0.6621  0.1022  0.2532
 4845SOL    HW126168   3.561   1.272  15.108  0.3144 -0.0386 -0.0893
 4845SOL    HW226169   3.609   1.134  15.113  0.9040  0.8097 -1.8008
 4846SOL     OW26170   0.066   2.857   2.499  0.6021  0.1752  0.3993
 4846SOL    HW126171   0.058   2.886   2.590  0.2756  1.1799  0.0561
 4846SOL    HW226172   0.069   2.937   2.446  0.2586 -0.6231 -0.8213
 4847SOL     OW26173   1.946   2.706   7.810  0.2020 -0.5675  0.1050
 4847SOL    HW126174   2.015   2.696   7.876  0.5530  0.3930 -0.1060
 4847SOL    HW226175   1.865   2.679   7.853  0.2666 -0.3445  0.3699
 4848SOL     OW26176   3.812   3.165  12.368  0.4692 -0.9956  0.0403
 4848SOL    HW126177   3.752   3.114  12.315 -0.5906  0.0212  0.2736
 4848SOL    HW226178   3.758   3.172  12.447 -2.3642 -2.5525 -1.8009
 4849SOL     OW26179   2.589   1.853   3.308  0.0874  0.2929  0.4189
 4849SOL    HW126180   2.572   1.946   3.294  0.4258  0.2488 -0.2701
 4849SOL    HW226181   2.684   1.859   3.295 -0.1341  1.4053 -0.6782
 4850SOL     OW26182   2.344   1.629  10.056  0.0836  0.7867  0.4840
 4850SOL    HW126183   2.312   1.541  10.039 -2.3395  1.0327  3.6405
 4850SOL    HW226184   2.273   1.684  10.089  0.7450  1.2003  1.2108
 4851SOL     OW26185   1.719   2.894   9.555 -0.2492  0.1015 -0.2559
 4851SOL    HW126186   1.720   2.802   9.581  0.3747  0.3643  0.6530
 4851SOL    HW226187   1.769   2.939   9.624 -0.9373 -0.7649  0.8035
 4852SOL     OW26188   1.386   2.547   4.891  0.5638  0.7150 -0.3965
 4852SOL    HW126189   1.409   2.474   4.949 -1.9590  1.1456  1.1172
 4852SOL    HW226190   1.360   2.613   4.955 -1.5074  0.1467 -0.6450
 4853SOL     OW26191   4.329   0.031   9.540  0.0409 -0.1543  0.0731
 4853SOL    HW126192   4.351   4.675   9.547 -1.6868 -0.6152 -0.4920
 4853SOL    HW226193   4.333   0.043   9.445  0.9088  2.5807  0.4794
 4854SOL     OW26194   0.150   4.489  12.439 -0.3161 -0.0256 -0.0319
 4854SOL    HW126195   0.085   4.488  12.369  0.3085  1.0989 -0.6351
 4854SOL    HW226196   0.150   4.578  12.474 -1.8223  0.2418 -0.7140
 4855SOL     OW26197   2.599   3.542   7.320  0.0143 -0.6911 -0.2753
 4855SOL    HW126198   2.691   3.526   7.339  0.9276  2.1739 -2.1954
 4855SOL    HW226199   2.570   3.463   7.364  1.4165 -0.8989  0.2653
 4856SOL     OW26200   3.408   4.587   5.227 -0.0718 -0.0261  0.4525
 4856SOL    HW126201   3.347   4.514   5.236  0.4011 -0.4069  0.5605
 4856SOL    HW226202   3.432   4.571   5.135 -0.8095 -0.7658  0.3926
 4857SOL     OW26203   1.583   0.444   3.537 -0.5795 -0.4912 -0.0211
 4857SOL    HW126204   1.630   0.438   3.453  3.1743  1.7434  1.9700
 4857SOL    HW226205   1.513   0.378   3.538 -1.7873  0.8159  1.0447
 4858SOL     OW26206   1.749   2.913   4.333  0.1817 -0.0563 -0.0462
 4858SOL    HW126207   1.657   2.889   4.318  1.0156 -1.7309 -2.3844
 4858SOL    HW226208   1.748   2.898   4.428 -1.4830 -1.4192 -0.2745
 4859SOL     OW26209   1.036   4.600   2.292  0.2882  0.1042 -1.0291
 4859SOL    HW126210   1.005   4.642   2.372 -0.7315  0.8265 -1.8096
 4859SOL    HW226211   1.068   4.520   2.335  0.0976  0.7935  0.4044
 4860SOL     OW26212   1.624   2.749   2.915  0.1493  0.0946 -0.1221
 4860SOL    HW126213   1.570   2.710   2.846  0.2961 -0.0423 -0.1605
 4860SOL    HW226214   1.679   2.674   2.938  0.8030  0.6023 -0.0456
 4861SOL     OW26215   4.515   0.501   7.540  0.2172 -0.2190  0.1476
 4861SOL    HW126216   4.462   0.423   7.554  0.6206 -0.0688  2.5645
 4861SOL    HW226217   4.522   0.535   7.630  1.2012  1.0956 -0.4382
 4862SOL     OW26218   2.092   2.845   5.301 -0.1531 -0.0505 -0.0628
 4862SOL    HW126219   2.138   2.762   5.290 -0.6761 -0.4285  0.5868
 4862SOL    HW226220   2.005   2.807   5.290  0.3909 -0.9345 -1.2077
 4863SOL     OW26221   3.690   3.245   1.781  0.0816 -0.0943 -0.0913
 4863SOL    HW126222   3.774   3.290   1.781  1.7428 -3.1726  1.1141
 4863SOL    HW226223   3.645   3.301   1.719  2.7243  3.5836  1.3283
 4864SOL     OW26224   0.480   0.867   0.456  0.0485  0.3720  0.2294
 4864SOL    HW126225   0.475   0.937   0.390 -0.2833  1.6697  1.6450
 4864SOL    HW226226   0.426   0.792   0.431  1.7492 -0.3933 -1.1586
 4865SOL     OW26227   1.518   2.626  17.565  0.3024  0.2443  0.1081
 4865SOL    HW126228   1.502   2.593  17.653  1.3807  0.5874  0.4345
 4865SOL    HW226229   1.470   2.709  17.564  1.0784  0.7199  2.8191
 4866SOL     OW26230   2.002   3.020   1.159 -0.1756 -0.1224  0.1969
 4866SOL    HW126231   1.956   2.938   1.176  0.8798 -0.9984 -1.1449
 4866SOL    HW226232   1.931   3.076   1.188 -1.0509 -2.5808  2.8191
 4867SOL     OW26233   1.182   4.713  11.398  0.0295 -0.1595  0.3442
 4867SOL    HW126234   1.139   4.705  11.483  1.0736 -0.5751  0.8330
 4867SOL    HW226235   1.238   0.053  11.404 -0.2014  0.0096  0.3446
 4868SOL     OW26236   1.088   2.356   8.197 -0.1564 -0.1384 -0.2611
 4868SOL    HW126237   1.011   2.347   8.253  0.4879 -0.0905  0.6312
 4868SOL    HW226238   1.149   2.321   8.262 -0.1591  3.1827  1.4853
 4869SOL     OW26239   0.680   4.280  11.118 -0.5916 -0.3726  0.3408
 4869SOL    HW126240   0.703   4.221  11.190 -1.6646  0.1710  1.1257
 4869SOL    HW226241   0.704   4.227  11.042  0.1938  2.5091 -1.4474
 4870SOL     OW26242   3.657   1.747   3.897  0.2765  0.0691 -0.0468
 4870SOL    HW126243   3.732   1.755   3.957  0.2968  0.1718 -0.0858
 4870SOL    HW226244   3.640   1.831   3.854 -0.3168  0.4524  0.9476
 4871SOL     OW26245   3.037   0.184   4.446  0.1011 -0.0948  0.5303
 4871SOL    HW126246   2.956   0.233   4.431 -0.8298 -1.9307 -0.3973
 4871SOL    HW226247   3.095   0.234   4.387 -0.8292  0.1380 -0.1967
 4872SOL     OW26248   4.233   3.230   5.177 -0.0991  0.0488 -0.2342
 4872SOL    HW126249   4.324   3.229   5.147  0.5765 -0.8159  1.8106
 4872SOL    HW226250   4.191   3.292   5.118 -0.9139 -0.8350 -0.5872
 4873SOL     OW26251   4.431   0.145   6.804 -0.1603  0.0168 -0.7481
 4873SOL    HW126252   4.495   0.102   6.748  0.1403 -2.1723  1.2495
 4873SOL    HW226253   4.471   0.148   6.891 -2.0353  1.4806  0.0766
 4874SOL     OW26254   0.752   0.326   7.622  0.4943  0.3843  0.2449
 4874SOL    HW126255   0.841   0.292   7.635  1.4249  2.2650 -1.2686
 4874SOL    HW226256   0.765   0.353   7.531  0.8953 -0.3488  0.0874
 4875SOL     OW26257   3.840   1.199   6.813  0.1310  0.0740  0.0462
 4875SOL    HW126258   3.893   1.256   6.757 -0.8031  1.2521  0.3600
 4875SOL    HW226259   3.873   1.225   6.898  1.8389  0.7121 -0.8123
 4876SOL     OW26260   0.168   0.141   6.207 -0.4331 -0.2346 -0.1929
 4876SOL    HW126261   0.178   0.231   6.175 -2.4216  0.0804  0.0283
 4876SOL    HW226262   0.252   0.117   6.245 -1.0042 -0.9330  0.6371
 4877SOL     OW26263   4.731   0.311   4.474  0.6683 -0.1324 -0.3912
 4877SOL    HW126264   0.052   0.378   4.439  1.0356 -0.1616  0.1672
 4877SOL    HW226265   0.021   0.297   4.564 -0.9753  2.1635  0.4795
 4878SOL     OW26266   3.144   1.931   6.568 -0.3932  0.3144  0.0444
 4878SOL    HW126267   3.051   1.945   6.586 -0.7522 -3.1746  1.0211
 4878SOL    HW226268   3.146   1.853   6.513  0.0307 -0.9780  1.8843
 4879SOL     OW26269   4.147   4.261   0.559 -0.6609 -0.2322  0.1508
 4879SOL    HW126270   4.067   4.269   0.610 -0.3618  1.0938  0.4119
 4879SOL    HW226271   4.209   4.265   0.632 -2.7717  0.3742  1.9212
 4880SOL     OW26272   2.659   1.477   8.983  0.1555 -0.3155  0.9467
 4880SOL    HW126273   2.716   1.508   9.054  1.9355  0.2875 -0.7496
 4880SOL    HW226274   2.671   1.383   8.994 -1.0622 -0.3473  2.1127
 4881SOL     OW26275   1.999   4.464   5.817  0.1343  0.2814 -0.3119
 4881SOL    HW126276   2.046   4.380   5.817 -2.6089 -1.2555  2.0622
 4881SOL    HW226277   1.918   4.446   5.768 -0.2797 -2.6554  1.4329
 4882SOL     OW26278   1.575   2.457   3.698 -0.6487  0.3577 -0.1536
 4882SOL    HW126279   1.607   2.371   3.725  3.0617  1.3828 -1.3325
 4882SOL    HW226280   1.504   2.434   3.637 -1.4717  1.1836  0.4960
 4883SOL     OW26281   1.636   2.701   6.609 -0.5413  0.5754  0.1135
 4883SOL    HW126282   1.708   2.649   6.643  0.5912 -0.1206 -3.3535
 4883SOL    HW226283   1.578   2.678   6.682  1.0597  0.6933  1.4114
 4884SOL     OW26284   2.284   1.576   3.748 -0.0359 -0.7977  0.9288
 4884SOL    HW126285   2.211   1.579   3.810 -1.3326 -1.1338 -0.5793
 4884SOL    HW226286   2.363   1.581   3.801  0.4876 -0.2955  0.1004
 4885SOL     OW26287   2.684   3.661  15.466 -0.1912 -0.5318 -0.4044
 4885SOL    HW126288   2.647   3.741  15.503  0.7658  0.0371 -0.6913
 4885SOL    HW226289   2.605   3.621  15.429  1.3538 -2.0614 -2.0422
 4886SOL     OW26290   3.948   3.691  13.885 -0.3125 -0.3673  0.0485
 4886SOL    HW126291   3.886   3.713  13.815 -0.2398 -0.0863  0.0725
 4886SOL    HW226292   4.032   3.698  13.841 -0.1123 -1.1869  0.3068
 4887SOL     OW26293   0.955   1.301  16.732  0.0513 -0.2676 -0.4030
 4887SOL    HW126294   0.908   1.218  16.746 -1.0188  0.5081  0.6768
 4887SOL    HW226295   0.926   1.355  16.806 -0.1565  0.0471 -0.7147
 4888SOL     OW26296   1.133   0.426   7.823 -0.0490  0.2375  0.1094
 4888SOL    HW126297   1.089   0.361   7.768 -0.3067  1.0557 -0.6541
 4888SOL    HW226298   1.063   0.459   7.880 -0.7625 -0.0870 -0.5736
 4889SOL     OW26299   2.060   4.367  14.352 -0.1548  0.4349  0.2426
 4889SOL    HW126300   2.133   4.409  14.398 -0.7881 -0.1154  1.7431
 4889SOL    HW226301   2.070   4.391  14.260 -0.9954 -2.7961 -0.6935
 4890SOL     OW26302   3.524   3.045   6.832  0.5506 -0.2730  0.0290
 4890SOL    HW126303   3.612   3.018   6.803  0.4539  0.7473 -1.2128
 4890SOL    HW226304   3.479   3.061   6.750  0.2062  0.7205  0.4165
 4891SOL     OW26305   1.645   1.107   2.125 -0.2775  0.4066  0.9823
 4891SOL    HW126306   1.592   1.184   2.107  1.6838  0.8730 -2.8498
 4891SOL    HW226307   1.724   1.157   2.147 -0.0296  0.3035  0.3348
 4892SOL     OW26308   4.663   0.285   6.926 -0.2722  0.2188 -0.2860
 4892SOL    HW126309   4.734   0.346   6.911 -0.0892  0.1053  0.0982
 4892SOL    HW226310   4.591   0.346   6.942  1.9639  2.5506  0.9496
 4893SOL     OW26311   1.842   2.551  10.830  0.3053  0.3154 -0.3640
 4893SOL    HW126312   1.906   2.567  10.899  3.0561 -2.3530 -2.3023
 4893SOL    HW226313   1.855   2.615  10.760  1.6968  0.6675  0.2118
 4894SOL     OW26314   0.364   1.340   8.628 -0.0157 -0.0814 -0.5441
 4894SOL    HW126315   0.426   1.274   8.658  2.0157  0.8682 -2.6213
 4894SOL    HW226316   0.376   1.410   8.692 -1.7925  0.2530 -0.5918
 4895SOL     OW26317   1.646   1.409   7.296 -0.7303 -0.0341  0.7762
 4895SOL    HW126318   1.740   1.388   7.297 -0.8895 -0.7537  0.6342
 4895SOL    HW226319   1.633   1.443   7.385  0.0824  1.6563  0.2615
 4896SOL     OW26320   1.996   0.022   7.904  0.4110  0.3515 -0.3704
 4896SOL    HW126321   2.020   0.106   7.944  1.6424  0.4850 -1.3883
 4896SOL    HW226322   2.022   4.704   7.978 -0.2444 -0.1393 -0.5084
 4897SOL     OW26323   3.290   2.635   2.267  0.2705  0.1601  0.0998
 4897SOL    HW126324   3.354   2.651   2.198  0.7288 -0.9890  0.2560
 4897SOL    HW226325   3.214   2.649   2.211  2.2006 -0.4519 -2.6532
 4898SOL     OW26326   1.880   2.482  12.124 -0.1918  0.4239  0.0254
 4898SOL    HW126327   1.970   2.456  12.143  0.1044  1.7737  0.5146
 4898SOL    HW226328   1.887   2.576  12.143  0.2046  0.4091 -0.0538
 4899SOL     OW26329   2.104   4.708   2.358 -0.0513  0.4094  0.3966
 4899SOL    HW126330   2.098   0.066   2.368  1.1525  0.2531  2.7373
 4899SOL    HW226331   2.042   4.674   2.423 -2.9797  1.2932 -1.9460
 4900SOL     OW26332   2.263   0.969  12.356 -0.8739  0.0650 -0.8526
 4900SOL    HW126333   2.286   1.045  12.303  1.1635  1.2506  1.7513
 4900SOL    HW226334   2.167   0.964  12.363 -0.5987  2.2197  3.9760
 4901SOL     OW26335   1.467   3.078  12.567 -0.2447  0.5389  0.0263
 4901SOL    HW126336   1.524   3.007  12.598  1.1305 -0.0806 -3.9443
 4901SOL    HW226337   1.434   3.114  12.649 -0.6653 -0.6309  0.3744
 4902SOL     OW26338   0.729   3.567   7.969 -0.0388 -0.0015  0.2908
 4902SOL    HW126339   0.699   3.577   7.879 -3.2424 -1.1633  1.2007
 4902SOL    HW226340   0.806   3.624   7.974  0.4794 -0.7562  0.8243
 4903SOL     OW26341   2.235   0.662   6.402  0.1981 -0.1465 -0.1473
 4903SOL    HW126342   2.284   0.707   6.471 -1.5229  1.4696  0.0503
 4903SOL    HW226343   2.275   0.576   6.407 -0.7376 -0.5348  0.6488
 4904SOL     OW26344   3.278   2.039   6.251 -0.1497 -0.1389 -0.4066
 4904SOL    HW126345   3.297   1.946   6.237 -1.8092 -0.7564  1.4300
 4904SOL    HW226346   3.294   2.071   6.163 -1.0905  0.3033 -0.4147
 4905SOL     OW26347   3.733   2.882   1.281 -0.1229 -0.0184  0.4347
 4905SOL    HW126348   3.660   2.899   1.340 -0.0156  1.8552  0.0356
 4905SOL    HW226349   3.684   2.895   1.199  1.6741  1.2719 -0.4384
 4906SOL     OW26350   4.658   2.588  11.334 -0.5194 -0.3106  0.1755
 4906SOL    HW126351   4.596   2.635  11.389 -3.0217 -0.5052 -2.4713
 4906SOL    HW226352   4.731   2.648  11.316 -1.6433  0.1093 -3.0808
 4907SOL     OW26353   4.287   0.804  14.867  0.7942 -0.3108  0.1445
 4907SOL    HW126354   4.292   0.825  14.774 -0.2901  0.0976  0.1807
 4907SOL    HW226355   4.371   0.849  14.872  0.9278 -0.8748  2.9818
 4908SOL     OW26356   0.701   1.757   3.547 -0.1173  0.1240  0.0148
 4908SOL    HW126357   0.654   1.674   3.543  0.1693 -0.0747  0.8074
 4908SOL    HW226358   0.740   1.747   3.461  1.2850 -1.2319  0.8065
 4909SOL     OW26359   0.704   2.156   9.856  0.7471 -0.2685  0.5750
 4909SOL    HW126360   0.689   2.061   9.849 -0.1109 -0.0246 -0.9599
 4909SOL    HW226361   0.731   2.165   9.947 -2.0736  2.1182  1.1439
 4910SOL     OW26362   1.710   0.692   1.240  0.0858 -0.2432 -1.0394
 4910SOL    HW126363   1.797   0.676   1.278  0.9183  1.8578 -2.0013
 4910SOL    HW226364   1.702   0.788   1.240 -1.2554 -0.3468  0.8636
 4911SOL     OW26365   2.598   2.668   5.043  0.3312 -0.0090 -0.2962
 4911SOL    HW126366   2.575   2.579   5.071  1.6824 -0.2615  0.0259
 4911SOL    HW226367   2.606   2.652   4.949  0.4468 -1.0025 -0.1225
 4912SOL     OW26368   1.635   1.158  13.615 -0.0963 -0.2208  0.3029
 4912SOL    HW126369   1.696   1.172  13.542 -0.1086 -1.9129 -0.0414
 4912SOL    HW226370   1.626   1.249  13.641 -0.5424 -0.5594  1.3211
 4913SOL     OW26371   2.088   3.754   0.990  0.3479 -0.4979 -0.7656
 4913SOL    HW126372   2.098   3.776   0.897  1.1124 -0.9996 -0.7942
 4913SOL    HW226373   2.084   3.659   0.985  0.6824 -0.6086  0.9834
 4914SOL     OW26374   3.282   1.809  15.410  0.2697 -0.1821  0.9979
 4914SOL    HW126375   3.315   1.723  15.386 -0.4781 -0.1059 -0.2786
 4914SOL    HW226376   3.362   1.857  15.433 -1.3009  2.6238  0.5954
 4915SOL     OW26377   0.421   3.278  16.811 -0.3540  0.2185  0.2627
 4915SOL    HW126378   0.492   3.342  16.803  0.0820 -0.5918 -2.3879
 4915SOL    HW226379   0.404   3.256  16.719  2.3781  2.3894 -0.7751
 4916SOL     OW26380   2.675   3.809  12.722  0.3278  0.0417 -0.1238
 4916SOL    HW126381   2.704   3.849  12.805  1.4907 -3.0985  0.9997
 4916SOL    HW226382   2.669   3.874  12.653 -2.4132 -1.3519 -1.1650
 4917SOL     OW26383   1.413   1.112   4.347 -0.2078  0.8723 -0.7606
 4917SOL    HW126384   1.496   1.156   4.328 -0.8638  2.7646  0.8133
 4917SOL    HW226385   1.348   1.182   4.350  0.9750  1.7955  2.8307
 4918SOL     OW26386   3.545   0.374  13.593  0.6885 -0.2960 -0.2477
 4918SOL    HW126387   3.500   0.438  13.648  0.6296 -0.2121 -0.3949
 4918SOL    HW226388   3.483   0.309  13.560 -0.3912 -0.7870  2.7737
 4919SOL     OW26389   3.169   4.165   6.695  0.3368  0.2866 -0.1500
 4919SOL    HW126390   3.256   4.204   6.688 -0.3036  1.6686 -0.5384
 4919SOL    HW226391   3.162   4.146   6.788  0.6461  0.5465 -0.0767
 4920SOL     OW26392   0.863   2.554  13.057 -0.3056  0.2229 -0.1131
 4920SOL    HW126393   0.839   2.512  13.140 -0.4068  0.3808 -0.0619
 4920SOL    HW226394   0.891   2.639  13.093 -2.2253  1.5706 -1.8045
 4921SOL     OW26395   1.398   0.049  17.724 -0.4934 -0.1939 -0.4451
 4921SOL    HW126396   1.310   0.070  17.692 -0.3358  1.6512  0.3278
 4921SOL    HW226397   1.400   0.108   0.051 -1.8499  0.8324 -1.1953
 4922SOL     OW26398   1.181   0.243   9.906 -0.5366 -0.2053 -0.1715
 4922SOL    HW126399   1.180   0.306   9.978  1.6711 -0.9391  0.5080
 4922SOL    HW226400   1.176   0.158   9.950  0.6462 -0.9500 -1.4605
 4923SOL     OW26401   0.893   4.424  17.456  0.2036 -0.2508  0.3029
 4923SOL    HW126402   0.976   4.401  17.499  0.1804 -0.0490  0.4509
 4923SOL    HW226403   0.918   4.508  17.419  0.0202  0.2625  1.3488
 4924SOL     OW26404   2.723   4.198   3.118 -0.0469 -0.2069  0.1159
 4924SOL    HW126405   2.814   4.204   3.146 -0.2679 -0.4019  0.8822
 4924SOL    HW226406   2.692   4.128   3.176  0.8727  0.8473  1.8924
 4925SOL     OW26407   0.916   3.656   5.381 -0.1835  0.2370 -0.1103
 4925SOL    HW126408   0.847   3.714   5.349 -0.5515 -0.3503 -0.3811
 4925SOL    HW226409   0.945   3.625   5.295 -0.9094 -1.1291  0.1258
 4926SOL     OW26410   4.362   3.088  13.087 -0.0270 -0.2278  0.9729
 4926SOL    HW126411   4.307   3.167  13.091 -1.7521 -1.3664 -0.5863
 4926SOL    HW226412   4.299   3.020  13.110 -0.9016  0.1349 -0.3181
 4927SOL     OW26413   4.403   1.163   9.102  0.5134  0.4650  0.2493
 4927SOL    HW126414   4.404   1.074   9.068  0.9170  0.2376  0.8450
 4927SOL    HW226415   4.482   1.200   9.062 -0.1758  0.6681 -0.9223
 4928SOL     OW26416   0.254   3.859   8.738 -0.4148 -0.4034 -0.9862
 4928SOL    HW126417   0.186   3.919   8.767 -0.6881 -0.8593 -0.6917
 4928SOL    HW226418   0.206   3.777   8.728  0.9832 -1.0048 -2.7267
 4929SOL     OW26419   1.780   1.959  12.073  0.1052  0.2814 -0.8155
 4929SOL    HW126420   1.864   2.002  12.056  0.9183 -1.3732 -1.0657
 4929SOL    HW226421   1.718   2.032  12.069 -1.0382 -0.5805  1.2535
 4930SOL     OW26422   2.124   3.213   7.505 -0.3406  0.3161 -0.2521
 4930SOL    HW126423   2.153   3.160   7.579  0.6347  2.6385  1.0178
 4930SOL    HW226424   2.131   3.151   7.432  0.4793  0.9805 -0.7320
 4931SOL     OW26425   1.376   4.161  15.068 -0.2973 -0.2430 -0.2016
 4931SOL    HW126426   1.416   4.086  15.026  1.7143 -0.7366  2.5794
 4931SOL    HW226427   1.416   4.233  15.019  3.1777 -1.1076  1.3779
 4932SOL     OW26428   0.040   4.008   8.824 -0.8059 -0.3813 -0.1151
 4932SOL    HW126429   4.725   4.088   8.823  0.9232  0.7673  0.6019
 4932SOL    HW226430   0.056   4.002   8.918  0.8053 -2.6778 -0.5480
 4933SOL     OW26431   3.082   4.233   7.730  0.5125 -0.6851 -0.6739
 4933SOL    HW126432   3.088   4.138   7.725 -0.7984 -0.6477 -2.7650
 4933SOL    HW226433   3.150   4.247   7.796 -2.8201 -0.8225  2.7854
 4934SOL     OW26434   4.707   2.865  15.996  0.3124 -0.1987  0.0225
 4934SOL    HW126435   4.668   2.803  16.058  0.0450 -0.2900 -0.2369
 4934SOL    HW226436   4.632   2.923  15.985  1.7576  1.6921  0.1633
 4935SOL     OW26437   1.917   0.227  14.392 -0.0279 -0.0354  0.0296
 4935SOL    HW126438   1.964   0.237  14.310  0.0405  0.0071  0.0736
 4935SOL    HW226439   1.876   0.313  14.391  0.0249 -0.0230 -1.1405
 4936SOL     OW26440   3.128   1.076   6.347 -0.7195  0.4402 -0.2784
 4936SOL    HW126441   3.074   0.998   6.339  0.4747 -0.5949  1.8588
 4936SOL    HW226442   3.178   1.051   6.424 -1.5377  1.2233  0.5013
 4937SOL     OW26443   3.171   1.951   8.525 -0.2248 -0.3506 -0.1457
 4937SOL    HW126444   3.108   1.912   8.586 -0.9744  1.1756  0.0620
 4937SOL    HW226445   3.170   2.044   8.547 -0.1594 -0.2102 -0.7185
 4938SOL     OW26446   3.555   2.210  16.673 -0.1641 -0.0409  0.4717
 4938SOL    HW126447   3.587   2.255  16.751 -0.4499  0.8916  0.0463
 4938SOL    HW226448   3.636   2.163  16.653  0.1164  0.7658 -0.2724
 4939SOL     OW26449   1.172   1.860   2.262  0.6897 -0.4779  0.0044
 4939SOL    HW126450   1.166   1.770   2.294 -3.6315  0.3248  1.5283
 4939SOL    HW226451   1.079   1.884   2.261  0.7499 -0.2114  1.0534
 4940SOL     OW26452   3.769   1.213   3.177 -0.2437  0.0847 -0.6099
 4940SOL    HW126453   3.741   1.302   3.159 -1.3224 -0.0023  0.6660
 4940SOL    HW226454   3.686   1.178   3.209 -0.0199  0.9775  0.9150
 4941SOL     OW26455   1.359   4.219   5.114  0.0577  0.4288  0.1157
 4941SOL    HW126456   1.312   4.149   5.159  0.8557  0.0732  0.3772
 4941SOL    HW226457   1.321   4.214   5.026 -2.2385  1.0757  1.0606
 4942SOL     OW26458   3.983   3.313   3.004 -0.8776 -0.3427  0.0957
 4942SOL    HW126459   4.078   3.307   2.989 -0.6984 -3.1784  2.4532
 4942SOL    HW226460   3.958   3.267   2.923 -1.0222 -0.2499  0.0882
 4943SOL     OW26461   3.204   4.089   1.706  0.1294  0.3304  0.0994
 4943SOL    HW126462   3.144   4.065   1.636 -0.9209  0.8044  0.8379
 4943SOL    HW226463   3.186   4.181   1.724 -2.0681 -0.0132 -0.4337
 4944SOL     OW26464   4.328   1.951   6.527 -0.6608  0.3335 -0.2306
 4944SOL    HW126465   4.276   1.939   6.607  2.1781  2.6785  1.9495
 4944SOL    HW226466   4.302   1.870   6.484 -1.6436 -0.0363  1.0357
 4945SOL     OW26467   4.552   2.225   5.526  0.0799  0.2895  0.2040
 4945SOL    HW126468   4.529   2.268   5.608 -0.0541  2.2713 -0.8661
 4945SOL    HW226469   4.550   2.138   5.565  0.1899 -0.7031 -2.0028
 4946SOL     OW26470   2.409   1.252   9.149 -1.4730  0.4465  0.4976
 4946SOL    HW126471   2.382   1.163   9.126  0.5943 -0.2484  0.7777
 4946SOL    HW226472   2.487   1.221   9.195  0.1034  0.7382 -1.9629
 4947SOL     OW26473   2.248   4.545  17.584 -0.1971 -0.2782  0.6942
 4947SOL    HW126474   2.180   4.559  17.518 -0.3816 -1.2573  0.6779
 4947SOL    HW226475   2.274   4.456  17.560  1.1457  0.3335 -0.0897
 4948SOL     OW26476   1.247   4.106   1.992  0.2555 -0.1939 -0.7760
 4948SOL    HW126477   1.249   4.187   1.940 -0.8927 -0.3569 -1.0698
 4948SOL    HW226478   1.242   4.137   2.083  0.4689 -1.6839 -0.2623
 4949SOL     OW26479   0.967   0.898   3.461  0.1912 -0.2011  0.3415
 4949SOL    HW126480   0.929   0.928   3.543 -0.2090 -0.7791  0.3711
 4949SOL    HW226481   0.906   0.835   3.420 -0.1727 -1.1351  2.2988
 4950SOL     OW26482   1.807   3.639   1.986  0.2086 -0.1949  0.1028
 4950SOL    HW126483   1.869   3.619   2.057 -0.3789  1.0566  0.9650
 4950SOL    HW226484   1.751   3.712   2.012  1.6570 -0.0147  2.7859
 4951SOL     OW26485   0.672   0.620   7.981  0.1214  0.0845 -0.5794
 4951SOL    HW126486   0.641   0.652   7.896  0.7003 -2.1324 -1.6490
 4951SOL    HW226487   0.713   0.689   8.032  2.7115 -1.3552 -0.7288
 4952SOL     OW26488   1.922   1.948   0.588  0.2170  0.1262  0.8629
 4952SOL    HW126489   2.004   1.944   0.539  0.3007  2.6324  0.8123
 4952SOL    HW226490   1.949   1.890   0.660 -0.7320 -0.7060  0.5469
 4953SOL     OW26491   4.125   3.826   7.634  0.0357  0.1582 -0.3540
 4953SOL    HW126492   4.071   3.800   7.559 -0.7628  1.2153 -0.1446
 4953SOL    HW226493   4.105   3.744   7.680 -0.8264 -0.2335 -1.4166
 4954SOL     OW26494   2.221   4.616  10.027  0.1325  0.3884 -0.3488
 4954SOL    HW126495   2.263   4.690   9.984  1.6261 -0.6499 -0.6848
 4954SOL    HW226496   2.129   4.631  10.007  0.6395  3.6767 -0.2469
 4955SOL     OW26497   1.956   0.160   5.155  0.9626  0.0932 -0.4379
 4955SOL    HW126498   2.040   0.115   5.164  1.2738  0.4565 -1.6334
 4955SOL    HW226499   1.924   0.107   5.082  0.4005  1.1942 -0.9926
 4956SOL     OW26500   3.502   3.007   6.217 -0.7904 -0.4293 -0.3756
 4956SOL    HW126501   3.579   2.997   6.162 -0.5714  1.0995 -0.3442
 4956SOL    HW226502   3.429   2.983   6.160  1.4359 -0.9031 -2.9749
 4957SOL     OW26503   2.986   0.520   2.083 -0.3837 -0.1613  0.1663
 4957SOL    HW126504   3.069   0.566   2.091 -0.7853  0.7302 -0.7581
 4957SOL    HW226505   2.988   0.506   1.988  0.5142 -2.1992  0.4777
 4958SOL     OW26506   4.034   4.300  14.959 -0.2779 -0.1391  0.0972
 4958SOL    HW126507   4.025   4.352  14.879 -0.6238  0.3229  0.4411
 4958SOL    HW226508   4.049   4.214  14.919 -0.7461 -0.2913  0.2425
 4959SOL     OW26509   2.955   2.277   8.762  0.0445 -0.2735  0.3187
 4959SOL    HW126510   3.039   2.273   8.717 -0.0318 -1.7608  0.3289
 4959SOL    HW226511   2.928   2.186   8.749 -0.3862 -0.2145  0.7909
 4960SOL     OW26512   2.580   2.615   4.001  0.0127  0.1019 -0.2685
 4960SOL    HW126513   2.522   2.691   4.008 -0.7233 -0.7301  2.7021
 4960SOL    HW226514   2.537   2.554   3.941 -0.0157  0.2811 -0.4300
 4961SOL     OW26515   2.780   2.983   3.588  0.6853 -0.1627  0.1874
 4961SOL    HW126516   2.697   3.018   3.556  0.4515 -0.9269 -0.0561
 4961SOL    HW226517   2.822   2.937   3.515 -1.7474 -1.1000 -0.6154
 4962SOL     OW26518   2.197   4.373   1.111 -0.6014 -0.1402  0.1791
 4962SOL    HW126519   2.196   4.377   1.207 -0.0031 -3.2240  0.3364
 4962SOL    HW226520   2.200   4.277   1.102  1.2904 -0.0689  0.0970
 4963SOL     OW26521   0.686   2.189   8.478  0.2028 -0.0790  0.2145
 4963SOL    HW126522   0.625   2.117   8.461  0.3854  0.1950 -1.5329
 4963SOL    HW226523   0.636   2.233   8.546 -0.0914  2.9543 -1.9874
 4964SOL     OW26524   4.306   1.689   5.017  0.1118 -0.3185 -0.5909
 4964SOL    HW126525   4.254   1.669   4.939 -0.5196  1.9292 -0.7376
 4964SOL    HW226526   4.255   1.641   5.082 -0.7043  0.1789 -0.8637
 4965SOL     OW26527   3.606   3.419   3.587  0.7213  0.6762 -0.3493
 4965SOL    HW126528   3.614   3.487   3.655  0.1327  0.0060  0.3924
 4965SOL    HW226529   3.663   3.463   3.524  0.4636  1.2902 -0.1494
 4966SOL     OW26530   0.269   2.644   7.120  0.1298 -0.7472  0.1001
 4966SOL    HW126531   0.298   2.629   7.030  0.2287  1.5018 -0.2382
 4966SOL    HW226532   0.255   2.739   7.117 -2.5848 -1.1191  1.6223
 4967SOL     OW26533   0.098   3.540   4.098 -0.5691 -0.8649  0.1449
 4967SOL    HW126534   0.084   3.524   4.004 -2.7794  0.7997  0.1903
 4967SOL    HW226535   0.097   3.448   4.126  0.0608 -0.4831  1.4102
 4968SOL     OW26536   2.725   2.769   6.025  0.0237 -0.7347 -0.9197
 4968SOL    HW126537   2.719   2.864   6.038 -0.2043 -0.5074 -2.5856
 4968SOL    HW226538   2.688   2.751   5.938 -0.9309 -1.7575 -0.2824
 4969SOL     OW26539   0.208   4.550   9.317  0.3178 -0.1623  0.2001
 4969SOL    HW126540   0.241   4.639   9.308  1.8119 -0.6301  0.8736
 4969SOL    HW226541   0.160   4.559   9.399 -1.1852  0.0096 -0.7108
 4970SOL     OW26542   1.859   0.903   8.132 -0.5902 -0.2169 -0.0933
 4970SOL    HW126543   1.842   0.815   8.164  0.9458 -0.5179 -0.1113
 4970SOL    HW226544   1.769   0.934   8.123 -1.2868 -1.5864  2.2285
 4971SOL     OW26545   2.148   3.812   1.728 -0.4104  0.1031  0.1573
 4971SOL    HW126546   2.203   3.793   1.652  0.1281 -0.8393  0.7906
 4971SOL    HW226547   2.139   3.722   1.759  1.1996 -0.0211  0.2809
 4972SOL     OW26548   3.913   1.758  10.171  0.1719  0.0631  0.3233
 4972SOL    HW126549   3.903   1.812  10.249 -1.1355  0.0163  0.1876
 4972SOL    HW226550   3.888   1.670  10.197 -1.2324  0.2710 -0.3424
 4973SOL     OW26551   2.051   1.280  11.877 -0.7544  0.0392 -0.1668
 4973SOL    HW126552   2.073   1.352  11.936 -0.6144  0.4827 -0.7571
 4973SOL    HW226553   2.037   1.319  11.791  3.2386  0.3888 -0.6335
 4974SOL     OW26554   4.725   4.100  17.122  0.5406 -0.1983 -0.7175
 4974SOL    HW126555   4.692   4.156  17.052  0.3315  0.4644 -0.0862
 4974SOL    HW226556   0.061   4.152  17.153  0.1298 -0.0248 -0.0333
 4975SOL     OW26557   1.329   1.880   1.225 -0.4274  0.0545 -0.6646
 4975SOL    HW126558   1.269   1.923   1.163  1.0461  0.7739 -1.5922
 4975SOL    HW226559   1.406   1.918   1.184  0.2107 -0.7161 -0.1825
 4976SOL     OW26560   3.283   0.897   2.966  0.1410 -0.3413  0.3037
 4976SOL    HW126561   3.274   0.802   2.967 -0.6175 -0.2607  1.0595
 4976SOL    HW226562   3.201   0.930   2.931  0.7682  1.0210  0.1170
 4977SOL     OW26563   0.070   0.278   3.880 -0.2952  0.0873 -0.2374
 4977SOL    HW126564   0.158   0.294   3.845 -0.4099 -0.0262 -0.5806
 4977SOL    HW226565   0.042   0.241   3.796 -0.5967 -1.3768  0.5209
 4978SOL     OW26566   0.277   0.479   1.983  0.1202 -0.2044  0.2600
 4978SOL    HW126567   0.298   0.481   2.077  1.2473  0.8252 -0.0211
 4978SOL    HW226568   0.197   0.532   1.980  0.1867 -0.3171 -3.0010
 4979SOL     OW26569   0.831   1.686   7.848 -0.3141 -0.8890 -0.3718
 4979SOL    HW126570   0.791   1.729   7.773  0.6812  0.4591 -0.1288
 4979SOL    HW226571   0.759   1.682   7.911  1.3960 -0.5680  1.5866
 4980SOL     OW26572   3.207   0.730   2.534  0.1297 -0.6908 -0.1342
 4980SOL    HW126573   3.123   0.770   2.556  0.5600 -0.7494  1.6120
 4980SOL    HW226574   3.193   0.667   2.463 -0.0657  0.0489 -0.7569
 4981SOL     OW26575   4.023   3.477  13.443  0.4401 -0.0376  0.0214
 4981SOL    HW126576   3.964   3.490  13.369  0.7649 -0.5101 -0.3230
 4981SOL    HW226577   4.107   3.485  13.399 -0.2686  0.7394 -1.1769
 4982SOL     OW26578   0.162   1.452   3.145  0.6112  0.5414  0.1772
 4982SOL    HW126579   0.198   1.367   3.121 -0.0319 -0.3971  2.4749
 4982SOL    HW226580   0.068   1.445   3.132  0.8827  0.7527 -1.8271
 4983SOL     OW26581   1.887   1.035   8.477  0.0343  0.5171 -0.8815
 4983SOL    HW126582   1.819   0.980   8.516  0.4750  2.3912  2.5856
 4983SOL    HW226583   1.952   1.020   8.546 -1.0389  0.3254  0.0914
 4984SOL     OW26584   1.765   4.510   6.219 -0.5621 -0.4327 -0.2902
 4984SOL    HW126585   1.858   4.526   6.229 -0.3816 -1.9639  0.5940
 4984SOL    HW226586   1.759   4.419   6.249  2.4827  0.4053  2.7439
 4985SOL     OW26587   1.901   1.683  16.620 -0.5130 -0.4855  0.3362
 4985SOL    HW126588   1.818   1.708  16.580 -1.4464 -1.0961  1.9065
 4985SOL    HW226589   1.947   1.656  16.541  1.4377 -1.0842  1.6617
 4986SOL     OW26590   3.195   2.688   6.450  0.0172  0.4086  0.1670
 4986SOL    HW126591   3.268   2.692   6.389  0.8492  2.3723  1.3036
 4986SOL    HW226592   3.250   2.724   6.520  2.2375 -0.6550 -1.0592
 4987SOL     OW26593   1.641   2.555  12.317 -0.7154  0.1088 -0.0992
 4987SOL    HW126594   1.698   2.572  12.242 -1.2312  3.6028  0.2992
 4987SOL    HW226595   1.595   2.479  12.280  0.3935 -0.4374 -0.3543
 4988SOL     OW26596   4.536   3.766  14.671 -0.3110  0.8530 -0.3168
 4988SOL    HW126597   4.591   3.772  14.593 -0.1405 -0.6265 -0.3093
 4988SOL    HW226598   4.591   3.807  14.738  0.1430  0.3019 -0.3616
 4989SOL     OW26599   1.889   2.000   4.363  0.6679  0.6306  0.0533
 4989SOL    HW126600   1.882   2.092   4.386  0.0418  0.6534 -0.2261
 4989SOL    HW226601   1.983   1.986   4.351  0.6811  0.4569  0.3496
 4990SOL     OW26602   1.832   4.389   7.057  0.8750 -0.3293 -0.5188
 4990SOL    HW126603   1.911   4.434   7.086  1.1788 -0.2523 -1.4611
 4990SOL    HW226604   1.805   4.360   7.144 -0.1517 -0.6539 -0.9469
 4991SOL     OW26605   0.837   1.560   9.105  0.0664 -0.2747 -0.4874
 4991SOL    HW126606   0.905   1.500   9.135  0.0269  0.4456  1.0963
 4991SOL    HW226607   0.759   1.528   9.151  0.1629  0.8721  0.4818
 4992SOL     OW26608   2.010   4.627   1.629  0.5060 -0.0215 -0.3166
 4992SOL    HW126609   2.050   4.620   1.542  1.4382  0.0862  0.1130
 4992SOL    HW226610   2.000   4.722   1.630  2.8835  0.1524  3.4095
 4993SOL     OW26611   0.617   4.262   8.708  0.2784 -0.3438  0.4881
 4993SOL    HW126612   0.580   4.174   8.703 -1.9255  0.6999 -1.7720
 4993SOL    HW226613   0.710   4.255   8.725  0.0421 -1.1109  1.4557
 4994SOL     OW26614   2.447   3.044   1.190 -0.2031 -0.4488 -0.3045
 4994SOL    HW126615   2.478   3.049   1.099 -0.4500 -0.5490 -0.3934
 4994SOL    HW226616   2.407   2.958   1.185 -1.1498 -0.0868  1.0069
 4995SOL     OW26617   0.299   1.062   8.939 -0.0732  0.1177 -0.1810
 4995SOL    HW126618   0.342   1.007   8.874  1.8879  0.1915  1.0684
 4995SOL    HW226619   0.271   0.992   8.999 -3.2616  0.2708 -1.4590
 4996SOL     OW26620   3.344   4.171   9.002 -0.2757  0.0855  0.4900
 4996SOL    HW126621   3.392   4.170   8.919  1.0105  1.7639  1.2216
 4996SOL    HW226622   3.259   4.143   8.970 -0.5342  1.4644  0.0043
 4997SOL     OW26623   2.662   3.462  13.430  0.2292 -0.0375  0.0512
 4997SOL    HW126624   2.601   3.409  13.482  0.8858 -0.2083  0.6400
 4997SOL    HW226625   2.706   3.394  13.380 -0.8132 -0.4098 -0.3724
 4998SOL     OW26626   0.889   1.866   6.311  0.1832 -0.0939 -0.3357
 4998SOL    HW126627   0.817   1.812   6.344  1.7817 -1.9792  0.0802
 4998SOL    HW226628   0.866   1.869   6.218 -1.2155  0.4502  0.0350
 4999SOL     OW26629   2.434   2.088  15.842  1.0011 -0.7254 -0.3580
 4999SOL    HW126630   2.424   2.183  15.839  2.0550 -0.6200 -0.4506
 4999SOL    HW226631   2.350   2.065  15.804  1.7266 -0.8901 -1.8612
 5000SOL     OW26632   2.990   4.292  16.877 -0.0230 -0.1560 -0.5760
 5000SOL    HW126633   2.932   4.231  16.832 -2.2162  1.0400  0.6306
 5000SOL    HW226634   3.023   4.340  16.801 -0.0767  1.2478  0.2959
 5001SOL     OW26635   2.774   2.557   9.912  0.0341  0.4760 -0.9359
 5001SOL    HW126636   2.682   2.560   9.938  0.9173  0.4702  2.1334
 5001SOL    HW226637   2.795   2.649   9.928  0.9679  0.2482 -0.8816
 5002SOL     OW26638   2.570   0.823   6.503 -0.3080  0.1126 -0.0673
 5002SOL    HW126639   2.601   0.876   6.429  0.2555 -2.4903 -1.7132
 5002SOL    HW226640   2.646   0.839   6.559  0.8570 -0.7333 -1.4206
 5003SOL     OW26641   3.107   3.229  14.882 -0.1866 -0.1726  0.0800
 5003SOL    HW126642   3.114   3.211  14.789  0.4069  0.1192  0.0668
 5003SOL    HW226643   3.067   3.146  14.909  0.9617 -0.2764  1.4746
 5004SOL     OW26644   0.122   3.963  17.426 -0.2651 -0.2211 -0.4688
 5004SOL    HW126645   0.132   4.012  17.345  1.9002  1.3355  0.7469
 5004SOL    HW226646   0.194   3.900  17.428  0.1523  0.2386 -1.1631
 5005SOL     OW26647   1.000   0.196  11.758  0.9943 -0.2946  0.2161
 5005SOL    HW126648   0.954   0.235  11.683 -0.4116  0.1445  1.3087
 5005SOL    HW226649   0.954   0.114  11.777  0.7357 -0.0166  0.7667
 5006SOL     OW26650   1.975   2.251   9.345 -0.4653 -0.1775  0.2856
 5006SOL    HW126651   1.938   2.174   9.389 -0.1928 -0.3203  0.2604
 5006SOL    HW226652   1.903   2.264   9.283  1.1134 -1.2907 -1.7469
 5007SOL     OW26653   1.793   4.715  16.883  0.3761 -0.0758 -0.7373
 5007SOL    HW126654   1.753   0.056  16.846 -0.2337 -0.2020 -0.3332
 5007SOL    HW226655   1.809   0.009  16.972  0.5111  0.2487 -0.8766
 5008SOL     OW26656   3.592   2.514   6.484 -0.7780 -0.0099 -0.4288
 5008SOL    HW126657   3.677   2.523   6.529 -2.5122  0.9697  2.6519
 5008SOL    HW226658   3.605   2.433   6.434  0.4632 -0.6509  0.9182
 5009SOL     OW26659   4.030   3.354   6.324 -0.0120 -0.5402 -0.1658
 5009SOL    HW126660   3.976   3.338   6.402 -1.3817  1.9971 -0.5836
 5009SOL    HW226661   4.056   3.264   6.309 -0.1806 -1.0608  2.6828
 5010SOL     OW26662   3.903   3.462  15.051 -0.2758  0.1751  0.4635
 5010SOL    HW126663   3.863   3.549  15.060  1.5938  1.2791 -1.8831
 5010SOL    HW226664   3.909   3.442  15.144 -1.2163  0.2107  0.5318
 5011SOL     OW26665   2.827   0.604   5.583  0.1645 -0.2814 -0.3296
 5011SOL    HW126666   2.866   0.520   5.605  0.3040 -0.6521 -2.0042
 5011SOL    HW226667   2.766   0.582   5.512  0.2363 -3.2313  0.5297
 5012SOL     OW26668   0.433   2.888   4.264 -0.8341  0.4654  0.5583
 5012SOL    HW126669   0.372   2.952   4.228 -0.3512 -0.1931 -1.4530
 5012SOL    HW226670   0.510   2.944   4.274 -0.4143  0.2004 -1.1250
 5013SOL     OW26671   2.402   4.484   7.274 -0.2324 -0.0674 -0.2616
 5013SOL    HW126672   2.448   4.540   7.211 -0.2499  1.1528  0.7962
 5013SOL    HW226673   2.325   4.541   7.279  0.2377  0.3387  2.4734
 5014SOL     OW26674   1.111   3.726   9.517 -0.0716  0.6141  0.3937
 5014SOL    HW126675   1.167   3.695   9.588 -1.6921 -1.5501  0.7129
 5014SOL    HW226676   1.051   3.652   9.511  0.3419  0.2593  0.6679
 5015SOL     OW26677   2.218   2.152   3.557 -0.2103  0.2333  0.0900
 5015SOL    HW126678   2.272   2.213   3.507  0.0275 -0.4391 -0.4684
 5015SOL    HW226679   2.193   2.211   3.628  1.7562  2.7678 -1.3313
 5016SOL     OW26680   0.174   4.574   9.038  0.3341 -0.2326 -0.1804
 5016SOL    HW126681   0.222   4.534   9.110 -2.5668 -0.7159  1.4598
 5016SOL    HW226682   0.180   4.509   8.968  0.2862  1.5784 -1.9016
 5017SOL     OW26683   2.831   1.286   4.599  0.1782 -0.3021 -0.2700
 5017SOL    HW126684   2.848   1.380   4.610  0.1581 -0.3249 -0.0485
 5017SOL    HW226685   2.829   1.244   4.684  2.3197  0.8287  0.3437
 5018SOL     OW26686   3.601   3.684  16.121 -0.1333  0.8144 -0.1444
 5018SOL    HW126687   3.595   3.758  16.182 -0.7696  1.1751 -0.6504
 5018SOL    HW226688   3.652   3.624  16.175  0.8479  1.6864 -0.0967
 5019SOL     OW26689   1.328   4.299   5.889 -0.1437  0.1520 -0.2625
 5019SOL    HW126690   1.312   4.350   5.968  0.4666  0.0958 -0.1002
 5019SOL    HW226691   1.243   4.265   5.860  0.0085 -1.1632  0.7957
 5020SOL     OW26692   1.192   4.553   8.483 -0.7143 -0.1768 -0.0867
 5020SOL    HW126693   1.161   4.491   8.549 -0.8932 -0.3282 -0.3131
 5020SOL    HW226694   1.157   4.635   8.518  2.2494  1.0018  0.0843
 5021SOL     OW26695   2.178   0.712   4.945 -0.4118  1.0909 -0.0901
 5021SOL    HW126696   2.167   0.645   5.011  0.7057 -1.0891 -2.1183
 5021SOL    HW226697   2.112   0.690   4.879  0.2210 -0.6141 -0.1530
 5022SOL     OW26698   3.764   1.564   3.694 -0.0425  0.6951 -0.3937
 5022SOL    HW126699   3.732   1.625   3.761 -2.0295  1.1921 -1.8066
 5022SOL    HW226700   3.735   1.611   3.616  0.8626  2.4897  0.3340
 5023SOL     OW26701   1.177   1.432   4.490 -0.1787 -0.0689 -0.0523
 5023SOL    HW126702   1.182   1.520   4.527 -0.6003  0.1965 -0.6384
 5023SOL    HW226703   1.230   1.378   4.548  0.9017  0.6107 -0.3974
 5024SOL     OW26704   0.264   1.157   7.887  0.3271  0.5771  0.0486
 5024SOL    HW126705   0.346   1.167   7.936  1.0399 -0.7757 -0.8451
 5024SOL    HW226706   0.265   1.233   7.829  0.0650  0.1803 -0.4763
 5025SOL     OW26707   4.440   0.368   2.735 -0.0363  0.3814  0.0745
 5025SOL    HW126708   4.433   0.392   2.642 -1.3990 -1.1776 -0.2213
 5025SOL    HW226709   4.517   0.419   2.758  1.6589 -1.4540 -1.4900
 5026SOL     OW26710   1.581   1.445   4.746  0.1665 -0.1705  0.5101
 5026SOL    HW126711   1.658   1.425   4.800 -0.0127 -0.8207  0.5247
 5026SOL    HW226712   1.564   1.530   4.787 -3.0466 -1.3871  1.6636
 5027SOL     OW26713   1.926   4.689  11.276  0.4227  0.3085 -0.1330
 5027SOL    HW126714   1.936   4.612  11.332  2.1449 -1.0029 -2.2477
 5027SOL    HW226715   1.904   0.025  11.333  1.4245  0.8777 -0.4899
 5028SOL     OW26716   1.899   2.773  13.451  0.1902  0.4165 -0.5903
 5028SOL    HW126717   1.942   2.695  13.484  1.1374  0.6388 -1.2967
 5028SOL    HW226718   1.964   2.843  13.454  0.5888  0.0695 -1.1995
 5029SOL     OW26719   1.146   3.930   3.110 -0.3519  0.4758  0.6958
 5029SOL    HW126720   1.131   4.023   3.091 -0.4761  0.5050  0.9323
 5029SOL    HW226721   1.123   3.936   3.203 -0.8886  2.9276  0.4026
 5030SOL     OW26722   0.779   2.952   9.043  0.2666 -0.1352  0.2860
 5030SOL    HW126723   0.701   2.951   8.987 -0.3622 -2.2346  1.1811
 5030SOL    HW226724   0.796   3.045   9.027  0.4077 -0.7363 -2.9835
 5031SOL     OW26725   0.488   2.573  15.426 -0.2293 -0.0222  0.0444
 5031SOL    HW126726   0.422   2.574  15.495  1.0009  0.2306  1.2039
 5031SOL    HW226727   0.546   2.505  15.460 -0.7012 -0.0181  0.8400
 5032SOL     OW26728   0.222   4.352   7.662  0.8486 -0.3786 -0.6026
 5032SOL    HW126729   0.242   4.401   7.582  0.2953  0.6735 -0.0992
 5032SOL    HW226730   0.155   4.292   7.629 -0.1089 -0.1213  0.8787
 5033SOL     OW26731   3.741   3.583   5.106  0.3147  0.3437  0.2062
 5033SOL    HW126732   3.659   3.611   5.146 -0.0903  1.6290 -1.5468
 5033SOL    HW226733   3.803   3.620   5.169  1.7421 -0.1009 -0.9489
 5034SOL     OW26734   0.585   0.167  15.489  0.1676 -0.1440 -0.0233
 5034SOL    HW126735   0.567   0.217  15.409 -0.8012 -1.2480 -0.5047
 5034SOL    HW226736   0.615   0.082  15.457  0.2379 -0.6711  1.4736
 5035SOL     OW26737   3.863   2.617   9.785 -0.6391 -0.4961  0.5235
 5035SOL    HW126738   3.836   2.709   9.789 -0.2282 -0.3262 -0.4976
 5035SOL    HW226739   3.778   2.574   9.772 -1.0393  0.5752 -0.3844
 5036SOL     OW26740   2.690   3.219   0.285  0.3216  0.0050  0.1562
 5036SOL    HW126741   2.603   3.197   0.251 -0.0737 -0.1627  1.3063
 5036SOL    HW226742   2.690   3.315   0.279  0.4550 -0.0674 -1.0497
 5037SOL     OW26743   3.663   4.404   2.022  0.5166  0.2399 -0.4814
 5037SOL    HW126744   3.648   4.334   2.086 -1.4443  2.0312  0.9728
 5037SOL    HW226745   3.710   4.353   1.955  2.3933  0.1539  0.8869
 5038SOL     OW26746   2.851   2.293   1.864  0.1953 -0.5983 -0.0742
 5038SOL    HW126747   2.917   2.330   1.923  0.1361 -1.6462  0.6523
 5038SOL    HW226748   2.811   2.371   1.827  1.1903  0.5913  1.3798
 5039SOL     OW26749   2.077   2.788  15.155  0.1024  0.1042  0.2451
 5039SOL    HW126750   2.030   2.738  15.089 -0.4250 -1.1613  1.5810
 5039SOL    HW226751   2.160   2.807  15.111  1.2086 -1.5414  1.5813
 5040SOL     OW26752   3.608   2.116   2.082  0.1140 -0.1544 -0.2829
 5040SOL    HW126753   3.643   2.114   2.171  1.5046  1.2036 -0.8096
 5040SOL    HW226754   3.543   2.186   2.073  0.0783 -0.2694 -0.9674
 5041SOL     OW26755   0.797   4.147   3.672 -0.0932  0.1423  0.0609
 5041SOL    HW126756   0.851   4.069   3.684 -1.3654 -0.8722 -0.7414
 5041SOL    HW226757   0.778   4.144   3.578 -4.3528 -0.2657  0.9475
 5042SOL     OW26758   3.774   1.016   3.970  0.3219  0.1536 -0.4968
 5042SOL    HW126759   3.734   0.963   3.901  1.2449 -2.5544  1.0434
 5042SOL    HW226760   3.697   1.072   3.981  1.0819  1.0454  0.2963
 5043SOL     OW26761   2.966   0.816   6.249 -0.2286 -0.0168 -0.2758
 5043SOL    HW126762   3.045   0.790   6.202  0.4661  0.9938  0.3328
 5043SOL    HW226763   2.898   0.785   6.189 -0.5978  0.9833 -0.3771
 5044SOL     OW26764   4.367   4.303   8.608  0.1070 -0.1804  0.1216
 5044SOL    HW126765   4.345   4.397   8.611  2.0429  0.3106 -0.9291
 5044SOL    HW226766   4.286   4.267   8.643 -0.1951  0.9397  0.5883
 5045SOL     OW26767   0.164   4.345   4.621 -0.2679 -0.4068  0.2638
 5045SOL    HW126768   0.142   4.428   4.664  0.1341  0.6175 -1.5188
 5045SOL    HW226769   0.095   4.293   4.663  0.1884 -0.7420  0.5900
 5046SOL     OW26770   4.083   2.916   1.481 -0.3432  0.3492 -0.0929
 5046SOL    HW126771   4.135   2.946   1.556 -1.0000  1.2711 -0.0144
 5046SOL    HW226772   4.036   2.995   1.453  1.1127  0.0026 -3.5250
 5047SOL     OW26773   3.525   1.217   7.404  0.0254  0.3430  0.0936
 5047SOL    HW126774   3.432   1.194   7.407 -0.2001  1.3022  0.4225
 5047SOL    HW226775   3.561   1.166   7.331 -1.5057  1.7717 -1.6636
 5048SOL     OW26776   3.213   1.066   2.417 -0.2132 -0.5574  0.2873
 5048SOL    HW126777   3.187   1.095   2.504  0.1294 -0.0025  0.2049
 5048SOL    HW226778   3.153   0.994   2.400 -1.6954  1.0236 -1.1431
 5049SOL     OW26779   1.247   2.697   7.779 -0.1199 -0.6885 -0.0600
 5049SOL    HW126780   1.173   2.645   7.811 -2.2747  2.3387 -0.1071
 5049SOL    HW226781   1.314   2.632   7.758 -0.2013 -1.7433  2.9439
 5050SOL     OW26782   4.302   2.524  10.050  0.0158  0.0568 -0.0561
 5050SOL    HW126783   4.281   2.585   9.980 -1.2343  0.3839  0.6203
 5050SOL    HW226784   4.256   2.445  10.021 -0.6041  1.6539 -3.3681
 5051SOL     OW26785   2.921   0.282   4.838 -0.1091 -0.2166 -0.4494
 5051SOL    HW126786   2.894   0.364   4.797  0.6919 -0.9696 -2.4645
 5051SOL    HW226787   2.937   0.321   4.924 -0.3537  0.0962 -0.5476
 5052SOL     OW26788   2.233   2.948  16.792 -0.1529  0.5701  0.5406
 5052SOL    HW126789   2.267   3.001  16.864  0.2139  1.2465 -0.1318
 5052SOL    HW226790   2.305   2.939  16.730  0.7040  1.6569  1.3859
 5053SOL     OW26791   3.833   3.637   0.969 -0.4292 -0.0353  0.0399
 5053SOL    HW126792   3.921   3.674   0.983 -0.9411  1.0940  0.2531
 5053SOL    HW226793   3.836   3.583   1.047 -1.2825  0.5023  0.4405
 5054SOL     OW26794   2.632   1.746   5.769 -0.1660 -0.3105 -0.1848
 5054SOL    HW126795   2.540   1.770   5.760  0.3421  1.2813 -1.2007
 5054SOL    HW226796   2.637   1.740   5.864  1.0802  0.9489 -0.1820
 5055SOL     OW26797   4.420   4.054  10.412  0.5730  0.6619  0.2325
 5055SOL    HW126798   4.389   4.022  10.496  0.9856  2.2800  0.9959
 5055SOL    HW226799   4.505   4.010  10.406  0.0567  0.0667 -2.7983
 5056SOL     OW26800   1.384   2.935   1.420  0.0726 -0.2772 -0.0890
 5056SOL    HW126801   1.337   2.962   1.499  0.9093  0.0025  0.3102
 5056SOL    HW226802   1.308   2.920   1.364 -0.4177  0.3946  0.4001
 5057SOL     OW26803   1.067   4.057   6.619 -0.4997  0.0525  0.3917
 5057SOL    HW126804   1.156   4.054   6.584 -0.2276 -0.8377  1.1831
 5057SOL    HW226805   1.010   4.042   6.543 -2.3436 -0.4020  1.8558
 5058SOL     OW26806   1.511   1.978  12.527 -0.6061 -0.1189 -0.1867
 5058SOL    HW126807   1.575   1.986  12.598  0.6159 -0.4568 -1.2540
 5058SOL    HW226808   1.568   1.958  12.452 -0.4741 -2.7748  0.6513
 5059SOL     OW26809   2.314   1.417  12.431 -0.3473 -0.0927  0.6361
 5059SOL    HW126810   2.238   1.415  12.372 -1.8821  0.7345  2.5947
 5059SOL    HW226811   2.265   1.383  12.506 -1.2895  1.0152  0.5133
 5060SOL     OW26812   0.493   0.193   1.791  0.4910  0.6117 -0.1960
 5060SOL    HW126813   0.464   0.199   1.882  0.3032 -0.9315 -0.1525
 5060SOL    HW226814   0.481   0.286   1.771  2.3925  0.8202 -0.3777
 5061SOL     OW26815   3.188   3.829   6.209 -0.2371  0.1781  0.3762
 5061SOL    HW126816   3.171   3.839   6.115 -1.0922  1.3589  0.6694
 5061SOL    HW226817   3.265   3.885   6.208  0.6694 -1.0588  0.2990
 5062SOL     OW26818   0.413   2.555  12.500  0.4687  0.2880 -0.2857
 5062SOL    HW126819   0.338   2.611  12.482 -1.0982 -1.5884  0.3190
 5062SOL    HW226820   0.485   2.611  12.473 -0.3779  1.6225  0.2368
 5063SOL     OW26821   1.398   0.972  10.003 -0.1012  0.1489 -0.0436
 5063SOL    HW126822   1.421   0.945  10.092  1.7571 -0.3869 -0.6789
 5063SOL    HW226823   1.460   0.923   9.948 -4.5227 -1.5036 -3.5179
 5064SOL     OW26824   1.701   3.566   8.588  0.0610  0.0041 -0.5976
 5064SOL    HW126825   1.700   3.661   8.602  0.3210  0.0833 -1.1204
 5064SOL    HW226826   1.770   3.533   8.645 -1.0924  0.5317  1.1137
 5065SOL     OW26827   0.087   4.075   6.941 -0.5080  0.0157 -0.2459
 5065SOL    HW126828   0.122   4.087   7.029  1.1796 -0.3505 -0.8723
 5065SOL    HW226829   0.078   3.980   6.940  2.2904 -0.2272 -0.2810
 5066SOL     OW26830   0.433   0.882   7.442 -0.3322 -0.1666  0.1819
 5066SOL    HW126831   0.398   0.931   7.517  0.6343 -1.0064  1.1718
 5066SOL    HW226832   0.496   0.947   7.412  0.8479 -1.2927  0.2408
 5067SOL     OW26833   0.655   2.295  10.756  0.1111 -0.1039 -0.0681
 5067SOL    HW126834   0.723   2.361  10.774  2.2481 -2.5281  0.6716
 5067SOL    HW226835   0.702   2.217  10.784 -0.5466  0.2048  1.9169
 5068SOL     OW26836   2.203   4.086   2.813 -0.0435  0.4202 -0.1787
 5068SOL    HW126837   2.219   4.008   2.760  0.0107 -0.6009  1.3203
 5068SOL    HW226838   2.236   4.159   2.761 -1.6308  2.4162  1.6166
 5069SOL     OW26839   0.645   2.635   0.478  0.2132  0.1432  0.0769
 5069SOL    HW126840   0.615   2.723   0.459  0.0823  0.2619  0.8581
 5069SOL    HW226841   0.722   2.614   0.425 -1.1870  0.7418 -2.1833
 5070SOL     OW26842   4.461   0.772   4.067  0.2481 -0.3332  0.0176
 5070SOL    HW126843   4.475   0.781   3.973 -1.2759  0.8141 -0.0978
 5070SOL    HW226844   4.398   0.701   4.076 -2.1351  1.8507  0.5087
 5071SOL     OW26845   1.866   2.759   5.081  0.7191 -0.0875  0.6371
 5071SOL    HW126846   1.808   2.723   5.014  2.9102  0.7505 -1.7169
 5071SOL    HW226847   1.837   2.723   5.165  0.2100  1.4508  1.1101
 5072SOL     OW26848   2.074   0.459   5.768  0.4660  0.3337 -0.3481
 5072SOL    HW126849   2.108   0.369   5.770  0.7443  0.4486  0.1013
 5072SOL    HW226850   1.999   0.447   5.827  1.8174  1.4229  1.5749
 5073SOL     OW26851   1.672   0.212  16.795 -0.5605  0.1695 -0.1735
 5073SOL    HW126852   1.607   0.203  16.865 -1.0412 -1.3507 -0.8060
 5073SOL    HW226853   1.731   0.272  16.840 -2.3100  1.3348  0.5731
 5074SOL     OW26854   2.911   0.241   6.858 -0.1326  0.0314 -0.2072
 5074SOL    HW126855   2.917   0.288   6.941  2.0577 -0.8559  0.1300
 5074SOL    HW226856   2.940   0.310   6.798 -0.5640  0.2658 -0.1449
 5075SOL     OW26857   3.639   1.383  10.151 -0.6516 -0.0144 -0.4365
 5075SOL    HW126858   3.716   1.341  10.112 -0.5318  1.8038 -2.1242
 5075SOL    HW226859   3.669   1.393  10.241 -0.3898  0.1036 -0.5389
 5076SOL     OW26860   4.709   4.726  13.830 -0.5835  0.1031 -0.1950
 5076SOL    HW126861   0.050   4.732  13.883 -1.0120 -0.1276  0.4659
 5076SOL    HW226862   4.696   0.078  13.799  1.3694  0.1091 -0.9655
 5077SOL     OW26863   4.003   3.340   8.513  0.1834 -0.1707 -0.3617
 5077SOL    HW126864   4.060   3.264   8.527 -0.3925 -0.6130 -0.4200
 5077SOL    HW226865   4.021   3.378   8.427 -0.6455 -0.6550 -0.7548
 5078SOL     OW26866   1.094   2.665   9.515 -0.0886 -0.5767  0.3418
 5078SOL    HW126867   1.148   2.671   9.594  2.1169 -0.9378 -1.1504
 5078SOL    HW226868   1.038   2.743   9.517 -1.7386 -1.6935 -2.1072
 5079SOL     OW26869   1.056   3.983   7.421  0.1291  0.2479 -0.4117
 5079SOL    HW126870   0.993   3.938   7.477  0.2702  0.2089 -0.2836
 5079SOL    HW226871   1.096   3.906   7.380  0.1922 -0.0831  0.2689
 5080SOL     OW26872   2.320   2.291   6.260 -0.0733  0.7222  0.4777
 5080SOL    HW126873   2.258   2.304   6.188  1.6142  0.4590 -1.0130
 5080SOL    HW226874   2.275   2.323   6.338  0.3071 -1.3849  1.5351
 5081SOL     OW26875   0.384   1.957   9.508 -0.1378 -0.0216 -0.2113
 5081SOL    HW126876   0.423   1.965   9.595 -0.0981 -1.8375 -0.0725
 5081SOL    HW226877   0.457   1.988   9.454  1.1751 -0.3046  1.4029
 5082SOL     OW26878   2.528   0.374   5.522  0.2060  1.0614  0.3399
 5082SOL    HW126879   2.434   0.384   5.536 -0.4163 -2.5055 -1.1800
 5082SOL    HW226880   2.546   0.467   5.508  1.9395  0.5074 -1.0137
 5083SOL     OW26881   3.734   3.343  13.100 -0.2460 -0.1706  0.4055
 5083SOL    HW126882   3.786   3.298  13.033 -0.0922  1.2440 -0.4246
 5083SOL    HW226883   3.657   3.372  13.051  0.8967  1.2665 -0.5477
 5084SOL     OW26884   1.964   3.716   9.394  0.1314 -0.4437  0.2383
 5084SOL    HW126885   1.952   3.746   9.305 -0.6390 -1.5353 -0.0285
 5084SOL    HW226886   2.054   3.683   9.399  0.8534  1.4526 -0.4850
 5085SOL     OW26887   3.528   3.594   3.248 -0.1244  0.3011  0.0020
 5085SOL    HW126888   3.601   3.612   3.307  0.3047 -1.6366  0.0511
 5085SOL    HW226889   3.527   3.664   3.182 -1.1368  0.2206 -0.0739
 5086SOL     OW26890   2.055   4.454   0.020  0.3413 -0.3247 -0.5885
 5086SOL    HW126891   2.128   4.489  17.717  0.6728 -0.6628 -0.3457
 5086SOL    HW226892   1.977   4.482  17.721  1.2086  0.0266 -1.7985
 5087SOL     OW26893   2.189   1.406   8.882  0.0625  0.0348  0.4331
 5087SOL    HW126894   2.169   1.433   8.972  0.3115 -1.3104  0.8848
 5087SOL    HW226895   2.121   1.445   8.828 -0.3737 -0.7967  0.3831
 5088SOL     OW26896   0.558   3.904  11.520  0.1332  0.5148 -0.4689
 5088SOL    HW126897   0.550   3.837  11.451  3.3203 -0.5906  0.2356
 5088SOL    HW226898   0.477   3.954  11.525 -0.5814 -0.6357 -0.3717
 5089SOL     OW26899   0.472   4.064   4.598 -0.6800 -0.0594  0.0885
 5089SOL    HW126900   0.423   4.096   4.675  1.3107 -1.1787  1.8228
 5089SOL    HW226901   0.520   4.142   4.571 -1.3935  0.0910 -0.7245
 5090SOL     OW26902   3.180   3.258   6.937 -0.1877  0.0949 -0.3376
 5090SOL    HW126903   3.187   3.300   6.852 -2.8327  1.4987  0.1385
 5090SOL    HW226904   3.212   3.327   6.995  0.4748  0.2590 -0.9063
 5091SOL     OW26905   2.365   1.452   5.965  0.3365  0.1408  0.0037
 5091SOL    HW126906   2.373   1.386   6.034  0.8536 -0.5676 -0.7337
 5091SOL    HW226907   2.422   1.411   5.900  0.2172  2.1121 -1.3544
 5092SOL     OW26908   0.906   1.111   2.070 -0.5701 -0.5632 -0.5196
 5092SOL    HW126909   0.914   1.182   2.135  0.2144  0.0725 -1.3114
 5092SOL    HW226910   0.982   1.058   2.095 -0.5003 -0.3760 -0.3313
 5093SOL     OW26911   1.971   4.444   7.739  0.6395  0.6175 -0.3749
 5093SOL    HW126912   1.993   4.525   7.694  0.3682 -0.0165 -1.6572
 5093SOL    HW226913   1.877   4.454   7.751  0.8564  2.2408 -0.0978
 5094SOL     OW26914   3.335   3.919   6.633 -0.6126  0.2951  0.7652
 5094SOL    HW126915   3.281   3.870   6.571 -1.7640  1.7586  0.6315
 5094SOL    HW226916   3.278   3.987   6.670 -2.0138  0.3389 -1.4967
 5095SOL     OW26917   1.524   0.712  14.970  0.5287 -0.0121 -0.0733
 5095SOL    HW126918   1.433   0.684  14.966  1.5693 -3.3199 -0.2804
 5095SOL    HW226919   1.543   0.672  15.055 -1.0912 -0.1424  0.2352
 5096SOL     OW26920   4.357   2.533   3.383  0.4989  0.3278 -0.0848
 5096SOL    HW126921   4.281   2.592   3.387  0.0804 -0.1953 -0.2463
 5096SOL    HW226922   4.324   2.451   3.420  2.1261 -0.1027  0.4063
 5097SOL     OW26923   0.707   3.939  11.108  0.3405 -0.4672  0.1057
 5097SOL    HW126924   0.698   3.972  11.198 -0.1430 -1.8520  0.5795
 5097SOL    HW226925   0.782   3.987  11.076 -0.4805 -0.6208 -2.0204
 5098SOL     OW26926   4.687   4.324  14.380 -0.0120  0.0173 -0.3079
 5098SOL    HW126927   4.596   4.327  14.408  1.4120  0.3841  4.3444
 5098SOL    HW226928   4.692   4.317  14.285 -0.1608 -4.0287 -0.0144
 5099SOL     OW26929   2.358   3.650   9.236  0.4475 -0.0225  0.4861
 5099SOL    HW126930   2.294   3.623   9.301 -0.8499 -1.9188 -1.5885
 5099SOL    HW226931   2.446   3.620   9.261  0.8631 -1.5352 -2.6852
 5100SOL     OW26932   3.654   3.135   8.157 -0.1916 -0.0183 -0.2621
 5100SOL    HW126933   3.583   3.185   8.198  0.9331 -0.2153  1.9162
 5100SOL    HW226934   3.699   3.102   8.235 -3.9260 -1.2067  1.4510
 5101SOL     OW26935   2.637   2.846  17.620 -0.6377 -0.3823  0.1727
 5101SOL    HW126936   2.608   2.782  17.685  1.2601 -0.9851  0.4398
 5101SOL    HW226937   2.717   2.801  17.593 -1.2101 -1.2891 -0.0016
 5102SOL     OW26938   4.593   1.720   7.724  0.0122 -0.0689 -0.1595
 5102SOL    HW126939   4.550   1.637   7.703 -3.3549  1.9997 -1.2979
 5102SOL    HW226940   4.532   1.777   7.770  0.6485  1.3513 -1.0814
 5103SOL     OW26941   0.845   0.634   6.633  0.1450  0.5513 -0.1748
 5103SOL    HW126942   0.872   0.630   6.541 -0.3294  3.4450 -0.4449
 5103SOL    HW226943   0.825   0.543   6.654  1.0921  0.1575 -0.9489
 5104SOL     OW26944   3.013   4.318   4.855 -0.1783 -0.1093  0.4178
 5104SOL    HW126945   3.044   4.386   4.795 -1.2254 -0.7599 -0.8643
 5104SOL    HW226946   2.986   4.375   4.928  1.2367 -0.9107  1.5633
 5105SOL     OW26947   3.967   3.483   9.476  0.5108 -0.5169 -1.0718
 5105SOL    HW126948   4.051   3.523   9.452  0.5272 -0.2770 -0.6305
 5105SOL    HW226949   3.976   3.390   9.456 -1.1688 -0.8265 -0.3282
 5106SOL     OW26950   0.927   2.401   1.930 -0.2908 -0.3095 -0.4639
 5106SOL    HW126951   0.950   2.309   1.927  0.1312 -0.0641 -4.6221
 5106SOL    HW226952   0.834   2.405   1.905 -1.0931 -0.8466  2.4185
 5107SOL     OW26953   2.778   0.390   2.559 -0.4956  0.0246 -0.6278
 5107SOL    HW126954   2.716   0.429   2.621  2.4782  1.8825  1.1574
 5107SOL    HW226955   2.721   0.360   2.488 -0.1509  1.4476 -1.5034
 5108SOL     OW26956   2.315   3.790   7.628 -0.5968  0.6355  0.1230
 5108SOL    HW126957   2.318   3.853   7.556  0.5575  0.8052  0.3121
 5108SOL    HW226958   2.265   3.834   7.696 -0.1130 -1.8185  2.0708
 5109SOL     OW26959   2.836   2.660   4.594  0.0396  0.4931 -0.1449
 5109SOL    HW126960   2.906   2.608   4.553  0.3158  0.8902 -0.1752
 5109SOL    HW226961   2.771   2.663   4.524  0.0525 -1.0731 -0.2345
 5110SOL     OW26962   3.352   2.918   9.185  0.2517 -0.3161 -0.1218
 5110SOL    HW126963   3.301   2.985   9.138  1.0445  0.7541  0.5470
 5110SOL    HW226964   3.438   2.946   9.154  0.9981 -1.3749  0.9910
 5111SOL     OW26965   1.177   2.133  13.725  0.0305  0.0723  0.1442
 5111SOL    HW126966   1.133   2.055  13.690  2.8244 -0.8693 -1.2316
 5111SOL    HW226967   1.144   2.210  13.679  1.6737  1.3486  1.1028
 5112SOL     OW26968   2.682   2.161   1.464  0.0613 -0.2485 -0.1051
 5112SOL    HW126969   2.777   2.152   1.479 -0.2014 -1.3892  0.9048
 5112SOL    HW226970   2.664   2.223   1.534  1.1677  1.3321 -1.1993
 5113SOL     OW26971   4.070   0.159  12.864  0.5058  0.3944 -0.0824
 5113SOL    HW126972   4.015   0.237  12.859  0.9726  0.6316 -1.5864
 5113SOL    HW226973   4.150   0.196  12.827 -0.5513  2.0591 -0.7044
 5114SOL     OW26974   2.313   0.509   1.323  0.0257  0.0256 -0.1239
 5114SOL    HW126975   2.390   0.493   1.269  0.3335 -0.5677  0.4832
 5114SOL    HW226976   2.270   0.423   1.328  1.2134 -0.5723 -0.1625
 5115SOL     OW26977   0.134   0.896   0.452 -0.6966 -0.4225 -0.1612
 5115SOL    HW126978   0.147   0.866   0.542 -1.3066 -2.4722 -0.7555
 5115SOL    HW226979   0.060   0.838   0.433 -1.9975  1.1081  0.2244
 5116SOL     OW26980   2.789   0.643  17.175 -0.5853  0.2060  0.8137
 5116SOL    HW126981   2.703   0.601  17.179 -0.5387 -0.0251 -0.4592
 5116SOL    HW226982   2.762   0.734  17.172  1.7158  0.8577 -0.5203
 5117SOL     OW26983   2.061   1.651  17.616 -0.5597 -0.0310 -0.0832
 5117SOL    HW126984   2.099   1.739  17.617 -0.0895 -0.2334  0.4852
 5117SOL    HW226985   2.139   1.599  17.597 -1.1730 -0.5051 -1.2833
 5118SOL     OW26986   4.337   2.087   9.017 -0.6250  0.5153  0.2892
 5118SOL    HW126987   4.385   2.013   9.054 -0.2210 -0.7063 -2.6030
 5118SOL    HW226988   4.300   2.060   8.932 -1.1918 -1.3525  1.1298
 5119SOL     OW26989   2.745   2.862   7.468  0.1326  0.2268  0.0950
 5119SOL    HW126990   2.817   2.920   7.442 -0.7487  1.5922  0.6699
 5119SOL    HW226991   2.773   2.773   7.449  2.8425  1.3808 -1.3790
 5120SOL     OW26992   4.200   2.998  17.034 -0.2580  0.5555 -0.3963
 5120SOL    HW126993   4.136   3.014  16.964 -1.7894 -2.1641  0.4005
 5120SOL    HW226994   4.233   2.911  17.014  2.8056  1.4777  0.7348
 5121SOL     OW26995   0.288   0.332   1.607 -0.5838  0.3036 -0.3750
 5121SOL    HW126996   0.283   0.239   1.588 -0.4939  0.3466 -0.6155
 5121SOL    HW226997   0.282   0.377   1.523  2.9383 -0.1945 -0.9203
 5122SOL     OW26998   0.161   3.592   4.709 -0.6449  0.4193  0.1911
 5122SOL    HW126999   0.098   3.576   4.779 -0.1380  2.6539  1.1657
 5122SOL    HW227000   0.172   3.507   4.666  0.1407  1.8140 -2.3510
 5123SOL     OW27001   1.567   1.462   6.279  0.4928 -0.4015 -0.0523
 5123SOL    HW127002   1.561   1.512   6.360  0.4808 -2.1344  0.9922
 5123SOL    HW227003   1.543   1.373   6.302 -0.3455 -0.1550 -0.0006
 5124SOL     OW27004   1.683   3.598   5.911 -0.0244 -0.3346 -0.0359
 5124SOL    HW127005   1.592   3.615   5.887 -0.5351 -0.6195  1.7264
 5124SOL    HW227006   1.718   3.687   5.911 -1.1681  0.1113 -1.3353
 5125SOL     OW27007   0.922   1.661   5.537 -0.2032 -0.0858 -0.1253
 5125SOL    HW127008   0.838   1.615   5.543 -0.7397  0.9156  0.2459
 5125SOL    HW227009   0.923   1.698   5.449  0.2504  2.9089  1.1363
 5126SOL     OW27010   2.133   0.605   4.028  0.0424  0.0031 -0.1006
 5126SOL    HW127011   2.180   0.626   4.108 -0.2368 -1.3468  0.4226
 5126SOL    HW227012   2.168   0.523   3.994  0.6807  0.1049  0.3319
 5127SOL     OW27013   4.696   0.093   4.729 -0.2983  0.1760  0.0579
 5127SOL    HW127014   4.654   0.021   4.682 -0.0698  0.1691 -0.1409
 5127SOL    HW227015   4.615   0.141   4.746 -1.0466 -1.8827  2.1394
 5128SOL     OW27016   1.487   4.615  10.152  0.6440  0.2352 -0.3934
 5128SOL    HW127017   1.445   4.684  10.203 -0.3746  1.2482 -2.5672
 5128SOL    HW227018   1.464   4.536  10.201 -1.1805  1.0177  0.0262
 5129SOL     OW27019   0.106   2.074  15.181 -0.8783  0.3884 -0.3842
 5129SOL    HW127020   0.041   2.142  15.164 -1.2918  0.2596  0.6861
 5129SOL    HW227021   0.186   2.127  15.188 -1.2208  0.5143  2.5676
 5130SOL     OW27022   1.142   2.335   1.354  0.2168 -0.3245  0.3152
 5130SOL    HW127023   1.082   2.393   1.307 -0.6399 -0.0125  1.7861
 5130SOL    HW227024   1.142   2.256   1.300  1.2040 -0.8799  1.1423
 5131SOL     OW27025   2.777   1.187   6.032  0.0095  0.5057  0.4149
 5131SOL    HW127026   2.858   1.149   5.997 -1.3350 -0.8566 -1.1397
 5131SOL    HW227027   2.808   1.204   6.122  3.8780 -0.3264 -0.7417
 5132SOL     OW27028   2.149   4.592   3.879 -0.0735 -0.1167  0.2624
 5132SOL    HW127029   2.082   4.650   3.915 -0.5260 -0.6253  0.2494
 5132SOL    HW227030   2.116   4.575   3.791  1.8760  0.8529 -0.6342
 5133SOL     OW27031   1.875   2.007   6.255  0.7936 -0.0816  0.1992
 5133SOL    HW127032   1.801   1.987   6.198 -0.5528  0.5447  1.7129
 5133SOL    HW227033   1.910   1.924   6.285  2.0862  0.5614  0.4631
 5134SOL     OW27034   1.223   0.121  16.537  0.3338 -0.1775 -0.0017
 5134SOL    HW127035   1.144   0.105  16.588 -1.9350  1.2494 -3.1086
 5134SOL    HW227036   1.282   0.064  16.586  0.5448 -1.4590 -1.7408
 5135SOL     OW27037   0.381   1.448  13.444 -0.0886 -0.1329  0.8135
 5135SOL    HW127038   0.303   1.473  13.493  2.3230  0.3856  4.4724
 5135SOL    HW227039   0.429   1.530  13.460  1.3748 -1.4121  2.9627
 5136SOL     OW27040   4.568   1.572   5.231 -0.4450 -0.4878 -0.2194
 5136SOL    HW127041   4.570   1.503   5.165 -0.8825  1.2226 -2.0383
 5136SOL    HW227042   4.537   1.641   5.171  0.3730  0.3313  0.3016
 5137SOL     OW27043   2.677   4.414   6.867 -0.0867 -0.6225  0.1475
 5137SOL    HW127044   2.612   4.484   6.861  0.2635 -0.4502 -1.4295
 5137SOL    HW227045   2.745   4.458   6.919  0.2232 -0.5552 -0.3188
 5138SOL     OW27046   4.571   1.030   3.181  0.1082  0.1734  0.3468
 5138SOL    HW127047   4.530   0.944   3.186  3.5327 -1.4123  0.7828
 5138SOL    HW227048   4.523   1.069   3.108 -0.0609  0.4052  0.5754
 5139SOL     OW27049   4.719   0.987  15.968 -0.7166  0.1011  0.0644
 5139SOL    HW127050   0.010   0.980  16.059 -0.8487 -0.5909  0.0511
 5139SOL    HW227051   0.054   1.034  15.928 -0.7275  0.2945  0.2737
 5140SOL     OW27052   1.814   1.583   8.946  0.2991 -0.1841 -0.8356
 5140SOL    HW127053   1.858   1.628   9.019 -2.0288 -0.3694  0.6792
 5140SOL    HW227054   1.727   1.565   8.980 -0.7159  4.1019 -1.1192
 5141SOL     OW27055   3.900   3.348   0.921 -0.0843  0.5435 -0.0389
 5141SOL    HW127056   3.941   3.408   0.983 -1.3513  2.1922 -0.7985
 5141SOL    HW227057   3.943   3.357   0.836 -0.7704  0.8109 -0.3611
 5142SOL     OW27058   1.351   2.507  13.326 -0.3255 -0.0269  0.1820
 5142SOL    HW127059   1.335   2.583  13.382  2.4619  1.7316 -1.3812
 5142SOL    HW227060   1.432   2.529  13.279 -0.0386 -0.7653  0.3237
 5143SOL     OW27061   2.325   0.772   8.957  0.3384 -0.2039 -0.7255
 5143SOL    HW127062   2.382   0.720   8.900  0.8492  0.4720 -0.8259
 5143SOL    HW227063   2.342   0.860   8.925  1.9843 -0.5960 -0.9073
 5144SOL     OW27064   3.910   0.221  10.918 -0.1754  0.3381 -0.3232
 5144SOL    HW127065   3.908   0.279  10.994  2.4448  0.7201 -0.5500
 5144SOL    HW227066   3.824   0.246  10.883  0.0504 -0.5385 -1.5145
 5145SOL     OW27067   0.400   0.066   6.333  0.2627  0.0478  0.1317
 5145SOL    HW127068   0.487   0.028   6.319  1.9592  3.3100  1.6296
 5145SOL    HW227069   0.390   0.058   6.428 -3.1477 -0.7891 -0.3045
 5146SOL     OW27070   2.647   0.702  16.521  0.5439  0.0540 -0.3669
 5146SOL    HW127071   2.726   0.751  16.501  0.5862  0.5464  0.9760
 5146SOL    HW227072   2.578   0.738  16.466 -0.9764  1.6280  2.5255
 5147SOL     OW27073   2.888   2.965  17.053  0.5322  0.0577 -0.5170
 5147SOL    HW127074   2.950   2.895  17.073  1.0353  0.0328 -2.2163
 5147SOL    HW227075   2.886   2.954  16.958  0.9711 -1.2271 -0.3787
 5148SOL     OW27076   2.346   0.840   6.031  0.2705 -0.4961  0.0616
 5148SOL    HW127077   2.303   0.806   6.110  0.5914 -0.1535  0.3822
 5148SOL    HW227078   2.367   0.759   5.984  1.4590 -1.8103  2.8699
 5149SOL     OW27079   4.042   0.030   6.837  0.3342  0.1377  0.3423
 5149SOL    HW127080   4.059   0.054   6.746  1.7071 -0.9865  0.2972
 5149SOL    HW227081   4.063   0.116   6.872  0.8477  0.3082 -0.3864
 5150SOL     OW27082   2.411   2.047   5.749  0.0038  0.3424  0.3089
 5150SOL    HW127083   2.328   2.087   5.724  0.4274 -0.7714 -2.9326
 5150SOL    HW227084   2.386   1.954   5.744  0.7442  0.0957  1.2239
 5151SOL     OW27085   0.415   3.824   9.375 -0.0104 -0.1435  0.4799
 5151SOL    HW127086   0.489   3.869   9.415  0.9141 -2.0801  0.9582
 5151SOL    HW227087   0.375   3.783   9.452  1.7138 -2.2725  0.2487
 5152SOL     OW27088   3.317   2.375   6.139 -0.6923 -0.0216 -0.0646
 5152SOL    HW127089   3.328   2.320   6.061  0.2030  0.2548 -0.1291
 5152SOL    HW227090   3.403   2.383   6.179  0.0895  2.3378 -2.1973
 5153SOL     OW27091   4.355   2.841   3.582  0.1162 -0.6098 -0.3764
 5153SOL    HW127092   4.403   2.816   3.660 -0.6708 -0.1317  0.2689
 5153SOL    HW227093   4.426   2.862   3.522  1.0467  2.4447  1.7355
 5154SOL     OW27094   3.453   2.199   9.387 -0.0871  0.3443 -0.5979
 5154SOL    HW127095   3.407   2.238   9.461  0.8614  1.7324 -0.7263
 5154SOL    HW227096   3.529   2.166   9.436 -1.2514 -0.6017  0.5650
 5155SOL     OW27097   3.685   2.699   1.767  0.1389  0.1224 -0.1183
 5155SOL    HW127098   3.738   2.662   1.838 -3.1607 -3.6836  0.3432
 5155SOL    HW227099   3.710   2.652   1.688 -1.0287 -0.4721 -0.1266
 5156SOL     OW27100   1.293   3.879   8.212 -0.5297  0.1274 -0.2470
 5156SOL    HW127101   1.208   3.888   8.255 -0.0838  1.5248  0.3484
 5156SOL    HW227102   1.286   3.881   8.116  1.7669 -0.9911 -0.4392
 5157SOL     OW27103   1.542   2.716  15.778 -0.5031  0.5651 -0.2916
 5157SOL    HW127104   1.461   2.734  15.730 -0.9496  1.3650  0.7824
 5157SOL    HW227105   1.599   2.755  15.711 -1.3916 -2.3584 -2.7396
 5158SOL     OW27106   0.322   3.284  10.298  0.0337  0.4239 -0.4760
 5158SOL    HW127107   0.370   3.364  10.275  0.3881 -0.4573 -2.7792
 5158SOL    HW227108   0.271   3.259  10.221 -1.2863  0.9562  0.2381
 5159SOL     OW27109   2.739   3.169  14.744  0.2490  0.5529 -0.1554
 5159SOL    HW127110   2.758   3.156  14.837  0.1702  0.8778 -0.0917
 5159SOL    HW227111   2.698   3.087  14.717  2.2440 -0.0380 -1.3201
 5160SOL     OW27112   3.248   0.110   6.824 -0.1151  0.1990 -0.6585
 5160SOL    HW127113   3.225   0.146   6.910  3.3789  1.5643 -0.3112
 5160SOL    HW227114   3.181   0.047   6.795  0.1705 -1.2749  1.8223
 5161SOL     OW27115   1.706   0.956   5.906  0.5236  0.0837  0.2985
 5161SOL    HW127116   1.795   0.983   5.882  0.1611  0.3909 -0.7317
 5161SOL    HW227117   1.694   1.019   5.978  0.0152 -0.3933  0.6301
 5162SOL     OW27118   4.586   2.689   7.676  0.2937 -0.1006 -0.1261
 5162SOL    HW127119   4.625   2.633   7.608 -1.4598  1.1748 -2.1787
 5162SOL    HW227120   4.493   2.676   7.654 -0.2053  0.4374  1.6504
 5163SOL     OW27121   2.656   3.912  17.346 -0.0587  0.2226  0.4047
 5163SOL    HW127122   2.704   3.829  17.336 -0.7898 -0.5324  3.3380
 5163SOL    HW227123   2.688   3.959  17.269 -1.4454 -1.4871 -1.1972
 5164SOL     OW27124   4.110   3.688  16.399  0.6030 -0.0815  0.1251
 5164SOL    HW127125   4.017   3.709  16.407  1.2161  2.4936  0.4091
 5164SOL    HW227126   4.162   3.729  16.467  1.5269 -0.1275 -0.5476
 5165SOL     OW27127   1.906   4.179   9.674 -0.1328  0.0237 -0.3394
 5165SOL    HW127128   1.995   4.171   9.708 -0.0337  1.3263 -0.2896
 5165SOL    HW227129   1.913   4.129   9.593  1.4637 -1.3570  0.6540
 5166SOL     OW27130   1.929   4.087   7.717 -0.2789  0.2490 -0.7761
 5166SOL    HW127131   1.864   4.031   7.676  1.9689 -0.1009 -3.9261
 5166SOL    HW227132   1.993   4.021   7.744 -0.7653 -0.1408 -0.5864
 5167SOL     OW27133   2.648   1.672   8.771 -0.1876  0.3308  1.0006
 5167SOL    HW127134   2.618   1.725   8.845 -1.7864  1.7131 -0.6352
 5167SOL    HW227135   2.663   1.600   8.832  0.4613  0.3262  0.8347
 5168SOL     OW27136   2.936   1.804   3.795  0.2460 -0.3210  0.2867
 5168SOL    HW127137   2.924   1.798   3.889  0.0957 -1.4193  0.1972
 5168SOL    HW227138   3.008   1.867   3.789  0.1870 -0.1618  1.3721
 5169SOL     OW27139   2.926   2.329   2.598  0.1294  0.2131  0.5826
 5169SOL    HW127140   2.978   2.278   2.536 -0.6833 -1.2597  1.1140
 5169SOL    HW227141   2.840   2.345   2.560  0.4654  0.1084 -0.2282
 5170SOL     OW27142   2.896   2.740  17.561  0.4477  0.1201 -0.1762
 5170SOL    HW127143   2.969   2.679  17.574  2.3923  2.8476  1.7044
 5170SOL    HW227144   2.868   2.722  17.471 -0.9031 -0.1393  0.3077
 5171SOL     OW27145   4.688   0.035   6.715 -0.6095 -0.4585  0.2687
 5171SOL    HW127146   4.683   0.111   6.657  1.4141  0.7287  1.6457
 5171SOL    HW227147   4.723   0.078   6.793  0.4116 -1.2848  0.2757
 5172SOL     OW27148   2.909   2.187   5.054  0.1690 -0.1133  0.0752
 5172SOL    HW127149   2.929   2.130   5.128 -0.3841 -0.5988 -0.1493
 5172SOL    HW227150   2.880   2.267   5.097 -1.5702 -1.4708  1.4347
 5173SOL     OW27151   3.750   2.523   4.523 -0.1227 -0.2073 -0.2723
 5173SOL    HW127152   3.764   2.440   4.478  1.4602  0.1669 -0.4607
 5173SOL    HW227153   3.681   2.504   4.587 -1.1386 -0.5688 -1.4490
 5174SOL     OW27154   2.145   4.040  16.122  0.4948  0.3084 -0.4506
 5174SOL    HW127155   2.112   4.129  16.133 -1.3197 -0.1484 -2.1984
 5174SOL    HW227156   2.107   4.005  16.041 -1.1379  1.0029  0.0213
 5175SOL     OW27157   0.680   2.100  11.794  0.0187  0.6353 -0.2979
 5175SOL    HW127158   0.740   2.161  11.753  0.5849  1.2679  1.4608
 5175SOL    HW227159   0.609   2.094  11.730  1.6142 -2.0091 -1.8127
 5176SOL     OW27160   2.184   1.664   5.179  0.4452  0.0150  0.3647
 5176SOL    HW127161   2.208   1.756   5.193 -2.1510  0.6211  0.9177
 5176SOL    HW227162   2.255   1.615   5.220  0.1719  0.6679  1.6173
 5177SOL     OW27163   3.209   1.655   7.498  0.4887  0.0226  0.4178
 5177SOL    HW127164   3.251   1.570   7.486  2.1983  1.0050 -0.5766
 5177SOL    HW227165   3.154   1.640   7.574  0.6666  0.6915  0.6818
 5178SOL     OW27166   4.245   0.098   2.640  0.1220 -0.4713  0.5336
 5178SOL    HW127167   4.174   0.077   2.579  0.0808 -0.1965  0.4868
 5178SOL    HW227168   4.234   0.193   2.643 -2.2934 -0.7835  1.1787
 5179SOL     OW27169   1.499   4.685   5.273  0.0827 -0.1670 -0.2687
 5179SOL    HW127170   1.576   4.707   5.222  1.1977  0.1548  1.5529
 5179SOL    HW227171   1.487   4.594   5.246 -2.0695  0.5240 -1.6459
 5180SOL     OW27172   4.080   3.650   8.454  0.2939  0.0024 -0.4251
 5180SOL    HW127173   4.027   3.617   8.381  1.2731  0.5290 -1.3822
 5180SOL    HW227174   4.122   3.569   8.482 -1.1001 -0.8766 -0.8259
 5181SOL     OW27175   1.667   0.698   4.556  0.1490 -0.0067 -0.1776
 5181SOL    HW127176   1.581   0.689   4.514 -0.5809 -3.1716  1.9544
 5181SOL    HW227177   1.669   0.623   4.615  0.5952 -1.0976 -1.5698
 5182SOL     OW27178   4.647   1.510   6.603 -0.0802 -0.1386  0.4532
 5182SOL    HW127179   4.576   1.554   6.651  0.0849  0.2063  0.3843
 5182SOL    HW227180   4.699   1.587   6.578  0.1396 -1.1614 -2.1464
 5183SOL     OW27181   2.322   4.556  16.119  0.0422 -0.4734 -0.2426
 5183SOL    HW127182   2.411   4.565  16.152 -0.6189 -1.8366  1.8631
 5183SOL    HW227183   2.317   4.611  16.041 -0.0566 -0.9097 -0.5498
 5184SOL     OW27184   2.398   0.896   9.569  0.0423 -0.1933 -0.2284
 5184SOL    HW127185   2.486   0.896   9.533 -0.5259  1.3922 -1.5677
 5184SOL    HW227186   2.415   0.926   9.659 -0.4491 -0.3874 -0.0690
 5185SOL     OW27187   2.760   3.741   1.432  0.6868 -0.5421  0.0146
 5185SOL    HW127188   2.815   3.782   1.365 -2.0185  3.8896  0.5420
 5185SOL    HW227189   2.809   3.754   1.514 -0.2141  2.5464  0.0563
 5186SOL     OW27190   0.624   1.473  11.080  0.3698  0.2792  0.5039
 5186SOL    HW127191   0.598   1.518  11.160  3.6191  4.0807 -0.6125
 5186SOL    HW227192   0.593   1.530  11.010 -2.1622  0.3492  1.6945
 5187SOL     OW27193   1.904   3.853   8.622  0.3217  0.1346 -0.2289
 5187SOL    HW127194   1.867   3.927   8.669  1.1340  0.0232  0.5864
 5187SOL    HW227195   1.980   3.836   8.678 -0.0867 -0.9091  0.0076
 5188SOL     OW27196   3.151   2.295   6.667 -0.0123 -0.8412  0.4745
 5188SOL    HW127197   3.191   2.369   6.622 -0.9044 -0.8345 -0.2947
 5188SOL    HW227198   3.201   2.223   6.628 -0.8101 -1.1865  0.0942
 5189SOL     OW27199   0.388   4.082   9.659  0.2484 -0.8249  0.3006
 5189SOL    HW127200   0.459   4.104   9.719  1.0355 -3.1144  0.1838
 5189SOL    HW227201   0.419   4.122   9.578 -1.1541  0.3398  0.3364
 5190SOL     OW27202   1.421   1.456   6.058  0.1787  0.3394 -0.1072
 5190SOL    HW127203   1.489   1.470   6.124  0.0759 -0.2993  0.1289
 5190SOL    HW227204   1.362   1.513   6.108  0.7696  1.8957 -1.1933
 5191SOL     OW27205   2.400   0.965   7.605 -0.1426  0.4495 -0.5095
 5191SOL    HW127206   2.340   0.934   7.673 -1.6303  0.5519 -1.7778
 5191SOL    HW227207   2.398   1.059   7.623  0.8275  0.3772 -0.0170
 5192SOL     OW27208   0.281   3.252   8.594 -0.5255 -0.1138 -1.3095
 5192SOL    HW127209   0.189   3.227   8.594 -0.8279  0.9734  0.9878
 5192SOL    HW227210   0.317   3.179   8.645 -0.7802  0.2249 -0.6321
 5193SOL     OW27211   0.826   1.341   8.366 -0.4957  0.0546  0.0900
 5193SOL    HW127212   0.878   1.274   8.322 -1.5584  0.7450 -2.2222
 5193SOL    HW227213   0.750   1.291   8.394 -0.8812  0.0835 -0.9111
 5194SOL     OW27214   3.005   1.841  13.829  0.3489 -0.1249 -0.5656
 5194SOL    HW127215   3.011   1.746  13.819 -1.5760 -0.3022 -0.1224
 5194SOL    HW227216   3.067   1.881  13.768 -1.5934 -2.5635 -4.1247
 5195SOL     OW27217   0.811   1.051  16.741 -0.2143  0.3708 -0.3834
 5195SOL    HW127218   0.862   0.970  16.735 -1.2094 -0.2716 -0.1787
 5195SOL    HW227219   0.760   1.033  16.820  0.3546 -0.1773 -0.1427
 5196SOL     OW27220   3.108   0.594  13.904  0.1338 -0.1278 -0.4023
 5196SOL    HW127221   3.105   0.675  13.853 -0.4889 -0.8999 -1.5900
 5196SOL    HW227222   3.051   0.538  13.851  1.4243 -1.4352 -0.3838
 5197SOL     OW27223   2.105   3.783  17.124 -0.5909 -0.4953  0.3551
 5197SOL    HW127224   2.092   3.848  17.055 -1.8035  1.2620  2.2112
 5197SOL    HW227225   2.049   3.713  17.092  0.1984 -0.8407 -0.2352
 5198SOL     OW27226   1.751   3.689   9.173 -0.0648  0.2325  0.2586
 5198SOL    HW127227   1.669   3.698   9.222 -0.2509 -1.3288  0.2145
 5198SOL    HW227228   1.785   3.604   9.199  0.6325  0.5441  0.3498
 5199SOL     OW27229   2.810   0.970   8.694 -0.0349  0.4614  0.3759
 5199SOL    HW127230   2.898   0.956   8.729 -1.3157 -2.0949  2.5715
 5199SOL    HW227231   2.760   0.941   8.771  0.3127  2.3847  1.3293
 5200SOL     OW27232   0.006   2.471   5.636  0.3527  0.2487 -0.4473
 5200SOL    HW127233   4.676   2.460   5.703 -0.4372  0.3978 -1.2097
 5200SOL    HW227234   0.061   2.395   5.656 -0.9563 -0.4694  0.3884
 5201SOL     OW27235   0.939   1.242   6.097 -0.3489  1.1040  0.1243
 5201SOL    HW127236   0.950   1.159   6.053  1.4650  0.6386  1.4392
 5201SOL    HW227237   0.996   1.300   6.046  1.1297  0.5914  1.1745
 5202SOL     OW27238   1.449   0.964   7.258  1.0960  0.4257  0.5119
 5202SOL    HW127239   1.445   1.045   7.207 -1.3889  0.6229  1.0332
 5202SOL    HW227240   1.364   0.972   7.300  0.9648 -1.6214  0.6736
 5203SOL     OW27241   2.901   2.883  10.149 -0.3101 -0.0882  0.0131
 5203SOL    HW127242   2.823   2.863  10.098  0.3980  0.1709 -1.1653
 5203SOL    HW227243   2.906   2.800  10.196  4.6079  0.4060  0.3724
 5204SOL     OW27244   3.933   0.935   6.877 -0.4959  0.0124  0.0052
 5204SOL    HW127245   3.910   1.028   6.875  0.8280  0.3632  0.7659
 5204SOL    HW227246   3.883   0.900   6.950 -0.4782 -0.4554 -0.2086
 5205SOL     OW27247   2.729   1.008   6.677 -0.4152  0.2797 -0.5370
 5205SOL    HW127248   2.709   1.102   6.679 -3.2756 -0.3027 -1.3816
 5205SOL    HW227249   2.729   0.999   6.772  1.7598  1.6905 -0.3945
 5206SOL     OW27250   2.285   2.810   6.202  0.4758 -0.1281 -0.0570
 5206SOL    HW127251   2.340   2.783   6.276 -0.0165  0.7158  0.6240
 5206SOL    HW227252   2.213   2.751   6.221  0.6723 -0.3838 -0.1080
 5207SOL     OW27253   2.485   0.569   6.510 -0.4544  0.2639  0.7093
 5207SOL    HW127254   2.488   0.568   6.414 -0.4277 -0.9136  0.7211
 5207SOL    HW227255   2.539   0.646   6.529 -1.1209  0.0715  3.3166
 5208SOL     OW27256   0.932   2.692   7.404  0.0043  0.1851 -0.8565
 5208SOL    HW127257   0.919   2.629   7.333  0.2146 -1.6004  0.7125
 5208SOL    HW227258   0.854   2.748   7.399 -0.0451  0.1773 -0.1897
 5209SOL     OW27259   3.932   0.885   9.576  0.9817  0.5791 -0.4249
 5209SOL    HW127260   3.898   0.891   9.665  0.6461  2.5636 -0.6886
 5209SOL    HW227261   3.896   0.968   9.545  0.8781  0.5607 -0.3547
 5210SOL     OW27262   4.690   1.038   0.744 -0.2918 -0.4711  0.5300
 5210SOL    HW127263   0.004   0.957   0.748 -1.2697 -1.1790 -1.1993
 5210SOL    HW227264   4.598   1.010   0.748 -0.7252  0.3232 -3.5986
 5211SOL     OW27265   2.702   3.594  14.236  0.1697 -0.1219  0.0513
 5211SOL    HW127266   2.792   3.585  14.268  0.6781  2.4264 -0.6605
 5211SOL    HW227267   2.711   3.676  14.187  1.1055  0.2591  0.8346
 5212SOL     OW27268   2.211   0.744   1.968  0.2530 -0.4494  0.2632
 5212SOL    HW127269   2.236   0.743   1.875 -2.1304 -3.5089 -0.3693
 5212SOL    HW227270   2.291   0.742   2.020  0.3367  1.1583  0.1983
 5213SOL     OW27271   2.101   1.316   8.128  0.0996 -0.6059  0.5092
 5213SOL    HW127272   2.183   1.320   8.175 -0.0808 -1.4335  0.8962
 5213SOL    HW227273   2.065   1.236   8.166 -0.2179 -1.8156 -2.3440
 5214SOL     OW27274   1.581   0.063   8.649  0.6054  0.2887  0.4806
 5214SOL    HW127275   1.586   0.159   8.646 -0.8968  0.3656 -0.0934
 5214SOL    HW227276   1.543   0.044   8.563  1.0995 -2.5735  0.9165
 5215SOL     OW27277   0.845   2.554   4.067  0.2044  0.0312  0.3243
 5215SOL    HW127278   0.757   2.584   4.091 -0.5921  0.2373 -2.8057
 5215SOL    HW227279   0.823   2.492   3.997 -0.2399 -0.9207  1.3036
 5216SOL     OW27280   0.791   2.345  11.688 -0.4051  0.5568 -0.4016
 5216SOL    HW127281   0.819   2.396  11.764  0.0796 -2.2083  1.3047
 5216SOL    HW227282   0.873   2.322  11.643 -0.9367 -1.3788 -0.3842
 5217SOL     OW27283   0.855   1.822  11.128 -0.2720 -0.6151  0.1941
 5217SOL    HW127284   0.908   1.895  11.097  0.9317 -1.1903  0.9122
 5217SOL    HW227285   0.827   1.766  11.056 -1.6985  0.5131 -0.1255
 5218SOL     OW27286   0.462   0.409  17.137  0.3959 -0.1229  0.2903
 5218SOL    HW127287   0.479   0.420  17.043 -2.0756  1.0682 -0.0188
 5218SOL    HW227288   0.435   0.499  17.156  2.6514  0.5919  0.1353
 5219SOL     OW27289   3.837   0.116   1.342 -0.6160  0.0133 -0.5986
 5219SOL    HW127290   3.819   0.063   1.265 -0.8740 -0.8307  0.0367
 5219SOL    HW227291   3.821   0.061   1.420  0.6717  0.4329 -0.0329
 5220SOL     OW27292   4.366   2.413   0.893  0.6982 -0.1685 -0.1480
 5220SOL    HW127293   4.403   2.326   0.912 -0.6621 -0.9382 -1.0987
 5220SOL    HW227294   4.454   2.443   0.869 -0.4296  2.6148 -0.8517
 5221SOL     OW27295   1.335   1.954   0.493  0.2086  0.7264  0.1514
 5221SOL    HW127296   1.417   1.903   0.489  0.0990  0.7369 -2.4835
 5221SOL    HW227297   1.360   2.026   0.436  0.3012  0.6807  0.1333
 5222SOL     OW27298   0.630   2.873   9.775 -0.8106 -0.6726 -0.1776
 5222SOL    HW127299   0.626   2.881   9.870 -3.0185 -0.9026 -0.2457
 5222SOL    HW227300   0.679   2.954   9.764  1.0974 -1.8149 -0.0064
 5223SOL     OW27301   1.665   0.560   0.995  0.4811 -0.5083 -0.1483
 5223SOL    HW127302   1.678   0.603   1.079  0.2423 -1.2736  0.2762
 5223SOL    HW227303   1.576   0.592   0.980  0.9744  0.8367 -0.2696
 5224SOL     OW27304   1.602   2.867   0.701  0.1841  0.4829  0.4229
 5224SOL    HW127305   1.594   2.786   0.752  0.5934 -0.4704 -1.0269
 5224SOL    HW227306   1.524   2.846   0.649  1.0650  1.5702 -1.3454
 5225SOL     OW27307   1.503   1.845   8.168 -0.0587  0.2525  0.3389
 5225SOL    HW127308   1.464   1.914   8.221  1.8963  1.4285  0.2252
 5225SOL    HW227309   1.542   1.888   8.091  0.5128  0.0347  0.5105
 5226SOL     OW27310   1.705   0.904   2.705  0.2065  0.4192 -0.6387
 5226SOL    HW127311   1.644   0.870   2.640 -0.0459  1.5827 -1.0134
 5226SOL    HW227312   1.745   0.821   2.731  1.7277  1.4235  0.2509
 5227SOL     OW27313   0.977   0.909   8.415 -0.6573 -0.1854 -0.8083
 5227SOL    HW127314   1.060   0.955   8.428 -1.9849  1.9278  0.1203
 5227SOL    HW227315   0.932   0.960   8.347 -0.0155 -0.7049 -1.6219
 5228SOL     OW27316   1.704   2.681   0.497 -0.6055 -0.2856  0.5343
 5228SOL    HW127317   1.744   2.650   0.416  1.4367 -0.0290  1.4435
 5228SOL    HW227318   1.775   2.727   0.541 -1.2362 -0.8514  2.1216
 5229SOL     OW27319   4.369   3.172   2.648  0.2455  0.4690 -0.6779
 5229SOL    HW127320   4.436   3.124   2.696 -0.4645  0.8205  0.6654
 5229SOL    HW227321   4.412   3.184   2.564  1.2369  1.8520  0.0142
 5230SOL     OW27322   4.468   2.953  12.852  0.3643 -0.3069 -0.1880
 5230SOL    HW127323   4.419   2.964  12.934  0.5150  1.3085 -0.2996
 5230SOL    HW227324   4.395   2.966  12.792  0.1336 -4.8586 -0.8712
 5231SOL     OW27325   0.380   1.206   5.258  0.2971 -0.1014 -0.1608
 5231SOL    HW127326   0.374   1.268   5.331  0.3853  1.2596 -1.3078
 5231SOL    HW227327   0.457   1.243   5.214  1.6217 -0.0146  2.1873
 5232SOL     OW27328   1.776   3.929   9.013  0.1647 -0.2722 -0.0724
 5232SOL    HW127329   1.777   3.855   9.074  0.9868 -2.2314 -2.4827
 5232SOL    HW227330   1.865   3.962   9.022  0.2983 -0.4255 -0.8618
 5233SOL     OW27331   4.029   0.101   3.446  0.2988 -0.0370  0.5811
 5233SOL    HW127332   3.980   0.022   3.423 -2.0100  1.4563  0.3981
 5233SOL    HW227333   4.070   0.129   3.364 -0.3687  2.0400  0.9559
 5234SOL     OW27334   4.134   3.582   5.491 -0.8115 -0.5085  0.4286
 5234SOL    HW127335   4.120   3.568   5.584  1.4815  1.3837  1.0411
 5234SOL    HW227336   4.105   3.502   5.447 -3.4961  0.4326  0.4805
 5235SOL     OW27337   0.055   3.885   1.212 -0.7875  0.9741  0.1972
 5235SOL    HW127338   4.713   3.873   1.264 -0.1885  0.1831  0.9335
 5235SOL    HW227339   0.108   3.936   1.272  1.5341 -0.2528 -0.8081
 5236SOL     OW27340   1.188   4.242   4.096 -0.3154 -0.6767  0.2266
 5236SOL    HW127341   1.176   4.220   4.004  0.4790  1.6277 -0.4305
 5236SOL    HW227342   1.121   4.195   4.146 -0.1620 -0.7782  0.3380
 5237SOL     OW27343   2.380   2.767   7.957  0.3125  0.3817  0.3489
 5237SOL    HW127344   2.447   2.724   8.011  0.1066 -0.4665 -0.0822
 5237SOL    HW227345   2.417   2.761   7.869 -0.2347 -0.1160  0.1487
 5238SOL     OW27346   1.393   3.060   2.829 -0.4688 -0.2713  0.0516
 5238SOL    HW127347   1.318   3.058   2.888 -0.1926 -2.1978  0.3371
 5238SOL    HW227348   1.385   2.973   2.790 -0.1197 -0.7683  1.0812
 5239SOL     OW27349   1.391   2.707  10.846 -0.1999 -0.6578 -0.0842
 5239SOL    HW127350   1.452   2.773  10.811  0.1885 -0.1518  1.5593
 5239SOL    HW227351   1.417   2.627  10.800 -0.2738 -0.4794 -0.4363
 5240SOL     OW27352   0.249   3.295   6.097 -0.3487  0.5666  0.2571
 5240SOL    HW127353   0.269   3.262   6.010  2.7058 -0.0958  1.2185
 5240SOL    HW227354   0.153   3.294   6.093 -0.2493 -0.4231 -1.9029
 5241SOL     OW27355   2.102   0.841  12.894 -0.1893 -0.6502 -0.1590
 5241SOL    HW127356   2.116   0.820  12.802 -0.4922  0.0479 -0.3633
 5241SOL    HW227357   2.160   0.774  12.930 -0.4731 -0.5378  0.5229
 5242SOL     OW27358   4.528   1.916   9.130 -0.3346 -0.8054 -0.7170
 5242SOL    HW127359   4.495   1.827   9.143  2.1168 -1.7392 -0.7979
 5242SOL    HW227360   4.610   1.913   9.180 -1.3810 -0.0819  1.0351
 5243SOL     OW27361   2.518   3.174  11.232  0.0012  0.4457 -0.0327
 5243SOL    HW127362   2.520   3.265  11.203 -0.9362 -0.2848 -2.3232
 5243SOL    HW227363   2.472   3.134  11.159  2.6298  0.5780 -1.7651
 5244SOL     OW27364   3.874   0.716   4.252 -0.2374  0.6670  0.2427
 5244SOL    HW127365   3.906   0.743   4.338  0.2442  3.4025 -0.8043
 5244SOL    HW227366   3.782   0.695   4.268  0.1692 -1.1747  0.1547
 5245SOL     OW27367   1.177   1.526   4.820 -0.4092  0.2935  0.1919
 5245SOL    HW127368   1.107   1.497   4.879 -0.0382  2.2163  1.5809
 5245SOL    HW227369   1.125   1.582   4.762 -0.1864  0.0948 -0.2032
 5246SOL     OW27370   4.655   2.270   9.406 -0.4612 -0.2328 -0.0356
 5246SOL    HW127371   4.729   2.325   9.381 -0.1345 -1.1348 -1.0103
 5246SOL    HW227372   4.703   2.214   9.467 -0.5919  1.3469  1.5399
 5247SOL     OW27373   2.655   2.362   4.698 -0.0518  0.2181  0.8533
 5247SOL    HW127374   2.586   2.333   4.638  0.9091 -0.8889  0.2983
 5247SOL    HW227375   2.653   2.298   4.768  3.3739  0.0419  0.7553
 5248SOL     OW27376   0.836   0.666  13.218 -0.7974  0.4911  0.5038
 5248SOL    HW127377   0.854   0.685  13.310  0.5399 -1.1417  0.5808
 5248SOL    HW227378   0.909   0.694  13.164  0.0696  2.3590  2.6613
 5249SOL     OW27379   3.010   1.503  11.091 -0.0221  0.0935 -0.8213
 5249SOL    HW127380   2.945   1.507  11.161 -0.8969  0.1193 -1.6330
 5249SOL    HW227381   2.961   1.437  11.042 -0.3070 -0.6634  0.4986
 5250SOL     OW27382   0.118   2.234   6.211 -0.0851 -0.4905  0.3268
 5250SOL    HW127383   0.034   2.242   6.164 -0.3147  0.6536  0.9194
 5250SOL    HW227384   0.081   2.280   6.287 -2.1442  2.1565 -2.2196
 5251SOL     OW27385   4.185   2.094   3.172 -0.0324 -0.1841  0.4146
 5251SOL    HW127386   4.204   2.132   3.086 -0.7734 -1.4035 -0.2971
 5251SOL    HW227387   4.216   2.166   3.226  1.3562 -0.5439  0.0906
 5252SOL     OW27388   1.250   2.133  17.575  0.1032 -0.3144  0.3379
 5252SOL    HW127389   1.200   2.199  17.527 -1.2938 -1.7801 -0.1912
 5252SOL    HW227390   1.319   2.122  17.510 -0.6983  0.8306 -0.7040
 5253SOL     OW27391   4.131   4.317  12.926 -0.3251  0.1754  0.4001
 5253SOL    HW127392   4.121   4.224  12.905 -1.0667 -0.3252  2.9507
 5253SOL    HW227393   4.046   4.350  12.899 -0.1163 -1.0042 -1.7150
 5254SOL     OW27394   1.880   0.315  16.973  0.3960  0.4817  0.2893
 5254SOL    HW127395   1.906   0.296  17.063 -0.1324 -0.9351  0.1474
 5254SOL    HW227396   1.964   0.313  16.928  0.2949 -1.8471  0.2272
 5255SOL     OW27397   3.107   2.949  15.669  0.1785 -0.1792 -0.0226
 5255SOL    HW127398   3.086   3.039  15.695 -1.1092 -1.2719  2.6545
 5255SOL    HW227399   3.109   2.956  15.573 -1.7747  0.0666 -0.0398
 5256SOL     OW27400   0.132   2.893   2.789  0.0165  0.0370  0.3754
 5256SOL    HW127401   0.163   2.823   2.846  1.1930 -0.4686 -0.8709
 5256SOL    HW227402   0.073   2.939   2.849 -1.4787  0.5952 -1.5245
 5257SOL     OW27403   2.836   2.020  10.851 -0.4314  0.1582 -0.2163
 5257SOL    HW127404   2.827   2.084  10.780  0.4359 -0.7282 -1.1427
 5257SOL    HW227405   2.776   1.953  10.818 -0.6431  0.1561  0.1793
 5258SOL     OW27406   4.523   4.231   9.170  0.2721 -0.1863 -0.2684
 5258SOL    HW127407   4.461   4.193   9.107 -0.1029  1.3762 -0.8332
 5258SOL    HW227408   4.582   4.269   9.104  0.3789  0.1719  0.0346
 5259SOL     OW27409   0.407   3.083  10.455  0.3961  0.0185  0.6339
 5259SOL    HW127410   0.418   3.032  10.375  2.1862  0.7347  0.4303
 5259SOL    HW227411   0.396   3.171  10.418 -1.8222 -1.3509 -1.9327
 5260SOL     OW27412   1.639   0.863   5.495 -0.6187 -0.0577  0.2576
 5260SOL    HW127413   1.675   0.939   5.541  0.6579  0.1115 -1.0116
 5260SOL    HW227414   1.632   0.910   5.412  0.3944  1.6680  1.1370
 5261SOL     OW27415   3.105   2.382   6.961 -0.0299  0.2773 -0.6016
 5261SOL    HW127416   3.200   2.389   6.954 -0.0919  1.5690 -0.0693
 5261SOL    HW227417   3.091   2.353   6.871  1.6050  1.0744 -1.1193
 5262SOL     OW27418   0.373   3.050  12.223 -0.3866 -0.2679  0.4455
 5262SOL    HW127419   0.446   3.091  12.176  0.1049 -0.2224  1.2585
 5262SOL    HW227420   0.313   3.022  12.153 -0.9721  1.5216  0.2350
 5263SOL     OW27421   0.726   2.100   8.134  0.4651  0.0718 -0.2755
 5263SOL    HW127422   0.816   2.114   8.103  0.5696 -0.1237 -0.0626
 5263SOL    HW227423   0.737   2.022   8.189 -1.0857  0.3245  0.3809
 5264SOL     OW27424   1.292   3.349   9.485  0.0624  0.3706 -0.0865
 5264SOL    HW127425   1.231   3.317   9.418 -1.1754  2.2723  0.1294
 5264SOL    HW227426   1.242   3.320   9.561  0.3990  2.6198  1.0039
 5265SOL     OW27427   3.554   4.504   2.663  0.0849  0.8982  0.4775
 5265SOL    HW127428   3.583   4.419   2.697 -1.9221 -0.2985 -0.7565
 5265SOL    HW227429   3.555   4.555   2.744  0.1905  0.0620  0.9982
 5266SOL     OW27430   0.520   3.948   3.332  0.7373 -0.2043  0.0447
 5266SOL    HW127431   0.585   3.984   3.392 -2.5102  2.8136  1.7409
 5266SOL    HW227432   0.526   4.016   3.265  0.1046  0.2180  0.4192
 5267SOL     OW27433   2.627   3.216   8.775  0.4457 -0.1662 -0.7848
 5267SOL    HW127434   2.592   3.181   8.694  0.0226 -0.8330 -0.3162
 5267SOL    HW227435   2.575   3.295   8.788 -0.0454 -0.4629 -0.9882
 5268SOL     OW27436   3.658   3.626  16.443  0.6736  0.4163 -0.4132
 5268SOL    HW127437   3.711   3.695  16.402 -1.6723  1.7036 -1.2819
 5268SOL    HW227438   3.654   3.566  16.369  0.7860  1.0616 -0.9502
 5269SOL     OW27439   1.540   3.738   6.152 -0.1788  0.5158  0.1204
 5269SOL    HW127440   1.475   3.718   6.086  2.1737 -2.2126 -1.3566
 5269SOL    HW227441   1.609   3.680   6.120  0.6957  0.1973  2.5164
 5270SOL     OW27442   0.547   1.641   3.070 -0.2921 -0.0546 -0.0178
 5270SOL    HW127443   0.507   1.723   3.038  1.1447  1.2834  1.6071
 5270SOL    HW227444   0.529   1.590   2.991  0.0335 -0.8120  0.4041
 5271SOL     OW27445   4.458   1.300   0.524  0.0454  0.0802 -0.5887
 5271SOL    HW127446   4.392   1.245   0.566 -0.1013  1.4178  0.9258
 5271SOL    HW227447   4.529   1.235   0.521 -0.8107 -1.0009  2.7061
 5272SOL     OW27448   2.077   0.999   5.966 -0.3864  0.4347  0.2522
 5272SOL    HW127449   2.156   1.016   5.914 -1.1442  0.7769 -0.7905
 5272SOL    HW227450   2.108   0.933   6.027  1.1492  2.0507  1.2311
 5273SOL     OW27451   2.222   4.215  12.166 -0.1724 -0.1861 -0.2123
 5273SOL    HW127452   2.262   4.301  12.154  3.2016 -1.8904 -1.1124
 5273SOL    HW227453   2.291   4.179  12.222  0.9677  1.4536 -0.5776
 5274SOL     OW27454   1.632   0.564   5.322 -0.0258 -1.0997 -0.0656
 5274SOL    HW127455   1.696   0.530   5.258  0.2822  1.9603 -1.3947
 5274SOL    HW227456   1.684   0.621   5.378  0.0206 -2.4990  1.3092
 5275SOL     OW27457   3.790   2.981   1.863 -0.3803  0.6016  0.0436
 5275SOL    HW127458   3.770   3.072   1.842 -1.1806 -0.1194 -2.2635
 5275SOL    HW227459   3.823   2.954   1.777 -2.5771 -2.3410  0.1410
 5276SOL     OW27460   3.635   0.703  16.808  0.5702  0.2154 -0.0863
 5276SOL    HW127461   3.697   0.775  16.822  1.0536 -0.6273  2.0314
 5276SOL    HW227462   3.547   0.735  16.830  0.7401 -0.3891  1.4644
 5277SOL     OW27463   0.163   2.409   9.380  0.0001 -0.9307 -0.1241
 5277SOL    HW127464   0.207   2.403   9.465  1.3067  0.7279 -0.6846
 5277SOL    HW227465   0.234   2.380   9.322  2.4413  1.9623  1.4565
 5278SOL     OW27466   3.802   2.150   4.806 -0.3174 -0.4364 -0.4105
 5278SOL    HW127467   3.766   2.137   4.718  0.7027 -1.4505 -0.6731
 5278SOL    HW227468   3.893   2.176   4.796 -0.5541 -0.5478 -2.8943
 5279SOL     OW27469   2.101   1.573  15.133  0.2073 -0.1941 -0.0953
 5279SOL    HW127470   2.184   1.581  15.088  0.7679 -1.2939  0.7489
 5279SOL    HW227471   2.104   1.658  15.178  0.6012  0.2049 -0.8784
 5280SOL     OW27472   2.804   2.863   9.837 -0.0807 -0.0074  0.1124
 5280SOL    HW127473   2.867   2.929   9.807 -0.3531  0.5138  0.6888
 5280SOL    HW227474   2.804   2.798   9.766  0.3873 -0.5864  0.6424
 5281SOL     OW27475   4.433   4.303  17.686  0.7157 -0.4406 -0.4215
 5281SOL    HW127476   4.430   4.256  17.603 -0.2946 -1.1680  0.0262
 5281SOL    HW227477   4.342   4.299  17.716 -0.2996 -0.8206 -3.5225
 5282SOL     OW27478   4.386   4.622   5.718 -0.5812 -0.1102 -0.6628
 5282SOL    HW127479   4.306   4.618   5.770  0.9570 -0.2494  1.7059
 5282SOL    HW227480   4.420   4.532   5.718  1.5109  0.6794 -0.5011
 5283SOL     OW27481   2.742   2.136   2.254 -0.3036 -0.3329 -0.3364
 5283SOL    HW127482   2.771   2.226   2.270 -0.0368 -0.3124 -0.9384
 5283SOL    HW227483   2.655   2.143   2.215 -1.7141 -0.9116  2.6759
 5284SOL     OW27484   2.108   0.673   6.728  0.3830  0.1013 -0.4390
 5284SOL    HW127485   2.020   0.712   6.726 -0.4869 -1.8226 -0.3171
 5284SOL    HW227486   2.153   0.742   6.680 -0.5388  1.3518  0.4927
 5285SOL     OW27487   1.487   0.263   1.860 -0.4024  0.5940 -0.1392
 5285SOL    HW127488   1.434   0.248   1.938  0.2014  1.1774  0.3824
 5285SOL    HW227489   1.489   0.171   1.836 -1.8799  1.1963 -2.6074
 5286SOL     OW27490   1.023   0.901  16.562  0.0415  0.3899 -0.0511
 5286SOL    HW127491   1.066   0.858  16.487  2.5668  3.1932 -0.1910
 5286SOL    HW227492   1.026   0.991  16.531 -3.8268  1.0553  1.5951
 5287SOL     OW27493   0.461   1.721   8.240 -0.1477  0.1260  0.3297
 5287SOL    HW127494   0.435   1.675   8.319 -1.4512  0.8471  0.3204
 5287SOL    HW227495   0.502   1.648   8.194 -0.5777  0.1609 -0.1119
 5288SOL     OW27496   3.283   3.922   4.266  0.0742 -0.2475 -0.1101
 5288SOL    HW127497   3.260   4.013   4.245 -0.3080 -0.9171 -2.7044
 5288SOL    HW227498   3.322   3.895   4.182  2.0695  1.9016  0.1360
 5289SOL     OW27499   2.625   2.518   7.733  0.0932  0.2976 -0.3514
 5289SOL    HW127500   2.614   2.611   7.753 -0.5837 -0.1387  1.3538
 5289SOL    HW227501   2.704   2.501   7.784 -1.8422  2.2579  3.2884
 5290SOL     OW27502   2.899   1.331   6.506 -0.3979 -0.0253 -0.0930
 5290SOL    HW127503   2.852   1.414   6.516 -1.6876 -1.1101  2.7014
 5290SOL    HW227504   2.843   1.279   6.563  1.8038 -0.0110  2.0950
 5291SOL     OW27505   0.022   0.083   7.985  0.2865  1.0465 -0.0609
 5291SOL    HW127506   0.092   0.067   8.048  2.3325  0.2328 -2.5619
 5291SOL    HW227507   4.711   0.153   8.030  0.5330 -0.4777  2.5968
 5292SOL     OW27508   1.659   4.733  16.464  0.6404  0.0001 -0.2313
 5292SOL    HW127509   1.644   4.694  16.550  1.0918 -0.4974 -0.3832
 5292SOL    HW227510   1.646   4.651  16.416  2.5562 -0.2968 -0.2095
 5293SOL     OW27511   4.044   4.224   7.275  0.1414 -0.0119 -0.3274
 5293SOL    HW127512   4.072   4.135   7.252 -1.4030 -0.3410 -0.9726
 5293SOL    HW227513   4.020   4.210   7.366 -1.9663 -2.4726 -1.2815
 5294SOL     OW27514   0.847   2.905  12.070  0.4374  0.6200 -0.3577
 5294SOL    HW127515   0.767   2.884  12.118  0.4345 -0.6789 -0.9301
 5294SOL    HW227516   0.813   2.907  11.981  1.3870  0.2132 -0.7282
 5295SOL     OW27517   4.328   1.980   8.233 -0.2375  0.6047  0.2853
 5295SOL    HW127518   4.293   2.063   8.264  2.4882  1.9563 -0.1861
 5295SOL    HW227519   4.418   1.991   8.267  0.4685 -1.0806 -1.0688
 5296SOL     OW27520   0.807   2.733   6.283 -0.0467  0.7953  0.4527
 5296SOL    HW127521   0.894   2.708   6.252 -0.5577 -2.0731  1.4020
 5296SOL    HW227522   0.763   2.649   6.299 -0.1558  0.1570 -3.0609
 5297SOL     OW27523   1.474   3.780   9.525  0.0328  0.3826  0.1141
 5297SOL    HW127524   1.507   3.870   9.530  0.1698  0.3735 -0.6275
 5297SOL    HW227525   1.441   3.787   9.435  2.1097  1.1258 -0.5874
 5298SOL     OW27526   2.839   2.801  14.427 -0.1806  0.1475 -0.0237
 5298SOL    HW127527   2.844   2.716  14.384  2.7758 -1.2790  3.1516
 5298SOL    HW227528   2.932   2.822  14.436 -0.6036  1.2430  1.7341
 5299SOL     OW27529   2.248   1.716   8.542  0.1075 -0.2962 -0.0684
 5299SOL    HW127530   2.316   1.676   8.597  1.0429 -1.9937 -2.4216
 5299SOL    HW227531   2.170   1.675   8.579  1.4536 -2.3741  0.4829
 5300SOL     OW27532   1.311   0.234   5.898 -0.1539 -0.5184  0.1262
 5300SOL    HW127533   1.326   0.205   5.808  2.3886 -0.9437  0.6707
 5300SOL    HW227534   1.324   0.328   5.887 -0.0732 -0.6068 -0.5071
 5301SOL     OW27535   0.506   4.622  13.402 -0.4434  0.5278 -0.3053
 5301SOL    HW127536   0.507   4.630  13.497  0.8968  1.4999 -0.4002
 5301SOL    HW227537   0.596   4.598  13.377  0.6191  2.4388  1.6754
 5302SOL     OW27538   4.452   0.876   4.731 -0.4072  0.3763  0.2158
 5302SOL    HW127539   4.450   0.910   4.821  0.1322 -0.8036  0.6678
 5302SOL    HW227540   4.546   0.857   4.728 -0.2687  0.5618  2.8913
 5303SOL     OW27541   3.741   2.111   2.876 -0.0419 -0.3124  0.0397
 5303SOL    HW127542   3.821   2.064   2.850 -1.0219 -0.7390 -2.2173
 5303SOL    HW227543   3.737   2.083   2.968 -0.5978  1.1983  0.4674
 5304SOL     OW27544   3.598   1.930   3.694 -0.5258 -0.9174  0.1002
 5304SOL    HW127545   3.674   1.978   3.725 -0.8195 -1.1142  1.1165
 5304SOL    HW227546   3.575   1.989   3.622  1.0806 -2.4229 -1.6653
 5305SOL     OW27547   2.989   2.621   9.688 -0.7847  0.1163 -0.0462
 5305SOL    HW127548   2.986   2.645   9.595  0.1608  0.6568  0.0610
 5305SOL    HW227549   3.053   2.676   9.733 -0.3192  0.1458 -0.7366
 5306SOL     OW27550   0.713   1.583   3.833 -0.3948  0.3366 -0.3551
 5306SOL    HW127551   0.735   1.490   3.828  0.2782  0.2849  3.7869
 5306SOL    HW227552   0.797   1.613   3.798  1.3986 -3.0185  1.0566
 5307SOL     OW27553   2.341   1.078   3.679 -0.4223  0.0532  0.0477
 5307SOL    HW127554   2.407   1.144   3.660  0.0950  0.0867  1.9570
 5307SOL    HW227555   2.388   1.025   3.744  1.1710  1.8269  0.3311
 5308SOL     OW27556   4.210   1.319   3.740 -0.1651 -0.2496 -0.0280
 5308SOL    HW127557   4.214   1.408   3.776  2.6618 -0.1255 -0.6472
 5308SOL    HW227558   4.119   1.322   3.711 -1.0274  1.5931  2.8294
 5309SOL     OW27559   4.465   1.629   5.789 -0.3305 -0.1113 -0.2671
 5309SOL    HW127560   4.436   1.668   5.707 -2.4040  0.8665  0.9357
 5309SOL    HW227561   4.396   1.563   5.797  2.1842 -2.4900  2.0617
 5310SOL     OW27562   1.291   4.394   6.621 -0.8971 -0.1266 -0.3564
 5310SOL    HW127563   1.284   4.332   6.694 -1.8588  2.1241  1.4328
 5310SOL    HW227564   1.202   4.426   6.626 -1.5396 -1.9135 -0.2069
 5311SOL     OW27565   1.569   1.927   2.436  0.1659  0.4052 -0.2532
 5311SOL    HW127566   1.634   1.983   2.393 -2.5339  2.3188 -1.8246
 5311SOL    HW227567   1.621   1.877   2.499 -0.9782 -1.6312 -0.9003
 5312SOL     OW27568   3.589   0.287  16.867 -0.0412  0.5893  0.6532
 5312SOL    HW127569   3.549   0.272  16.953  1.3957 -1.8715  0.8854
 5312SOL    HW227570   3.526   0.256  16.802  1.5290  0.7566 -0.9196
 5313SOL     OW27571   3.827   3.358   7.251 -0.5490  0.0951  1.0687
 5313SOL    HW127572   3.902   3.305   7.277 -0.6825 -1.1171 -1.0558
 5313SOL    HW227573   3.778   3.293   7.202  1.0598 -0.9089  0.7929
 5314SOL     OW27574   0.089   4.358   2.237  0.6853 -0.7429 -0.0010
 5314SOL    HW127575   0.148   4.306   2.292  1.3787 -0.3443 -0.3600
 5314SOL    HW227576   0.068   4.429   2.299 -1.8749 -1.1282 -0.4395
 5315SOL     OW27577   0.417   0.191   4.144 -0.0744 -0.0743  0.4546
 5315SOL    HW127578   0.401   0.276   4.184  0.8814 -0.5039  1.7910
 5315SOL    HW227579   0.336   0.147   4.168 -0.5985  0.7791  0.2326
 5316SOL     OW27580   0.374   0.117   5.196  0.9962  0.5387 -0.5976
 5316SOL    HW127581   0.418   0.036   5.221  0.0870  0.6710  1.4423
 5316SOL    HW227582   0.442   0.176   5.228 -1.0503  2.9874 -0.7657
 5317SOL     OW27583   2.791   3.038  15.531 -0.4391 -0.1828  0.1363
 5317SOL    HW127584   2.880   3.016  15.505 -0.6624 -0.1849 -0.6135
 5317SOL    HW227585   2.788   3.118  15.479  0.9077 -2.7060 -3.8560
 5318SOL     OW27586   0.535   3.467  11.868 -0.2229 -0.9331 -0.0072
 5318SOL    HW127587   0.588   3.423  11.934  0.2375 -1.5533 -0.7902
 5318SOL    HW227588   0.471   3.396  11.860 -0.7743 -0.6421  1.7193
 5319SOL     OW27589   2.385   3.660   6.052  0.9147 -0.0485 -0.0414
 5319SOL    HW127590   2.455   3.671   5.988  1.6338 -0.0984  0.7277
 5319SOL    HW227591   2.402   3.577   6.097 -1.0881  1.2810  3.2229
 5320SOL     OW27592   2.489   3.994   0.527  0.1635 -0.1422  0.0690
 5320SOL    HW127593   2.462   4.026   0.613  1.2754  1.6693 -0.2600
 5320SOL    HW227594   2.464   4.063   0.465  2.1755 -0.1845 -0.8023
 5321SOL     OW27595   4.291   1.677   2.475  0.1542  0.3404 -0.1128
 5321SOL    HW127596   4.270   1.756   2.526  2.2591  1.6452 -1.2602
 5321SOL    HW227597   4.383   1.661   2.499  0.4415 -3.0302 -3.7042
 5322SOL     OW27598   2.063   2.622  14.916  0.6663 -1.1374  0.6855
 5322SOL    HW127599   2.055   2.693  14.851 -1.2482 -0.4531  1.6533
 5322SOL    HW227600   2.153   2.593  14.903  0.6009 -0.3168 -1.6829
 5323SOL     OW27601   0.874   1.966   3.688 -0.5292  0.2312  0.2095
 5323SOL    HW127602   0.910   1.986   3.601  0.5831 -0.6956  0.4629
 5323SOL    HW227603   0.824   1.887   3.668 -0.0183  0.3907 -1.7145
 5324SOL     OW27604   3.635   0.903  15.597  0.0567 -0.1384 -0.4198
 5324SOL    HW127605   3.589   0.823  15.625 -0.2397  0.0989 -0.2241
 5324SOL    HW227606   3.726   0.877  15.606  0.6926  2.3852  0.4344
 5325SOL     OW27607   0.420   0.711   2.639 -0.2135 -0.5924  0.0923
 5325SOL    HW127608   0.478   0.782   2.667  0.1483 -1.0555  0.5299
 5325SOL    HW227609   0.449   0.656   2.712  0.9703  0.1073  0.1473
 5326SOL     OW27610   2.833   0.702   3.877 -0.3458  0.3125 -0.5147
 5326SOL    HW127611   2.772   0.774   3.893 -1.9123 -1.7271  2.7319
 5326SOL    HW227612   2.909   0.734   3.926 -0.8837 -0.3059  0.7402
 5327SOL     OW27613   4.050   1.412   4.331  0.2975 -0.4303  0.1930
 5327SOL    HW127614   4.040   1.397   4.237 -1.0562  0.6612  0.1697
 5327SOL    HW227615   4.143   1.434   4.340  0.9202 -3.2862  0.7629
 5328SOL     OW27616   1.608   0.472   8.863 -0.4786  0.7943  0.0824
 5328SOL    HW127617   1.684   0.431   8.905 -1.8589 -0.6885  1.1094
 5328SOL    HW227618   1.610   0.552   8.914 -1.4140  0.9739 -0.1648
 5329SOL     OW27619   1.308   1.593   3.521  0.9169 -0.1269 -0.3765
 5329SOL    HW127620   1.366   1.669   3.514 -1.7593  1.8587 -0.9023
 5329SOL    HW227621   1.271   1.603   3.608  0.4735  1.8816 -0.7897
 5330SOL     OW27622   0.071   3.237   4.292  0.4201 -0.3435 -0.0867
 5330SOL    HW127623   0.023   3.171   4.341  1.9328 -0.5943  1.0700
 5330SOL    HW227624   0.126   3.282   4.357 -0.7610 -0.4729  0.9964
 5331SOL     OW27625   0.053   3.818  14.775  0.1959 -0.2244  0.4941
 5331SOL    HW127626   0.055   3.914  14.780 -1.1231 -0.1178 -1.0787
 5331SOL    HW227627   0.117   3.791  14.841  0.4469 -1.0837 -0.1134
 5332SOL     OW27628   2.354   3.770   8.068  0.5947  0.2833 -0.3431
 5332SOL    HW127629   2.444   3.742   8.049  1.6925  2.7318  1.2766
 5332SOL    HW227630   2.360   3.774   8.163  0.8445  1.4541 -0.4087
 5333SOL     OW27631   0.125   3.223   3.360 -0.2363  0.0334 -0.1053
 5333SOL    HW127632   0.108   3.178   3.277  0.2443 -0.1081 -0.1277
 5333SOL    HW227633   0.105   3.312   3.333  0.0998  0.5442  1.3298
 5334SOL     OW27634   2.835   3.811  11.970 -0.6245 -0.0146 -0.1640
 5334SOL    HW127635   2.752   3.858  11.960 -0.8286 -1.0759 -3.4282
 5334SOL    HW227636   2.827   3.790  12.063 -2.7379 -1.2456 -0.6283
 5335SOL     OW27637   3.129   3.619   6.552  0.1334 -0.5890 -0.2382
 5335SOL    HW127638   3.049   3.667   6.530 -0.2275 -0.1034  2.1538
 5335SOL    HW227639   3.170   3.603   6.467 -1.5057 -2.2434 -0.7150
 5336SOL     OW27640   3.098   0.157   1.858 -0.5982  0.5909  0.3896
 5336SOL    HW127641   3.123   0.102   1.933  0.9209  2.0836  0.9736
 5336SOL    HW227642   3.157   0.130   1.788 -0.2934  0.3584  0.7339
 5337SOL     OW27643   2.382   1.263   7.668 -0.0763 -0.3535 -0.5516
 5337SOL    HW127644   2.455   1.322   7.652  1.7365 -2.5445 -0.3784
 5337SOL    HW227645   2.344   1.294   7.751  0.1814  1.0046 -0.9427
 5338SOL     OW27646   0.891   2.713  12.448  0.5124  0.1134  0.0478
 5338SOL    HW127647   0.928   2.794  12.484  0.9628 -1.1111  2.3442
 5338SOL    HW227648   0.823   2.678  12.506 -0.9364  0.1213 -1.6512
 5339SOL     OW27649   2.708   0.156  15.524 -0.0973  0.2261  0.3448
 5339SOL    HW127650   2.787   0.193  15.563  0.6510 -1.5940  0.5481
 5339SOL    HW227651   2.737   0.153  15.433  0.6531 -0.6888  0.6201
 5340SOL     OW27652   0.008   4.305   4.240 -0.2478 -0.1342 -0.1522
 5340SOL    HW127653   0.039   4.376   4.184 -0.7926  0.6062  0.4816
 5340SOL    HW227654   4.707   4.244   4.178  0.0002 -0.7319  0.2736
 5341SOL     OW27655   2.943   2.731   7.288  0.2693  0.5722 -0.6450
 5341SOL    HW127656   2.865   2.781   7.266  0.2474 -0.0470 -2.0300
 5341SOL    HW227657   2.989   2.755   7.207  2.1488  1.4388  0.6797
 5342SOL     OW27658   0.234   1.326   7.673  0.0536 -0.2668 -0.5774
 5342SOL    HW127659   0.294   1.399   7.655  0.7898 -0.3776  1.5345
 5342SOL    HW227660   0.240   1.274   7.593  2.1627 -0.7155 -0.1032
 5343SOL     OW27661   1.119   2.326  17.430 -0.3541 -0.0366 -0.1621
 5343SOL    HW127662   1.192   2.388  17.440  0.0452 -0.3212 -1.2941
 5343SOL    HW227663   1.052   2.382  17.393 -0.0925  0.0353 -0.5203
 5344SOL     OW27664   2.750   2.904   4.791  0.3136  0.3640  0.1834
 5344SOL    HW127665   2.825   2.856   4.826 -1.3203 -2.2470  0.1824
 5344SOL    HW227666   2.679   2.839   4.792  1.3615 -0.8015 -3.0187
 5345SOL     OW27667   2.730   3.307   6.309 -0.3441  0.2750  0.3372
 5345SOL    HW127668   2.810   3.338   6.351 -0.3158 -1.6236  1.6704
 5345SOL    HW227669   2.743   3.212   6.306 -0.5272  0.2088  1.6224
 5346SOL     OW27670   1.841   3.230   7.233 -0.3327 -0.1306  0.1877
 5346SOL    HW127671   1.763   3.278   7.207 -0.6076 -0.7408 -0.1355
 5346SOL    HW227672   1.825   3.229   7.328  1.4417  0.0415  0.4841
 5347SOL     OW27673   3.631   0.844  13.843  0.3983 -0.1882  0.4664
 5347SOL    HW127674   3.608   0.900  13.917  1.6789  1.4238 -0.3537
 5347SOL    HW227675   3.614   0.755  13.874 -1.9055 -0.0632 -0.4270
 5348SOL     OW27676   0.749   0.527  12.710  0.2809  0.0502  0.3055
 5348SOL    HW127677   0.781   0.515  12.620 -0.3125 -2.4536  0.4279
 5348SOL    HW227678   0.790   0.461  12.765  0.6940  0.7869  0.8845
 5349SOL     OW27679   2.930   3.425   6.449  0.6206  0.2561  0.0574
 5349SOL    HW127680   2.961   3.508   6.412  1.5560  0.5832  1.5803
 5349SOL    HW227681   2.865   3.456   6.511 -0.7708 -1.8804 -0.3621
 5350SOL     OW27682   0.462   3.185  11.840  0.5373 -0.2105  0.1873
 5350SOL    HW127683   0.455   3.103  11.889 -2.5494  0.9224  1.7089
 5350SOL    HW227684   0.531   3.163  11.778  0.0252 -2.2181  0.3566
 5351SOL     OW27685   1.447   0.536   9.729  0.4201  0.3783 -1.0084
 5351SOL    HW127686   1.534   0.496   9.736 -0.4990 -1.3899  0.3932
 5351SOL    HW227687   1.458   0.620   9.775  1.5782 -0.5834  0.4642
 5352SOL     OW27688   1.093   1.117   6.985  0.3495 -0.1123  0.3463
 5352SOL    HW127689   1.017   1.164   6.949  0.6430  0.5550  0.5985
 5352SOL    HW227690   1.164   1.152   6.931 -1.2331 -0.4309 -1.9557
 5353SOL     OW27691   2.657   2.550   5.568 -0.6288  0.2842  0.1498
 5353SOL    HW127692   2.732   2.512   5.521 -1.1250 -0.3480 -0.1254
 5353SOL    HW227693   2.643   2.480   5.632  0.6841 -1.4418 -1.4526
 5354SOL     OW27694   0.703   2.420   5.653 -0.5122  0.2281 -0.2543
 5354SOL    HW127695   0.712   2.508   5.618 -1.3528  0.4589  0.1071
 5354SOL    HW227696   0.788   2.403   5.692  0.4035  3.4906 -0.8942
 5355SOL     OW27697   0.926   1.297   7.405 -0.0454  0.6175  0.0916
 5355SOL    HW127698   0.861   1.364   7.428  1.0205  1.6270  0.1729
 5355SOL    HW227699   0.879   1.227   7.451  2.1750 -0.2266  1.0571
 5356SOL     OW27700   4.570   4.538   8.495 -0.0616 -0.0105  0.2162
 5356SOL    HW127701   4.478   4.559   8.513 -0.2110  0.9603 -1.6247
 5356SOL    HW227702   4.575   4.559   8.402 -1.8915 -0.4121  0.0344
 5357SOL     OW27703   0.962   2.700   0.424 -0.0606  0.0426  0.4616
 5357SOL    HW127704   0.958   2.625   0.365  2.8239  0.5068 -0.3442
 5357SOL    HW227705   1.032   2.667   0.481  0.2179  0.8561  0.5886
 5358SOL     OW27706   2.360   1.618   4.075 -0.2510 -0.1497 -0.2108
 5358SOL    HW127707   2.314   1.539   4.103  1.2993  0.5095  4.2019
 5358SOL    HW227708   2.435   1.589   4.022  0.7224  1.9291  0.0308
 5359SOL     OW27709   3.794   2.677   4.952  0.0014 -0.4035 -1.0702
 5359SOL    HW127710   3.764   2.596   4.993  3.4715 -2.2657 -2.2660
 5359SOL    HW227711   3.708   2.702   4.916  1.7867  2.9311 -2.9637
 5360SOL     OW27712   4.107   1.828   8.243  0.4668  0.6014  0.2577
 5360SOL    HW127713   4.087   1.848   8.151 -0.9156  0.9205  0.6288
 5360SOL    HW227714   4.187   1.880   8.252  1.3522  0.0218 -4.1501
 5361SOL     OW27715   1.143   3.162   6.747  0.6863  0.4482 -0.3349
 5361SOL    HW127716   1.239   3.164   6.747  0.6624  1.2900  0.3508
 5361SOL    HW227717   1.131   3.089   6.685  1.9372  0.3010 -0.4171
 5362SOL     OW27718   1.806   3.035   8.229  0.0736  0.0765  0.2171
 5362SOL    HW127719   1.736   3.018   8.292  0.3052 -0.6092  0.2808
 5362SOL    HW227720   1.836   3.113   8.276  0.8789 -1.8227  2.8263
 5363SOL     OW27721   2.217   0.214   3.420  0.1991 -0.3401  0.0496
 5363SOL    HW127722   2.150   0.178   3.479 -0.0610 -1.2159 -0.7815
 5363SOL    HW227723   2.296   0.223   3.474  1.1104  1.1853 -1.5674
 5364SOL     OW27724   0.118   2.494  15.842  0.4517  0.0607  0.0217
 5364SOL    HW127725   0.171   2.479  15.921  2.5610 -0.5560 -1.5140
 5364SOL    HW227726   0.125   2.407  15.805  0.1153 -0.4781  1.2295
 5365SOL     OW27727   2.475   4.195   8.756  0.0174  0.5003  0.0472
 5365SOL    HW127728   2.500   4.121   8.700  0.1613 -1.3080  2.5029
 5365SOL    HW227729   2.511   4.270   8.709  0.2540 -0.9748 -2.1343
 5366SOL     OW27730   3.543   1.928   8.581  0.0672 -0.2071 -0.0932
 5366SOL    HW127731   3.505   1.931   8.493  3.5603  2.2875 -1.5019
 5366SOL    HW227732   3.577   2.016   8.596  0.1171 -0.2133 -0.1717
 5367SOL     OW27733   0.212   3.275   3.983  0.0601 -0.6000  0.4422
 5367SOL    HW127734   0.201   3.245   3.893 -1.8572  0.1213  0.4300
 5367SOL    HW227735   0.301   3.310   3.979 -0.5940  1.3851  2.9053
 5368SOL     OW27736   2.599   4.296   2.466  0.0067 -0.8145 -0.8768
 5368SOL    HW127737   2.517   4.267   2.426 -0.4836 -0.9794  0.2333
 5368SOL    HW227738   2.569   4.387   2.474 -2.6335 -1.5616 -2.1887
 5369SOL     OW27739   2.755   3.912   7.201 -0.3168 -0.8051  0.0283
 5369SOL    HW127740   2.701   3.973   7.252  1.3153 -0.8252  1.8343
 5369SOL    HW227741   2.781   3.972   7.131  2.1957 -0.8131  0.9343
 5370SOL     OW27742   2.994   4.494   2.702  0.5378 -0.1386 -0.1984
 5370SOL    HW127743   2.900   4.487   2.718  0.2764  1.6737 -0.8238
 5370SOL    HW227744   2.993   4.482   2.607  1.0818 -0.0821 -0.2087
 5371SOL     OW27745   1.358   0.287   3.589  0.6987 -0.4493 -0.2213
 5371SOL    HW127746   1.336   0.194   3.595  1.8811 -0.8425 -1.9667
 5371SOL    HW227747   1.294   0.325   3.649 -0.7743 -1.9334 -0.8241
 5372SOL     OW27748   2.716   3.901  12.479 -0.0241  0.6195  0.1295
 5372SOL    HW127749   2.679   3.936  12.398 -4.2547 -2.0000  0.9155
 5372SOL    HW227750   2.810   3.896  12.465 -0.0755  1.8874 -0.6183
 5373SOL     OW27751   0.169   1.886   0.259 -0.7028  0.0764  0.6343
 5373SOL    HW127752   0.100   1.902   0.195  0.8065  1.7103 -0.6127
 5373SOL    HW227753   0.172   1.967   0.310  3.0763  0.8040 -0.7167
 5374SOL     OW27754   0.705   2.873  12.717  0.8424  0.3121  0.0565
 5374SOL    HW127755   0.710   2.787  12.675 -1.5319 -0.2065  0.8538
 5374SOL    HW227756   0.624   2.861  12.766  1.4827 -0.5050  0.9250
 5375SOL     OW27757   1.834   2.261  12.281 -0.3400  0.4700  0.0035
 5375SOL    HW127758   1.894   2.218  12.220 -0.9098 -0.8832  0.3872
 5375SOL    HW227759   1.816   2.343  12.235 -0.8129  0.4893  0.2178
 5376SOL     OW27760   3.671   4.103   7.072  0.2029 -0.1273 -0.0091
 5376SOL    HW127761   3.667   4.008   7.087 -2.5479  0.0544  0.4318
 5376SOL    HW227762   3.764   4.123   7.070  0.4686 -1.3244  0.2072
 5377SOL     OW27763   3.832   1.898   2.731  0.2369  0.1588 -0.0040
 5377SOL    HW127764   3.859   1.907   2.639 -0.1737  0.6139 -0.0806
 5377SOL    HW227765   3.908   1.857   2.771 -0.6234 -1.2500  0.1614
 5378SOL     OW27766   0.568   2.869   9.519 -0.4950  0.4349 -0.5346
 5378SOL    HW127767   0.561   2.781   9.481  3.4281 -1.4105  2.9201
 5378SOL    HW227768   0.582   2.857   9.613 -4.7255 -2.0649 -0.2649
 5379SOL     OW27769   2.691   0.886  14.405  0.4711 -0.0360 -0.6018
 5379SOL    HW127770   2.741   0.849  14.333  1.0522 -0.6060  0.0909
 5379SOL    HW227771   2.667   0.807  14.453  1.2164  0.1605  0.0847
 5380SOL     OW27772   1.053   3.755   8.521  0.2474  0.1445 -0.3687
 5380SOL    HW127773   1.127   3.698   8.543  2.2214  2.5313 -0.8944
 5380SOL    HW227774   1.076   3.830   8.576 -0.5061 -0.3445  0.6043
 5381SOL     OW27775   1.926   4.530   8.754  0.0665  0.1615  0.6950
 5381SOL    HW127776   1.926   4.435   8.753 -2.5850  0.1583 -0.6847
 5381SOL    HW227777   1.967   4.548   8.838  1.8682  0.7904 -0.3150
 5382SOL     OW27778   3.337   2.344  11.994 -0.1447  0.8229  0.0204
 5382SOL    HW127779   3.252   2.360  12.034 -0.5953 -1.5715  0.0237
 5382SOL    HW227780   3.377   2.285  12.058  1.9156  0.8742 -1.2214
 5383SOL     OW27781   2.139   1.554   1.630 -0.0222 -0.1943  0.0257
 5383SOL    HW127782   2.134   1.625   1.695 -1.9902  1.1402 -1.5549
 5383SOL    HW227783   2.211   1.501   1.665 -0.2938 -0.2766  0.4584
 5384SOL     OW27784   1.590   3.963   8.430  0.0106  0.2948 -0.0626
 5384SOL    HW127785   1.575   3.998   8.342 -0.8934  1.9236  0.7445
 5384SOL    HW227786   1.526   3.891   8.430  1.3315 -0.8852 -0.7152
 5385SOL     OW27787   2.346   0.414   4.881 -0.4253  0.0453  0.2413
 5385SOL    HW127788   2.369   0.487   4.823 -0.4946  0.9174  1.3192
 5385SOL    HW227789   2.397   0.338   4.855 -0.4710  0.2858 -0.5767
 5386SOL     OW27790   2.703   3.252   6.612  0.1674  0.5380 -0.0184
 5386SOL    HW127791   2.648   3.235   6.536  1.4591 -0.2457 -0.7676
 5386SOL    HW227792   2.706   3.348   6.606  1.7389  0.3384 -2.4801
 5387SOL     OW27793   4.008   1.434   4.013  0.5665  0.0571 -0.5166
 5387SOL    HW127794   3.978   1.364   3.956 -0.3688 -1.2173  1.5597
 5387SOL    HW227795   4.063   1.483   3.952 -1.3592  0.6576 -1.7568
 5388SOL     OW27796   1.451   0.440   6.886  0.2774 -0.1151  0.6149
 5388SOL    HW127797   1.447   0.351   6.853  3.0849  0.7803 -2.1304
 5388SOL    HW227798   1.369   0.478   6.855  1.4810  0.0089 -2.4244
 5389SOL     OW27799   0.549   2.428  16.628 -0.1197 -0.0730  0.3077
 5389SOL    HW127800   0.596   2.352  16.660  1.2007  0.0141 -1.4202
 5389SOL    HW227801   0.595   2.426  16.544 -0.6554 -0.8013  0.0349
 5390SOL     OW27802   2.079   0.956  10.684 -0.3027  0.8444 -0.2750
 5390SOL    HW127803   2.066   1.003  10.766 -0.9197 -0.7880  0.5690
 5390SOL    HW227804   2.031   0.880  10.716  1.1241  0.8572  1.8657
 5391SOL     OW27805   1.313   1.092   0.558 -0.4164  0.2176  0.5505
 5391SOL    HW127806   1.249   1.150   0.600 -0.6877 -0.6773  1.3863
 5391SOL    HW227807   1.317   1.130   0.471  0.1212 -1.3379 -0.1009
 5392SOL     OW27808   3.632   4.245  12.916  0.8718  0.1527 -0.4367
 5392SOL    HW127809   3.672   4.215  12.997 -0.6378  0.3788  0.3935
 5392SOL    HW227810   3.544   4.206  12.918  0.7576  0.4297  0.0048
 5393SOL     OW27811   2.974   2.511   4.833  0.3068 -0.8651 -0.6361
 5393SOL    HW127812   2.934   2.489   4.917  0.1721  1.3159 -0.1401
 5393SOL    HW227813   2.951   2.604   4.832 -1.2731 -1.2598 -0.9563
 5394SOL     OW27814   1.312   0.429  11.239  0.0832 -0.2292 -0.1021
 5394SOL    HW127815   1.278   0.477  11.163  0.4785  0.1374 -0.0547
 5394SOL    HW227816   1.251   0.455  11.307  1.7856  1.3865  0.8342
 5395SOL     OW27817   1.792   3.665   0.849  0.1139 -0.0325 -0.4132
 5395SOL    HW127818   1.797   3.638   0.941 -2.0483  3.5921  0.7536
 5395SOL    HW227819   1.731   3.739   0.852  0.8281  0.5393  0.0629
 5396SOL     OW27820   1.757   3.937   0.208  0.0989  0.1338 -0.2472
 5396SOL    HW127821   1.814   3.864   0.186  0.0542  0.8717 -2.7661
 5396SOL    HW227822   1.806   3.998   0.263 -2.0004  1.5613  0.0672
 5397SOL     OW27823   0.549   0.703  10.319  0.1332  0.0635  0.4286
 5397SOL    HW127824   0.634   0.706  10.363 -0.3610 -0.9332  1.4754
 5397SOL    HW227825   0.583   0.662  10.240 -1.0301  1.9443 -1.0283
 5398SOL     OW27826   2.988   2.799   5.832 -0.3726  0.3724 -0.1043
 5398SOL    HW127827   3.037   2.769   5.909 -2.5829  1.2090  1.6154
 5398SOL    HW227828   2.903   2.758   5.844 -0.0097 -0.0235  1.0565
 5399SOL     OW27829   2.167   1.406   9.167  0.0779  0.0131 -0.1519
 5399SOL    HW127830   2.262   1.398   9.165  0.1368  0.3754  1.3911
 5399SOL    HW227831   2.160   1.463   9.243  0.5191  1.7269 -1.3868
 5400SOL     OW27832   0.945   0.428   7.428  0.4899  0.1953  0.1238
 5400SOL    HW127833   0.906   0.473   7.353 -0.4636 -1.0634 -0.1333
 5400SOL    HW227834   0.983   0.354   7.382  0.2025  0.2042 -0.1262
 5401SOL     OW27835   3.285   2.202   0.400 -0.2183 -0.2368 -0.3087
 5401SOL    HW127836   3.351   2.175   0.336 -1.9164 -0.6509 -1.8968
 5401SOL    HW227837   3.201   2.189   0.355 -0.1923  1.1770 -0.7907
 5402SOL     OW27838   1.195   1.088   8.866  0.0200  0.0495  0.4169
 5402SOL    HW127839   1.137   1.164   8.868 -0.1512 -0.0549 -0.3244
 5402SOL    HW227840   1.139   1.015   8.894  0.5770 -0.2448  0.7575
 5403SOL     OW27841   1.758   0.613  13.288 -0.0383  0.0470 -0.1736
 5403SOL    HW127842   1.694   0.655  13.231  1.3815 -0.6863 -2.3378
 5403SOL    HW227843   1.769   0.692  13.342 -0.9584  1.2036 -1.6530
 5404SOL     OW27844   3.963   1.094   3.615 -0.1601  0.5534 -0.4766
 5404SOL    HW127845   3.970   1.176   3.567 -0.4467 -0.9804 -3.1317
 5404SOL    HW227846   3.902   1.051   3.555  0.3763  0.4065 -0.9191
 5405SOL     OW27847   3.891   4.399   3.996  0.4740 -0.6055 -0.2390
 5405SOL    HW127848   3.796   4.406   3.995  0.5777  0.9227  1.7297
 5405SOL    HW227849   3.913   4.447   3.916 -0.5983  0.4389  0.1018
 5406SOL     OW27850   0.457   1.071   0.280 -0.2590 -0.4710  0.1037
 5406SOL    HW127851   0.540   1.100   0.243 -0.6553 -0.3239 -0.6789
 5406SOL    HW227852   0.400   1.079   0.203  0.7191  2.9662 -0.2546
 5407SOL     OW27853   1.615   2.498   9.471 -0.2640 -0.0556 -0.0510
 5407SOL    HW127854   1.588   2.565   9.409 -0.1778  0.6903  0.7266
 5407SOL    HW227855   1.615   2.557   9.546 -0.3106  0.2988 -0.3310
 5408SOL     OW27856   2.710   1.047   7.343  0.6125  0.1385 -0.4213
 5408SOL    HW127857   2.694   1.034   7.436  1.3963 -3.1563 -0.7452
 5408SOL    HW227858   2.726   1.141   7.345  0.4601  0.1686 -0.5650
 5409SOL     OW27859   0.165   0.484   8.780 -0.2175  0.1733 -0.2356
 5409SOL    HW127860   0.177   0.577   8.762 -0.7688  0.7709  2.5490
 5409SOL    HW227861   0.246   0.473   8.829 -0.5738 -0.5800  0.1873
 5410SOL     OW27862   0.264   4.529   3.847  0.1466  0.3948 -0.1823
 5410SOL    HW127863   0.335   4.593   3.844 -2.0236  2.7851  0.4566
 5410SOL    HW227864   0.310   4.468   3.905 -0.6415  0.1035  0.1268
 5411SOL     OW27865   4.693   0.321   8.707 -0.0418 -0.2139  0.4356
 5411SOL    HW127866   0.026   0.358   8.760 -0.6849  1.2468  0.2541
 5411SOL    HW227867   4.725   0.233   8.689  1.0295  0.7924 -2.5650
 5412SOL     OW27868   3.004   2.997   7.411  0.4272 -0.3038 -0.2430
 5412SOL    HW127869   2.974   3.066   7.352 -1.7578  0.3376  1.5928
 5412SOL    HW227870   3.051   2.935   7.356 -1.2866 -0.5876 -1.4060
 5413SOL     OW27871   0.381   4.334   6.258 -0.2087  0.1462  0.2857
 5413SOL    HW127872   0.416   4.247   6.281 -0.6898 -0.0822  0.1531
 5413SOL    HW227873   0.383   4.369   6.347 -0.9704  0.4400  0.1854
 5414SOL     OW27874   0.757   2.073   7.034 -0.2774 -0.0037 -0.0283
 5414SOL    HW127875   0.849   2.088   7.015 -0.3435 -3.2257 -2.9006
 5414SOL    HW227876   0.756   2.040   7.123  0.9387  1.2408  0.4438
 5415SOL     OW27877   3.035   2.369  15.621 -0.2216 -0.3662 -1.2655
 5415SOL    HW127878   3.003   2.398  15.536 -1.6118 -0.5882 -0.8258
 5415SOL    HW227879   2.952   2.363  15.669 -0.0543  0.7002 -0.8545
 5416SOL     OW27880   2.548   1.648  11.616  0.6689  0.2823  0.2759
 5416SOL    HW127881   2.558   1.711  11.687 -1.0235  0.3810  0.4237
 5416SOL    HW227882   2.634   1.633  11.577  1.2011  0.7419  1.2704
 5417SOL     OW27883   3.554   1.771  13.766  0.3317  0.4837  0.2579
 5417SOL    HW127884   3.605   1.695  13.737 -1.3023 -1.0166  1.3226
 5417SOL    HW227885   3.466   1.735  13.772  1.6396 -2.4824  1.4370
 5418SOL     OW27886   0.535   0.055   3.610 -0.2061  0.4640 -0.4115
 5418SOL    HW127887   0.480   4.719   3.582  3.2122 -2.2045 -0.0501
 5418SOL    HW227888   0.551   0.032   3.701  4.2952  0.9072 -1.1010
 5419SOL     OW27889   4.212   3.172   2.896 -0.1358 -0.5180  0.4066
 5419SOL    HW127890   4.241   3.188   2.807  0.5398  1.9623  1.0833
 5419SOL    HW227891   4.131   3.121   2.891 -0.0419 -0.3297 -2.5654
 5420SOL     OW27892   0.320   0.539   2.270 -0.4245 -0.2378  0.1520
 5420SOL    HW127893   0.410   0.568   2.289 -0.6188  1.2371 -1.1918
 5420SOL    HW227894   0.285   0.535   2.359  0.4656  1.3388  0.5729
 5421SOL     OW27895   4.330   2.895  10.157  0.0682 -0.1598 -0.0032
 5421SOL    HW127896   4.273   2.965  10.124 -0.4915 -1.8974 -2.7518
 5421SOL    HW227897   4.412   2.941  10.172 -0.7227  0.9954  0.7852
 5422SOL     OW27898   2.540   3.154   1.449 -0.0585  0.2616 -0.4885
 5422SOL    HW127899   2.591   3.221   1.403  1.0755  1.8451  3.1034
 5422SOL    HW227900   2.490   3.116   1.377 -4.5273 -1.1796  3.3770
 5423SOL     OW27901   0.374   2.317   6.155  0.3217 -0.2484  0.2079
 5423SOL    HW127902   0.283   2.297   6.176  0.6867  0.9510  3.0454
 5423SOL    HW227903   0.419   2.238   6.186  0.0218 -0.0318  1.1988
 5424SOL     OW27904   4.460   0.284   3.905  0.0277 -0.1000 -0.1330
 5424SOL    HW127905   4.525   0.324   3.962 -0.3522 -0.7064  0.7268
 5424SOL    HW227906   4.513   0.220   3.858  0.1562 -0.2373  0.2018
 5425SOL     OW27907   2.698   2.778   8.763  0.1229 -0.0572  0.2145
 5425SOL    HW127908   2.694   2.738   8.677 -2.1358 -0.0436  0.3206
 5425SOL    HW227909   2.617   2.743   8.800 -0.7397  1.3122 -0.3642
 5426SOL     OW27910   0.781   2.957  16.017 -1.0654  0.5014  0.1423
 5426SOL    HW127911   0.692   2.928  16.041 -0.9798  0.2175  0.1216
 5426SOL    HW227912   0.834   2.878  16.004 -1.7996  0.0152  0.0860
 5427SOL     OW27913   2.783   1.411   9.232  0.1631  0.3257  0.1286
 5427SOL    HW127914   2.721   1.341   9.252 -0.5769  0.5432 -1.4675
 5427SOL    HW227915   2.864   1.363   9.249  0.5974  0.9340 -0.2319
 5428SOL     OW27916   4.142   0.435  12.056 -0.0556 -0.5902 -0.2300
 5428SOL    HW127917   4.230   0.423  12.092  0.1115  1.1162 -0.0489
 5428SOL    HW227918   4.168   0.432  11.965  0.4276 -0.1427 -0.1085
 5429SOL     OW27919   0.209   2.355   4.222  0.0888 -0.0578 -0.5460
 5429SOL    HW127920   0.299   2.377   4.196  0.1276  1.8860  1.3199
 5429SOL    HW227921   0.200   2.408   4.301  1.4224 -0.7475  0.0680
 5430SOL     OW27922   0.574   1.290   9.571 -0.6626 -0.1129  0.0938
 5430SOL    HW127923   0.626   1.221   9.528 -0.9476 -1.1326  1.3931
 5430SOL    HW227924   0.598   1.290   9.664 -0.4675 -0.7353  0.0417
 5431SOL     OW27925   2.292   1.906   9.391  0.0350  0.0381  0.4532
 5431SOL    HW127926   2.309   1.990   9.349 -0.1269 -0.6779 -1.0326
 5431SOL    HW227927   2.200   1.902   9.362  0.7837 -0.5720 -1.8060
 5432SOL     OW27928   1.362   1.359   5.756  0.6800 -0.2083 -0.0583
 5432SOL    HW127929   1.375   1.348   5.661 -0.1985  0.5323 -0.2610
 5432SOL    HW227930   1.385   1.271   5.787 -0.6491 -0.3530  0.5284
 5433SOL     OW27931   1.526   0.722  12.563  0.2378 -0.8363 -0.2049
 5433SOL    HW127932   1.551   0.669  12.639 -1.1298 -0.1787  0.7107
 5433SOL    HW227933   1.556   0.659  12.497  0.4396 -0.4838 -0.4485
 5434SOL     OW27934   2.956   2.127   6.021  0.8705 -0.0179  0.0208
 5434SOL    HW127935   2.970   2.106   6.113 -2.3711 -1.3148  0.2093
 5434SOL    HW227936   2.998   2.211   6.005  0.8843  0.0662  0.5113
 5435SOL     OW27937   0.958   3.925  16.903  0.1867 -0.1292 -0.1639
 5435SOL    HW127938   1.037   3.876  16.925 -1.2174 -2.0379  0.5883
 5435SOL    HW227939   0.977   4.009  16.945 -0.9420 -0.0474  0.1675
 5436SOL     OW27940   1.265   2.250   0.573 -0.4084 -0.0221 -0.3573
 5436SOL    HW127941   1.342   2.246   0.516 -1.3564  3.1496 -1.8913
 5436SOL    HW227942   1.248   2.157   0.586 -1.2666  0.4036  1.5305
 5437SOL     OW27943   4.408   4.090   0.648  0.1136  0.4483  0.6645
 5437SOL    HW127944   4.379   4.098   0.557  0.5035 -1.9254  0.3363
 5437SOL    HW227945   4.375   4.167   0.694 -1.4143  1.8414 -2.7673
 5438SOL     OW27946   3.601   1.057  15.943  0.0730  0.2078 -0.1599
 5438SOL    HW127947   3.512   1.041  15.911  0.5876 -2.3992 -0.2967
 5438SOL    HW227948   3.651   1.075  15.864  0.3388 -1.6182 -0.4161
 5439SOL     OW27949   0.693   1.361   6.162  0.1179  0.8059  0.2874
 5439SOL    HW127950   0.658   1.432   6.107 -1.2767 -0.2385 -0.1510
 5439SOL    HW227951   0.783   1.342   6.135  0.0130 -0.3930  0.7830
 5440SOL     OW27952   3.443   1.462   8.735  0.0259 -0.0783  0.4723
 5440SOL    HW127953   3.519   1.473   8.792  0.5667 -0.2816 -0.1948
 5440SOL    HW227954   3.398   1.392   8.782  0.1167 -0.9422 -0.6996
 5441SOL     OW27955   2.249   3.715   9.819  0.4304 -0.9838  0.3185
 5441SOL    HW127956   2.221   3.642   9.874  0.2764  0.0238  1.5858
 5441SOL    HW227957   2.285   3.668   9.744  2.5122  0.9843  0.0958
 5442SOL     OW27958   4.036   3.593   5.743  0.5551 -0.2573  0.0787
 5442SOL    HW127959   4.084   3.674   5.724 -2.0414  1.3857  0.6334
 5442SOL    HW227960   4.014   3.596   5.836 -0.2112 -1.8141 -0.0571
 5443SOL     OW27961   3.679   4.645   5.591 -0.2663  0.3785  0.0916
 5443SOL    HW127962   3.672   4.672   5.499 -1.7846 -0.3512 -0.0105
 5443SOL    HW227963   3.743   4.574   5.587  0.1748  0.6864  2.0947
 5444SOL     OW27964   1.181   2.588   5.098 -0.4392 -0.2280  0.6138
 5444SOL    HW127965   1.205   2.499   5.073 -0.0331  0.4768 -1.5438
 5444SOL    HW227966   1.087   2.575   5.110 -0.6403  0.0974 -0.5329
 5445SOL     OW27967   1.276   3.256   3.237 -0.4097 -0.1440 -0.2695
 5445SOL    HW127968   1.348   3.275   3.297  0.5531  1.7437 -2.0282
 5445SOL    HW227969   1.236   3.178   3.276 -1.3603  0.9618  0.9387
 5446SOL     OW27970   3.256   1.332   8.527  0.1263  0.1852 -0.0912
 5446SOL    HW127971   3.196   1.390   8.481  1.3812  1.6209  0.0526
 5446SOL    HW227972   3.314   1.386   8.582  2.0931 -0.5775 -1.4025
 5447SOL     OW27973   0.824   2.205  10.144 -0.4689  0.9512 -0.5092
 5447SOL    HW127974   0.856   2.256  10.219 -2.6698  1.8015 -0.1659
 5447SOL    HW227975   0.898   2.227  10.088  1.7415 -1.2482  1.5310
 5448SOL     OW27976   3.138   2.382   7.231 -0.4194  0.3415 -0.3300
 5448SOL    HW127977   3.146   2.377   7.136  0.5073 -0.2573 -0.2187
 5448SOL    HW227978   3.044   2.386   7.247 -0.9276  1.4314 -3.5684
 5449SOL     OW27979   3.191   2.070   7.387  0.4135 -0.4536  0.3228
 5449SOL    HW127980   3.241   2.009   7.441  1.4151 -1.0300 -1.2856
 5449SOL    HW227981   3.104   2.065   7.428  0.0565  0.0455 -0.3619
 5450SOL     OW27982   4.084   1.155   7.932  0.6752 -0.1271 -0.1851
 5450SOL    HW127983   4.156   1.124   7.986  1.2355 -1.1364 -1.4951
 5450SOL    HW227984   4.056   1.076   7.886  2.5143  1.0974 -3.4131
 5451SOL     OW27985   2.045   0.384  14.616  0.4491 -0.1485  0.2409
 5451SOL    HW127986   1.977   0.445  14.587 -0.3062 -0.3961  1.4560
 5451SOL    HW227987   2.048   0.334  14.535 -1.1272 -0.2455  0.2410
 5452SOL     OW27988   0.408   1.341  16.753  0.0464 -0.2597 -0.6928
 5452SOL    HW127989   0.319   1.373  16.741  0.5374  1.1075 -0.7015
 5452SOL    HW227990   0.445   1.402  16.817  2.5759 -1.5899 -0.8828
 5453SOL     OW27991   0.907   1.268  11.336 -0.0337  0.2727 -0.2041
 5453SOL    HW127992   0.979   1.314  11.293  1.1333 -1.4327 -0.0779
 5453SOL    HW227993   0.846   1.342  11.345  1.0358  1.1074  0.1668
 5454SOL     OW27994   4.645   3.563   4.892 -0.1608  0.0354  0.3397
 5454SOL    HW127995   4.661   3.476   4.856  0.5091  0.8335 -1.2729
 5454SOL    HW227996   4.577   3.601   4.836  0.3649  0.1171 -0.2427
 5455SOL     OW27997   3.537   0.249  17.452  0.4087 -0.2624 -0.0512
 5455SOL    HW127998   3.588   0.267  17.373  1.1680  3.8140  1.3386
 5455SOL    HW227999   3.516   0.338  17.481  0.1090 -0.0707 -0.8572
 5456SOL     OW28000   0.380   4.414  12.337 -0.1405 -0.2616 -0.4260
 5456SOL    HW128001   0.371   4.487  12.397  0.4302  0.0363 -0.7007
 5456SOL    HW228002   0.287   4.397  12.324 -0.0361 -0.3274 -1.0937
 5457SOL     OW28003   1.766   2.576   1.586 -0.2779 -0.5838  0.2825
 5457SOL    HW128004   1.687   2.618   1.551 -0.8054 -0.8301  1.1578
 5457SOL    HW228005   1.738   2.485   1.592  2.6621 -1.4398  0.7242
 5458SOL     OW28006   2.042   0.598   8.001 -0.0848  0.1665  0.2953
 5458SOL    HW128007   1.974   0.605   8.068  0.0001 -0.0764  0.4069
 5458SOL    HW228008   2.074   0.509   8.016 -0.3391  0.3780  2.1023
 5459SOL     OW28009   4.019   1.548   9.383 -0.7910 -0.6245  0.3333
 5459SOL    HW128010   3.969   1.593   9.451  1.3229 -0.8670  2.0611
 5459SOL    HW228011   4.106   1.587   9.392 -1.1430  0.2108  0.1170
 5460SOL     OW28012   1.219   0.025   3.617  0.4472 -0.3779 -0.4185
 5460SOL    HW128013   1.230   4.705   3.693 -0.9822 -0.1863 -0.0840
 5460SOL    HW228014   1.287   4.737   3.553 -1.2594 -1.8491 -1.6381
 5461SOL     OW28015   3.784   1.987   6.397 -1.3616  0.6185 -0.2640
 5461SOL    HW128016   3.744   1.900   6.401  1.4193 -0.6319  0.2171
 5461SOL    HW228017   3.826   1.985   6.311  1.7861  0.7960  1.2700
 5462SOL     OW28018   3.484   1.824   9.745 -0.2338 -0.3019  0.2224
 5462SOL    HW128019   3.427   1.862   9.812 -1.2088 -1.8922  0.2802
 5462SOL    HW228020   3.566   1.852   9.784 -0.9631  1.2260  0.6697
 5463SOL     OW28021   0.180   1.788   6.854  0.2265 -0.1043  0.1122
 5463SOL    HW128022   0.115   1.858   6.858  0.2857  0.0554 -1.5984
 5463SOL    HW228023   0.126   1.723   6.899  0.6493 -1.2490 -1.0167
 5464SOL     OW28024   2.678   1.954   2.733 -0.0083 -0.2773 -0.2909
 5464SOL    HW128025   2.764   1.956   2.774 -0.6766  0.3306  1.1034
 5464SOL    HW228026   2.627   1.964   2.814  1.4797 -1.5887  0.8116
 5465SOL     OW28027   1.604   0.784  11.911 -0.5883 -0.1669  0.5418
 5465SOL    HW128028   1.600   0.722  11.984 -0.0721  0.5056  1.1500
 5465SOL    HW228029   1.685   0.759  11.866 -1.3424 -1.9777  0.2136
 5466SOL     OW28030   3.825   1.060  13.388  0.3497  0.6333 -0.0884
 5466SOL    HW128031   3.809   1.134  13.330 -0.4587  1.4154  1.1353
 5466SOL    HW228032   3.876   1.102  13.457  0.6714  0.6553 -0.3389
 5467SOL     OW28033   3.854   1.047   2.763 -0.0581 -0.4030  0.1048
 5467SOL    HW128034   3.817   0.959   2.767 -1.1667 -0.0028 -1.3563
 5467SOL    HW228035   3.844   1.062   2.669  0.9476  2.0944  0.3864
 5468SOL     OW28036   2.617   1.588   6.939  0.0920 -0.5161  0.1954
 5468SOL    HW128037   2.674   1.654   6.899  0.9068 -1.1532  0.3127
 5468SOL    HW228038   2.680   1.548   6.999 -0.3778  0.4958  1.3703
 5469SOL     OW28039   3.268   3.477   7.068 -0.3221 -0.7096 -0.4320
 5469SOL    HW128040   3.357   3.508   7.086 -1.3781  1.3851  1.2229
 5469SOL    HW228041   3.230   3.534   7.001  0.0620 -0.6412 -0.5885
 5470SOL     OW28042   4.467   2.286   3.667  0.3722 -0.5903 -0.3159
 5470SOL    HW128043   4.470   2.328   3.752 -1.4451 -2.0494  0.4548
 5470SOL    HW228044   4.561   2.272   3.655  0.5300  0.3740 -0.1540
 5471SOL     OW28045   1.170   2.771  13.455 -0.2318  0.2780  0.2316
 5471SOL    HW128046   1.263   2.749  13.468 -0.6919 -2.4432 -0.9876
 5471SOL    HW228047   1.142   2.766  13.547  0.6040 -0.7770  0.4310
 5472SOL     OW28048   3.512   4.729   7.692  0.9488  0.6686  0.1283
 5472SOL    HW128049   3.592   4.698   7.649  0.5444 -1.4968  0.8994
 5472SOL    HW228050   3.458   0.006   7.615  0.3236  0.9076  0.6059
 5473SOL     OW28051   3.254   1.725  15.835  0.5614  0.4392 -0.0507
 5473SOL    HW128052   3.210   1.641  15.819  2.2313 -0.4595  0.0542
 5473SOL    HW228053   3.181   1.774  15.873 -0.4839 -1.2561  0.1389
 5474SOL     OW28054   2.438   4.593   6.820  0.1226 -0.1434  0.2083
 5474SOL    HW128055   2.422   4.686   6.837 -0.9017 -0.3057  0.1216
 5474SOL    HW228056   2.423   4.603   6.726 -1.5948 -2.9317  0.1899
 5475SOL     OW28057   1.565   4.651   6.072  0.6447 -0.3637  0.2914
 5475SOL    HW128058   1.509   4.592   6.021  2.6150 -0.9966 -1.1174
 5475SOL    HW228059   1.638   4.597   6.101  1.2288 -0.0767 -0.6285
 5476SOL     OW28060   0.796   2.535   2.884 -0.0871  0.8597  0.2635
 5476SOL    HW128061   0.849   2.456   2.891  0.6961  1.3776  0.1902
 5476SOL    HW228062   0.720   2.533   2.942  0.5488  0.2879  1.0847
 5477SOL     OW28063   0.371   0.885   4.038 -0.3461 -0.4036 -0.7160
 5477SOL    HW128064   0.343   0.968   4.076 -1.5802 -1.1960  0.1172
 5477SOL    HW228065   0.296   0.836   4.072 -0.8165  0.3939 -0.6123
 5478SOL     OW28066   3.781   3.025   6.716 -0.3929  0.0613 -0.1109
 5478SOL    HW128067   3.789   3.105   6.665 -2.2845 -0.8642 -1.8493
 5478SOL    HW228068   3.852   3.036   6.779 -1.3447 -0.1863  1.0121
 5479SOL     OW28069   3.974   1.948  11.995  0.2597 -0.2732 -0.1805
 5479SOL    HW128070   3.973   2.044  11.998  0.7358 -0.3326  1.9484
 5479SOL    HW228071   3.883   1.926  12.017  0.3352 -2.0734 -1.6851
 5480SOL     OW28072   2.952   3.373  11.459 -0.4834  0.2653 -0.2923
 5480SOL    HW128073   2.882   3.321  11.420  0.1906 -0.9099  0.0562
 5480SOL    HW228074   2.951   3.451  11.403  0.4206 -0.3446 -1.1645
 5481SOL     OW28075   1.993   3.563  16.153  0.2973  0.5450 -0.7887
 5481SOL    HW128076   1.995   3.599  16.064  0.4049 -2.0312 -1.8427
 5481SOL    HW228077   1.936   3.629  16.192 -0.3745 -0.9020  0.7101
 5482SOL     OW28078   2.421   0.595   4.611  0.1755 -0.2685 -0.1518
 5482SOL    HW128079   2.406   0.658   4.681  0.0051 -1.1910  0.6508
 5482SOL    HW228080   2.432   0.650   4.533 -1.2746 -0.3331 -0.4101
 5483SOL     OW28081   2.020   1.662   5.410 -0.3202  0.2346 -0.4541
 5483SOL    HW128082   2.041   1.661   5.316 -1.8870  1.5641 -0.8232
 5483SOL    HW228083   1.931   1.628   5.408  0.0933 -0.8412 -0.1625
 5484SOL     OW28084   3.048   2.685   2.133  0.3182  0.1453 -0.0360
 5484SOL    HW128085   2.980   2.707   2.069 -0.0894  1.6699  0.9127
 5484SOL    HW228086   3.025   2.728   2.215  0.2762  1.9676 -1.0196
 5485SOL     OW28087   0.691   1.630   9.329  0.1273 -0.6918 -0.1595
 5485SOL    HW128088   0.755   1.649   9.397  1.0430  0.3023 -1.2882
 5485SOL    HW228089   0.682   1.722   9.302  0.9249 -0.1818  1.3312
 5486SOL     OW28090   1.974   2.778   5.798 -0.3388  0.1139 -0.4466
 5486SOL    HW128091   1.962   2.699   5.745  2.1599 -0.6606  0.1122
 5486SOL    HW228092   2.030   2.835   5.746 -0.2477 -0.6482 -1.1958
 5487SOL     OW28093   4.674   1.446   8.028 -0.3123  0.0670  0.0330
 5487SOL    HW128094   4.634   1.378   7.975  0.1271  0.1823 -0.4432
 5487SOL    HW228095   4.703   1.410   8.112  0.5397 -1.9253 -1.1193
 5488SOL     OW28096   1.284   1.592   5.813 -0.3800 -0.0482  0.2766
 5488SOL    HW128097   1.341   1.517   5.800  1.2497  1.2415 -0.0124
 5488SOL    HW228098   1.270   1.625   5.725 -0.0336 -0.7493 -0.0400
 5489SOL     OW28099   3.307   0.271   0.084  0.4626  0.2443 -0.3529
 5489SOL    HW128100   3.346   0.291   0.169  0.4695 -3.9512  0.6310
 5489SOL    HW228101   3.342   0.184   0.066 -2.3422 -0.9045 -0.2955
 5490SOL     OW28102   3.653   3.373  13.532 -0.0385  0.3425 -0.4547
 5490SOL    HW128103   3.587   3.329  13.586 -0.2971  0.8392 -0.3639
 5490SOL    HW228104   3.736   3.355  13.576 -0.8665 -3.0624 -0.2787
 5491SOL     OW28105   2.115   3.844  17.379  0.4531 -0.0455  0.4314
 5491SOL    HW128106   2.038   3.798  17.414 -0.4531  1.2245  0.1312
 5491SOL    HW228107   2.101   3.808  17.291  0.0446 -0.3025  0.5994
 5492SOL     OW28108   4.072   4.363   4.578 -0.4870  0.0888 -0.4459
 5492SOL    HW128109   4.060   4.296   4.511 -1.8803  0.8014 -0.9326
 5492SOL    HW228110   4.005   4.424   4.546  0.0466  1.7265  1.5244
 5493SOL     OW28111   4.291   2.181   7.514  0.1095  0.0358 -0.0525
 5493SOL    HW128112   4.325   2.270   7.525  1.3280 -0.7808  2.6365
 5493SOL    HW228113   4.273   2.176   7.420  1.8886 -2.5959 -0.2545
 5494SOL     OW28114   2.016   1.445   8.448 -0.3811 -0.3235 -0.2300
 5494SOL    HW128115   2.092   1.393   8.472  0.8808  1.4093 -0.4555
 5494SOL    HW228116   1.984   1.473   8.534  0.5475 -1.0485  0.3495
 5495SOL     OW28117   0.489   1.587   6.464 -0.0677  0.1157  0.0035
 5495SOL    HW128118   0.406   1.616   6.503  0.7829 -1.8840  3.2425
 5495SOL    HW228119   0.503   1.504   6.509  0.0754 -0.4288 -1.0569
 5496SOL     OW28120   1.564   0.476  13.709 -0.4676  0.1350 -0.7224
 5496SOL    HW128121   1.627   0.527  13.761 -1.9548 -0.4909  1.6830
 5496SOL    HW228122   1.620   0.443  13.639  0.3369 -0.3624  0.1497
 5497SOL     OW28123   0.680   1.901  13.284 -0.4205  0.0527  0.5208
 5497SOL    HW128124   0.594   1.859  13.272 -0.1672 -0.0028 -1.1047
 5497SOL    HW228125   0.665   1.991  13.255  2.4476  1.2575  2.8720
 5498SOL     OW28126   0.043   1.924   9.267 -0.1514 -0.0698 -0.0929
 5498SOL    HW128127   0.065   1.989   9.334  1.9025  1.8818 -2.6224
 5498SOL    HW228128   0.072   1.838   9.297 -0.3921  0.4383  1.5422
 5499SOL     OW28129   3.612   3.473   7.383  0.3989  0.3628  0.0012
 5499SOL    HW128130   3.646   3.444   7.468  1.2027 -2.5281 -1.2903
 5499SOL    HW228131   3.680   3.450   7.321 -0.9285 -0.1223 -1.2703
 5500SOL     OW28132   0.077   0.326   9.501 -0.1927 -0.0134  0.2322
 5500SOL    HW128133   0.024   0.347   9.578  0.0745  0.7578  0.2039
 5500SOL    HW228134   0.013   0.273   9.452  0.0184  1.0959 -1.2519
 5501SOL     OW28135   3.956   1.109   6.219  0.3221  0.7543  0.0274
 5501SOL    HW128136   3.931   1.126   6.309  1.7300  2.0033  0.1834
 5501SOL    HW228137   3.970   1.014   6.228  0.4491  0.7070 -0.6183
 5502SOL     OW28138   3.278   3.340   2.977  0.1519 -0.6176  0.2449
 5502SOL    HW128139   3.191   3.356   3.014  0.7522 -0.5896  1.6251
 5502SOL    HW228140   3.262   3.267   2.918  0.6383 -0.6362  0.1375
 5503SOL     OW28141   1.568   2.677  11.077 -0.2548  0.1980  0.1210
 5503SOL    HW128142   1.596   2.769  11.078 -0.2025  0.1853 -0.2427
 5503SOL    HW228143   1.507   2.669  11.004  2.0315  1.2261 -1.9024
 5504SOL     OW28144   1.610   2.939  17.545  0.1637 -0.0200  0.0922
 5504SOL    HW128145   1.555   2.983  17.481  1.4589  1.1102 -0.2687
 5504SOL    HW228146   1.589   2.987  17.626 -1.6405  0.6800 -0.7982
 5505SOL     OW28147   3.173   2.653   1.714  0.1361 -0.5054  0.3573
 5505SOL    HW128148   3.263   2.682   1.696 -0.2582  0.4475 -0.0723
 5505SOL    HW228149   3.182   2.563   1.745 -1.2993 -0.3829  1.1156
 5506SOL     OW28150   2.714   3.173   4.797 -0.3169 -0.0741  0.3485
 5506SOL    HW128151   2.714   3.081   4.821  0.6320 -0.3173 -0.6007
 5506SOL    HW228152   2.619   3.188   4.789 -0.5199 -0.7576  1.4170
 5507SOL     OW28153   1.656   1.961  17.523  0.2831 -0.2542 -0.0194
 5507SOL    HW128154   1.721   2.030  17.537 -0.5569  0.4993  0.0865
 5507SOL    HW228155   1.594   2.011  17.470  1.4187  0.1359 -1.0143
 5508SOL     OW28156   0.082   1.523   4.134 -0.6941  0.0895 -0.1349
 5508SOL    HW128157   0.053   1.451   4.078 -1.4199 -1.5468  2.3104
 5508SOL    HW228158   0.107   1.596   4.078 -0.3821  0.2330  0.1890
 5509SOL     OW28159   4.270   0.831  10.233 -0.1855  0.8359  0.0997
 5509SOL    HW128160   4.249   0.758  10.291  1.7547  2.0169  2.2805
 5509SOL    HW228161   4.238   0.793  10.151 -0.4647  2.4929 -0.5666
 5510SOL     OW28162   2.845   1.834   3.312 -0.3602 -0.0911  0.0025
 5510SOL    HW128163   2.931   1.833   3.355 -0.4192 -3.9243  0.0553
 5510SOL    HW228164   2.868   1.794   3.228 -0.4102 -0.3563  0.1132
 5511SOL     OW28165   1.471   2.622   6.806  0.0757  0.3074 -0.0120
 5511SOL    HW128166   1.555   2.593   6.841  0.7454  2.0369 -0.1910
 5511SOL    HW228167   1.423   2.540   6.820 -2.9238  1.5799 -2.8762
 5512SOL     OW28168   3.030   4.058   3.054  0.2142  0.0132 -0.1033
 5512SOL    HW128169   2.992   3.981   3.096 -2.1733  0.3703 -1.6053
 5512SOL    HW228170   3.010   4.038   2.963  1.4189 -2.8972  0.2618
 5513SOL     OW28171   1.110   3.904   0.362 -0.3361  0.6295  0.0885
 5513SOL    HW128172   1.143   3.814   0.361 -2.5109 -0.1883  1.4746
 5513SOL    HW228173   1.187   3.958   0.344  0.2327 -0.2307 -0.0619
 5514SOL     OW28174   4.042   1.251   2.861 -0.1852 -0.1884  0.2014
 5514SOL    HW128175   3.985   1.177   2.840 -0.3678  0.0867 -0.2700
 5514SOL    HW228176   4.045   1.299   2.778 -1.0018  0.9197  0.8084
 5515SOL     OW28177   3.622   4.563  12.547  0.1185  0.0652  0.6671
 5515SOL    HW128178   3.567   4.548  12.470 -0.7910  2.5187  0.8421
 5515SOL    HW228179   3.635   4.469  12.562  1.3136  0.1076 -0.0953
 5516SOL     OW28180   4.676   0.660   9.933  0.7652  0.6626  0.4024
 5516SOL    HW128181   0.006   0.693   9.992  0.1127  1.5011  0.6863
 5516SOL    HW228182   4.659   0.591   9.997  0.5369 -0.0502 -0.4209
 5517SOL     OW28183   3.093   2.860   8.233 -0.6938  0.0208  0.4161
 5517SOL    HW128184   3.097   2.956   8.232 -0.9678  0.0356  0.8241
 5517SOL    HW228185   3.013   2.844   8.284  0.3508  0.4383  2.1816
 5518SOL     OW28186   0.755   0.211  16.354 -0.2280  0.5833  0.0589
 5518SOL    HW128187   0.751   0.145  16.285  1.0318  0.0212  0.5006
 5518SOL    HW228188   0.755   0.294  16.306  0.2226 -0.3835 -1.6235
 5519SOL     OW28189   3.667   3.467   7.866 -0.2791 -0.4932  0.1081
 5519SOL    HW128190   3.705   3.389   7.906 -0.7591 -0.6099  0.3337
 5519SOL    HW228191   3.604   3.504   7.928  0.6966  1.0316  0.2036
 5520SOL     OW28192   0.307   4.020  11.489  0.1629  0.8772  0.0001
 5520SOL    HW128193   0.294   3.946  11.430  0.7744  1.0385 -0.3418
 5520SOL    HW228194   0.217   4.049  11.503 -0.7217 -1.6776 -0.2807
 5521SOL     OW28195   3.132   3.605  10.230 -0.2599 -0.3009 -0.3540
 5521SOL    HW128196   3.079   3.526  10.234 -1.6153  0.6930  1.5444
 5521SOL    HW228197   3.064   3.672  10.217 -0.1625  0.0377  0.9175
 5522SOL     OW28198   0.718   1.857   8.254 -0.2033  0.4287  0.3082
 5522SOL    HW128199   0.758   1.771   8.243 -1.2992 -0.0424  0.0613
 5522SOL    HW228200   0.629   1.829   8.235 -0.0845  0.2175  0.0651
 5523SOL     OW28201   4.195   0.904  16.545  0.1632  0.1440 -0.5631
 5523SOL    HW128202   4.258   0.837  16.518  0.4454  0.2794 -0.2371
 5523SOL    HW228203   4.115   0.854  16.528 -0.3357  0.1796  1.7408
 5524SOL     OW28204   0.053   2.576   2.461 -0.0888 -0.5155  0.6043
 5524SOL    HW128205   4.697   2.585   2.474  0.0039  1.7899 -0.3135
 5524SOL    HW228206   0.081   2.668   2.465  2.8165 -1.3703 -0.2076
 5525SOL     OW28207   4.407   1.630   5.468 -0.2744 -0.3709  0.1033
 5525SOL    HW128208   4.462   1.617   5.390  0.2159  0.4870  0.2938
 5525SOL    HW228209   4.407   1.544   5.510  2.1609 -0.5676 -0.2771
 5526SOL     OW28210   3.218   3.760   0.493 -0.3274  0.2699 -0.7576
 5526SOL    HW128211   3.138   3.814   0.488 -0.9050 -0.4902  0.1874
 5526SOL    HW228212   3.186   3.679   0.455 -0.1014  0.1891 -0.7760
 5527SOL     OW28213   2.180   1.960  15.756 -0.3881 -0.1404 -0.0817
 5527SOL    HW128214   2.125   2.023  15.710 -0.1849 -0.3634 -0.6283
 5527SOL    HW228215   2.115   1.924  15.816  0.3701 -0.5238  0.5202
 5528SOL     OW28216   2.880   0.846   2.139 -0.0741 -0.7477  0.4065
 5528SOL    HW128217   2.834   0.765   2.158 -0.2069 -0.6677  0.4227
 5528SOL    HW228218   2.829   0.885   2.068  0.4297  0.2914  0.6160
 5529SOL     OW28219   2.719   0.712   7.062  0.0074 -0.1490  0.0986
 5529SOL    HW128220   2.671   0.792   7.042 -0.7103 -0.0007  2.3484
 5529SOL    HW228221   2.678   0.691   7.146 -0.0313  1.7204  0.5560
 5530SOL     OW28222   0.174   0.046   4.251 -0.2648  0.0034 -0.1290
 5530SOL    HW128223   0.125   0.034   4.333  0.9337  0.0848  0.5952
 5530SOL    HW228224   0.107   0.064   4.185 -1.3110 -0.3771  0.8377
 5531SOL     OW28225   4.076   4.465   6.103  0.6657 -0.4930  0.9646
 5531SOL    HW128226   4.014   4.510   6.161 -1.4171 -1.9073 -0.1448
 5531SOL    HW228227   4.160   4.502   6.131  1.0876 -0.0358 -0.9229
 5532SOL     OW28228   3.305   4.650   7.875  0.0381  0.0437 -0.2058
 5532SOL    HW128229   3.363   4.690   7.810  0.0743  0.8430  0.3259
 5532SOL    HW228230   3.345   4.565   7.893  1.2684  0.7822  0.5223
 5533SOL     OW28231   3.512   2.533   7.901 -0.0712 -0.3773  0.5034
 5533SOL    HW128232   3.561   2.490   7.831  2.5269  0.8684  1.5304
 5533SOL    HW228233   3.589   2.547   7.957  1.4562 -0.6758 -1.4945
 5534SOL     OW28234   3.173   3.639   6.867 -0.4926  0.3645 -0.1221
 5534SOL    HW128235   3.087   3.679   6.854 -0.5886 -0.3632 -1.7359
 5534SOL    HW228236   3.224   3.634   6.786  0.6332  0.3791  0.5830
 5535SOL     OW28237   0.753   4.444  15.395  0.0355  0.2467 -0.1279
 5535SOL    HW128238   0.814   4.416  15.327  2.0988  1.9905  1.0230
 5535SOL    HW228239   0.698   4.365  15.395 -0.6933  0.7501  0.5654
 5536SOL     OW28240   2.153   3.537   1.765  0.0654  0.6073 -0.3692
 5536SOL    HW128241   2.215   3.566   1.831 -0.5414  2.2385 -0.5106
 5536SOL    HW228242   2.122   3.459   1.811  0.3196  0.6381 -0.1488
 5537SOL     OW28243   0.928   1.830  13.364  0.1365 -0.1464  0.2695
 5537SOL    HW128244   0.894   1.755  13.411  1.7554 -0.3756  1.0852
 5537SOL    HW228245   0.847   1.872  13.335 -1.0169 -0.7110  2.7066
 5538SOL     OW28246   4.013   3.946   3.463  0.1415  0.0753 -0.3325
 5538SOL    HW128247   4.105   3.923   3.449 -0.0806  0.2974 -2.1896
 5538SOL    HW228248   4.019   3.994   3.545 -0.3622  0.8844 -0.7701
 5539SOL     OW28249   2.475   3.952   8.952 -0.0354 -0.0063  0.2136
 5539SOL    HW128250   2.567   3.976   8.942  0.2235 -0.8189  0.5816
 5539SOL    HW228251   2.472   3.870   8.903 -0.4805  0.9548 -1.3496
 5540SOL     OW28252   1.548   1.425  13.600  0.0969  0.3196  0.1185
 5540SOL    HW128253   1.570   1.454  13.688  1.5180 -2.6997  0.7517
 5540SOL    HW228254   1.565   1.503  13.547  0.6805 -0.0988 -0.3050
 5541SOL     OW28255   0.512   3.977   5.582 -0.5513 -0.0330  0.1486
 5541SOL    HW128256   0.466   3.984   5.498 -0.7590 -1.3798  0.1667
 5541SOL    HW228257   0.457   4.027   5.642  1.2143  0.1003  1.6506
 5542SOL     OW28258   0.953   0.612   9.138  0.0694 -0.8137  0.1561
 5542SOL    HW128259   0.922   0.646   9.222 -0.6273 -1.5789  0.2129
 5542SOL    HW228260   0.883   0.620   9.074  0.5267  2.5570  0.0886
 5543SOL     OW28261   1.768   1.606   5.363  0.0095 -0.4465 -0.2697
 5543SOL    HW128262   1.773   1.660   5.284  1.4220 -2.5289 -1.5919
 5543SOL    HW228263   1.682   1.564   5.353 -0.2043 -0.0330 -0.1694
 5544SOL     OW28264   1.637   0.900   4.242 -0.0753  0.1925 -0.1985
 5544SOL    HW128265   1.715   0.928   4.290 -0.3656 -0.2807  0.5429
 5544SOL    HW228266   1.567   0.926   4.301  0.6320  0.9176  0.3240
 5545SOL     OW28267   1.028   4.370  11.020  0.0113 -0.3220 -0.2891
 5545SOL    HW128268   1.052   4.420  10.942 -1.2331  0.1508 -0.3537
 5545SOL    HW228269   1.061   4.280  11.013  1.7646  0.2991 -0.0641
 5546SOL     OW28270   2.472   3.996   7.871  0.5256  0.0495 -0.6818
 5546SOL    HW128271   2.436   3.976   7.958 -0.4698 -0.9032 -1.3121
 5546SOL    HW228272   2.436   4.082   7.850 -0.1792 -0.0452  0.1503
 5547SOL     OW28273   0.362   3.827  17.743  0.0036  0.1697 -0.4166
 5547SOL    HW128274   0.279   3.824  17.696  0.0140 -0.0045 -0.4230
 5547SOL    HW228275   0.379   3.733  17.748  0.0624  0.1091 -1.7657
 5548SOL     OW28276   3.938   0.374  12.910 -0.0383  0.3394  0.0889
 5548SOL    HW128277   3.894   0.407  12.988  0.3677  1.1324 -0.0193
 5548SOL    HW228278   3.983   0.455  12.884  0.8704 -0.0834  0.3569
 5549SOL     OW28279   0.280   4.558   1.975 -0.2863  0.0581  0.4507
 5549SOL    HW128280   0.264   4.613   2.052 -1.1336  1.3326 -0.6393
 5549SOL    HW228281   0.372   4.537   1.984 -0.3999  0.3525  2.3459
 5550SOL     OW28282   4.320   4.266   2.553  0.2697  0.4784 -0.4791
 5550SOL    HW128283   4.344   4.281   2.645  0.9093 -1.5610 -0.3234
 5550SOL    HW228284   4.306   4.357   2.528 -2.9913  0.8776  2.8467
 5551SOL     OW28285   1.601   2.279   8.051  0.2806  0.7967  0.8916
 5551SOL    HW128286   1.677   2.262   7.994 -0.7740  0.7284 -0.5032
 5551SOL    HW228287   1.636   2.258   8.138  1.7846 -3.6528 -0.7457
 5552SOL     OW28288   3.608   2.983   3.580 -0.0990  0.7567  0.0349
 5552SOL    HW128289   3.701   2.984   3.558 -0.7449  2.4913 -2.7363
 5552SOL    HW228290   3.571   3.036   3.509  0.7215 -0.6132 -1.4133
 5553SOL     OW28291   4.245   1.114   8.336  0.6685 -0.1060 -0.3823
 5553SOL    HW128292   4.250   1.023   8.309  1.2372  0.0462 -0.7993
 5553SOL    HW228293   4.160   1.142   8.301 -0.0434 -0.5338  1.0176
 5554SOL     OW28294   3.520   0.498   6.792 -0.2261 -0.3356  0.2461
 5554SOL    HW128295   3.540   0.513   6.700  0.0201 -0.1813  0.3242
 5554SOL    HW228296   3.563   0.413   6.799  1.6640  0.4248 -2.1696
 5555SOL     OW28297   2.523   1.548  12.350 -0.2034  0.4000 -0.0193
 5555SOL    HW128298   2.515   1.550  12.254  0.0737 -0.6533 -0.0635
 5555SOL    HW228299   2.441   1.502  12.369 -1.2934  1.9986 -0.9044
 5556SOL     OW28300   0.152   2.783   5.012 -0.4067 -0.7257  0.8462
 5556SOL    HW128301   0.186   2.823   5.093  3.1171  0.0910 -1.0004
 5556SOL    HW228302   0.181   2.694   5.032  1.6255  0.2972  2.4816
 5557SOL     OW28303   3.597   1.476   1.927  0.5230  0.0117  0.2955
 5557SOL    HW128304   3.645   1.533   1.986 -0.1880  1.5351 -0.6148
 5557SOL    HW228305   3.597   1.391   1.972 -1.4166  0.6208  1.4096
 5558SOL     OW28306   2.222   0.390   4.288 -0.6694  0.1335  0.3710
 5558SOL    HW128307   2.241   0.483   4.299 -0.3359  0.2370 -1.1793
 5558SOL    HW228308   2.253   0.367   4.200 -0.9355 -1.6563  0.7321
 5559SOL     OW28309   3.285   3.958   0.262  0.7361  0.5818  0.6888
 5559SOL    HW128310   3.227   4.027   0.294  1.7925  1.9154 -0.2296
 5559SOL    HW228311   3.277   3.897   0.335 -4.6926  1.0032  0.4786
 5560SOL     OW28312   2.355   4.174   8.221 -0.1454 -0.0260  0.0061
 5560SOL    HW128313   2.305   4.248   8.187 -1.9252 -0.3768  1.8607
 5560SOL    HW228314   2.280   4.114   8.219 -1.3554  1.5713 -1.9028
 5561SOL     OW28315   3.236   4.637   7.485  0.4106  0.3542 -0.1500
 5561SOL    HW128316   3.259   4.726   7.511  1.9188 -0.1165  0.1294
 5561SOL    HW228317   3.325   4.605   7.471  0.4235  0.9066 -1.2959
 5562SOL     OW28318   3.291   2.379   3.465  0.5000  0.1097  0.1392
 5562SOL    HW128319   3.330   2.407   3.548 -1.1791  0.3641  0.8510
 5562SOL    HW228320   3.201   2.386   3.496 -0.5230  0.3668 -2.9025
 5563SOL     OW28321   0.102   2.091   6.975  0.6840  0.5477 -0.2860
 5563SOL    HW128322   0.167   2.096   6.905 -0.8515  1.9493 -1.6128
 5563SOL    HW228323   0.018   2.096   6.928  2.0153  1.6453 -2.5377
 5564SOL     OW28324   0.173   0.950   3.159 -0.9694  0.2128  0.0755
 5564SOL    HW128325   0.180   0.865   3.202 -4.1204  1.1297  2.4110
 5564SOL    HW228326   0.079   0.959   3.174 -0.7799  0.8798  0.8184
 5565SOL     OW28327   1.197   3.546  17.398  0.1268  0.0072  0.1175
 5565SOL    HW128328   1.177   3.540  17.491 -0.4662 -0.4373 -0.0408
 5565SOL    HW228329   1.285   3.509  17.396 -0.1377 -0.6535  0.9882
 5566SOL     OW28330   4.058   1.839   2.349 -0.0090  0.0596 -0.1645
 5566SOL    HW128331   3.989   1.844   2.415  0.2834  3.0659 -0.0967
 5566SOL    HW228332   4.116   1.766   2.373  0.3199  0.4800  0.3094
 5567SOL     OW28333   0.763   2.361   3.912 -0.6193 -0.2677  0.4587
 5567SOL    HW128334   0.716   2.290   3.955  0.3813 -1.2488 -0.0800
 5567SOL    HW228335   0.748   2.324   3.825 -1.4188  0.6326  0.2098
 5568SOL     OW28336   2.779   3.532   8.585 -0.4785 -0.1172 -0.5472
 5568SOL    HW128337   2.832   3.508   8.661 -1.4481 -1.3272 -0.2724
 5568SOL    HW228338   2.792   3.455   8.530  2.3161 -1.4572  1.9626
 5569SOL     OW28339   3.849   2.982   4.504 -0.5881  0.1472 -0.2433
 5569SOL    HW128340   3.755   2.999   4.495 -0.8329 -0.6914  0.6765
 5569SOL    HW228341   3.865   2.947   4.416  0.6252 -0.6640  0.2975
 5570SOL     OW28342   3.786   4.598   5.199 -0.7773  0.5958 -0.3459
 5570SOL    HW128343   3.852   4.649   5.152  0.1543 -1.9470 -1.7839
 5570SOL    HW228344   3.785   4.521   5.142 -0.7888  1.6301 -1.7538
 5571SOL     OW28345   2.412   3.973   0.145 -0.3298  0.6558 -0.1100
 5571SOL    HW128346   2.330   4.017   0.167  0.8561  2.0925  1.5073
 5571SOL    HW228347   2.445   4.021   0.069 -0.2366 -0.6477 -0.8874
 5572SOL     OW28348   1.645   4.144  15.821  0.2023  0.2518  0.3977
 5572SOL    HW128349   1.708   4.133  15.751 -2.3987  0.0044 -1.9073
 5572SOL    HW228350   1.669   4.228  15.860 -0.7040  0.2715  0.9202
 5573SOL     OW28351   3.351   0.392   0.345  0.2011 -0.6220 -0.1212
 5573SOL    HW128352   3.392   0.469   0.384 -2.6705  0.2836  1.0867
 5573SOL    HW228353   3.293   0.366   0.415  2.7289 -3.8978  0.7616
 5574SOL     OW28354   0.053   1.154  14.158  0.1439 -0.2522 -0.0395
 5574SOL    HW128355   4.706   1.118  14.131 -0.1965  1.2862 -0.9873
 5574SOL    HW228356   0.038   1.155  14.253 -1.3515  3.2209 -0.3097
 5575SOL     OW28357   3.944   3.924   8.117 -0.0007  0.0952  0.2631
 5575SOL    HW128358   3.876   3.966   8.170  1.9990 -0.2023  3.1023
 5575SOL    HW228359   3.967   3.998   8.061  1.8204 -0.2549  0.5557
 5576SOL     OW28360   3.500   0.535   7.737 -0.0940  0.2810 -0.0642
 5576SOL    HW128361   3.595   0.546   7.741  0.2525 -2.4369 -0.9527
 5576SOL    HW228362   3.478   0.581   7.656  0.4554  1.9139  0.7090
 5577SOL     OW28363   0.031   2.238   4.056  0.1034  0.2531  0.0935
 5577SOL    HW128364   0.095   2.293   4.101  1.1104 -0.2684 -0.6825
 5577SOL    HW228365   0.070   2.154   4.081 -1.5225  0.4138  3.1861
 5578SOL     OW28366   2.077   2.676   0.055  0.2260 -0.8247  0.1089
 5578SOL    HW128367   2.081   2.675   0.151 -0.7859 -1.6401  0.1435
 5578SOL    HW228368   2.146   2.741   0.044  0.8979 -1.3111  1.5130
 5579SOL     OW28369   1.943   0.454  12.428  0.0589  0.4257 -0.6095
 5579SOL    HW128370   1.935   0.494  12.342 -0.6522  0.7882 -0.3754
 5579SOL    HW228371   1.957   0.365  12.396  0.1881 -0.0961  0.8841
 5580SOL     OW28372   1.778   2.312   1.140  0.1023  0.0015  0.4066
 5580SOL    HW128373   1.739   2.263   1.213  1.9748 -1.8607  0.1524
 5580SOL    HW228374   1.862   2.334   1.180 -1.0770  2.1600  1.7112
 5581SOL     OW28375   3.043   1.006   5.034  0.0116 -0.0083  0.0097
 5581SOL    HW128376   3.014   0.982   5.122  2.2663  0.4159  0.8621
 5581SOL    HW228377   3.133   1.033   5.054  0.9735 -1.1680 -2.6903
 5582SOL     OW28378   2.351   4.038   6.986  0.3338  0.4027  0.3142
 5582SOL    HW128379   2.332   3.985   7.064 -1.4451  0.3470 -0.1535
 5582SOL    HW228380   2.352   4.120   7.035 -2.0527  0.5547  0.1114
 5583SOL     OW28381   1.048   1.999   0.664 -0.1213 -0.0330  0.5394
 5583SOL    HW128382   1.062   1.964   0.576  0.3033 -1.3985  1.1673
 5583SOL    HW228383   1.105   1.950   0.723 -1.2581  0.0546  1.7250
 5584SOL     OW28384   3.573   0.935   5.010 -0.0334 -0.0783  0.0619
 5584SOL    HW128385   3.606   0.845   5.005 -2.3079 -0.8908 -0.3657
 5584SOL    HW228386   3.630   0.971   5.078  1.4430  1.2298 -1.8642
 5585SOL     OW28387   1.574   1.770   3.292  0.9318 -0.6720 -0.0771
 5585SOL    HW128388   1.516   1.817   3.351 -0.7653 -0.5323 -1.8453
 5585SOL    HW228389   1.631   1.722   3.352  0.1932  1.9929  2.7332
 5586SOL     OW28390   4.486   1.615   9.840 -0.0479  0.2787  0.3686
 5586SOL    HW128391   4.434   1.579   9.768  0.6903  0.4976 -0.2857
 5586SOL    HW228392   4.445   1.571   9.914 -0.3442  1.0938  0.6829
 5587SOL     OW28393   0.959   3.521   5.591  0.1525  0.4582  0.1252
 5587SOL    HW128394   0.870   3.490   5.579 -0.2317  0.8970  1.9115
 5587SOL    HW228395   0.961   3.589   5.524  0.8162 -1.7490 -2.1077
 5588SOL     OW28396   0.313   4.549  13.129  0.1242 -0.0457 -0.1004
 5588SOL    HW128397   0.286   4.458  13.115  3.5638 -0.9418 -0.9273
 5588SOL    HW228398   0.280   4.606  13.060  2.1382  0.0030 -1.0277
 5589SOL     OW28399   1.283   1.727   5.568  0.0302  0.1619 -0.1177
 5589SOL    HW128400   1.206   1.775   5.537 -0.7216 -0.4184  0.8637
 5589SOL    HW228401   1.272   1.651   5.511  0.6409  1.1719 -1.5994
 5590SOL     OW28402   1.087   1.916  13.601  0.1690  0.8751 -0.0332
 5590SOL    HW128403   1.120   1.827  13.592 -0.5740  0.4520  1.3465
 5590SOL    HW228404   1.036   1.912  13.521  0.5228  2.7281 -0.3511
 5591SOL     OW28405   2.232   1.673   5.993 -0.0002  0.1793 -0.2361
 5591SOL    HW128406   2.146   1.636   5.971  0.1057  0.0094 -0.3665
 5591SOL    HW228407   2.293   1.599   5.994 -0.4331 -0.1950 -1.4654
 5592SOL     OW28408   2.832   0.856  15.146  0.3142  0.0999  0.2228
 5592SOL    HW128409   2.797   0.943  15.165  0.7937  0.6308 -1.3683
 5592SOL    HW228410   2.846   0.855  15.051  1.8403  0.8214  0.4512
 5593SOL     OW28411   2.271   1.437   2.816  0.2316 -0.4693 -0.4301
 5593SOL    HW128412   2.296   1.469   2.902 -1.6781 -1.9452  0.6867
 5593SOL    HW228413   2.257   1.518   2.768 -0.7676  0.0394  0.7229
 5594SOL     OW28414   0.930   0.138   6.659  0.4704 -0.2182 -0.2872
 5594SOL    HW128415   0.869   0.072   6.626  1.7219 -0.2582 -2.4915
 5594SOL    HW228416   0.889   0.217   6.625 -0.4202 -0.6078 -0.1200
 5595SOL     OW28417   1.033   1.214   8.232 -0.2503 -0.1382 -0.3405
 5595SOL    HW128418   1.100   1.279   8.210 -1.7546  1.5025 -0.1534
 5595SOL    HW228419   1.087   1.136   8.235  0.4400  0.3841  0.7858
 5596SOL     OW28420   2.050   3.616   5.896  0.6277 -0.0639  0.5164
 5596SOL    HW128421   1.977   3.670   5.923  1.7967  1.5547  0.4221
 5596SOL    HW228422   2.072   3.568   5.976  1.3577 -1.0397 -0.2685
 5597SOL     OW28423   1.918   0.775   3.991  0.3860 -0.2826 -0.0414
 5597SOL    HW128424   1.870   0.736   3.917 -1.9416  1.6628  0.4472
 5597SOL    HW228425   1.955   0.691   4.018 -0.2872 -0.5080  0.1980
 5598SOL     OW28426   0.758   0.781   4.107 -1.1297  0.2908 -0.2091
 5598SOL    HW128427   0.742   0.718   4.037  1.4017 -1.2075  0.5327
 5598SOL    HW228428   0.802   0.719   4.166  0.6422  1.2754 -0.4809
 5599SOL     OW28429   2.994   3.947  16.403 -0.3022  0.1580  0.3205
 5599SOL    HW128430   2.919   4.003  16.423 -0.2574  1.0774 -2.0566
 5599SOL    HW228431   2.994   3.939  16.308  1.1829  2.9682  0.0713
 5600SOL     OW28432   3.475   1.472   7.899 -0.3162 -0.8307 -0.0708
 5600SOL    HW128433   3.388   1.513   7.904  0.1097 -0.2613  2.5567
 5600SOL    HW228434   3.468   1.411   7.973 -0.6302 -0.5843  0.1047
 5601SOL     OW28435   3.019   2.146  14.997  0.3074 -0.3071 -0.2499
 5601SOL    HW128436   3.077   2.070  15.003 -1.8537 -1.8740  0.6715
 5601SOL    HW228437   3.029   2.183  15.085  2.0238  0.3220 -0.7085
 5602SOL     OW28438   4.506   2.190   4.764  0.8243  0.0057 -0.1194
 5602SOL    HW128439   4.486   2.219   4.675  1.4101  1.9949  0.3942
 5602SOL    HW228440   4.456   2.250   4.819 -0.2695 -0.7098 -0.3241
 5603SOL     OW28441   3.210   0.711   8.958  0.7740 -0.0501 -0.0971
 5603SOL    HW128442   3.238   0.645   9.021  1.7525 -0.0627 -0.5550
 5603SOL    HW228443   3.116   0.699   8.976  0.5318  2.6899  0.4061
 5604SOL     OW28444   2.273   2.789   8.609  0.4401  0.2457  0.0909
 5604SOL    HW128445   2.339   2.751   8.667  1.2676  2.9599  0.9661
 5604SOL    HW228446   2.197   2.732   8.617  0.9580 -0.0660  2.9436
 5605SOL     OW28447   1.573   4.297   0.254  0.1539  0.3247 -0.4379
 5605SOL    HW128448   1.580   4.214   0.206  0.7379 -0.0046  0.2200
 5605SOL    HW228449   1.480   4.297   0.274  0.0391 -0.9527 -0.9733
 5606SOL     OW28450   4.497   3.531   3.242 -0.3058 -0.5073 -0.8743
 5606SOL    HW128451   4.464   3.490   3.322  0.1120  0.0826 -0.4065
 5606SOL    HW228452   4.458   3.481   3.170 -2.9761 -0.5293  0.5894
 5607SOL     OW28453   4.449   1.232  10.416 -0.7991  0.4035  0.0591
 5607SOL    HW128454   4.396   1.237  10.337 -0.5034 -1.7897 -0.2632
 5607SOL    HW228455   4.482   1.321  10.428  1.2657 -0.5538  1.5208
 5608SOL     OW28456   2.018   1.368   3.471 -0.4111  0.5740 -0.7583
 5608SOL    HW128457   2.109   1.398   3.471  0.9895 -3.7002 -0.5347
 5608SOL    HW228458   2.009   1.324   3.555 -1.8762  0.4782 -0.9598
 5609SOL     OW28459   3.889   0.534  15.880  0.4093  0.1414  0.0025
 5609SOL    HW128460   3.849   0.450  15.900  1.9186 -0.7258 -0.6333
 5609SOL    HW228461   3.814   0.586  15.849  1.7553  1.6340 -0.7779
 5610SOL     OW28462   0.175   4.547   8.144 -0.3351 -0.2996 -0.3530
 5610SOL    HW128463   0.261   4.589   8.141 -0.5553  0.3637  2.4795
 5610SOL    HW228464   0.159   4.529   8.051 -0.0772 -0.2192 -0.4105
 5611SOL     OW28465   3.457   1.981  15.527  0.4159  0.0611  0.3424
 5611SOL    HW128466   3.455   2.076  15.514  1.3141 -0.0170 -0.3775
 5611SOL    HW228467   3.399   1.986  15.603 -0.0313  3.2572 -0.1838
 5612SOL     OW28468   3.474   3.699   6.878  0.0542 -0.9364 -0.1691
 5612SOL    HW128469   3.466   3.642   6.802  2.8306 -0.1856 -1.0349
 5612SOL    HW228470   3.523   3.775   6.845  1.3043 -2.2345 -1.2807
 5613SOL     OW28471   3.995   2.081   9.812 -0.0197  0.6898  0.9231
 5613SOL    HW128472   3.985   1.992   9.779 -0.5634  0.8645  0.6335
 5613SOL    HW228473   4.081   2.110   9.782 -0.1541  2.4350  2.2252
 5614SOL     OW28474   1.363   2.373   9.236  0.1846 -0.0853 -0.2821
 5614SOL    HW128475   1.424   2.430   9.189 -0.3245  0.1761 -0.6330
 5614SOL    HW228476   1.343   2.425   9.313  0.1728 -0.0248 -0.3259
 5615SOL     OW28477   0.604   4.519  12.227  0.2127 -0.2914  0.1088
 5615SOL    HW128478   0.530   4.469  12.261 -0.9164 -0.3581 -2.4317
 5615SOL    HW228479   0.613   4.487  12.137  1.3002  0.7449 -0.1589
 5616SOL     OW28480   3.027   4.648   4.197  0.0658 -0.3757 -0.1831
 5616SOL    HW128481   3.119   4.673   4.204 -0.2854  1.4325 -2.1819
 5616SOL    HW228482   2.992   4.682   4.115 -0.5239 -0.5297 -0.0016
 5617SOL     OW28483   4.461   3.118  16.762 -0.3233 -0.1906  0.3596
 5617SOL    HW128484   4.552   3.112  16.788 -0.0659 -1.0917 -0.7632
 5617SOL    HW228485   4.438   3.029  16.787 -0.2612 -0.5231 -0.7602
 5618SOL     OW28486   0.143   0.857   8.207 -0.3616  0.2123 -0.6128
 5618SOL    HW128487   0.234   0.828   8.199 -0.5908 -0.5901 -0.3337
 5618SOL    HW228488   0.103   0.769   8.206 -1.8388  0.9214 -2.9124
 5619SOL     OW28489   0.515   0.326   8.449  0.5678  0.4862  0.0067
 5619SOL    HW128490   0.574   0.291   8.516 -2.0349 -1.5974  1.2071
 5619SOL    HW228491   0.433   0.326   8.499  1.1696 -1.5930  1.0233
 5620SOL     OW28492   2.675   4.045   4.443 -0.0133  0.0800  0.0860
 5620SOL    HW128493   2.743   4.063   4.508 -2.1257 -0.5590  2.4582
 5620SOL    HW228494   2.640   3.958   4.464 -0.8441  0.6972  1.2215
 5621SOL     OW28495   1.810   3.816  13.150 -0.1611  0.7643  0.5877
 5621SOL    HW128496   1.866   3.745  13.118  0.2197 -0.3389  3.6800
 5621SOL    HW228497   1.800   3.879  13.079  0.0251  0.9778  0.7512
 5622SOL     OW28498   3.725   3.484  16.239  0.1790  0.4993 -0.5109
 5622SOL    HW128499   3.820   3.483  16.249  0.2108 -0.2276 -0.8604
 5622SOL    HW228500   3.717   3.434  16.158  0.3947  1.1714 -0.9405
 5623SOL     OW28501   2.854   0.528   7.888 -0.1498  0.4267 -0.1692
 5623SOL    HW128502   2.836   0.459   7.825 -1.4706  1.2617 -0.7072
 5623SOL    HW228503   2.770   0.555   7.925  0.0661 -0.0926  0.7015
 5624SOL     OW28504   0.203   1.602   3.383 -0.5735  0.1757  0.3682
 5624SOL    HW128505   0.265   1.559   3.442  0.1728  1.2855  0.3910
 5624SOL    HW228506   0.202   1.533   3.317  0.7731 -1.2724  1.8481
 5625SOL     OW28507   2.992   1.784   4.422 -0.4022  0.0662 -0.0089
 5625SOL    HW128508   2.962   1.704   4.464 -1.6068 -0.5296 -2.0032
 5625SOL    HW228509   2.917   1.819   4.374 -1.7216 -3.7163 -0.6480
 5626SOL     OW28510   1.247   0.637   8.117 -0.3939  0.2768  0.5239
 5626SOL    HW128511   1.240   0.718   8.067 -3.1049  0.0445  0.5546
 5626SOL    HW228512   1.224   0.566   8.057 -2.5937 -0.4083  2.1797
 5627SOL     OW28513   3.008   1.053   1.452  0.5984  0.1302  0.0353
 5627SOL    HW128514   3.005   0.959   1.467 -1.3124 -0.0299 -1.2756
 5627SOL    HW228515   2.920   1.079   1.479  2.6615  3.2095  3.7916
 5628SOL     OW28516   1.270   3.542   3.943  0.0082 -0.8117  0.4111
 5628SOL    HW128517   1.252   3.520   3.851 -0.1218 -0.7556  0.4219
 5628SOL    HW228518   1.353   3.589   3.936 -2.2614  3.1504 -0.0898
 5629SOL     OW28519   1.530   3.382   4.122 -0.0533  0.2090  0.4216
 5629SOL    HW128520   1.513   3.349   4.034  1.3959 -1.2463  0.6882
 5629SOL    HW228521   1.530   3.477   4.107 -1.3018  0.3295  1.0998
 5630SOL     OW28522   3.218   0.771   6.142  0.0068  0.5225 -1.0535
 5630SOL    HW128523   3.250   0.698   6.195  0.6319  1.2072 -0.4960
 5630SOL    HW228524   3.282   0.765   6.071 -0.4718  1.4826 -1.5663
 5631SOL     OW28525   1.960   2.144   3.449 -0.2744 -0.6124 -0.0884
 5631SOL    HW128526   2.041   2.164   3.496 -0.5997  0.8416 -0.1699
 5631SOL    HW228527   1.894   2.159   3.517 -0.9002 -3.6559 -0.0283
 5632SOL     OW28528   0.473   3.825   3.737 -0.7544  0.2210  0.0756
 5632SOL    HW128529   0.416   3.777   3.797  0.6854 -1.6258 -0.0493
 5632SOL    HW228530   0.495   3.756   3.674 -1.1612  0.5367 -0.4142
 5633SOL     OW28531   3.128   4.564  12.741  0.2314 -0.3078 -0.6869
 5633SOL    HW128532   3.136   4.493  12.676  0.0046 -1.2101  0.2695
 5633SOL    HW228533   3.136   4.643  12.687  0.0669  1.1409  1.4377
 5634SOL     OW28534   3.345   3.328   3.668 -0.0520 -0.0035 -0.4871
 5634SOL    HW128535   3.295   3.382   3.606  0.7645  0.4554 -0.7385
 5634SOL    HW228536   3.432   3.363   3.652  0.4451 -0.9300  0.2488
 5635SOL     OW28537   3.744   3.139   0.847 -0.2820  0.2656 -0.0741
 5635SOL    HW128538   3.737   3.117   0.754  2.0406  1.3936 -0.5301
 5635SOL    HW228539   3.808   3.211   0.852 -2.1507  1.8374  1.3465
 5636SOL     OW28540   0.883   1.330   3.084  0.4520  0.0466  0.2970
 5636SOL    HW128541   0.802   1.286   3.111  1.0303 -0.4620  1.2167
 5636SOL    HW228542   0.925   1.270   3.022 -2.2607 -1.4373 -0.1207
 5637SOL     OW28543   0.151   1.319  12.264  0.0418  0.0176  0.0761
 5637SOL    HW128544   0.069   1.321  12.214  0.2585 -1.1629 -0.3380
 5637SOL    HW228545   0.219   1.279  12.209  1.0093  0.7964  0.7124
 5638SOL     OW28546   2.190   1.810  13.050 -0.0146 -0.4547 -0.5336
 5638SOL    HW128547   2.166   1.756  13.126 -1.2790 -0.2980 -0.8087
 5638SOL    HW228548   2.275   1.771  13.029  1.0686  1.5019  0.2624
 5639SOL     OW28549   2.411   2.073   0.987 -0.5587  0.3720  0.1970
 5639SOL    HW128550   2.437   2.014   1.057  0.2832 -1.4464 -1.6737
 5639SOL    HW228551   2.348   2.128   1.034  0.2880  1.0548  0.5352
 5640SOL     OW28552   2.299   2.670  16.260  1.1259 -0.1022  0.6318
 5640SOL    HW128553   2.337   2.694  16.344 -0.2186 -0.1216  1.2366
 5640SOL    HW228554   2.251   2.750  16.235  1.8276  0.7714  2.1236
 5641SOL     OW28555   3.590   0.783  17.082 -0.6264 -0.0785  0.1129
 5641SOL    HW128556   3.633   0.829  17.009 -2.2563  2.7867  0.9361
 5641SOL    HW228557   3.618   0.693  17.071 -0.1802  0.2466 -1.4306
 5642SOL     OW28558   3.847   3.205   9.663 -0.3944 -0.4229 -0.2473
 5642SOL    HW128559   3.827   3.297   9.645  1.5716  0.1687  0.5962
 5642SOL    HW228560   3.766   3.177   9.705 -0.0841 -0.1380  0.5486
 5643SOL     OW28561   1.509   2.509   4.659 -0.2828  0.2897 -0.2680
 5643SOL    HW128562   1.479   2.514   4.750 -1.5387  0.8828 -0.7090
 5643SOL    HW228563   1.463   2.587   4.629 -1.6459  0.7274  2.9414
 5644SOL     OW28564   1.598   2.200   7.711  0.5454 -0.3342 -0.0377
 5644SOL    HW128565   1.541   2.258   7.762 -0.0114 -0.3680 -0.6150
 5644SOL    HW228566   1.677   2.254   7.708  0.0765  0.5218  3.3089
 5645SOL     OW28567   0.496   4.335   3.582 -0.3668  0.0639  0.2932
 5645SOL    HW128568   0.576   4.310   3.537 -0.3181  1.8481 -0.5886
 5645SOL    HW228569   0.533   4.361   3.667  1.4733  0.5195 -0.6508
 5646SOL     OW28570   0.550   3.239  10.881  0.2369 -0.2692  0.8049
 5646SOL    HW128571   0.559   3.158  10.830 -1.5906  0.6637 -0.9646
 5646SOL    HW228572   0.455   3.247  10.884 -0.0129 -1.9074 -3.4992
 5647SOL     OW28573   1.711   0.392   2.806 -0.8296  0.2707  0.0167
 5647SOL    HW128574   1.763   0.404   2.885  0.1105  1.1418 -0.7267
 5647SOL    HW228575   1.624   0.416   2.838 -0.5777 -0.5205  1.2781
 5648SOL     OW28576   1.365   0.073  14.915 -0.0821  0.2538  0.5281
 5648SOL    HW128577   1.399   0.028  14.838  1.0158  0.6465  0.7867
 5648SOL    HW228578   1.392   0.161  14.890 -0.5893 -0.4759 -2.6197
 5649SOL     OW28579   2.805   2.780   2.001 -0.1685 -0.4257 -0.4501
 5649SOL    HW128580   2.846   2.866   2.012  1.6670 -1.5260  1.5052
 5649SOL    HW228581   2.765   2.769   2.087  0.9041  2.1625  0.3819
 5650SOL     OW28582   3.563   1.352   3.675 -0.5078 -0.2768  0.7054
 5650SOL    HW128583   3.529   1.367   3.587  1.5285  3.3397  0.5600
 5650SOL    HW228584   3.604   1.436   3.692 -1.0640 -0.0810  1.0630
 5651SOL     OW28585   2.676   0.272   3.873 -0.1694  0.3374  0.5782
 5651SOL    HW128586   2.631   0.269   3.957 -2.2267  1.6384 -0.4644
 5651SOL    HW228587   2.694   0.181   3.853  1.4884  0.9294 -0.6301
 5652SOL     OW28588   1.953   1.095   2.677  0.0325 -0.1681  0.1367
 5652SOL    HW128589   1.986   1.177   2.641 -0.1456  0.0568  0.4882
 5652SOL    HW228590   1.937   1.108   2.770  0.0746 -0.3627  0.1705
 5653SOL     OW28591   3.801   1.988   7.908 -0.5500  0.2818  0.4999
 5653SOL    HW128592   3.744   1.913   7.927  0.9572 -0.7657  0.8345
 5653SOL    HW228593   3.804   1.980   7.812  1.0946  1.9419  0.4150
 5654SOL     OW28594   3.349   2.437   1.520  0.8900  0.2874  0.0050
 5654SOL    HW128595   3.300   2.508   1.477 -0.7648  0.8397  2.8178
 5654SOL    HW228596   3.390   2.395   1.444 -0.3532 -1.5035  0.3158
 5655SOL     OW28597   1.869   1.658   6.602 -0.1845 -0.3120  0.3189
 5655SOL    HW128598   1.885   1.567   6.626  0.5548 -0.3824 -0.4090
 5655SOL    HW228599   1.920   1.666   6.521  1.4217  3.0928  1.7098
 5656SOL     OW28600   1.523   2.552   9.051 -0.6568  0.3045 -0.3192
 5656SOL    HW128601   1.554   2.492   8.983  2.6857  3.1711 -1.3067
 5656SOL    HW228602   1.483   2.612   8.988 -0.4820  0.1991 -0.5303
 5657SOL     OW28603   0.467   2.864   8.234  0.5007 -0.2522  0.2317
 5657SOL    HW128604   0.420   2.920   8.296 -0.6296 -0.2303 -0.6344
 5657SOL    HW228605   0.416   2.784   8.246 -0.9976  0.6761  0.0894
 5658SOL     OW28606   3.111   4.062   0.630  0.0241 -0.0103  0.0398
 5658SOL    HW128607   3.089   4.008   0.705 -0.1231 -0.0422 -0.0271
 5658SOL    HW228608   3.073   4.002   0.565  1.8932 -0.7420 -0.3624
 5659SOL     OW28609   1.850   1.650   4.036 -0.2242  0.1438 -0.2442
 5659SOL    HW128610   1.769   1.698   4.015 -0.5136 -0.0928  0.3248
 5659SOL    HW228611   1.906   1.663   3.959 -1.0060 -2.6900 -1.2893
 5660SOL     OW28612   4.693   0.480  15.405  0.1323  0.3475  0.5097
 5660SOL    HW128613   4.640   0.558  15.423  1.7339  1.5864 -0.0906
 5660SOL    HW228614   0.040   0.517  15.382 -1.3894  3.0081 -0.8448
 5661SOL     OW28615   3.121   2.578   7.425  0.5053  0.2128 -0.2663
 5661SOL    HW128616   3.048   2.627   7.387 -1.0000 -1.2824  0.7389
 5661SOL    HW228617   3.145   2.521   7.352  1.2107 -2.1507  1.7794
 5662SOL     OW28618   4.491   2.744  14.016 -0.1970 -0.0131 -0.2032
 5662SOL    HW128619   4.485   2.704  14.102  0.0077 -0.8313 -0.5721
 5662SOL    HW228620   4.512   2.665  13.966  2.2752 -0.3566  1.3679
 5663SOL     OW28621   1.002   0.040   3.233 -0.4024 -0.0728 -0.0633
 5663SOL    HW128622   0.983   4.736   3.149  0.3754  0.4469 -0.4965
 5663SOL    HW228623   1.009   4.698   3.285 -0.8581  0.5176  0.9222
 5664SOL     OW28624   4.710   3.817  15.219  0.2477  0.4444  0.0745
 5664SOL    HW128625   0.052   3.801  15.168  0.7246 -1.0743  1.2817
 5664SOL    HW228626   4.705   3.733  15.265 -0.2658 -0.5245 -1.7177
 5665SOL     OW28627   4.623   2.154   6.071 -0.4323  0.6956  0.0323
 5665SOL    HW128628   4.613   2.095   6.146  1.8071 -0.5049 -0.6393
 5665SOL    HW228629   4.528   2.162   6.061 -0.0991  1.7703 -2.2682
 5666SOL     OW28630   2.674   4.207   4.225  0.0413 -0.0297 -0.4585
 5666SOL    HW128631   2.687   4.164   4.310 -1.0736  0.1811 -0.1734
 5666SOL    HW228632   2.672   4.295   4.262 -0.7971 -0.1990 -0.0851
 5667SOL     OW28633   2.964   1.371   8.817 -0.4634 -0.2830 -0.0400
 5667SOL    HW128634   2.996   1.302   8.759 -0.0286  1.0612 -1.4018
 5667SOL    HW228635   2.941   1.444   8.759 -0.0882  0.0590  0.2348
 5668SOL     OW28636   0.091   1.377   6.785  0.2273 -0.1174 -0.1606
 5668SOL    HW128637   0.049   1.296   6.815 -0.7776 -0.2876 -2.0404
 5668SOL    HW228638   0.051   1.391   6.700  2.3375  0.4884 -1.0600
 5669SOL     OW28639   4.093   0.189   5.973 -0.2655 -0.3665 -0.1602
 5669SOL    HW128640   4.035   0.261   6.000 -1.7293 -1.4461 -0.4289
 5669SOL    HW228641   4.167   0.230   5.928 -1.2439  0.9474 -0.5820
 5670SOL     OW28642   2.415   2.991   3.024  0.1224 -0.2314  0.1107
 5670SOL    HW128643   2.360   2.928   2.977 -0.1726 -0.2927  0.5320
 5670SOL    HW228644   2.498   2.967   2.984 -0.9592  1.0643 -2.8830
 5671SOL     OW28645   4.573   3.625   6.919  0.4307  0.1056  0.3824
 5671SOL    HW128646   4.568   3.543   6.870 -0.3051  1.1841 -1.3487
 5671SOL    HW228647   4.516   3.686   6.871  0.6975  0.0018 -0.0677
 5672SOL     OW28648   3.045   2.259  15.267 -0.1721  0.0929 -0.2645
 5672SOL    HW128649   3.136   2.289  15.265  0.4132 -1.4611  2.4164
 5672SOL    HW228650   3.051   2.170  15.303  0.1833 -0.3324 -1.3931
 5673SOL     OW28651   3.206   4.733  12.278 -0.5195 -0.1976  0.0663
 5673SOL    HW128652   3.117   4.698  12.266 -0.9195  0.8536  0.0087
 5673SOL    HW228653   3.258   4.670  12.328  1.3833 -0.3135 -2.0590
 5674SOL     OW28654   1.006   2.180   7.009  0.0895  0.5983  0.1407
 5674SOL    HW128655   1.080   2.210   7.061  0.4559  0.2720 -0.1947
 5674SOL    HW228656   1.055   2.157   6.930 -0.1017 -0.4436  0.3246
 5675SOL     OW28657   4.067   3.635   6.791 -0.5631  0.0467 -0.3149
 5675SOL    HW128658   4.040   3.550   6.827  0.6175 -0.5305 -0.7683
 5675SOL    HW228659   3.988   3.684   6.815 -0.2658  0.6461 -0.5620
 5676SOL     OW28660   0.160   1.588  13.568 -1.0872  0.1604  0.4621
 5676SOL    HW128661   0.077   1.578  13.521  0.3687  0.4004 -2.1551
 5676SOL    HW228662   0.125   1.589  13.657 -0.2855  1.3799  0.7594
 5677SOL     OW28663   2.594   4.378  16.983  0.3191  0.2024  0.0205
 5677SOL    HW128664   2.685   4.368  16.955 -0.4802  0.7511 -2.7745
 5677SOL    HW228665   2.551   4.377  16.898  1.6633  0.2547 -0.6636
 5678SOL     OW28666   2.320   3.306   3.930  0.2441  0.2766 -0.0203
 5678SOL    HW128667   2.382   3.377   3.913  0.7786  0.4622  2.6500
 5678SOL    HW228668   2.365   3.234   3.885 -0.4433  1.4134 -2.5375
 5679SOL     OW28669   1.733   2.276   3.875  0.0021 -0.5831 -0.2805
 5679SOL    HW128670   1.736   2.186   3.909  1.0392  0.4732  2.4282
 5679SOL    HW228671   1.820   2.305   3.900 -0.7239  0.4851  1.0257
 5680SOL     OW28672   1.255   0.817   5.795 -0.5632  0.0430  0.1171
 5680SOL    HW128673   1.257   0.894   5.739 -1.7390 -2.1257 -2.9222
 5680SOL    HW228674   1.317   0.757   5.752 -2.0646  0.1486 -2.1939
 5681SOL     OW28675   4.095   3.652   8.805  0.3175  0.1047  0.5195
 5681SOL    HW128676   4.092   3.560   8.831  0.7270 -0.1594 -0.4002
 5681SOL    HW228677   4.003   3.679   8.815  0.4245  0.3866  0.7569
 5682SOL     OW28678   3.745   0.807   2.713  0.3262  0.0173 -1.1485
 5682SOL    HW128679   3.698   0.791   2.795  3.4206 -0.1339  0.5877
 5682SOL    HW228680   3.674   0.827   2.652 -1.0311  1.2481  0.8496
 5683SOL     OW28681   0.098   2.502   7.832  0.4058 -0.4487  0.1253
 5683SOL    HW128682   0.038   2.486   7.759 -0.7086  1.9571  0.5226
 5683SOL    HW228683   0.185   2.490   7.793  1.0618  1.0061  1.1314
 5684SOL     OW28684   1.613   0.917   9.169 -0.3672 -0.0254  0.5045
 5684SOL    HW128685   1.680   0.886   9.108 -1.6037 -1.0215 -0.3398
 5684SOL    HW228686   1.617   1.013   9.168 -0.3336 -0.0391 -0.3662
 5685SOL     OW28687   2.345   1.096   5.953 -0.0469  0.3469 -0.2358
 5685SOL    HW128688   2.339   1.139   6.038 -1.6306  3.6792 -2.0229
 5685SOL    HW228689   2.346   1.007   5.990  3.2143  0.7353  0.6467
 5686SOL     OW28690   4.541   3.024  14.038  0.0678 -0.4076 -0.5171
 5686SOL    HW128691   4.595   3.036  13.960 -2.0792  1.3998 -1.7256
 5686SOL    HW228692   4.522   2.931  14.026 -1.4302  0.0052 -1.3670
 5687SOL     OW28693   4.422   3.374   6.476 -0.4283  0.0602  0.2974
 5687SOL    HW128694   4.517   3.373   6.482 -0.5621  2.5397  2.6384
 5687SOL    HW228695   4.394   3.466   6.480  1.4862  0.6034  1.2703
 5688SOL     OW28696   1.155   2.073  10.237 -0.5951 -0.3171  0.3487
 5688SOL    HW128697   1.126   2.089  10.147  1.2991  0.0320 -0.2064
 5688SOL    HW228698   1.202   2.152  10.265  0.7059 -1.1715  0.5865
 5689SOL     OW28699   0.680   1.546   0.154 -0.4864 -0.2274 -0.3806
 5689SOL    HW128700   0.670   1.625   0.207 -0.6831  1.1441 -2.4451
 5689SOL    HW228701   0.611   1.555   0.088 -2.3135  1.2507  1.7365
 5690SOL     OW28702   0.772   4.565  13.250  0.4652 -0.2605 -0.3671
 5690SOL    HW128703   0.823   4.589  13.172 -0.6416  1.3249 -0.6162
 5690SOL    HW228704   0.845   4.558  13.312  0.9733 -0.0217 -0.9316
 5691SOL     OW28705   3.496   3.391   1.970 -0.6846 -0.4143 -0.6743
 5691SOL    HW128706   3.466   3.355   1.886  0.1365 -0.6276 -0.8811
 5691SOL    HW228707   3.587   3.363   1.981 -0.1823  1.3524 -0.3899
 5692SOL     OW28708   0.613   3.215   8.487  0.2661 -0.1230  0.4268
 5692SOL    HW128709   0.666   3.142   8.520 -0.5788 -1.2806 -0.7931
 5692SOL    HW228710   0.621   3.276   8.561  1.3468  1.3332 -0.9009
 5693SOL     OW28711   0.078   1.121   8.090  0.2589  0.1550  0.2024
 5693SOL    HW128712   0.146   1.060   8.118  0.8687  0.8773  0.3005
 5693SOL    HW228713   0.117   1.171   8.017 -0.8399  1.0561  0.2186
 5694SOL     OW28714   3.946   3.334  12.180 -0.1339  0.0879 -0.0788
 5694SOL    HW128715   3.949   3.416  12.229 -0.1480  0.5397 -0.8275
 5694SOL    HW228716   3.945   3.276  12.256  0.2570 -1.3225 -1.1538
 5695SOL     OW28717   1.062   1.561   6.386 -0.2331 -0.3936  0.1832
 5695SOL    HW128718   0.973   1.535   6.365  0.4203 -0.1216 -2.9156
 5695SOL    HW228719   1.041   1.599   6.471  0.4426  2.3489 -0.8714
 5696SOL     OW28720   3.324   4.506   8.941  0.3037 -0.0799 -0.4234
 5696SOL    HW128721   3.378   4.551   8.876 -0.9461  0.9870 -0.7270
 5696SOL    HW228722   3.363   4.545   9.020 -1.5933  0.1538  0.3951
 5697SOL     OW28723   4.235   0.030   8.072  0.1807  0.1520 -0.0898
 5697SOL    HW128724   4.234   0.085   7.994  0.5068 -0.1328 -0.2951
 5697SOL    HW228725   4.317   0.055   8.115 -0.0520 -1.5797  1.3463
 5698SOL     OW28726   0.704   2.735   7.000 -0.2792  0.0422 -0.0412
 5698SOL    HW128727   0.788   2.776   6.981  0.7525 -2.2879 -0.5842
 5698SOL    HW228728   0.643   2.807   7.015  0.4887  0.4462  1.0991
 5699SOL     OW28729   1.001   0.646   2.364 -0.2649  0.2213  0.2697
 5699SOL    HW128730   1.007   0.648   2.268  1.6575  1.0775  0.3909
 5699SOL    HW228731   0.935   0.715   2.374  0.6255  0.9312  1.2691
 5700SOL     OW28732   0.929   3.786   4.568  0.0295  0.2526  0.2852
 5700SOL    HW128733   0.873   3.754   4.498  0.5932 -0.0888 -0.0120
 5700SOL    HW228734   0.863   3.797   4.636 -1.3462  0.3768 -1.0958
 5701SOL     OW28735   1.666   0.114   3.888 -0.0237 -0.0540  0.3478
 5701SOL    HW128736   1.706   0.104   3.975 -3.4010 -0.7846  1.8332
 5701SOL    HW228737   1.689   0.206   3.872 -0.3281 -0.0563 -0.1071
 5702SOL     OW28738   0.826   4.314   4.402  0.1643 -0.2213  0.1835
 5702SOL    HW128739   0.799   4.404   4.385  1.1608  0.1234  0.3759
 5702SOL    HW228740   0.740   4.275   4.417  0.0625  0.1974  0.7119
 5703SOL     OW28741   1.804   4.454   2.046  0.5378 -0.2068  0.7602
 5703SOL    HW128742   1.875   4.479   1.987 -1.2901  1.6100 -0.6667
 5703SOL    HW228743   1.820   4.518   2.115  0.7977  0.6222 -0.0630
 5704SOL     OW28744   2.760   1.643   4.998 -0.1569 -0.1758  0.2878
 5704SOL    HW128745   2.759   1.645   4.902 -0.0907 -3.6760  0.2080
 5704SOL    HW228746   2.667   1.645   5.020  0.2995 -0.3744  2.2794
 5705SOL     OW28747   2.008   1.173   2.128 -0.3117 -0.2049  0.3335
 5705SOL    HW128748   2.058   1.110   2.180  0.1671 -0.4791 -0.4574
 5705SOL    HW228749   1.997   1.245   2.190 -0.4563 -0.3625  0.4886
 5706SOL     OW28750   2.674   3.146   5.446  0.1205  0.3119  0.5098
 5706SOL    HW128751   2.655   3.122   5.355  1.5914 -1.7790  0.7484
 5706SOL    HW228752   2.664   3.241   5.445 -3.9162 -0.1326 -1.9484
 5707SOL     OW28753   4.368   2.897   4.231  0.4617  0.3664 -0.1362
 5707SOL    HW128754   4.366   2.987   4.264 -1.4019  0.7029 -1.1421
 5707SOL    HW228755   4.300   2.857   4.285 -1.2368  1.0162 -1.7963
 5708SOL     OW28756   1.666   4.504   4.784 -0.1500  0.1016 -0.0899
 5708SOL    HW128757   1.761   4.501   4.793 -0.0293  0.0480 -1.3257
 5708SOL    HW228758   1.652   4.588   4.827  1.9738 -0.0362  0.8909
 5709SOL     OW28759   2.468   0.183   7.607 -0.7636 -0.3854 -0.3117
 5709SOL    HW128760   2.440   0.211   7.520  0.1200 -2.3647 -1.2234
 5709SOL    HW228761   2.488   0.272   7.637 -0.1310 -0.5371 -0.2914
 5710SOL     OW28762   0.048   0.196   2.929  0.3217 -0.4876 -0.5521
 5710SOL    HW128763   4.715   0.184   2.992 -0.8075 -1.3929 -1.9857
 5710SOL    HW228764   0.002   0.186   2.846 -0.3061 -0.0887 -0.2564
 5711SOL     OW28765   2.764   0.878   4.484  0.3424 -0.4155 -0.4887
 5711SOL    HW128766   2.726   0.890   4.571  0.1601 -0.7389 -0.5231
 5711SOL    HW228767   2.837   0.940   4.490 -0.0916 -0.1560  1.8704
 5712SOL     OW28768   3.727   0.587  10.815  0.4133 -0.1487 -0.3054
 5712SOL    HW128769   3.803   0.610  10.763  0.8605  1.0714  0.8822
 5712SOL    HW228770   3.723   0.661  10.875  2.1656 -0.6967  0.4991
 5713SOL     OW28771   2.784   2.732   0.931 -0.6311 -0.2761  0.1116
 5713SOL    HW128772   2.852   2.685   0.882 -0.2056  1.3073 -0.8242
 5713SOL    HW228773   2.735   2.780   0.864 -0.7222  0.0473  0.4092
 5714SOL     OW28774   0.271   3.521   3.698  0.2131  0.2437  0.0244
 5714SOL    HW128775   0.336   3.566   3.643  1.5510 -2.1181 -0.3299
 5714SOL    HW228776   0.311   3.436   3.718 -0.8748 -0.2710 -0.0212
 5715SOL     OW28777   1.004   4.720   1.647 -0.0046  0.2652  0.3519
 5715SOL    HW128778   0.968   0.049   1.589  2.0283  0.3699 -0.8230
 5715SOL    HW228779   1.090   4.697   1.610 -0.8554  0.3311 -1.6720
 5716SOL     OW28780   3.341   3.173   3.219 -0.5289 -0.1964  0.0543
 5716SOL    HW128781   3.384   3.098   3.176  1.7216  0.4555  1.1383
 5716SOL    HW228782   3.319   3.229   3.145  0.8845 -1.3916 -1.2761
 5717SOL     OW28783   1.619   1.111   6.824  0.0738  0.5598  0.2676
 5717SOL    HW128784   1.660   1.095   6.739 -1.5034  0.9299 -0.5565
 5717SOL    HW228785   1.535   1.070   6.805  1.1263 -1.3518 -0.2316
 5718SOL     OW28786   0.686   2.061   8.915  0.0043 -0.1477  0.3444
 5718SOL    HW128787   0.647   2.046   8.829  2.0537 -1.1980 -0.4050
 5718SOL    HW228788   0.750   1.990   8.910 -2.4637 -2.2410 -1.5832
 5719SOL     OW28789   1.782   0.576   3.365  0.3539 -0.4756 -0.2148
 5719SOL    HW128790   1.873   0.600   3.378  0.4391 -1.2043  0.5067
 5719SOL    HW228791   1.768   0.636   3.292 -1.0481  0.7390  1.0540
 5720SOL     OW28792   1.333   1.166   7.639 -0.3818  0.1435 -0.3397
 5720SOL    HW128793   1.408   1.161   7.579  0.8762 -2.5178  1.4524
 5720SOL    HW228794   1.292   1.246   7.605  1.0714  0.7509 -0.6826
 5721SOL     OW28795   4.177   0.859   8.253 -0.2338  0.1211  0.0960
 5721SOL    HW128796   4.213   0.902   8.176  1.4650 -0.2989  0.6647
 5721SOL    HW228797   4.204   0.768   8.238 -1.3046  0.2673 -2.8116
 5722SOL     OW28798   4.344   3.004   2.036  0.3120  0.2475  0.2773
 5722SOL    HW128799   4.255   2.976   2.015 -0.5183  2.6318  0.6579
 5722SOL    HW228800   4.389   2.992   1.953 -1.3207 -1.6015 -0.3484
 5723SOL     OW28801   3.295   2.790  10.535  0.6525  0.4703 -0.1824
 5723SOL    HW128802   3.374   2.785  10.588  0.1903  2.3270  0.6925
 5723SOL    HW228803   3.335   2.807  10.450  1.1906 -0.6240 -0.1358
 5724SOL     OW28804   0.999   2.132  16.761 -0.2512 -0.1997  0.0177
 5724SOL    HW128805   0.905   2.121  16.748 -0.3262 -0.7126  0.9855
 5724SOL    HW228806   1.012   2.221  16.729 -1.4556  1.2412  3.5974
 5725SOL     OW28807   2.201   1.409  12.109 -0.4974  0.4010  0.3332
 5725SOL    HW128808   2.143   1.475  12.072 -0.5880 -0.1972 -0.5906
 5725SOL    HW228809   2.277   1.467  12.116 -1.1141  1.1135  1.1477
 5726SOL     OW28810   1.230   1.389   3.086  0.5263  0.6013 -0.3196
 5726SOL    HW128811   1.238   1.441   3.165  1.7615  0.2145 -0.2012
 5726SOL    HW228812   1.162   1.326   3.113  0.9573 -0.0381 -0.7174
 5727SOL     OW28813   4.690   2.929   7.610 -0.5671 -0.3641 -0.7513
 5727SOL    HW128814   0.042   2.905   7.588 -0.3105  0.1292 -0.2358
 5727SOL    HW228815   4.646   2.849   7.640 -0.9614  0.6394  1.3229
 5728SOL     OW28816   4.412   2.734  11.821  1.4067 -0.1607 -0.8467
 5728SOL    HW128817   4.417   2.703  11.912  1.0553 -0.0178 -0.7772
 5728SOL    HW228818   4.465   2.814  11.824 -0.7347  1.2563 -0.4472
 5729SOL     OW28819   2.433   4.081   6.176  0.0234  0.1581 -0.1828
 5729SOL    HW128820   2.509   4.026   6.197  2.1665  3.7291  1.5560
 5729SOL    HW228821   2.365   4.014   6.172  0.2364  0.1994 -4.1539
 5730SOL     OW28822   2.239   1.875  11.893 -0.2128  0.1089 -0.2093
 5730SOL    HW128823   2.229   1.811  11.822 -0.5909 -2.2014  1.9284
 5730SOL    HW228824   2.155   1.921  11.882  0.5028  1.5652  0.4822
 5731SOL     OW28825   1.618   1.882   6.306 -0.0645  0.0099 -0.0253
 5731SOL    HW128826   1.526   1.856   6.302  0.3375 -1.4503  0.1645
 5731SOL    HW228827   1.628   1.907   6.398  1.1062  1.9830 -0.7030
 5732SOL     OW28828   4.414   0.292   8.930  0.2594  0.2638  0.0339
 5732SOL    HW128829   4.444   0.383   8.927  0.1990  0.2666 -0.5378
 5732SOL    HW228830   4.329   0.296   8.887 -0.5019  0.4059  1.5574
 5733SOL     OW28831   2.182   3.212   0.765 -0.3823 -0.1537  0.1756
 5733SOL    HW128832   2.150   3.136   0.815 -1.3421  2.0107  2.8399
 5733SOL    HW228833   2.145   3.194   0.679 -3.9292  1.2483  1.4306
 5734SOL     OW28834   2.326   3.563   5.065  0.0395  0.1004 -0.5139
 5734SOL    HW128835   2.345   3.503   5.137 -0.5616 -0.1177 -0.5365
 5734SOL    HW228836   2.303   3.503   4.994 -0.6992 -0.0279 -0.1752
 5735SOL     OW28837   0.990   4.134   5.521  0.0682  1.0095  0.1200
 5735SOL    HW128838   1.029   4.055   5.484 -1.2114  0.9032 -1.0127
 5735SOL    HW228839   0.899   4.107   5.538  0.0825  0.1545 -1.1403
 5736SOL     OW28840   1.579   4.033   9.536  0.1246  0.0783 -0.0075
 5736SOL    HW128841   1.507   4.097   9.536 -0.0540 -0.1275 -0.2855
 5736SOL    HW228842   1.635   4.066   9.607  0.8544 -2.9236  0.7727
 5737SOL     OW28843   2.262   3.103   6.166  0.4970  0.2663 -0.3579
 5737SOL    HW128844   2.184   3.105   6.222  1.7273 -0.5731  1.3635
 5737SOL    HW228845   2.288   3.011   6.176  1.5013  0.5626 -0.2927
 5738SOL     OW28846   2.515   2.239   7.959  0.1233 -0.0319 -0.1209
 5738SOL    HW128847   2.445   2.265   7.899 -0.9713 -1.9707  0.2973
 5738SOL    HW228848   2.471   2.163   7.998  0.5092  0.0194  0.4049
 5739SOL     OW28849   2.613   2.624   2.580  0.5596 -0.3368 -0.3127
 5739SOL    HW128850   2.628   2.582   2.496 -0.5718 -0.7051 -0.3190
 5739SOL    HW228851   2.704   2.643   2.605  0.6570 -1.4318  0.1602
 5740SOL     OW28852   0.768   0.713   6.136 -0.2227 -0.0307 -0.1215
 5740SOL    HW128853   0.778   0.790   6.192  1.3796 -0.4553  0.1860
 5740SOL    HW228854   0.714   0.749   6.066  0.8241  0.6399 -0.5800
 5741SOL     OW28855   2.673   4.397   1.918 -0.0875 -0.3837 -0.6103
 5741SOL    HW128856   2.647   4.306   1.898  1.7054 -1.2079  0.8634
 5741SOL    HW228857   2.691   4.422   1.827  0.0219  1.1792 -0.1408
 5742SOL     OW28858   1.477   0.024   4.209 -0.2803  0.0658 -0.0305
 5742SOL    HW128859   1.545   4.695   4.217  0.8094  0.9373 -2.1287
 5742SOL    HW228860   1.404   4.709   4.241  0.1830 -0.0531  0.8346
 5743SOL     OW28861   3.802   4.110   2.860 -0.1921  0.1910 -0.4457
 5743SOL    HW128862   3.870   4.123   2.795 -0.0049  0.1315 -0.2605
 5743SOL    HW228863   3.840   4.055   2.929  0.4847 -1.0396 -1.7946
 5744SOL     OW28864   2.240   0.623   5.654  0.2266  0.2506  0.2445
 5744SOL    HW128865   2.270   0.582   5.573  2.1693  0.7592  0.6982
 5744SOL    HW228866   2.190   0.553   5.696  1.1451 -1.5083 -1.5963
 5745SOL     OW28867   1.577   3.337   7.859  0.3143  0.4202 -0.0294
 5745SOL    HW128868   1.591   3.321   7.953  1.5352  1.1337 -0.0815
 5745SOL    HW228869   1.530   3.262   7.823  0.7258  1.0793 -1.9077
 5746SOL     OW28870   3.063   1.532   9.193 -0.0506 -0.7907 -0.2573
 5746SOL    HW128871   3.093   1.461   9.136 -0.2110 -1.0477 -0.0175
 5746SOL    HW228872   3.043   1.609   9.140  2.2786 -0.1116 -0.1683
 5747SOL     OW28873   0.919   0.229  16.565 -0.2676 -0.0339 -0.2272
 5747SOL    HW128874   0.867   0.214  16.486  1.5318 -0.5365 -1.3044
 5747SOL    HW228875   0.959   0.311  16.537 -1.2802  0.1830 -1.0210
 5748SOL     OW28876   1.729   2.631   8.004 -0.4361 -0.1190  0.0381
 5748SOL    HW128877   1.641   2.667   8.017 -0.1042  0.5358  0.4256
 5748SOL    HW228878   1.792   2.697   8.032  1.5686 -1.1472 -1.9625
 5749SOL     OW28879   0.904   2.995   1.133  0.2846 -0.1349 -0.6358
 5749SOL    HW128880   0.896   3.089   1.146  0.0511 -0.2749  0.2225
 5749SOL    HW228881   0.848   2.982   1.057  0.8244 -1.2036 -0.8525
 5750SOL     OW28882   0.501   2.585  11.967  0.0739 -0.1118  0.2428
 5750SOL    HW128883   0.545   2.630  12.040  1.5220 -2.8465  1.0659
 5750SOL    HW228884   0.577   2.566  11.912 -0.5363 -2.1953  0.1184
 5751SOL     OW28885   3.578   4.674   0.154 -0.2715 -0.1311 -0.1746
 5751SOL    HW128886   3.598   4.719   0.236 -0.5645  0.6434 -0.5311
 5751SOL    HW228887   3.593   4.580   0.162 -3.0509 -0.6329 -0.8568
 5752SOL     OW28888   2.031   3.026  14.375 -0.2989 -0.1199 -0.3836
 5752SOL    HW128889   1.999   2.941  14.348  0.6733 -0.8981  0.9030
 5752SOL    HW228890   1.946   3.069  14.381  0.1673  0.7574  0.0519
 5753SOL     OW28891   2.790   0.228   5.226 -0.1717  0.4645 -0.1420
 5753SOL    HW128892   2.858   0.164   5.247 -0.6738  0.1857  0.6132
 5753SOL    HW228893   2.851   0.288   5.183 -2.0857  2.0979 -0.5851
 5754SOL     OW28894   3.042   0.765  17.275 -0.6917  0.4545 -0.1756
 5754SOL    HW128895   2.982   0.704  17.232 -0.4609  0.2305 -0.1822
 5754SOL    HW228896   3.121   0.713  17.258 -0.6658  0.0558  1.1515
 5755SOL     OW28897   3.739   3.099   2.192 -0.2997 -0.3652  0.0377
 5755SOL    HW128898   3.758   3.184   2.153  2.1055 -1.2398 -0.6502
 5755SOL    HW228899   3.665   3.073   2.137 -1.5984 -0.0255  1.6182
 5756SOL     OW28900   2.327   2.387   4.423 -0.2761  0.4650 -0.2629
 5756SOL    HW128901   2.318   2.318   4.357  1.9005  0.6952 -0.7768
 5756SOL    HW228902   2.241   2.372   4.464  0.5425 -1.7193  0.6537
 5757SOL     OW28903   1.149   3.508  17.689 -0.3058 -0.2499 -0.5004
 5757SOL    HW128904   1.207   3.520   0.016 -0.7468  1.4029 -0.4247
 5757SOL    HW228905   1.150   3.413  17.683 -1.1844 -0.1978 -1.3762
 5758SOL     OW28906   3.720   3.940   5.659  0.0454  0.4876 -0.4699
 5758SOL    HW128907   3.633   3.945   5.620 -2.1177 -0.3056  4.2278
 5758SOL    HW228908   3.774   3.872   5.619 -2.5039 -0.8185 -1.7499
 5759SOL     OW28909   4.260   1.040   2.262 -1.1168  0.5487  0.6037
 5759SOL    HW128910   4.169   1.066   2.247 -1.2592 -1.4717 -1.9467
 5759SOL    HW228911   4.303   1.120   2.293  1.9269 -1.0109  0.3501
 5760SOL     OW28912   1.729   1.776   2.723  0.1024 -0.2540  0.4364
 5760SOL    HW128913   1.646   1.820   2.740  0.7558  0.3802  2.0284
 5760SOL    HW228914   1.708   1.683   2.732  2.6800 -0.8395  0.4097
 5761SOL     OW28915   3.701   1.678   0.342  0.3500 -0.4210  0.2845
 5761SOL    HW128916   3.629   1.739   0.325 -0.5778 -2.6207 -3.6779
 5761SOL    HW228917   3.770   1.716   0.288 -0.5074 -1.5422 -1.5815
 5762SOL     OW28918   1.716   4.243   6.860  0.0251 -0.5091  0.0770
 5762SOL    HW128919   1.779   4.295   6.909 -0.1717 -2.1202  2.0269
 5762SOL    HW228920   1.636   4.237   6.913  0.2653 -0.1573  0.4767
 5763SOL     OW28921   1.068   4.551   7.914 -0.0670  0.0953  0.7351
 5763SOL    HW128922   1.079   4.466   7.871  0.1195  0.8730 -0.7913
 5763SOL    HW228923   1.066   4.521   8.004  5.4136 -1.5138  0.2928
 5764SOL     OW28924   0.220   2.401   2.584 -0.1266  0.4492  0.4885
 5764SOL    HW128925   0.185   2.482   2.547  1.1914  0.0849 -1.5476
 5764SOL    HW228926   0.142   2.346   2.574 -0.6386  0.7026  2.9362
 5765SOL     OW28927   1.761   1.561   6.130  0.4410  0.5539 -0.0765
 5765SOL    HW128928   1.695   1.523   6.187  1.7445 -1.9300 -0.2271
 5765SOL    HW228929   1.701   1.592   6.063 -1.4966  0.4332  1.6273
 5766SOL     OW28930   0.723   2.189   6.613 -0.6606  0.7251  0.1890
 5766SOL    HW128931   0.701   2.095   6.613 -1.0764  0.8185 -2.0787
 5766SOL    HW228932   0.811   2.189   6.651 -1.0714 -2.0345  1.1570
 5767SOL     OW28933   3.358   1.377   3.161 -0.3405 -0.0271  0.1581
 5767SOL    HW128934   3.364   1.436   3.086 -0.1323 -1.7121 -1.1474
 5767SOL    HW228935   3.334   1.291   3.128 -2.7106  2.0126 -3.4518
 5768SOL     OW28936   2.857   2.116  16.533 -0.0385  0.5959 -0.1794
 5768SOL    HW128937   2.771   2.076  16.540  0.7380 -1.3067 -1.5150
 5768SOL    HW228938   2.854   2.181  16.603 -0.3529  0.2706  0.1076
 5769SOL     OW28939   3.291   3.993   5.990  0.3246 -0.1203  0.2915
 5769SOL    HW128940   3.383   4.018   5.977  0.2155 -0.4950 -1.1669
 5769SOL    HW228941   3.264   4.068   6.044 -2.9134 -2.0896  1.3635
 5770SOL     OW28942   2.719   3.850   0.576 -0.1417 -0.5791 -0.0123
 5770SOL    HW128943   2.696   3.758   0.572  0.2401 -0.5952 -1.9631
 5770SOL    HW228944   2.639   3.890   0.542  0.1402 -0.3610 -0.4240
 5771SOL     OW28945   0.158   0.834   7.534  0.1894  0.0315  0.6539
 5771SOL    HW128946   0.211   0.795   7.603 -0.7337 -0.3802  1.1379
 5771SOL    HW228947   0.153   0.760   7.474 -0.3326  0.3493  0.3014
 5772SOL     OW28948   3.735   2.982   6.060 -0.7714  1.0783 -0.3092
 5772SOL    HW128949   3.809   3.014   6.112 -2.3503 -0.1467  2.7067
 5772SOL    HW228950   3.746   3.030   5.978 -0.5137  1.5792  0.0217
 5773SOL     OW28951   0.596   3.117  12.104 -0.1904 -0.4311  0.5951
 5773SOL    HW128952   0.649   3.182  12.057 -0.9674 -0.0602  0.2383
 5773SOL    HW228953   0.653   3.109  12.181  0.3215  2.4369  0.5208
 5774SOL     OW28954   1.631   3.532   2.227  0.0545  0.3930  0.2113
 5774SOL    HW128955   1.719   3.567   2.244  0.0175  0.8955 -0.6102
 5774SOL    HW228956   1.587   3.571   2.152  0.2770  1.2932  0.5434
 5775SOL     OW28957   2.076   2.826   4.798 -0.9025 -0.5028  0.6689
 5775SOL    HW128958   2.100   2.871   4.717  1.5185  2.9892  3.3130
 5775SOL    HW228959   2.016   2.894   4.829  1.1176  1.3216  0.6170
 5776SOL     OW28960   1.951   1.986   0.988 -0.0557  0.7135 -0.2275
 5776SOL    HW128961   1.906   2.055   0.940 -0.8413 -0.3209 -0.9876
 5776SOL    HW228962   2.025   1.970   0.929 -1.6888  0.3197 -2.1460
 5777SOL     OW28963   1.090   2.805  13.988 -0.3149  0.0756  0.2136
 5777SOL    HW128964   1.004   2.825  14.025 -1.3886 -1.4161 -1.4743
 5777SOL    HW228965   1.140   2.871  14.037  1.1439 -1.3884  0.6851
 5778SOL     OW28966   0.788   0.367  16.102 -0.0696  0.0678  0.3961
 5778SOL    HW128967   0.704   0.336  16.066  0.3952 -0.3088 -0.3725
 5778SOL    HW228968   0.820   0.400  16.018 -0.8845 -0.4810 -0.1295
 5779SOL     OW28969   2.873   2.410   7.283  0.8307 -0.3196  0.1583
 5779SOL    HW128970   2.852   2.476   7.217  0.7840 -0.1648  0.3270
 5779SOL    HW228971   2.831   2.451   7.359 -1.0765  1.9333 -2.0960
 5780SOL     OW28972   3.335   1.623  13.783  0.6806 -0.7583  0.3276
 5780SOL    HW128973   3.244   1.594  13.788  0.4088 -0.4256 -2.4526
 5780SOL    HW228974   3.373   1.536  13.775 -0.3246 -1.3660  2.2254
 5781SOL     OW28975   1.195   2.831   8.948  0.1625  0.2844 -0.7039
 5781SOL    HW128976   1.289   2.813   8.940 -0.2356 -1.6304 -1.2320
 5781SOL    HW228977   1.170   2.766   8.882  0.1824  0.1630 -0.5909
 5782SOL     OW28978   3.621   3.168  12.582  1.1257 -0.4529 -0.1671
 5782SOL    HW128979   3.527   3.150  12.579  1.5185 -2.4709 -0.4201
 5782SOL    HW228980   3.624   3.254  12.624 -1.1335  0.4602 -1.8101
 5783SOL     OW28981   2.346   1.568   6.954 -0.3614  1.0622  0.4209
 5783SOL    HW128982   2.361   1.564   7.048  1.3782 -1.2227  0.0533
 5783SOL    HW228983   2.437   1.587   6.930  0.3419 -0.2196  2.1088
 5784SOL     OW28984   1.782   2.342  11.156  0.2172 -0.3831 -0.0909
 5784SOL    HW128985   1.730   2.398  11.213  3.5649  1.0992  1.4979
 5784SOL    HW228986   1.740   2.343  11.070 -1.5561  3.0284  0.8142
 5785SOL     OW28987   2.678   2.680   1.529  0.3007  0.1061  0.1341
 5785SOL    HW128988   2.681   2.766   1.486  1.1614 -0.2759 -0.5675
 5785SOL    HW228989   2.637   2.707   1.611 -4.2764  0.3922 -2.2724
 5786SOL     OW28990   0.583   3.428   6.291  0.1114  0.1250  0.0102
 5786SOL    HW128991   0.569   3.477   6.372 -2.4155 -1.9550  0.8276
 5786SOL    HW228992   0.503   3.376   6.300  1.3186 -1.2272  2.9388
 5787SOL     OW28993   0.635   0.014   1.953  0.8066  0.4057  0.1391
 5787SOL    HW128994   0.590   0.040   1.873  1.2533  1.8860  0.3546
 5787SOL    HW228995   0.724   4.728   1.927 -0.4374 -1.4140 -2.4094
 5788SOL     OW28996   1.553   2.005   2.959 -0.0686  0.0165 -0.3767
 5788SOL    HW128997   1.543   1.961   2.874 -1.9765  1.0938 -0.7039
 5788SOL    HW228998   1.588   2.090   2.930 -1.0051  0.5692  0.1044
 5789SOL     OW28999   2.870   1.426  11.294 -0.6308 -0.1433  0.1807
 5789SOL    HW129000   2.789   1.379  11.316  0.8778 -3.2737 -0.8224
 5789SOL    HW229001   2.928   1.372  11.348  1.4145  1.7038 -0.1743
 5790SOL     OW29002   3.865   2.090   8.901 -0.3312  0.6957 -0.1261
 5790SOL    HW129003   3.936   2.155   8.911 -0.7243  1.0748  0.1809
 5790SOL    HW229004   3.790   2.142   8.928 -0.1125 -0.1955  2.1981
 5791SOL     OW29005   4.625   4.541   6.181 -0.1492  0.0281  0.0383
 5791SOL    HW129006   4.673   4.471   6.227  0.6870  1.0951  0.7968
 5791SOL    HW229007   4.616   4.602   6.254  2.4990  0.0657  0.3434
 5792SOL     OW29008   0.552   4.598   8.239 -0.0099  0.3796 -0.2453
 5792SOL    HW129009   0.549   4.634   8.327 -1.7393  1.3878 -0.7098
 5792SOL    HW229010   0.517   4.511   8.257  1.1389 -0.1671 -0.6345
 5793SOL     OW29011   2.446   1.228  12.791 -0.0405  0.7339 -0.2030
 5793SOL    HW129012   2.539   1.240  12.805  0.0320 -0.3502  0.2293
 5793SOL    HW229013   2.448   1.136  12.818  0.2203  0.7289 -0.2480
 5794SOL     OW29014   2.034   1.309   7.692  0.1251  0.3377  0.2210
 5794SOL    HW129015   2.000   1.326   7.780 -0.6268  0.5475 -0.1081
 5794SOL    HW229016   2.124   1.280   7.706  0.4292  1.6327  1.0183
 5795SOL     OW29017   0.809   2.256   9.595  0.3098  0.2709  0.2510
 5795SOL    HW129018   0.818   2.234   9.688  2.0233  2.7731  0.7016
 5795SOL    HW229019   0.899   2.279   9.571  0.0706  1.0601  0.1109
 5796SOL     OW29020   1.857   0.823   6.773  0.5222  0.1653  0.1312
 5796SOL    HW129021   1.834   0.894   6.834 -0.2171 -1.6070  1.9128
 5796SOL    HW229022   1.808   0.754   6.816  1.0663 -1.6886 -2.2273
 5797SOL     OW29023   3.164   2.532  17.204 -0.1385  0.1201  0.5371
 5797SOL    HW129024   3.144   2.439  17.207  0.7453 -0.1235 -1.1612
 5797SOL    HW229025   3.202   2.536  17.117 -1.7288 -0.1526 -0.1654
 5798SOL     OW29026   3.555   1.135   9.480  0.2765 -0.1565  0.4595
 5798SOL    HW129027   3.577   1.141   9.573  1.2358 -1.4217  0.3146
 5798SOL    HW229028   3.525   1.224   9.459  1.1957 -0.2706 -1.3484
 5799SOL     OW29029   1.069   4.324   4.582 -0.8433  0.5204 -0.5645
 5799SOL    HW129030   1.087   4.231   4.596 -2.1861  0.4755  0.8568
 5799SOL    HW229031   0.991   4.309   4.529  0.0622 -0.6950 -1.5430
 5800SOL     OW29032   2.893   2.478   5.760 -0.5837 -0.0972  0.2448
 5800SOL    HW129033   2.970   2.436   5.797 -0.8957 -1.5831 -0.7993
 5800SOL    HW229034   2.843   2.491   5.840  1.2601  1.5742  1.1354
 5801SOL     OW29035   3.681   1.713   0.609 -0.3244  0.0109  0.0759
 5801SOL    HW129036   3.676   1.805   0.584  1.6656  0.0612 -0.1408
 5801SOL    HW229037   3.675   1.668   0.525  5.2667 -1.2512  0.3625
 5802SOL     OW29038   1.452   0.077   7.655 -0.0242  0.5344  0.8958
 5802SOL    HW129039   1.485   4.736   7.613 -1.6129 -0.9495  2.3971
 5802SOL    HW229040   1.400   0.036   7.724  0.1460 -1.0891  0.0415
 5803SOL     OW29041   1.770   3.524   6.390  0.3444  0.1671  0.0908
 5803SOL    HW129042   1.736   3.479   6.312  3.3152  0.1831 -1.2301
 5803SOL    HW229043   1.683   3.548   6.423  0.4360 -1.6013  1.6455
 5804SOL     OW29044   2.614   0.108   9.861  0.5386 -0.1748  0.4004
 5804SOL    HW129045   2.708   0.113   9.846  0.3820  0.2723 -0.4196
 5804SOL    HW229046   2.589   0.020   9.831 -0.5817 -0.0383  0.9373
 5805SOL     OW29047   3.982   4.093   1.694 -0.1961 -0.3274  0.0757
 5805SOL    HW129048   3.893   4.071   1.668  0.5557 -0.4138 -2.4392
 5805SOL    HW229049   4.032   4.034   1.638  2.0404 -0.1376  1.8789
 5806SOL     OW29050   4.149   1.142   5.572  0.5932  0.1497 -0.3153
 5806SOL    HW129051   4.104   1.082   5.632 -2.1186  0.5092 -1.9993
 5806SOL    HW229052   4.241   1.114   5.574  0.0734 -1.6010 -0.3522
 5807SOL     OW29053   4.380   2.043   5.368 -0.0649  0.0065 -0.3013
 5807SOL    HW129054   4.325   2.007   5.298  2.2899 -3.6669 -0.2370
 5807SOL    HW229055   4.413   2.118   5.318  1.6301 -3.2514 -4.0190
 5808SOL     OW29056   4.307   4.465   4.658 -0.0813  0.6290  0.4301
 5808SOL    HW129057   4.250   4.398   4.622  1.7369  0.6223 -2.3983
 5808SOL    HW229058   4.258   4.540   4.625  0.2347  0.2489 -0.9110
 5809SOL     OW29059   0.069   4.611   1.801 -0.4538 -0.2170  0.4624
 5809SOL    HW129060   0.019   4.665   1.862 -1.6693 -1.3606  0.4656
 5809SOL    HW229061   0.147   4.592   1.854  0.4215  0.6655 -0.4975
 5810SOL     OW29062   2.297   4.699  13.869  0.2800 -0.0875 -0.1584
 5810SOL    HW129063   2.297   4.735  13.780  1.2349 -0.3412 -0.2570
 5810SOL    HW229064   2.382   4.656  13.876  0.4609  0.5003  1.1257
 5811SOL     OW29065   2.570   0.953   7.050  0.1077 -0.1442  0.1231
 5811SOL    HW129066   2.601   0.946   7.140  0.8311  0.0949 -0.1123
 5811SOL    HW229067   2.560   1.048   7.043 -0.4725 -0.2576 -0.7375
 5812SOL     OW29068   1.343   3.971   6.698 -0.2582 -0.7209 -0.3197
 5812SOL    HW129069   1.361   4.064   6.704  0.2233 -0.8251 -0.0930
 5812SOL    HW229070   1.415   3.940   6.643  0.4553  0.6367 -0.1413
 5813SOL     OW29071   0.951   1.511   3.455  0.3053 -0.0521 -0.1330
 5813SOL    HW129072   0.931   1.548   3.369  0.0735 -0.6845 -0.3503
 5813SOL    HW229073   0.870   1.468   3.482  0.3047 -0.9106 -1.4752
 5814SOL     OW29074   1.639   3.069  11.498  0.1078 -0.3059  0.3356
 5814SOL    HW129075   1.606   3.026  11.577  0.8772  3.1073  2.4964
 5814SOL    HW229076   1.556   3.104  11.466  0.4573  1.2404  1.1081
 5815SOL     OW29077   4.225   4.090  13.705 -0.5639  0.0371  0.5907
 5815SOL    HW129078   4.202   4.183  13.704  2.5781  0.7986  0.1020
 5815SOL    HW229079   4.234   4.074  13.611 -0.2409 -1.8840  0.9377
 5816SOL     OW29080   1.676   2.930  14.220  0.0992  0.7259 -0.4847
 5816SOL    HW129081   1.594   2.934  14.269  0.9538 -0.4437  1.0458
 5816SOL    HW229082   1.743   2.963  14.280 -0.3461 -0.4286  0.6497
 5817SOL     OW29083   3.237   0.779   3.805  0.2254  0.3762 -0.2415
 5817SOL    HW129084   3.238   0.685   3.785  1.2803  0.2507  0.3638
 5817SOL    HW229085   3.153   0.791   3.849  0.6324 -1.1564  0.9634
 5818SOL     OW29086   1.051   4.520   6.579  0.0196 -0.1442 -0.3143
 5818SOL    HW129087   0.978   4.469   6.613  1.1547  0.1378  2.5445
 5818SOL    HW229088   1.020   4.547   6.493 -0.8237  0.3090  0.1435
 5819SOL     OW29089   1.208   4.265   8.637  0.1865  0.3316  0.3664
 5819SOL    HW129090   1.303   4.262   8.635  0.2023  0.9925 -0.3144
 5819SOL    HW229091   1.206   4.317   8.717 -2.7323 -0.2762  0.7029
 5820SOL     OW29092   4.081   4.136   6.219  0.8150 -0.1990 -0.1635
 5820SOL    HW129093   4.170   4.107   6.241  0.1287 -2.6465 -0.5788
 5820SOL    HW229094   4.114   4.207   6.164 -2.4118  1.7392  0.3761
 5821SOL     OW29095   0.649   2.901  14.644  0.8878  0.1327  1.1943
 5821SOL    HW129096   0.661   2.818  14.692 -0.6436 -1.3562 -1.0336
 5821SOL    HW229097   0.686   2.873  14.561 -2.4693 -0.5845 -0.0582
 5822SOL     OW29098   3.119   2.435   6.321  0.6373 -0.4423 -0.4231
 5822SOL    HW129099   3.173   2.450   6.243 -2.4863  1.5960 -2.1712
 5822SOL    HW229100   3.128   2.512   6.376  0.9062  0.2734 -1.4757
 5823SOL     OW29101   1.320   3.859   5.036 -0.3477 -0.4280  0.1086
 5823SOL    HW129102   1.416   3.860   5.032 -0.2597 -1.4778  2.0770
 5823SOL    HW229103   1.318   3.786   4.973 -1.0317 -2.2377  2.2226
 5824SOL     OW29104   2.753   1.690   4.701  0.0343 -0.2042  0.2654
 5824SOL    HW129105   2.788   1.659   4.617  0.3148 -1.8935  1.0178
 5824SOL    HW229106   2.781   1.782   4.697  1.5121 -0.7838 -2.7399
 5825SOL     OW29107   2.311   3.214  16.080  0.3949  0.1747  0.5291
 5825SOL    HW129108   2.370   3.193  16.008  0.5781 -0.4680  0.8710
 5825SOL    HW229109   2.344   3.174  16.160  0.5323 -2.2621 -0.7614
 5826SOL     OW29110   0.691   3.426   5.250  0.4581  0.3088  0.0045
 5826SOL    HW129111   0.776   3.448   5.213  0.2124  1.7736  0.3075
 5826SOL    HW229112   0.663   3.361   5.185  0.3104 -0.1525  0.5291
 5827SOL     OW29113   3.182   3.041  15.153 -0.0208  0.0962 -0.3717
 5827SOL    HW129114   3.142   3.025  15.068  1.7924  0.4450 -1.2769
 5827SOL    HW229115   3.167   2.955  15.192 -0.0558 -0.5407 -1.7800
 5828SOL     OW29116   1.898   2.196   7.856  0.3312  0.4162  0.4020
 5828SOL    HW129117   1.922   2.245   7.935  0.3972 -0.3930  0.8901
 5828SOL    HW229118   1.953   2.218   7.782  0.1961  0.8049  0.4195
 5829SOL     OW29119   4.174   2.384   2.495 -0.2591 -0.3896  0.3288
 5829SOL    HW129120   4.258   2.411   2.532  0.6563 -1.2103 -1.1439
 5829SOL    HW229121   4.114   2.458   2.488  1.6145  1.1913  1.1735
 5830SOL     OW29122   0.293   3.364  17.034 -0.2329 -0.2250  0.1567
 5830SOL    HW129123   0.215   3.388  16.984 -0.1080  1.3242  0.7155
 5830SOL    HW229124   0.347   3.348  16.956 -0.3953  1.7420 -0.3611
 5831SOL     OW29125   2.351   3.078   3.523 -0.1134 -0.3753 -0.0790
 5831SOL    HW129126   2.268   3.049   3.560  1.0506 -1.0454  1.9772
 5831SOL    HW229127   2.350   3.031   3.439  0.8788 -0.1081 -0.2391
 5832SOL     OW29128   2.385   4.250   7.822 -0.1377 -0.1309  0.1778
 5832SOL    HW129129   2.302   4.279   7.859 -0.3294 -0.1307 -0.2451
 5832SOL    HW229130   2.418   4.340   7.824 -0.4293 -0.0610  1.5837
 5833SOL     OW29131   4.540   3.180   9.244 -0.3150  0.4358 -0.6318
 5833SOL    HW129132   4.588   3.109   9.202 -1.0083 -0.9613  0.9755
 5833SOL    HW229133   4.610   3.224   9.292  0.2135 -0.1773 -0.8469
 5834SOL     OW29134   4.134   3.781   4.030 -0.1945 -0.1930 -0.4804
 5834SOL    HW129135   4.153   3.788   3.937  1.7804 -0.8028 -0.1359
 5834SOL    HW229136   4.084   3.861   4.045  0.2428  0.3345 -1.8690
 5835SOL     OW29137   4.480   2.973   1.785 -0.1564 -0.3553 -0.0422
 5835SOL    HW129138   4.562   3.021   1.795 -0.3237 -0.1937  0.5660
 5835SOL    HW229139   4.506   2.901   1.728 -1.5187  0.4574 -1.7142
 5836SOL     OW29140   2.728   3.589   3.650  0.2309 -0.1768  0.6647
 5836SOL    HW129141   2.742   3.622   3.739  0.9925  1.5664 -0.0940
 5836SOL    HW229142   2.721   3.497   3.674 -0.0916 -0.5091 -0.6692
 5837SOL     OW29143   1.797   4.335   8.388 -0.2098 -0.2915  0.0612
 5837SOL    HW129144   1.879   4.383   8.403 -1.1939  1.1107  0.8741
 5837SOL    HW229145   1.748   4.345   8.470 -0.8258  3.7410 -0.8101
 5838SOL     OW29146   2.525   3.554   3.867 -0.2341  0.4861 -0.0536
 5838SOL    HW129147   2.608   3.585   3.904 -0.4061 -1.5117  2.0048
 5838SOL    HW229148   2.551   3.483   3.809 -1.0090 -0.7401  1.1156
 5839SOL     OW29149   1.183   3.351   2.323  0.8518 -0.0593  0.3685
 5839SOL    HW129150   1.266   3.397   2.310 -0.4952  2.1608 -0.3338
 5839SOL    HW229151   1.203   3.281   2.386  0.7649  0.4432  0.9524
 5840SOL     OW29152   0.553   4.523  11.192 -0.1671  0.6363 -0.3864
 5840SOL    HW129153   0.532   4.431  11.173 -1.8298  1.0427 -0.5874
 5840SOL    HW229154   0.648   4.517  11.200  0.0122  1.7680 -1.5876
 5841SOL     OW29155   0.100   4.304   2.968  0.1125 -0.6066  0.0562
 5841SOL    HW129156   0.171   4.318   3.031  0.1153 -2.0311  0.3678
 5841SOL    HW229157   0.127   4.218   2.936 -0.2658 -0.2165 -1.2766
 5842SOL     OW29158   0.183   3.504   5.834 -0.2179  0.5879 -0.3159
 5842SOL    HW129159   0.227   3.559   5.898  3.1176 -0.2939 -1.8552
 5842SOL    HW229160   0.209   3.415   5.857 -2.0206 -0.5664 -2.6717
 5843SOL     OW29161   1.474   0.990   1.917 -0.4026 -0.8877 -0.1377
 5843SOL    HW129162   1.531   0.990   1.995  1.2395  0.4428 -1.3411
 5843SOL    HW229163   1.532   0.988   1.841 -0.9622  1.0279 -0.6054
 5844SOL     OW29164   4.010   3.380   5.026 -0.4061  0.0403 -0.2442
 5844SOL    HW129165   4.007   3.298   4.978  4.8938  0.6717 -1.6809
 5844SOL    HW229166   3.916   3.392   5.038 -0.4233 -1.9246  1.5764
 5845SOL     OW29167   1.498   3.944   4.158  0.1036 -0.4251  0.1598
 5845SOL    HW129168   1.582   3.963   4.201 -0.1016  0.9363 -0.0161
 5845SOL    HW229169   1.460   4.026   4.191 -0.1270 -0.1217 -0.8710
 5846SOL     OW29170   0.311   3.074   3.013 -0.2702  0.1019 -0.3737
 5846SOL    HW129171   0.239   3.137   3.014 -1.9259 -1.8352  1.3525
 5846SOL    HW229172   0.331   3.065   2.920  0.2159  0.4699 -0.3079
 5847SOL     OW29173   2.175   2.126   5.322 -0.0037  0.7165  0.0405
 5847SOL    HW129174   2.163   2.071   5.245  0.5725 -0.2494  0.6431
 5847SOL    HW229175   2.212   2.060   5.380  0.2570  0.8869  0.0700
 5848SOL     OW29176   0.938   3.155   7.733  0.1684 -0.1298 -0.3168
 5848SOL    HW129177   0.926   3.202   7.651 -0.7639 -0.3300 -0.2921
 5848SOL    HW229178   0.935   3.224   7.800  1.6475  0.0173 -0.4034
 5849SOL     OW29179   2.470   1.731   0.670  0.1472 -0.3786 -0.1192
 5849SOL    HW129180   2.464   1.636   0.683 -1.7573 -0.2049  0.2451
 5849SOL    HW229181   2.540   1.757   0.730  0.6886  0.1216 -0.9719
 5850SOL     OW29182   3.325   3.687   2.804 -0.3246 -0.4967 -0.0493
 5850SOL    HW129183   3.315   3.778   2.777 -0.7572 -0.3612  0.5832
 5850SOL    HW229184   3.241   3.659   2.838  0.7158 -1.2674  1.8520
 5851SOL     OW29185   0.388   4.081  10.990 -0.8267 -0.5316  0.2564
 5851SOL    HW129186   0.381   4.015  11.059  0.3441  1.1925  1.9921
 5851SOL    HW229187   0.340   4.153  11.031  2.6733  2.5474 -1.1660
 5852SOL     OW29188   3.677   3.902   8.263  0.2433  0.5405  0.2072
 5852SOL    HW129189   3.598   3.956   8.262 -0.1842 -0.0094  3.5956
 5852SOL    HW229190   3.642   3.838   8.325  1.5432 -1.2935 -0.9513
 5853SOL     OW29191   0.201   1.592  11.546 -0.4647 -0.3015 -0.3662
 5853SOL    HW129192   0.254   1.654  11.597  0.3500 -1.9529  0.7884
 5853SOL    HW229193   0.181   1.522  11.608  1.0181  1.4558  2.0949
 5854SOL     OW29194   3.488   1.832   0.298 -0.1512 -0.4495  0.0168
 5854SOL    HW129195   3.449   1.843   0.385  2.1660  0.5969  0.9123
 5854SOL    HW229196   3.459   1.912   0.252  1.6380  0.1220 -0.1160
 5855SOL     OW29197   4.169   2.819   3.928 -0.3618 -0.5145 -0.1124
 5855SOL    HW129198   4.085   2.805   3.971 -0.6187 -1.4250 -0.8930
 5855SOL    HW229199   4.218   2.755   3.980  1.8116  1.6159  0.4075
 5856SOL     OW29200   3.403   3.853   8.905  0.5309 -0.3914  0.1048
 5856SOL    HW129201   3.435   3.875   8.992  3.8338 -1.1847 -0.9220
 5856SOL    HW229202   3.343   3.783   8.931 -2.2811  2.7705  2.2209
 5857SOL     OW29203   2.625   4.736   5.151 -0.2094  0.0965 -0.1907
 5857SOL    HW129204   2.663   0.084   5.171  1.4806 -0.6841 -0.1049
 5857SOL    HW229205   2.706   4.690   5.170  0.1275  1.1725  0.9947
 5858SOL     OW29206   0.938   1.024   5.944  0.6541  0.4129 -0.9879
 5858SOL    HW129207   0.938   0.931   5.970  0.8172  0.6283 -0.2212
 5858SOL    HW229208   0.913   1.024   5.852 -0.4382  0.5802 -0.6907
 5859SOL     OW29209   1.420   3.308   1.304 -0.2880 -0.6770  0.1007
 5859SOL    HW129210   1.493   3.342   1.354  0.3042 -1.8974  0.0753
 5859SOL    HW229211   1.456   3.331   1.219  1.0866  0.0451  0.8895
 5860SOL     OW29212   0.249   2.857   6.704  0.2284 -0.0792  0.2921
 5860SOL    HW129213   0.229   2.795   6.634 -0.0438  0.2784  0.0540
 5860SOL    HW229214   0.165   2.903   6.712 -0.0538 -0.7564  1.2084
 5861SOL     OW29215   0.174   3.906   2.388  0.0229  0.1934 -0.2004
 5861SOL    HW129216   0.233   3.981   2.385 -0.8952  0.8458 -1.8985
 5861SOL    HW229217   0.193   3.874   2.476 -1.4673  1.1180  0.4396
 5862SOL     OW29218   3.042   3.975   2.433 -0.0901 -0.5289  0.2478
 5862SOL    HW129219   2.990   3.950   2.357 -0.0686  2.2509 -0.6932
 5862SOL    HW229220   2.977   4.027   2.480  0.4625  0.1279  0.2808
 5863SOL     OW29221   3.348   1.344   4.392 -0.1340 -0.2276 -0.0660
 5863SOL    HW129222   3.343   1.331   4.297  0.2411 -1.5396  0.0953
 5863SOL    HW229223   3.380   1.433   4.405 -0.6298 -0.2732  1.3751
 5864SOL     OW29224   2.291   2.230   8.978  0.2533 -0.2689  0.1360
 5864SOL    HW129225   2.278   2.310   8.927 -0.1690 -1.2410 -1.2581
 5864SOL    HW229226   2.387   2.232   8.976  0.1934 -0.0237 -3.0825
 5865SOL     OW29227   0.543   3.104   5.429  0.5500 -0.5300  0.0097
 5865SOL    HW129228   0.456   3.144   5.436  0.1826 -0.7393 -3.1183
 5865SOL    HW229229   0.576   3.121   5.517  1.2906  0.6884 -0.5062
 5866SOL     OW29230   4.640   0.330   8.078 -0.5154 -0.2663 -0.1231
 5866SOL    HW129231   4.552   0.318   8.114 -0.5365 -1.6380 -0.6054
 5866SOL    HW229232   4.693   0.336   8.157 -2.0027 -0.4689  0.9013
 5867SOL     OW29233   0.577   3.102   6.479  0.4799 -0.0894 -0.1433
 5867SOL    HW129234   0.614   3.089   6.567  0.0389 -2.0191 -0.2328
 5867SOL    HW229235   0.512   3.170   6.497  0.0016 -0.3667 -0.8308
 5868SOL     OW29236   0.160   4.597  11.375  0.1928 -0.7331  0.1113
 5868SOL    HW129237   0.120   4.646  11.447  2.6792 -0.1555  1.1043
 5868SOL    HW229238   0.119   4.512  11.393 -1.0268 -0.3570 -0.9229
 5869SOL     OW29239   2.898   4.716   5.206  0.5589  0.2767  0.1213
 5869SOL    HW129240   2.935   4.677   5.285  0.1674  2.6486  1.4947
 5869SOL    HW229241   2.961   4.682   5.143 -0.2558 -2.1607  0.6262
 5870SOL     OW29242   3.370   3.380   4.171  0.3966 -0.8612  0.3040
 5870SOL    HW129243   3.451   3.366   4.121  1.1815 -2.1137  1.9241
 5870SOL    HW229244   3.392   3.454   4.226  1.5861 -1.6771  0.9231
 5871SOL     OW29245   1.369   1.981   8.586 -0.2639  0.2082  0.2783
 5871SOL    HW129246   1.377   2.012   8.496 -3.3095 -0.4740 -0.2255
 5871SOL    HW229247   1.392   1.888   8.585 -0.2525  0.2212 -0.2381
 5872SOL     OW29248   4.398   3.846  16.731  0.2501 -0.3830  0.5458
 5872SOL    HW129249   4.331   3.778  16.738 -0.8952  0.4120 -2.5253
 5872SOL    HW229250   4.384   3.850  16.637 -2.6010  1.4095  1.0364
 5873SOL     OW29251   2.936   1.085  10.026  0.0064  0.5749 -0.2914
 5873SOL    HW129252   2.890   1.054   9.948 -3.2296  1.0476  1.4025
 5873SOL    HW229253   3.010   1.119   9.978  1.1999 -0.7093  0.6188
 5874SOL     OW29254   3.451   4.207   4.167 -0.8375  0.0193 -0.1049
 5874SOL    HW129255   3.364   4.236   4.140 -0.5780  0.4112 -0.5126
 5874SOL    HW229256   3.466   4.245   4.254  1.2052 -1.2907  0.1007
 5875SOL     OW29257   3.411   4.252   7.413 -0.1652 -0.2483  0.1659
 5875SOL    HW129258   3.444   4.219   7.497 -1.3516 -1.0923  0.2962
 5875SOL    HW229259   3.323   4.223   7.389 -0.5662  0.8564  0.2664
 5876SOL     OW29260   0.743   1.230   7.748  0.1332  0.5843 -0.3075
 5876SOL    HW129261   0.772   1.176   7.675  0.2281 -0.2488  0.3501
 5876SOL    HW229262   0.795   1.198   7.822 -0.9371  0.8278  0.5539
 5877SOL     OW29263   1.120   1.862   4.904  0.0171 -0.0796  0.5889
 5877SOL    HW129264   1.201   1.810   4.911  0.6243  0.8298  0.2935
 5877SOL    HW229265   1.052   1.795   4.903  1.1505 -1.2039 -1.4093
 5878SOL     OW29266   0.135   4.419   2.671 -0.1146  0.4032  0.5958
 5878SOL    HW129267   0.131   4.475   2.749 -2.2051  0.3226  0.5338
 5878SOL    HW229268   0.205   4.358   2.696 -1.4206 -2.1476 -2.0567
 5879SOL     OW29269   0.225   1.490   6.405  0.6659 -0.1014  0.1511
 5879SOL    HW129270   0.193   1.577   6.426  0.1890  0.0827 -1.2851
 5879SOL    HW229271   0.189   1.420   6.459  1.2743  1.3457  2.3880
 5880SOL     OW29272   3.224   3.521   0.901 -0.1497  0.1410 -0.3322
 5880SOL    HW129273   3.293   3.495   0.960 -0.9443 -0.2535  0.4181
 5880SOL    HW229274   3.146   3.489   0.946 -0.2322  2.3951  1.1545
 5881SOL     OW29275   0.573   2.659   8.811 -0.2662 -0.3590 -0.0850
 5881SOL    HW129276   0.488   2.634   8.775  0.1149 -2.5140  0.5232
 5881SOL    HW229277   0.628   2.644   8.734 -0.5589  1.8389 -0.7430
 5882SOL     OW29278   3.615   1.998   5.180  0.5294  0.4877  0.0494
 5882SOL    HW129279   3.684   2.061   5.159 -0.0479  1.3767  0.8091
 5882SOL    HW229280   3.662   1.924   5.217 -1.3904 -0.4152  0.6672
 5883SOL     OW29281   2.349   4.095   6.570 -0.4708  0.4339  0.3476
 5883SOL    HW129282   2.271   4.039   6.564 -0.5260  0.2539  2.8578
 5883SOL    HW229283   2.403   4.060   6.499 -0.2484  1.2096  0.1297
 5884SOL     OW29284   1.110   1.388  11.079 -0.7944  0.3253 -0.2383
 5884SOL    HW129285   1.095   1.368  10.987  1.4109  4.0064 -1.4253
 5884SOL    HW229286   1.148   1.303  11.098  0.0147  0.6299 -0.4670
 5885SOL     OW29287   2.639   3.775   4.479  0.3030 -0.2082 -0.2422
 5885SOL    HW129288   2.683   3.690   4.488 -1.2105 -0.8012  1.5511
 5885SOL    HW229289   2.559   3.754   4.431  0.5985 -0.6547 -0.5361
 5886SOL     OW29290   2.229   3.520  17.202 -0.2275 -0.4306 -0.7726
 5886SOL    HW129291   2.225   3.614  17.185 -0.5677 -0.6274 -1.8067
 5886SOL    HW229292   2.271   3.487  17.122  0.5127 -3.5926  0.9566
 5887SOL     OW29293   0.421   4.093  17.636 -0.8423 -0.4385  0.5277
 5887SOL    HW129294   0.393   4.007  17.667 -0.6541 -0.7880 -0.2677
 5887SOL    HW229295   0.481   4.081  17.563 -0.9091  0.7190  0.2958
 5888SOL     OW29296   4.502   3.614   9.483  0.1811  0.3004 -0.2809
 5888SOL    HW129297   4.562   3.572   9.421  0.7931 -1.2081  1.3414
 5888SOL    HW229298   4.417   3.579   9.457 -0.4605  0.0285  2.1874
 5889SOL     OW29299   0.859   0.862   7.377  0.6240 -0.1255  0.1858
 5889SOL    HW129300   0.942   0.832   7.339 -0.5195 -3.1745  0.1109
 5889SOL    HW229301   0.806   0.807   7.320  1.2991 -0.6256  0.0387
 5890SOL     OW29302   1.450   3.474   2.628  0.0681  0.2790 -0.3473
 5890SOL    HW129303   1.417   3.424   2.703  0.6683  0.4280  0.0112
 5890SOL    HW229304   1.545   3.468   2.633  0.0249 -0.3023 -0.2817
 5891SOL     OW29305   3.077   2.803  15.248 -0.1466 -0.0674  0.5972
 5891SOL    HW129306   3.085   2.745  15.172  2.0986  2.1196 -0.8153
 5891SOL    HW229307   3.094   2.738  15.316  2.2195  1.6236  1.6220
 5892SOL     OW29308   0.251   4.181  17.256  0.4943 -0.0716  0.9652
 5892SOL    HW129309   0.289   4.237  17.187  0.3258  1.0284  1.7628
 5892SOL    HW229310   0.296   4.215  17.333  1.1724 -1.0796  1.0042
 5893SOL     OW29311   3.947   1.972  14.704 -0.6574  0.7021 -0.5565
 5893SOL    HW129312   3.953   1.905  14.772 -1.9151 -0.3362 -1.4742
 5893SOL    HW229313   4.028   1.959  14.655 -0.5386 -1.0021  0.1068
 5894SOL     OW29314   4.679   2.740   5.228  0.5351 -0.7440 -0.6293
 5894SOL    HW129315   0.012   2.805   5.224 -1.5903  1.7338  2.0914
 5894SOL    HW229316   4.729   2.662   5.251  2.0067 -0.0109 -1.3962
 5895SOL     OW29317   3.976   0.927   7.794  0.2447 -0.3679 -0.2202
 5895SOL    HW129318   3.908   0.884   7.845 -0.9015  1.5774 -0.1222
 5895SOL    HW229319   3.925   0.960   7.720 -0.2597 -0.0759  0.2622
 5896SOL     OW29320   1.014   0.353   9.710  0.2422 -0.2986  0.2344
 5896SOL    HW129321   1.070   0.324   9.782 -0.9826 -2.0224  0.4863
 5896SOL    HW229322   1.064   0.432   9.689  1.5922 -1.1043  0.4197
 5897SOL     OW29323   1.015   1.608   8.468 -0.2245  0.5542 -0.4312
 5897SOL    HW129324   1.049   1.572   8.549  0.3183 -0.4809 -1.1240
 5897SOL    HW229325   0.972   1.526   8.444 -2.0454  1.4220 -0.1625
 5898SOL     OW29326   0.200   4.574   5.832 -0.0101 -0.0381 -0.2858
 5898SOL    HW129327   0.108   4.547   5.840 -0.4994  1.7540  0.1448
 5898SOL    HW229328   0.230   4.537   5.915 -2.0954  2.2206  1.4799
 5899SOL     OW29329   4.424   2.856  11.276 -0.0093 -0.8033  0.1802
 5899SOL    HW129330   4.506   2.806  11.276 -0.3078 -1.2559  3.1034
 5899SOL    HW229331   4.445   2.921  11.342  0.5149 -2.4814  1.6626
 5900SOL     OW29332   4.527   4.678   2.873 -0.2967  0.5314 -0.9817
 5900SOL    HW129333   4.569   0.001   2.812  2.0876  0.9348  1.0591
 5900SOL    HW229334   4.436   4.688   2.845 -0.9429 -0.7888  0.6492
 5901SOL     OW29335   4.558   0.219  14.148 -0.5416 -0.3756 -0.2151
 5901SOL    HW129336   4.474   0.220  14.194  0.7602 -1.8016  2.1864
 5901SOL    HW229337   4.522   0.244  14.063  0.6522  2.5282  0.1053
 5902SOL     OW29338   3.940   2.201   8.630 -0.0130 -0.2963  0.3132
 5902SOL    HW129339   3.962   2.124   8.577  1.2014 -0.3487  0.8975
 5902SOL    HW229340   3.917   2.162   8.714  0.6622 -0.8592  0.2320
 5903SOL     OW29341   0.894   2.197   0.768 -0.2524 -0.2568 -0.2142
 5903SOL    HW129342   0.957   2.128   0.749  2.6414  2.1118  0.6216
 5903SOL    HW229343   0.872   2.224   0.679 -1.9018  1.1748  0.6188
 5904SOL     OW29344   4.423   2.110   6.848  0.0783  0.9805  0.6859
 5904SOL    HW129345   4.427   2.087   6.940  0.6824 -0.4694  0.2969
 5904SOL    HW229346   4.339   2.155   6.851 -1.5057 -2.0175  1.3390
 5905SOL     OW29347   2.715   4.380   7.771  0.3642  0.0755 -0.0731
 5905SOL    HW129348   2.718   4.290   7.739  1.3670 -0.8204  2.5141
 5905SOL    HW229349   2.807   4.406   7.763  0.3093  0.4292  0.4385
 5906SOL     OW29350   0.073   3.645   8.735  0.6635 -0.4602 -0.4285
 5906SOL    HW129351   0.093   3.551   8.738  3.5401  0.2083  0.3847
 5906SOL    HW229352   0.060   3.663   8.828 -0.6404 -0.9152 -0.5139
 5907SOL     OW29353   1.652   2.356   1.667 -0.1241 -0.3757  0.3495
 5907SOL    HW129354   1.658   2.261   1.676 -1.5632 -0.4610  0.5004
 5907SOL    HW229355   1.569   2.367   1.714  0.8639  2.1214  1.4959
 5908SOL     OW29356   1.852   1.158   6.078  0.1197 -0.1984 -0.0030
 5908SOL    HW129357   1.930   1.130   6.029 -1.2152 -1.1519 -1.5747
 5908SOL    HW229358   1.814   1.219   6.015  1.6492 -0.3777 -1.1077
 5909SOL     OW29359   1.267   2.475   3.339  0.6388  0.4758 -0.0435
 5909SOL    HW129360   1.174   2.453   3.348  0.8250 -0.5350 -0.5719
 5909SOL    HW229361   1.279   2.458   3.245  0.5780 -1.8659  0.3844
 5910SOL     OW29362   2.642   4.698   4.297  0.0223  0.5677  0.5259
 5910SOL    HW129363   2.549   4.720   4.299 -0.2823 -0.6929  0.2853
 5910SOL    HW229364   2.667   4.716   4.207 -0.6342  0.6207  0.3547
 5911SOL     OW29365   3.137   4.043  15.379  0.3848  0.0741 -0.4865
 5911SOL    HW129366   3.228   4.016  15.379  0.3971  0.1219 -0.0252
 5911SOL    HW229367   3.147   4.137  15.392  1.7102 -0.2038  0.4239
 5912SOL     OW29368   0.599   3.293   3.206  0.8698 -0.6748 -0.2632
 5912SOL    HW129369   0.652   3.216   3.226  1.8367 -0.2621 -1.2602
 5912SOL    HW229370   0.528   3.283   3.269  1.4906  0.1949  0.5852
 5913SOL     OW29371   2.882   0.595   0.927 -0.5170 -0.3162  0.1479
 5913SOL    HW129372   2.937   0.517   0.920 -0.8484 -0.4995 -0.4033
 5913SOL    HW229373   2.948   0.655   0.963  0.2009 -2.1749  1.8644
 5914SOL     OW29374   2.590   4.164  17.453 -0.4048 -0.2887  0.1946
 5914SOL    HW129375   2.635   4.207  17.380 -1.5114 -0.4108 -0.5510
 5914SOL    HW229376   2.574   4.078  17.413 -1.3965  2.0372 -4.3922
 5915SOL     OW29377   2.718   3.523   6.612  0.2204 -0.0543  0.2604
 5915SOL    HW129378   2.630   3.534   6.648 -0.5076  2.0030 -2.1102
 5915SOL    HW229379   2.751   3.613   6.615  1.5676 -0.5096 -0.8655
 5916SOL     OW29380   0.765   1.076   7.489 -0.6473  0.3584 -0.1112
 5916SOL    HW129381   0.809   0.999   7.451  1.3909  1.9119 -0.9121
 5916SOL    HW229382   0.698   1.085   7.421 -0.0146 -0.1077 -0.8084
 5917SOL     OW29383   1.945   2.353   7.437 -0.0791  0.3506  0.0960
 5917SOL    HW129384   1.964   2.349   7.343  2.2490 -1.3800  0.6379
 5917SOL    HW229385   1.851   2.366   7.448  0.5696  1.7099  4.0393
 5918SOL     OW29386   3.335   4.351   5.820  0.3000  0.3423  0.1658
 5918SOL    HW129387   3.335   4.364   5.726  1.1644  2.0902  0.4087
 5918SOL    HW229388   3.343   4.442   5.848 -0.7126 -0.2541  2.4726
 5919SOL     OW29389   1.471   3.179   0.361 -0.1320  0.3127 -0.1226
 5919SOL    HW129390   1.377   3.183   0.380  0.2293  2.1565  1.2726
 5919SOL    HW229391   1.486   3.088   0.386 -0.4556  0.1716 -0.4390
 5920SOL     OW29392   1.152   0.901   7.467  0.3586  0.0897  0.3217
 5920SOL    HW129393   1.144   0.981   7.414  0.5448  1.0606  1.7478
 5920SOL    HW229394   1.128   0.828   7.410  0.7113  0.9368 -0.9251
 5921SOL     OW29395   2.572   4.084   7.311  0.2071  0.6900  0.0674
 5921SOL    HW129396   2.562   4.150   7.242 -1.9742  2.6156  2.2148
 5921SOL    HW229397   2.482   4.059   7.331  0.3168 -0.9647 -1.5914
 5922SOL     OW29398   0.865   0.411   5.146  0.3539 -0.6266  0.3235
 5922SOL    HW129399   0.926   0.378   5.212  1.4065 -0.3642 -0.5263
 5922SOL    HW229400   0.817   0.483   5.187 -0.8747 -1.7958  0.9453
 5923SOL     OW29401   4.590   0.358  12.230  0.1590 -0.4094 -0.3207
 5923SOL    HW129402   4.552   0.429  12.282 -2.5487 -1.4727 -0.8094
 5923SOL    HW229403   4.513   0.302  12.220 -0.3016  0.1901 -0.1480
 5924SOL     OW29404   3.405   3.311   8.057  0.0080 -0.1877  0.1960
 5924SOL    HW129405   3.407   3.300   8.152  1.0093  1.5398  0.3794
 5924SOL    HW229406   3.392   3.221   8.029  0.8347  0.2431 -1.5590
 5925SOL     OW29407   0.085   1.475   2.444 -0.6064  0.3900 -0.1282
 5925SOL    HW129408   0.041   1.408   2.392 -0.0664 -1.0774  1.3359
 5925SOL    HW229409   0.114   1.538   2.377  0.4491  1.7112  1.5670
 5926SOL     OW29410   0.786   1.347  12.437  0.0277 -0.1126  0.1759
 5926SOL    HW129411   0.846   1.399  12.490  0.7475  0.3493 -1.1084
 5926SOL    HW229412   0.823   1.336  12.350 -1.4169  1.6084 -0.6679
 5927SOL     OW29413   3.054   1.435   8.361 -0.4563  0.1040 -0.4432
 5927SOL    HW129414   3.027   1.500   8.296  1.5955 -1.2299 -2.6012
 5927SOL    HW229415   2.994   1.361   8.348  1.4984 -1.8828  1.9045
 5928SOL     OW29416   2.815   3.469   9.522  0.0739 -0.2347 -0.2729
 5928SOL    HW129417   2.775   3.503   9.442  2.7487 -0.7639 -1.8518
 5928SOL    HW229418   2.770   3.533   9.577  0.5586 -0.2951  0.1980
 5929SOL     OW29419   1.012   1.508   7.122  0.2031  0.0161  0.2484
 5929SOL    HW129420   0.975   1.446   7.184  0.4009 -0.3904 -0.0391
 5929SOL    HW229421   0.954   1.583   7.109 -1.4733 -1.7609 -2.6328
 5930SOL     OW29422   2.154   1.435   6.233  0.3839 -0.3361  0.3032
 5930SOL    HW129423   2.132   1.503   6.169  0.5081 -1.0382 -0.4739
 5930SOL    HW229424   2.192   1.493   6.299  0.2264  2.4010 -2.0316
 5931SOL     OW29425   2.291   0.958  13.061  0.2756 -0.9527  0.1996
 5931SOL    HW129426   2.231   0.935  12.990  1.8861  0.6548 -1.6984
 5931SOL    HW229427   2.374   0.981  13.018 -1.5426 -1.6880 -3.6757
 5932SOL     OW29428   0.443   0.206   2.056 -0.2344  0.0416 -0.4932
 5932SOL    HW129429   0.465   0.288   2.099 -0.0335  0.2658 -1.0245
 5932SOL    HW229430   0.514   0.148   2.086  0.6633  1.0945 -0.5929
 5933SOL     OW29431   2.655   1.729   2.584 -0.1566 -0.2001  0.2692
 5933SOL    HW129432   2.695   1.716   2.670 -0.2410  0.4476  0.4062
 5933SOL    HW229433   2.638   1.823   2.596  1.8538  0.0439  1.1387
 5934SOL     OW29434   0.044   3.327   2.481  0.8539  0.0313 -0.0085
 5934SOL    HW129435   4.724   3.365   2.547 -1.3089 -0.6166 -1.5137
 5934SOL    HW229436   0.092   3.405   2.454  1.4659 -1.0324 -2.0036
 5935SOL     OW29437   3.404   3.546   7.945 -0.3543 -0.2660 -0.6463
 5935SOL    HW129438   3.411   3.453   7.967  1.7371 -0.4971 -2.3427
 5935SOL    HW229439   3.314   3.557   7.975  0.0675  1.7683 -0.1266
 5936SOL     OW29440   3.660   2.304   2.445 -0.2324  0.1637  1.1396
 5936SOL    HW129441   3.586   2.254   2.481 -1.8200  3.0082  1.8224
 5936SOL    HW229442   3.616   2.378   2.403 -1.9212 -2.0413 -0.9610
 5937SOL     OW29443   2.831   1.283  15.743  0.0394 -0.4586 -0.2679
 5937SOL    HW129444   2.794   1.304  15.657 -1.7731 -2.4563  0.0207
 5937SOL    HW229445   2.923   1.270  15.718 -0.2675 -2.8241 -0.1817
 5938SOL     OW29446   1.791   3.588   3.734 -0.2929  0.0966 -0.3715
 5938SOL    HW129447   1.765   3.669   3.689 -0.0290  0.2324 -0.2793
 5938SOL    HW229448   1.839   3.546   3.663 -0.4309 -0.7201  0.0265
 5939SOL     OW29449   2.103   0.854   5.726  0.5649  0.0251  0.4961
 5939SOL    HW129450   2.167   0.792   5.690 -1.4017 -0.7817 -1.6334
 5939SOL    HW229451   2.078   0.816   5.810 -2.7347  0.7044 -0.2044
 5940SOL     OW29452   3.372   0.536  13.761  0.2494  0.3464 -0.2404
 5940SOL    HW129453   3.382   0.603  13.829 -0.4070 -1.1478  1.3119
 5940SOL    HW229454   3.279   0.515  13.771  0.3703  0.3298  0.7578
 5941SOL     OW29455   2.275   1.378   0.620  0.2297 -0.6308 -0.7555
 5941SOL    HW129456   2.325   1.334   0.551 -0.5934  0.1384 -1.8352
 5941SOL    HW229457   2.353   1.408   0.666 -0.9403  1.3758 -0.1075
 5942SOL     OW29458   4.404   1.022   9.508  0.3814 -0.2120  0.2466
 5942SOL    HW129459   4.477   0.997   9.452 -0.4880  0.4271 -1.1967
 5942SOL    HW229460   4.372   0.934   9.529  0.7759 -0.9476 -2.2344
 5943SOL     OW29461   0.954   0.693  14.711 -0.4709  0.1275  0.6478
 5943SOL    HW129462   0.864   0.690  14.741 -0.8438  2.9636 -0.1268
 5943SOL    HW229463   0.999   0.621  14.754 -1.8728  0.7953  3.2072
 5944SOL     OW29464   1.598   1.127  16.373  0.0426  0.1346  0.0770
 5944SOL    HW129465   1.651   1.202  16.398  1.2165 -0.6428 -0.0498
 5944SOL    HW229466   1.536   1.117  16.445  0.1919  2.2324  0.4740
 5945SOL     OW29467   0.702   3.810   8.659  0.3159  0.5345  0.2294
 5945SOL    HW129468   0.628   3.871   8.657 -2.0030 -2.3356 -1.2982
 5945SOL    HW229469   0.699   3.779   8.569  1.9198 -1.2023  0.7713
 5946SOL     OW29470   2.022   0.966   8.711 -0.8779 -0.4791  0.0981
 5946SOL    HW129471   2.109   0.939   8.680 -1.9968 -1.8775 -1.8498
 5946SOL    HW229472   2.038   0.979   8.804 -1.7003 -0.8324  0.2789
 5947SOL     OW29473   4.393   4.154  14.411  0.4677  0.1983  0.4422
 5947SOL    HW129474   4.365   4.065  14.432  1.9870 -0.4900 -0.4404
 5947SOL    HW229475   4.416   4.188  14.498  0.1504  0.1183  0.5582
 5948SOL     OW29476   3.395   2.571   8.916 -0.2694 -0.2937  0.4298
 5948SOL    HW129477   3.449   2.630   8.862  0.8907  0.1597  2.0875
 5948SOL    HW229478   3.453   2.561   8.991  1.1216  0.0645 -0.5859
 5949SOL     OW29479   1.268   4.144   4.874 -0.4830  0.0029  0.3916
 5949SOL    HW129480   1.218   4.063   4.866  1.0086 -0.8929  0.1567
 5949SOL    HW229481   1.335   4.140   4.806 -1.0199  0.3492 -0.1656
 5950SOL     OW29482   2.898   2.114   3.096 -0.0436 -0.0241  0.1582
 5950SOL    HW129483   2.943   2.123   3.012 -1.7166 -0.9663 -0.8322
 5950SOL    HW229484   2.866   2.024   3.089 -0.1622 -0.0091  0.5063
 5951SOL     OW29485   3.373   1.968   1.503 -0.0323 -0.3550 -0.2154
 5951SOL    HW129486   3.324   2.050   1.505  1.2712  0.3526  2.1437
 5951SOL    HW229487   3.340   1.940   1.418 -1.4309 -3.4184  1.3415
 5952SOL     OW29488   4.653   2.921   3.530  0.7663 -0.1578 -0.1668
 5952SOL    HW129489   4.712   2.848   3.514  1.6198  0.5067 -0.0883
 5952SOL    HW229490   4.682   2.938   3.620  0.9215 -1.7782  0.0881
 5953SOL     OW29491   3.183   0.809  13.745  0.1085  0.1536 -0.3445
 5953SOL    HW129492   3.219   0.767  13.667 -2.3818 -0.2254 -1.3021
 5953SOL    HW229493   3.213   0.899  13.730 -0.4072  0.5797  1.1107
 5954SOL     OW29494   1.747   3.893   2.138 -0.4796  0.1257 -0.1060
 5954SOL    HW129495   1.804   3.953   2.186 -0.3985 -1.2994  1.5624
 5954SOL    HW229496   1.677   3.893   2.203 -1.0097  0.5261 -0.6725
 5955SOL     OW29497   2.908   4.552   2.125  0.1441 -0.2151 -0.5866
 5955SOL    HW129498   2.893   4.471   2.076 -0.5658 -0.9369  0.8249
 5955SOL    HW229499   2.816   4.580   2.126  0.0797 -0.3874 -1.6391
 5956SOL     OW29500   0.881   4.269   2.541  0.2223 -0.0846  0.4990
 5956SOL    HW129501   0.937   4.213   2.596  3.5993  0.0964 -2.7544
 5956SOL    HW229502   0.947   4.328   2.505  0.2472 -0.5013 -0.1405
 5957SOL     OW29503   2.067   3.954   9.885  0.6643  0.0487 -0.2197
 5957SOL    HW129504   2.128   3.881   9.877 -0.9303 -1.4319  1.1410
 5957SOL    HW229505   2.118   4.022   9.929  2.0676 -1.1168 -0.0588
 5958SOL     OW29506   4.464   2.137   7.978  0.4805 -0.4029 -0.0156
 5958SOL    HW129507   4.467   2.126   8.073  1.8888 -1.4869 -0.1898
 5958SOL    HW229508   4.372   2.161   7.967  0.9517  1.2795 -0.1891
 5959SOL     OW29509   0.533   0.462  16.849 -0.0169 -0.0381 -0.2488
 5959SOL    HW129510   0.591   0.411  16.792  1.4957  0.2125  1.0645
 5959SOL    HW229511   0.454   0.458  16.795 -0.3459  0.0278  0.2346
 5960SOL     OW29512   1.253   3.820   9.282 -0.1585 -0.0967 -0.5686
 5960SOL    HW129513   1.200   3.777   9.349  0.2461 -0.3061 -0.3818
 5960SOL    HW229514   1.188   3.805   9.213  0.6366 -3.3684 -0.6162
 5961SOL     OW29515   0.373   1.242  12.107 -0.2962  0.2096 -0.0051
 5961SOL    HW129516   0.441   1.249  12.040  0.0751 -0.4647  0.2998
 5961SOL    HW229517   0.322   1.177  12.059 -0.5572  1.3101 -1.2214
 5962SOL     OW29518   1.146   0.993   7.721 -0.6291  0.2925  0.3917
 5962SOL    HW129519   1.135   0.935   7.646  2.0214  1.8458 -1.1848
 5962SOL    HW229520   1.199   1.062   7.682 -2.4500  0.9853 -0.8255
 5963SOL     OW29521   2.232   0.080   6.305 -0.2700  0.0115  0.3151
 5963SOL    HW129522   2.146   0.121   6.309 -0.2345  0.2972 -1.7528
 5963SOL    HW229523   2.219   0.001   6.254 -1.6694 -0.7045  1.7903
 5964SOL     OW29524   3.534   1.962  16.962 -0.3697 -0.0168 -0.0669
 5964SOL    HW129525   3.606   1.992  16.906  0.7831 -1.0942  0.8065
 5964SOL    HW229526   3.585   1.915  17.029  0.9479  1.3794 -0.0870
 5965SOL     OW29527   0.423   3.452  15.574 -0.4113  0.0214 -0.4001
 5965SOL    HW129528   0.475   3.383  15.533 -1.0792  0.2431 -1.6127
 5965SOL    HW229529   0.498   3.499  15.610 -0.4281  0.0450 -0.3961
 5966SOL     OW29530   2.271   3.803   3.647 -0.1670 -0.4331  0.3167
 5966SOL    HW129531   2.286   3.764   3.561  1.1050  1.4574 -0.3184
 5966SOL    HW229532   2.283   3.724   3.699  0.8899 -1.1255 -0.9954
 5967SOL     OW29533   0.468   2.592   9.489  0.6387  0.1050 -0.0218
 5967SOL    HW129534   0.498   2.545   9.412 -0.1665  0.3922 -0.5118
 5967SOL    HW229535   0.489   2.528   9.557  0.5297  1.0320  0.8874
 5968SOL     OW29536   0.288   4.425   9.663  0.2327  0.2240 -0.1730
 5968SOL    HW129537   0.239   4.343   9.656 -0.2629  0.4684  0.4582
 5968SOL    HW229538   0.378   4.396   9.644 -0.2241 -0.8638 -0.6860
 5969SOL     OW29539   3.701   3.430  12.716 -0.2719  0.0757 -0.2132
 5969SOL    HW129540   3.657   3.478  12.786  0.1003 -2.0215  1.4727
 5969SOL    HW229541   3.749   3.498  12.671 -0.2266  0.0789 -0.1604
 5970SOL     OW29542   2.117   2.823   7.214 -0.2840  0.3333  0.2071
 5970SOL    HW129543   2.187   2.882   7.190  0.9118 -0.8470  0.7739
 5970SOL    HW229544   2.065   2.864   7.284  2.2468  0.6185  1.9031
 5971SOL     OW29545   1.286   0.679   4.125 -0.0926 -0.3168  0.5345
 5971SOL    HW129546   1.293   0.750   4.188  0.0330  1.0958 -1.0983
 5971SOL    HW229547   1.365   0.696   4.074 -0.9589 -3.0551 -1.7399
 5972SOL     OW29548   2.338   2.640   9.221  0.5948 -0.0731  0.5317
 5972SOL    HW129549   2.314   2.678   9.306 -1.9777 -0.9699  0.1970
 5972SOL    HW229550   2.277   2.566   9.227 -0.4961  0.6487 -1.4802
 5973SOL     OW29551   2.367   3.603   1.029  0.0862 -0.1926 -0.2330
 5973SOL    HW129552   2.434   3.638   0.971 -0.9689 -0.0341 -1.3576
 5973SOL    HW229553   2.326   3.546   0.963 -0.8874  0.9648 -0.6250
 5974SOL     OW29554   3.682   1.925   9.999 -0.5627  0.7841  0.0433
 5974SOL    HW129555   3.619   1.884  10.058 -0.2053  0.5443  0.2609
 5974SOL    HW229556   3.758   1.875  10.031 -1.8756 -1.5943 -0.5345
 5975SOL     OW29557   2.154   2.118   1.504 -0.0596  0.2046 -0.0808
 5975SOL    HW129558   2.137   2.125   1.411 -0.7203 -1.0226 -0.0479
 5975SOL    HW229559   2.250   2.114   1.510 -0.0062  0.2530 -1.0110
 5976SOL     OW29560   2.107   0.549   5.201 -0.4697 -0.3120 -0.4305
 5976SOL    HW129561   2.109   0.480   5.267 -1.5662  0.7083  0.6875
 5976SOL    HW229562   2.015   0.552   5.176 -0.6915 -1.0249  0.3019
 5977SOL     OW29563   2.632   1.803   6.268  0.1379 -0.4114 -0.2778
 5977SOL    HW129564   2.596   1.891   6.275  0.8862 -0.1566  0.4172
 5977SOL    HW229565   2.617   1.771   6.357 -3.0202  1.4165 -0.1641
 5978SOL     OW29566   4.066   1.862   4.407 -0.5468 -0.0167  0.0535
 5978SOL    HW129567   4.018   1.805   4.467 -1.6909  1.4094  0.4779
 5978SOL    HW229568   3.995   1.890   4.350  0.1365  0.3624 -0.6185
 5979SOL     OW29569   1.880   0.260   2.626 -0.2882 -0.2093 -0.3953
 5979SOL    HW129570   1.965   0.223   2.647  1.1355  3.1947 -0.1893
 5979SOL    HW229571   1.847   0.281   2.714  0.8352  1.0859 -0.2861
 5980SOL     OW29572   3.745   1.605   5.913  0.3424  0.3883 -0.4095
 5980SOL    HW129573   3.667   1.554   5.891 -0.9530  1.7948  0.8490
 5980SOL    HW229574   3.721   1.687   5.868 -0.2050  0.0267 -0.7745
 5981SOL     OW29575   3.387   2.371  17.729  0.7067 -0.6351 -0.6979
 5981SOL    HW129576   3.298   2.337  17.721  0.1063  0.6267  0.6818
 5981SOL    HW229577   3.383   2.422   0.061 -1.6581 -1.3173 -0.3766
 5982SOL     OW29578   4.029   2.934  15.940 -0.1396 -0.1050  0.3238
 5982SOL    HW129579   3.948   2.895  15.906  0.4941 -1.8315  0.8030
 5982SOL    HW229580   4.032   2.922  16.035  1.3120  0.4253  0.3431
 5983SOL     OW29581   0.140   0.859  13.766  0.0991  0.2036  0.1775
 5983SOL    HW129582   0.152   0.814  13.850  0.0804 -1.1394 -0.5451
 5983SOL    HW229583   0.165   0.950  13.782 -1.5075  0.4906  1.0945
 5984SOL     OW29584   3.505   3.794  16.889  0.1131  0.0244  0.3302
 5984SOL    HW129585   3.496   3.782  16.794  2.0110  2.9283 -0.2021
 5984SOL    HW229586   3.600   3.796  16.898  0.1235 -0.6438  0.4218
 5985SOL     OW29587   2.415   4.447   3.786 -0.1831  0.8570  0.3922
 5985SOL    HW129588   2.471   4.418   3.858  1.3083  0.4517 -0.9443
 5985SOL    HW229589   2.354   4.505   3.832 -0.7482  0.5473  0.0352
 5986SOL     OW29590   4.173   1.438   7.563  0.7265  0.4132 -0.4940
 5986SOL    HW129591   4.262   1.409   7.580  0.5380  1.9998  3.2481
 5986SOL    HW229592   4.164   1.508   7.629  1.5762  1.2856 -1.3004
 5987SOL     OW29593   0.495   4.089   6.345  0.0552  0.0557 -0.2887
 5987SOL    HW129594   0.545   4.108   6.424 -1.4366  0.6306  0.5154
 5987SOL    HW229595   0.492   3.993   6.346 -1.7961  0.0989 -0.6280
 5988SOL     OW29596   4.645   4.212   5.806 -0.2516 -0.3211 -0.3928
 5988SOL    HW129597   4.607   4.252   5.884  0.6230 -0.6604  0.1971
 5988SOL    HW229598   4.736   4.239   5.812  0.3230 -1.7402 -2.5178
 5989SOL     OW29599   2.519   0.582   3.008  0.7038  0.4283  0.0436
 5989SOL    HW129600   2.439   0.604   3.054  2.1287  1.3716  2.0453
 5989SOL    HW229601   2.583   0.631   3.059 -0.0715 -0.5145  1.9312
 5990SOL     OW29602   4.726   1.805   8.669 -0.4095  0.5985 -1.1951
 5990SOL    HW129603   4.659   1.868   8.697  0.8421  1.4965 -0.2082
 5990SOL    HW229604   0.065   1.853   8.700 -0.5989 -1.3503  2.2196
 5991SOL     OW29605   0.788   2.764   2.237  0.0024  0.3440  0.4911
 5991SOL    HW129606   0.826   2.764   2.325 -1.6422  1.5866  1.2065
 5991SOL    HW229607   0.789   2.671   2.216 -0.5877  0.6275 -0.7832
 5992SOL     OW29608   2.406   3.072  16.288  0.0292 -0.0909 -0.2620
 5992SOL    HW129609   2.486   3.023  16.306  1.0320  0.8159 -2.1958
 5992SOL    HW229610   2.338   3.006  16.272  1.8079 -1.3818 -2.4819
 5993SOL     OW29611   0.255   0.496   3.635  0.3971  0.8888  0.4796
 5993SOL    HW129612   0.318   0.479   3.565 -0.4595  1.0104 -0.3207
 5993SOL    HW229613   0.264   0.417   3.688  1.0706  0.3676 -0.4217
 5994SOL     OW29614   1.739   3.884   2.654  0.0969  0.0732  0.1023
 5994SOL    HW129615   1.705   3.870   2.742  2.8904  1.5893  1.4277
 5994SOL    HW229616   1.678   3.948   2.619 -1.9595 -0.8271  2.0835
 5995SOL     OW29617   2.657   0.586   0.452 -0.5082  0.5409 -0.1137
 5995SOL    HW129618   2.710   0.547   0.522 -0.2469  1.3222  0.1237
 5995SOL    HW229619   2.716   0.588   0.377  0.6508  0.0901  0.7812
 5996SOL     OW29620   3.613   2.618   4.177 -0.0945 -0.4110  0.3023
 5996SOL    HW129621   3.602   2.713   4.176  1.4792 -0.2491 -2.1769
 5996SOL    HW229622   3.565   2.591   4.255 -0.5533 -2.3697 -0.6718
 5997SOL     OW29623   3.235   4.509   5.493 -0.1113 -0.4977  0.3872
 5997SOL    HW129624   3.284   4.438   5.451 -0.5465  0.1806 -1.2715
 5997SOL    HW229625   3.308   4.545   5.543 -0.4205  0.4741  0.1549
 5998SOL     OW29626   1.980   2.625   9.682  0.9960  0.3874 -0.2278
 5998SOL    HW129627   1.965   2.678   9.604 -1.6867  0.7346  0.5049
 5998SOL    HW229628   1.942   2.543   9.649 -0.6203  1.1740 -0.3472
 5999SOL     OW29629   0.878   3.369   6.311  0.4394  0.4996 -0.1107
 5999SOL    HW129630   0.921   3.446   6.275  1.1694  1.3949  2.6636
 5999SOL    HW229631   0.786   3.374   6.285  1.0199  1.2721 -1.9858
 6000SOL     OW29632   1.107   3.285   9.244  0.1965  0.3765  0.1627
 6000SOL    HW129633   1.119   3.209   9.186  2.1064  1.3822 -0.7645
 6000SOL    HW229634   1.019   3.277   9.280 -0.0263  0.5548 -0.3542
 6001SOL     OW29635   4.413   4.380   2.801 -0.0509 -0.2079  0.1417
 6001SOL    HW129636   4.421   4.409   2.892 -0.9367  2.6666 -0.7038
 6001SOL    HW229637   4.371   4.456   2.762  1.3107  0.5738  0.1809
 6002SOL     OW29638   3.951   2.108   3.513 -0.2778  0.0398 -0.2246
 6002SOL    HW129639   3.910   2.101   3.599 -0.7281  1.6555 -0.3069
 6002SOL    HW229640   3.891   2.051   3.465 -1.5571 -0.7156  2.2405
 6003SOL     OW29641   2.462   3.564   6.704 -0.2358  0.4358 -0.5142
 6003SOL    HW129642   2.393   3.515   6.659 -1.8305  1.6757  0.6307
 6003SOL    HW229643   2.409   3.591   6.778 -0.2904  0.0475 -0.4098
 6004SOL     OW29644   3.926   0.367   8.507 -0.4521 -0.0325  0.4686
 6004SOL    HW129645   3.900   0.456   8.533  0.6606  0.0451  1.3294
 6004SOL    HW229646   3.852   0.318   8.544  0.6584 -0.9481  1.4576
 6005SOL     OW29647   3.770   2.158   8.366  0.5349  0.0616 -0.1724
 6005SOL    HW129648   3.751   2.187   8.455 -0.7094 -0.0502 -0.4077
 6005SOL    HW229649   3.856   2.117   8.377  1.1765  1.4482 -0.0012
 6006SOL     OW29650   3.181   2.989  10.166  0.0533 -0.0170  0.0441
 6006SOL    HW129651   3.204   2.914  10.221  1.2279 -0.7349 -1.4393
 6006SOL    HW229652   3.090   2.970  10.144 -0.2105  1.9416 -0.6138
 6007SOL     OW29653   2.110   0.827  12.606  0.1657 -0.3151 -0.3675
 6007SOL    HW129654   2.174   0.779  12.555  0.5842  1.6773 -1.7031
 6007SOL    HW229655   2.055   0.850  12.531  1.2108  0.1213 -0.9883
 6008SOL     OW29656   4.106   3.997   3.008 -0.7094 -1.0076  0.6748
 6008SOL    HW129657   4.046   3.933   3.047 -2.4446 -0.3448 -0.9202
 6008SOL    HW229658   4.170   4.016   3.077 -1.9984  2.3999  0.9415
 6009SOL     OW29659   3.467   4.020  13.337  0.4837 -0.2775  0.1950
 6009SOL    HW129660   3.507   4.101  13.304 -0.1969  0.1876  0.5071
 6009SOL    HW229661   3.384   4.027  13.290 -0.4938 -2.2092  1.6260
 6010SOL     OW29662   3.807   2.196   5.078 -0.2856 -0.1951 -0.1160
 6010SOL    HW129663   3.865   2.157   5.144 -1.2339  0.4509  1.0969
 6010SOL    HW229664   3.827   2.151   4.996 -2.7874 -0.0075 -0.8267
 6011SOL     OW29665   1.814   1.600  12.304  0.3435  0.2947 -0.4015
 6011SOL    HW129666   1.803   1.527  12.243  1.9968 -1.8791  1.8864
 6011SOL    HW229667   1.834   1.561  12.390  1.6217 -0.6169 -1.0969
 6012SOL     OW29668   3.828   4.471   8.235 -0.2985  0.6623 -0.0190
 6012SOL    HW129669   3.770   4.408   8.278 -2.2759  1.5215 -1.4345
 6012SOL    HW229670   3.913   4.441   8.267  0.0775 -0.9387 -2.5432
 6013SOL     OW29671   4.077   1.053  10.868 -0.7687  0.2162 -0.0481
 6013SOL    HW129672   4.118   1.025  10.786 -2.5540 -0.9778 -0.5268
 6013SOL    HW229673   3.993   1.010  10.855 -1.0049  0.9552 -0.9699
 6014SOL     OW29674   1.663   1.991   0.787 -0.3532 -0.3680  0.0255
 6014SOL    HW129675   1.720   2.065   0.807  0.4290 -1.7972  3.0623
 6014SOL    HW229676   1.643   2.008   0.695 -1.5611  1.7928  0.6929
 6015SOL     OW29677   2.544   3.881  11.957 -0.0335  0.0464  0.0696
 6015SOL    HW129678   2.473   3.889  11.894 -2.3856  1.1835  2.8587
 6015SOL    HW229679   2.540   3.962  12.009  1.2857 -0.0497  0.3368
 6016SOL     OW29680   3.716   0.549   0.513 -1.0632 -0.0962  0.2610
 6016SOL    HW129681   3.763   0.580   0.591 -0.5253 -2.1744  0.7703
 6016SOL    HW229682   3.763   0.589   0.440  0.5303 -0.9792  0.8084
 6017SOL     OW29683   3.639   1.034  14.178 -0.3239 -0.1064  0.2957
 6017SOL    HW129684   3.545   1.037  14.163 -0.5744 -0.7536  1.7602
 6017SOL    HW229685   3.655   1.127  14.193 -1.8822  0.1356  0.4206
 6018SOL     OW29686   1.227   3.662   0.355 -0.4914  0.4858 -0.1711
 6018SOL    HW129687   1.167   3.590   0.335 -0.6222  0.5899 -0.1586
 6018SOL    HW229688   1.272   3.667   0.271  2.1947 -0.7342  1.1908
 6019SOL     OW29689   0.701   1.980   7.831  0.3803 -0.0509 -0.2212
 6019SOL    HW129690   0.738   2.031   7.904  3.4109  2.1523 -3.3010
 6019SOL    HW229691   0.635   1.943   7.890 -0.4137  1.8987  0.1422
 6020SOL     OW29692   4.151   3.707   4.738  0.1763  0.0323  0.2245
 6020SOL    HW129693   4.205   3.778   4.773  0.6386 -0.9646  1.5236
 6020SOL    HW229694   4.111   3.672   4.818  0.9901  1.8773  1.4273
 6021SOL     OW29695   3.994   3.654   7.438 -0.2134 -0.1832 -0.8690
 6021SOL    HW129696   4.001   3.624   7.348  0.2933  0.4360 -1.0282
 6021SOL    HW229697   3.959   3.571   7.473 -3.1097  0.8573 -1.2815
 6022SOL     OW29698   2.320   2.643   5.987 -0.0633  0.3713  0.0079
 6022SOL    HW129699   2.392   2.602   6.036  1.0728 -0.0166 -1.9769
 6022SOL    HW229700   2.300   2.710   6.052  0.2600  0.0321  0.4582
 6023SOL     OW29701   0.015   1.898  11.470  0.4418  0.4651 -0.4232
 6023SOL    HW129702   4.697   1.975  11.481  0.9052  1.1544 -2.7856
 6023SOL    HW229703   0.078   1.931  11.406  0.5541  0.8290 -0.1239
 6024SOL     OW29704   2.054   3.018   2.855 -0.7450 -0.0419 -1.0094
 6024SOL    HW129705   2.044   3.095   2.910  1.1541 -0.2291 -0.3983
 6024SOL    HW229706   1.962   2.995   2.840 -0.5390 -0.5812 -1.4522
 6025SOL     OW29707   3.297   1.554   8.271 -0.6489 -0.5036 -0.2972
 6025SOL    HW129708   3.233   1.492   8.306 -1.1642  0.2434  0.0932
 6025SOL    HW229709   3.311   1.602   8.352 -1.0919  0.4500 -0.7738
 6026SOL     OW29710   1.153   1.724   1.773  0.0562 -0.0766 -0.4148
 6026SOL    HW129711   1.137   1.764   1.859 -0.2950 -0.2734 -0.3881
 6026SOL    HW229712   1.121   1.636   1.790 -0.3642  0.3383  0.9381
 6027SOL     OW29713   2.955   0.020   3.938  0.1131  0.0759 -0.2313
 6027SOL    HW129714   2.928   4.707   3.862  0.4776 -0.6734  0.1337
 6027SOL    HW229715   2.986   0.103   3.903 -0.3019  0.8768  1.3065
 6028SOL     OW29716   4.107   2.964  13.244 -0.3579 -0.1353  0.5823
 6028SOL    HW129717   4.047   2.890  13.236 -0.1390 -0.2048 -0.4059
 6028SOL    HW229718   4.093   3.008  13.160 -0.5903  0.1786  0.7867
 6029SOL     OW29719   4.105   0.506   9.310 -0.4674 -0.3375  0.0341
 6029SOL    HW129720   4.078   0.559   9.386  2.5769  0.9567  0.2268
 6029SOL    HW229721   4.112   0.572   9.242 -1.2326 -0.2372  0.0504
 6030SOL     OW29722   0.668   1.609  15.154 -0.1016 -0.6082  0.5491
 6030SOL    HW129723   0.742   1.668  15.140 -0.0526 -0.7961  0.0055
 6030SOL    HW229724   0.586   1.658  15.144  1.9795  2.6389 -0.4820
 6031SOL     OW29725   1.313   3.098   8.165  0.6740 -0.3316 -0.2265
 6031SOL    HW129726   1.331   3.187   8.133  2.0479 -0.8882 -0.9973
 6031SOL    HW229727   1.351   3.052   8.091 -1.3834 -0.1848 -1.3965
 6032SOL     OW29728   3.600   2.607   9.111 -0.2136 -0.5564 -0.4365
 6032SOL    HW129729   3.550   2.649   9.181 -1.0734 -1.4001 -0.5468
 6032SOL    HW229730   3.624   2.684   9.059  2.2688  0.0262  1.6178
 6033SOL     OW29731   3.595   2.373   1.962 -0.6867  0.2981 -0.4757
 6033SOL    HW129732   3.687   2.347   1.973 -1.2781 -1.3560  0.5061
 6033SOL    HW229733   3.590   2.351   1.869  1.1091 -1.1283 -0.2438
 6034SOL     OW29734   2.745   3.973  13.562  0.2697 -0.4612 -0.6952
 6034SOL    HW129735   2.711   4.059  13.537  2.9457  0.4871 -1.0634
 6034SOL    HW229736   2.673   3.913  13.544 -0.6213  0.6651 -0.8952
 6035SOL     OW29737   3.101   1.007   2.001  0.3685 -0.2520  0.8505
 6035SOL    HW129738   3.035   0.956   2.047 -0.5641 -1.1777 -1.5202
 6035SOL    HW229739   3.183   0.999   2.050  1.9948 -0.0661 -1.7982
 6036SOL     OW29740   4.415   2.846  16.585 -0.8741 -0.3053 -0.1860
 6036SOL    HW129741   4.470   2.832  16.508  0.3724 -0.0588  0.6595
 6036SOL    HW229742   4.366   2.923  16.556 -1.3665 -1.0762 -1.3858
 6037SOL     OW29743   0.666   3.220   1.264  0.0804  0.0472  0.0186
 6037SOL    HW129744   0.625   3.297   1.303 -1.5479 -0.8459  0.1013
 6037SOL    HW229745   0.752   3.261   1.254 -0.9204  1.9626 -0.7900
 6038SOL     OW29746   0.579   1.448   7.153  0.0933 -0.1801  0.6181
 6038SOL    HW129747   0.558   1.390   7.080  1.8144  1.0566 -0.8553
 6038SOL    HW229748   0.644   1.391   7.195 -1.1867 -1.8968  0.2834
 6039SOL     OW29749   1.285   1.264   6.858  0.8563 -0.5319  0.4349
 6039SOL    HW129750   1.229   1.303   6.791  2.1585  2.3831  1.0622
 6039SOL    HW229751   1.369   1.256   6.811  0.6595  1.0945 -0.1665
 6040SOL     OW29752   4.266   1.644   9.438  0.3766 -0.3426 -0.3109
 6040SOL    HW129753   4.314   1.615   9.515 -0.6497  1.5400  1.0685
 6040SOL    HW229754   4.326   1.712   9.407  0.0442  1.3861  2.7995
 6041SOL     OW29755   0.700   0.615   1.297 -0.0054  0.3221 -0.3044
 6041SOL    HW129756   0.734   0.702   1.277  1.5022 -0.3236 -0.5581
 6041SOL    HW229757   0.689   0.624   1.391 -2.3838 -0.2507 -0.5345
 6042SOL     OW29758   4.152   1.295   9.082 -0.7772  1.1571  0.2593
 6042SOL    HW129759   4.165   1.297   8.987 -1.7186 -1.5381  0.0790
 6042SOL    HW229760   4.232   1.248   9.108 -0.0529  2.0835 -0.3079
 6043SOL     OW29761   1.658   2.711   4.912  0.3812  0.4282  0.6390
 6043SOL    HW129762   1.607   2.734   4.834  0.8303 -1.4298 -0.2041
 6043SOL    HW229763   1.588   2.720   4.977 -1.8171  0.9345 -1.8140
 6044SOL     OW29764   1.090   0.558   6.215 -0.1745  0.0082  0.1234
 6044SOL    HW129765   1.165   0.499   6.221 -0.6877 -0.7974 -1.6601
 6044SOL    HW229766   1.116   0.613   6.141 -0.9381  0.2369  0.0256
 6045SOL     OW29767   1.112   1.842  12.908  0.7182 -0.3178 -0.4403
 6045SOL    HW129768   1.189   1.899  12.904 -0.5029  1.4577  0.7300
 6045SOL    HW229769   1.093   1.845  13.002  1.7792 -0.2528 -0.2282
 6046SOL     OW29770   0.810   3.884   7.189 -0.2209  0.1542 -1.3588
 6046SOL    HW129771   0.867   3.939   7.243  1.6735 -2.2479 -0.9493
 6046SOL    HW229772   0.870   3.823   7.147 -1.4830 -1.3527 -0.9682
 6047SOL     OW29773   1.862   2.032   9.436 -0.2860 -0.2998  0.0226
 6047SOL    HW129774   1.769   2.009   9.427 -0.0621 -2.2324  2.7822
 6047SOL    HW229775   1.859   2.022   9.531  0.5387 -1.9638 -0.1291
 6048SOL     OW29776   2.140   0.777   4.566 -0.7176  0.4099  0.8812
 6048SOL    HW129777   2.218   0.830   4.584 -0.6975  1.0343 -1.0376
 6048SOL    HW229778   2.068   0.841   4.565  0.9457  2.2661 -0.1470
 6049SOL     OW29779   1.401   3.155  12.310 -0.3838  0.0068 -0.6682
 6049SOL    HW129780   1.363   3.074  12.277 -0.3354 -0.3670  0.1885
 6049SOL    HW229781   1.411   3.127  12.401  1.1347  2.4555 -0.0722
 6050SOL     OW29782   3.677   2.262   4.421  0.3115  0.4630  0.7020
 6050SOL    HW129783   3.610   2.227   4.480 -0.4080 -0.4529 -0.6377
 6050SOL    HW229784   3.741   2.192   4.408 -1.2985 -0.7721 -0.5859
 6051SOL     OW29785   1.797   0.333   9.013 -0.0680 -0.0458 -0.0053
 6051SOL    HW129786   1.880   0.294   9.041  0.4422  1.4690  0.5533
 6051SOL    HW229787   1.741   0.305   9.085  1.0694 -1.2430  0.4242
 6052SOL     OW29788   0.234   0.755   6.506 -0.0172 -0.4381 -0.3643
 6052SOL    HW129789   0.138   0.758   6.501  0.0903 -0.9831 -2.6278
 6052SOL    HW229790   0.247   0.672   6.460 -0.2897 -0.6155 -0.1238
 6053SOL     OW29791   2.874   2.573   7.795 -0.0542  0.1943  0.5916
 6053SOL    HW129792   2.906   2.521   7.869  0.8484  1.8506  1.3638
 6053SOL    HW229793   2.947   2.563   7.733 -0.6714  2.6663 -0.5430
 6054SOL     OW29794   3.145   0.411   7.463  0.5122 -0.0513  0.1073
 6054SOL    HW129795   3.160   0.452   7.378 -0.6864 -3.6243 -1.8471
 6054SOL    HW229796   3.087   0.475   7.503  0.5253 -0.4824  0.8135
 6055SOL     OW29797   2.543   3.618   7.742 -1.0662  0.2084  0.3061
 6055SOL    HW129798   2.462   3.654   7.707 -0.5496 -2.0580 -3.2251
 6055SOL    HW229799   2.551   3.667   7.824 -0.5205  1.2533 -0.3775
 6056SOL     OW29800   1.661   2.629   7.326 -0.0475 -0.6574  0.3006
 6056SOL    HW129801   1.712   2.668   7.254  0.6732 -1.1089  0.5722
 6056SOL    HW229802   1.641   2.712   7.370  0.5813 -0.2652 -0.1343
 6057SOL     OW29803   1.846   4.219  17.744  0.2845  0.2397 -0.6219
 6057SOL    HW129804   1.913   4.150  17.738  2.7978  2.7822 -2.1061
 6057SOL    HW229805   1.842   4.225   0.090  2.3987  0.6890 -0.5476
 6058SOL     OW29806   2.471   2.831   7.428 -0.1413  0.2292 -0.2262
 6058SOL    HW129807   2.450   2.920   7.401 -0.1449 -0.2037 -1.6203
 6058SOL    HW229808   2.567   2.836   7.434  0.0007 -1.4631 -1.1592
 6059SOL     OW29809   0.268   1.129   6.391 -0.3530 -0.1399 -0.6494
 6059SOL    HW129810   0.174   1.110   6.388 -0.4837  0.5441 -0.7358
 6059SOL    HW229811   0.292   1.080   6.312  0.6559 -0.6239 -0.0348
 6060SOL     OW29812   1.722   2.094   4.142  0.1168  0.7313  0.0690
 6060SOL    HW129813   1.763   2.077   4.227  0.2230  0.1050 -0.1063
 6060SOL    HW229814   1.664   2.166   4.169  1.1112  1.2642  0.8019
 6061SOL     OW29815   4.325   2.507   7.461  0.1019  0.4011 -0.0129
 6061SOL    HW129816   4.405   2.463   7.490 -0.7434 -0.8986  0.3069
 6061SOL    HW229817   4.352   2.594   7.430  1.5664 -0.2982 -0.7221
 6062SOL     OW29818   1.331   3.184   9.995 -0.5131 -0.2688  0.1469
 6062SOL    HW129819   1.327   3.120  10.066  2.4621  0.2095  0.7146
 6062SOL    HW229820   1.335   3.133   9.915 -1.2263 -1.0381  0.5982
 6063SOL     OW29821   2.811   2.302   3.281 -0.0179  0.8075 -0.2800
 6063SOL    HW129822   2.775   2.267   3.362  0.2700 -1.3141 -1.0471
 6063SOL    HW229823   2.840   2.228   3.226 -0.9833  1.2741 -1.4258
 6064SOL     OW29824   3.780   0.912   7.156  0.6019  0.5221 -0.4357
 6064SOL    HW129825   3.711   0.979   7.156 -0.2338 -0.3374 -0.1973
 6064SOL    HW229826   3.846   0.953   7.212  0.6031 -0.3826  0.2233
 6065SOL     OW29827   1.259   4.590   6.354 -0.7502 -0.2560 -0.3098
 6065SOL    HW129828   1.293   4.606   6.442 -0.2038 -0.6843 -0.4438
 6065SOL    HW229829   1.168   4.610   6.379  0.2765  0.7896  2.5694
 6066SOL     OW29830   3.524   3.622  14.484  0.4461 -0.2192 -0.0132
 6066SOL    HW129831   3.581   3.651  14.555 -0.1787  2.3220 -0.5803
 6066SOL    HW229832   3.486   3.704  14.453 -0.5243 -0.3343  0.8761
 6067SOL     OW29833   2.021   1.089  12.608 -0.2444  0.2209  0.0335
 6067SOL    HW129834   1.934   1.078  12.645  0.4665 -0.7923  1.4135
 6067SOL    HW229835   2.060   1.004  12.629  2.1323  1.6129  1.3037
 6068SOL     OW29836   2.716   3.515   4.474 -0.3855 -0.1178  0.0490
 6068SOL    HW129837   2.635   3.481   4.513 -0.6441  0.7173  0.2374
 6068SOL    HW229838   2.759   3.437   4.438 -0.2737 -0.9295  1.9380
 6069SOL     OW29839   1.347   4.617   4.957 -0.2978  0.0904  0.6415
 6069SOL    HW129840   1.306   4.552   4.901  1.0290 -1.4467  1.4310
 6069SOL    HW229841   1.393   4.566   5.024  0.9922 -0.4569 -0.6466
 6070SOL     OW29842   0.490   0.119  17.345 -0.3187  0.1809  0.1392
 6070SOL    HW129843   0.475   0.111  17.251  1.5744  1.8784 -0.3200
 6070SOL    HW229844   0.446   0.202  17.363  1.4951  1.1026  0.3221
 6071SOL     OW29845   1.271   3.705  15.992  0.1424 -0.3145  0.4203
 6071SOL    HW129846   1.327   3.721  16.068 -0.8486  1.4914  0.7658
 6071SOL    HW229847   1.199   3.767  15.998  1.9197  1.9423 -1.4096
 6072SOL     OW29848   1.664   2.347  10.896 -0.1267 -0.2814 -0.1814
 6072SOL    HW129849   1.594   2.382  10.841 -0.4202 -0.5135  0.0426
 6072SOL    HW229850   1.737   2.407  10.877 -1.0541  1.4873  1.7954
 6073SOL     OW29851   4.031   4.110   5.012  0.6349 -0.3763  0.1834
 6073SOL    HW129852   4.017   4.140   5.102 -0.9889  2.1576 -0.9120
 6073SOL    HW229853   4.032   4.189   4.957 -0.3634 -1.8394 -1.9458
 6074SOL     OW29854   1.596   1.627   5.919 -0.3843 -0.3487  0.4425
 6074SOL    HW129855   1.642   1.579   5.850 -2.1884  0.2546 -1.1467
 6074SOL    HW229856   1.511   1.583   5.916 -0.1216 -0.9728  1.8716
 6075SOL     OW29857   4.342   1.378   5.793 -0.1882 -0.1618  0.0505
 6075SOL    HW129858   4.251   1.351   5.787  0.6229 -2.7619 -0.7517
 6075SOL    HW229859   4.382   1.303   5.837 -1.2675 -0.1359  1.0878
 6076SOL     OW29860   1.249   3.096   2.529 -0.0107 -0.2455  0.5393
 6076SOL    HW129861   1.215   3.064   2.612  1.9478 -0.1792  1.3665
 6076SOL    HW229862   1.345   3.088   2.530 -0.0585 -0.6542  1.3955
 6077SOL     OW29863   1.560   3.857   2.353  0.4088 -0.4657 -0.6841
 6077SOL    HW129864   1.544   3.910   2.431  1.5932 -2.0553  0.6381
 6077SOL    HW229865   1.512   3.910   2.289 -2.7130 -0.8459  1.3116
 6078SOL     OW29866   0.836   1.747   7.017 -0.4781 -0.0928 -0.0249
 6078SOL    HW129867   0.913   1.798   6.993 -1.8945  0.9410 -2.3172
 6078SOL    HW229868   0.786   1.742   6.936 -0.9706 -0.2659  0.2892
 6079SOL     OW29869   0.636   2.407   6.006  0.3162  0.5735 -0.1722
 6079SOL    HW129870   0.576   2.389   6.079 -1.5196 -0.0576 -1.8093
 6079SOL    HW229871   0.704   2.468   6.034  0.6956  0.0475  0.0458
 6080SOL     OW29872   1.077   2.357  12.586  0.4003 -0.1105 -0.0309
 6080SOL    HW129873   1.089   2.369  12.680  1.1525 -1.1320  0.0055
 6080SOL    HW229874   0.981   2.352  12.581  0.3867 -0.3708  0.4876
 6081SOL     OW29875   1.482   0.871   6.469  0.1556  0.0472 -0.3676
 6081SOL    HW129876   1.530   0.789   6.456 -1.0724 -0.8394  0.7254
 6081SOL    HW229877   1.516   0.923   6.396 -2.0857  0.8131 -0.8634
 6082SOL     OW29878   4.322   3.827   7.405  0.3517  0.3265 -0.0127
 6082SOL    HW129879   4.391   3.870   7.454  0.5517 -0.5441  0.4628
 6082SOL    HW229880   4.269   3.791   7.476  2.2678 -1.5195  0.4614
 6083SOL     OW29881   1.728   1.453   4.515 -0.2212 -0.5362  0.1091
 6083SOL    HW129882   1.683   1.481   4.595 -2.1746 -1.6816 -0.5786
 6083SOL    HW229883   1.661   1.397   4.477 -0.0250 -1.0426  0.5126
 6084SOL     OW29884   2.670   3.865  16.570 -0.1830 -0.0570  0.0658
 6084SOL    HW129885   2.736   3.897  16.508 -1.1528 -1.8880 -1.9098
 6084SOL    HW229886   2.710   3.793  16.618  2.4218  0.2587 -1.6365
 6085SOL     OW29887   2.878   0.128   1.488 -0.4333 -0.4668  0.5924
 6085SOL    HW129888   2.788   0.121   1.519 -0.3584 -0.0823  0.8903
 6085SOL    HW229889   2.871   0.153   1.395  1.1972 -1.1573  0.2922
 6086SOL     OW29890   2.279   2.976  12.062 -0.0883 -0.2105  0.1994
 6086SOL    HW129891   2.371   2.999  12.075 -0.0775  0.3188 -0.7967
 6086SOL    HW229892   2.284   2.883  12.042  0.3501  0.0888 -1.0763
 6087SOL     OW29893   2.103   1.198   7.270 -0.5825 -0.0450  0.1158
 6087SOL    HW129894   2.064   1.241   7.345 -1.2638 -0.8814  0.2329
 6087SOL    HW229895   2.170   1.263   7.249 -0.2671 -0.5698 -0.5039
 6088SOL     OW29896   1.014   4.251   4.924  0.1199  0.7537  0.0292
 6088SOL    HW129897   1.087   4.196   4.896 -0.9582 -1.5341  1.7438
 6088SOL    HW229898   0.948   4.239   4.855 -0.0898  1.4655  0.1009
 6089SOL     OW29899   2.792   2.433   8.426 -0.6692  0.2129  0.0258
 6089SOL    HW129900   2.865   2.472   8.379  0.2920 -0.0797  1.2638
 6089SOL    HW229901   2.847   2.389   8.491  0.3662  1.0016 -0.3155
 6090SOL     OW29902   0.504   2.310   4.115 -0.0536  0.1540 -0.3514
 6090SOL    HW129903   0.566   2.244   4.084  0.2096  0.3334 -0.2055
 6090SOL    HW229904   0.426   2.277   4.070 -0.7165  2.2197 -0.6958
 6091SOL     OW29905   0.629   0.574  13.072 -0.9875  0.0047 -0.2649
 6091SOL    HW129906   0.713   0.602  13.110 -0.3455  1.1270 -2.5463
 6091SOL    HW229907   0.614   0.635  13.000  0.6078 -0.0084 -0.6230
 6092SOL     OW29908   3.065   0.171  11.969  0.2152 -0.5276 -0.1020
 6092SOL    HW129909   3.130   0.240  11.956 -0.4975  0.1943  0.1391
 6092SOL    HW229910   3.116   0.091  11.958  0.6734 -0.2797  0.2278
 6093SOL     OW29911   0.860   0.775   7.670  0.3368 -0.2684  0.4201
 6093SOL    HW129912   0.954   0.756   7.669  0.6606  1.3367 -0.7171
 6093SOL    HW229913   0.871   0.843   7.603 -2.6358  0.5732  0.8261
 6094SOL     OW29914   3.240   4.379   5.187  0.3386 -0.3196 -0.7539
 6094SOL    HW129915   3.148   4.355   5.201  0.5686 -1.5138 -1.3058
 6094SOL    HW229916   3.277   4.319   5.251  1.0213 -0.0742 -0.9224
 6095SOL     OW29917   3.880   3.636   6.364  0.6188  0.0795 -0.4134
 6095SOL    HW129918   3.970   3.609   6.345  1.1635  3.8182 -3.1316
 6095SOL    HW229919   3.850   3.675   6.282  1.6078 -0.1903 -0.9088
 6096SOL     OW29920   1.964   2.801   0.544  0.5085 -0.4915 -0.0442
 6096SOL    HW129921   1.970   2.855   0.623 -3.6757 -0.6513  0.3934
 6096SOL    HW229922   1.930   2.855   0.473  0.2579 -0.8847 -0.2229
 6097SOL     OW29923   1.420   0.497   6.106  0.0638  0.0698  0.2716
 6097SOL    HW129924   1.408   0.419   6.160 -1.2102 -0.0001 -0.1152
 6097SOL    HW229925   1.419   0.565   6.173 -0.3031 -0.7703  1.1150
 6098SOL     OW29926   2.100   2.522   2.935 -0.1081  0.2319 -0.0622
 6098SOL    HW129927   2.188   2.487   2.950  0.2071  1.5260  1.0473
 6098SOL    HW229928   2.057   2.527   3.020 -1.1076  1.3889 -0.6495
 6099SOL     OW29929   0.804   3.277   9.287 -0.2412 -0.5877 -0.3722
 6099SOL    HW129930   0.741   3.253   9.355  0.3481  1.0347  0.7350
 6099SOL    HW229931   0.751   3.297   9.210  1.3853  1.8391 -0.8467
 6100SOL     OW29932   2.818   1.564  13.942  0.4173 -0.0180 -0.3563
 6100SOL    HW129933   2.724   1.580  13.953  0.9817  2.5461  0.8057
 6100SOL    HW229934   2.855   1.634  13.996  3.1654 -0.7872 -1.2585
 6101SOL     OW29935   4.306   3.894   4.855  0.4831  0.5451  0.3785
 6101SOL    HW129936   4.243   3.955   4.893 -0.4908  1.9065 -3.3723
 6101SOL    HW229937   4.385   3.939   4.884 -0.1514  1.8159  0.1539
 6102SOL     OW29938   1.684   1.985   0.506  0.5505 -0.2457  0.1154
 6102SOL    HW129939   1.776   1.985   0.533  0.8365 -1.1540 -0.8484
 6102SOL    HW229940   1.688   1.897   0.468  2.6118 -0.4758  0.8620
 6103SOL     OW29941   3.089   0.898   7.827 -0.1481  0.2549  0.1804
 6103SOL    HW129942   3.143   0.944   7.763  2.1556 -0.5357  1.5585
 6103SOL    HW229943   3.118   0.807   7.821 -0.5332 -0.0089  2.2743
 6104SOL     OW29944   2.478   0.752   2.748 -0.1640  0.3136 -0.0654
 6104SOL    HW129945   2.468   0.844   2.774 -0.4881 -0.5943  2.9568
 6104SOL    HW229946   2.507   0.713   2.830 -0.6060 -0.0746 -0.0939
 6105SOL     OW29947   4.077   3.193  11.458  0.2462 -0.1476  0.0179
 6105SOL    HW129948   4.056   3.178  11.550  1.5318  0.0858  0.3522
 6105SOL    HW229949   3.990   3.204  11.419  0.8568  0.6113 -1.0947
 6106SOL     OW29950   0.629   1.943   2.959  0.2454  0.7733  0.7651
 6106SOL    HW129951   0.701   1.921   3.019 -1.5925 -0.8393  2.3734
 6106SOL    HW229952   0.648   2.036   2.952  1.3772  0.5031  0.2342
 6107SOL     OW29953   2.323   3.764   0.657  0.8066  0.5020  0.6158
 6107SOL    HW129954   2.363   3.850   0.655  1.1696  0.3207 -0.1387
 6107SOL    HW229955   2.242   3.783   0.610  0.4540 -0.0182  1.0106
 6108SOL     OW29956   4.355   0.901   5.557  1.2221  0.5290  0.6357
 6108SOL    HW129957   4.428   0.839   5.560  2.0494  1.4459 -0.5554
 6108SOL    HW229958   4.284   0.843   5.585 -0.3561  2.5143  0.7770
 6109SOL     OW29959   0.680   4.544   4.692  0.3209  0.7061 -0.5592
 6109SOL    HW129960   0.721   4.519   4.609  0.1406 -2.4588  0.3261
 6109SOL    HW229961   0.657   4.637   4.684 -0.1125  0.5721 -0.8702
 6110SOL     OW29962   1.142   2.972   9.371  0.0329 -0.5626  0.0027
 6110SOL    HW129963   1.102   2.965   9.284 -1.7517 -1.8623  0.9315
 6110SOL    HW229964   1.063   2.936   9.411 -0.2277 -1.5076 -1.3542
 6111SOL     OW29965   3.861   2.487  11.498  0.7322  0.2560 -0.4090
 6111SOL    HW129966   3.882   2.488  11.591 -2.6482 -1.2460  0.3595
 6111SOL    HW229967   3.770   2.458  11.503  0.7120  0.1932 -1.1216
 6112SOL     OW29968   1.285   1.562   1.565 -0.0479 -0.7127 -0.4002
 6112SOL    HW129969   1.227   1.607   1.503 -0.0754  0.6632  0.6291
 6112SOL    HW229970   1.249   1.605   1.642 -0.0691 -0.2255 -0.6812
 6113SOL     OW29971   0.706   3.647   5.018  0.4446  0.2334 -0.0808
 6113SOL    HW129972   0.704   3.739   5.040 -0.9138 -0.4428  2.5664
 6113SOL    HW229973   0.612   3.638   5.004  0.0132  0.8622  2.4338
 6114SOL     OW29974   2.799   3.001   8.842 -0.4065  0.5883  0.3125
 6114SOL    HW129975   2.750   2.925   8.810  1.0335  0.1497 -0.8409
 6114SOL    HW229976   2.731   3.066   8.828 -1.8093 -0.7750  0.8565
 6115SOL     OW29977   0.982   3.534   3.953  0.2615 -0.3442  0.2047
 6115SOL    HW129978   0.984   3.607   3.891 -0.0750 -2.6462 -2.5053
 6115SOL    HW229979   1.068   3.547   3.993  0.5441  3.0018 -1.4785
 6116SOL     OW29980   0.495   4.174   1.319  0.3658 -0.2418 -0.3379
 6116SOL    HW129981   0.513   4.253   1.369  0.4244 -1.4720  1.6013
 6116SOL    HW229982   0.466   4.209   1.235  2.5252  1.4346 -0.3785
 6117SOL     OW29983   1.089   0.007   1.245  0.5501  0.3123  0.3574
 6117SOL    HW129984   1.032   0.002   1.322  4.8329  0.3441  3.5852
 6117SOL    HW229985   1.153   0.060   1.294 -0.2846  2.6075 -1.0128
 6118SOL     OW29986   2.021   0.269   8.256 -0.1843 -0.4729 -0.2843
 6118SOL    HW129987   1.996   0.182   8.286 -0.4743 -0.7611 -1.3697
 6118SOL    HW229988   1.955   0.274   8.188  1.5605  5.1294 -1.5875
 6119SOL     OW29989   3.134   3.627  11.779  0.4338 -0.2108  0.1335
 6119SOL    HW129990   3.088   3.710  11.765 -1.1420 -1.6350 -2.9945
 6119SOL    HW229991   3.089   3.597  11.858  0.5222 -2.7791 -0.7840
 6120SOL     OW29992   2.448   3.495   4.514  0.5116 -0.7479 -0.0395
 6120SOL    HW129993   2.401   3.565   4.559 -0.0854 -0.5469 -0.9597
 6120SOL    HW229994   2.397   3.475   4.435 -1.4352 -1.6203  1.4189
 6121SOL     OW29995   1.696   1.054  16.871 -0.1836  0.2386 -0.0566
 6121SOL    HW129996   1.653   0.997  16.807 -0.3535  1.2673 -0.8546
 6121SOL    HW229997   1.622   1.098  16.912 -0.4118  1.1455 -1.4439
 6122SOL     OW29998   0.760   3.018   6.296  0.5407  0.1979 -0.4170
 6122SOL    HW129999   0.705   3.039   6.372 -1.7269  2.2859 -2.6547
 6122SOL    HW230000   0.735   2.927   6.281 -0.8592  0.5333 -0.1094
 6123SOL     OW30001   3.457   0.630   0.449 -0.8120 -0.1657  0.8324
 6123SOL    HW130002   3.544   0.592   0.457 -0.9577 -0.2643  1.9264
 6123SOL    HW230003   3.459   0.664   0.538  0.0569 -0.3572  0.8828
 6124SOL     OW30004   1.755   0.462   7.851 -0.0762  0.1298 -0.1187
 6124SOL    HW130005   1.667   0.465   7.811 -0.7619 -0.6429  1.3427
 6124SOL    HW230006   1.806   0.506   7.783 -1.3997 -0.0381 -1.2194
 6125SOL     OW30007   0.214   4.665   1.423  0.0118 -0.4514  0.2866
 6125SOL    HW130008   0.269   4.722   1.476  1.0262 -0.9503 -0.2207
 6125SOL    HW230009   0.186   4.606   1.493 -0.6909 -1.3834 -0.7728
 6126SOL     OW30010   0.693   3.952  13.974  0.1354 -0.2078  0.1627
 6126SOL    HW130011   0.644   3.870  13.985 -0.0664 -0.0436  0.4827
 6126SOL    HW230012   0.776   3.934  14.018  0.6940  0.9214 -0.4214
 6127SOL     OW30013   0.855   0.859   7.940 -0.2568 -0.4196 -0.3226
 6127SOL    HW130014   0.902   0.933   7.901 -1.0947 -0.3231 -1.1409
 6127SOL    HW230015   0.830   0.827   7.853  3.4379  0.6967 -1.8176
 6128SOL     OW30016   2.165   1.718   6.591 -0.7722 -0.0845  0.0635
 6128SOL    HW130017   2.157   1.626   6.616  0.3113 -0.2016 -0.0150
 6128SOL    HW230018   2.206   1.718   6.504  0.6563  1.1611  0.7458
 6129SOL     OW30019   2.368   2.596   1.738  0.3058 -0.0333  0.3073
 6129SOL    HW130020   2.398   2.673   1.785  0.3972 -0.4325  0.8986
 6129SOL    HW230021   2.340   2.637   1.656 -0.8646 -2.0953 -0.3202
 6130SOL     OW30022   0.295   3.223   5.834  0.4687  0.2700 -0.0562
 6130SOL    HW130023   0.390   3.214   5.839  0.3179 -0.9308  0.6342
 6130SOL    HW230024   0.308   3.247   5.743  3.6193  0.6735  0.5076
 6131SOL     OW30025   1.135   1.520   2.850  0.1884  0.3606 -0.3678
 6131SOL    HW130026   1.157   1.458   2.919  0.4242  3.3283  2.2129
 6131SOL    HW230027   1.115   1.465   2.774 -1.7843  0.5222  0.0313
 6132SOL     OW30028   3.379   2.718   2.513  0.3703 -0.4500 -0.7410
 6132SOL    HW130029   3.359   2.705   2.420  2.0423 -0.8450 -1.0459
 6132SOL    HW230030   3.475   2.724   2.510  0.4488 -0.7615  1.3355
 6133SOL     OW30031   3.368   1.554   9.791  0.8942  0.4194 -0.0031
 6133SOL    HW130032   3.380   1.579   9.882  0.1043 -0.9650  0.4852
 6133SOL    HW230033   3.394   1.635   9.749  1.9914 -1.1866 -2.4177
 6134SOL     OW30034   1.471   0.327   9.471  0.4183  0.3590 -0.0677
 6134SOL    HW130035   1.520   0.358   9.547  3.2224 -3.5803 -0.2401
 6134SOL    HW230036   1.419   0.255   9.507 -0.4528  0.7434 -0.5565
 6135SOL     OW30037   4.666   0.225   5.063 -0.0365  0.1331 -0.2379
 6135SOL    HW130038   4.726   0.238   5.137  0.0680  0.6294 -0.4081
 6135SOL    HW230039   4.581   0.226   5.106  0.6960 -2.7927  1.2282
 6136SOL     OW30040   4.646   4.698  13.267  0.1579  0.1532  0.4394
 6136SOL    HW130041   4.558   4.693  13.230 -0.6267 -1.7094  2.5138
 6136SOL    HW230042   4.669   0.046  13.232 -3.3475  0.9725  0.1177
 6137SOL     OW30043   0.477   0.926   8.739 -0.2532 -0.0662 -0.0970
 6137SOL    HW130044   0.413   0.855   8.738 -2.7975  2.2208 -0.5296
 6137SOL    HW230045   0.444   0.965   8.658 -0.3641 -0.8116 -0.4049
 6138SOL     OW30046   2.780   1.195   3.021  0.1552 -0.4117  0.2143
 6138SOL    HW130047   2.757   1.248   2.945 -0.9204 -2.3077 -0.7870
 6138SOL    HW230048   2.876   1.201   3.019  0.1940 -1.2107 -0.5728
 6139SOL     OW30049   3.863   1.452   4.681  0.1365 -0.1152  0.5530
 6139SOL    HW130050   3.919   1.446   4.759 -1.2767 -2.1662  1.4000
 6139SOL    HW230051   3.867   1.361   4.654  1.6753 -0.4111  1.7760
 6140SOL     OW30052   2.217   2.990  11.268 -0.1495 -0.0705 -0.5746
 6140SOL    HW130053   2.204   2.948  11.183  0.8221 -2.0149  0.2461
 6140SOL    HW230054   2.229   3.081  11.242 -0.7183 -0.0460 -0.7501
 6141SOL     OW30055   1.986   1.732  16.187  0.2752  0.1605  0.0929
 6141SOL    HW130056   1.927   1.802  16.216  0.2628 -0.2543  1.0661
 6141SOL    HW230057   2.023   1.694  16.267 -1.7221  0.2666  1.0700
 6142SOL     OW30058   2.796   2.258   7.524  0.0747  0.3637  0.2460
 6142SOL    HW130059   2.768   2.276   7.434 -0.2962  0.0265  0.2988
 6142SOL    HW230060   2.877   2.309   7.535 -1.1835  2.2358  0.6589
 6143SOL     OW30061   2.105   1.958   6.676 -0.3143  0.8479  0.1428
 6143SOL    HW130062   2.090   2.019   6.603  2.7040 -1.1001 -2.1120
 6143SOL    HW230063   2.101   1.872   6.633 -2.2863  0.0277  2.0088
 6144SOL     OW30064   0.696   4.381  12.755 -0.7219  0.1508  1.3854
 6144SOL    HW130065   0.607   4.346  12.759 -0.7964  0.3112  1.1446
 6144SOL    HW230066   0.688   4.424  12.669 -3.2078  3.0755  3.0792
 6145SOL     OW30067   1.491   2.046   7.133  0.3624 -0.4213  0.0592
 6145SOL    HW130068   1.555   2.039   7.204  1.0662  0.4812 -0.4880
 6145SOL    HW230069   1.460   1.956   7.126  1.9502 -1.0070  0.5173
 6146SOL     OW30070   0.063   2.180   5.388 -0.0666 -0.2020  0.3731
 6146SOL    HW130071   0.027   2.158   5.302  0.3309 -2.1961  0.7034
 6146SOL    HW230072   4.720   2.192   5.438 -1.0073  0.6617 -1.3735
 6147SOL     OW30073   1.273   0.555   4.734  0.2227 -0.6855  0.0837
 6147SOL    HW130074   1.253   0.462   4.721  0.3595 -0.8814  1.2328
 6147SOL    HW230075   1.288   0.573   4.641  1.9630  1.4270  0.7597
 6148SOL     OW30076   3.839   2.067  13.269  0.4612 -0.8271  0.1086
 6148SOL    HW130077   3.911   2.128  13.255  0.1311 -0.5699 -0.4660
 6148SOL    HW230078   3.810   2.067  13.178 -1.0063  3.5857  0.6068
 6149SOL     OW30079   3.859   3.311   8.059 -0.1047  0.2559 -0.0619
 6149SOL    HW130080   3.945   3.275   8.037 -0.3743  0.6964 -1.8255
 6149SOL    HW230081   3.824   3.240   8.112  0.7057 -1.4401 -1.8033
 6150SOL     OW30082   3.815   4.371   9.285 -0.0349  0.8756  0.2729
 6150SOL    HW130083   3.854   4.308   9.346 -0.0297  0.7734  0.1640
 6150SOL    HW230084   3.825   4.322   9.203 -0.4689  0.7198  0.3095
 6151SOL     OW30085   1.058   4.703   8.961  0.7845  0.2062 -0.0646
 6151SOL    HW130086   1.056   0.043   8.906  2.4093  1.0132  1.0109
 6151SOL    HW230087   1.121   4.720   9.032  4.0089 -3.1179 -2.1322
 6152SOL     OW30088   4.573   2.173   0.239  0.1140 -0.0995 -0.5840
 6152SOL    HW130089   4.507   2.227   0.281 -0.8658 -2.4667  0.9065
 6152SOL    HW230090   4.575   2.106   0.307  1.1654  1.4743  0.9277
 6153SOL     OW30091   2.091   1.441  16.209  0.9029  0.1124 -0.6941
 6153SOL    HW130092   2.033   1.365  16.204  0.8368  0.3061 -2.5856
 6153SOL    HW230093   2.094   1.472  16.119  0.1241  0.8912 -0.4527
 6154SOL     OW30094   0.895   0.442   7.967  0.9054  0.1686  0.4255
 6154SOL    HW130095   0.848   0.525   7.959  0.7176  0.1280  1.1335
 6154SOL    HW230096   0.833   0.372   7.947  2.7514 -0.9685 -1.2839
 6155SOL     OW30097   0.001   1.003   6.373  0.5865  0.1490  0.4107
 6155SOL    HW130098   4.651   1.017   6.337 -0.2421  0.7387  2.6315
 6155SOL    HW230099   4.735   0.908   6.383 -0.9003 -0.1263 -2.6054
 6156SOL     OW30100   1.269   3.626   8.656 -0.2391 -0.3033 -0.0829
 6156SOL    HW130101   1.221   3.548   8.628 -0.1156  0.1627 -1.5827
 6156SOL    HW230102   1.325   3.596   8.728 -1.3821 -0.9032  0.5671
 6157SOL     OW30103   2.115   0.057   6.750 -0.0525  0.5500  0.1267
 6157SOL    HW130104   2.055   0.130   6.767  0.2798  0.6555  0.8773
 6157SOL    HW230105   2.196   0.082   6.795  0.7124 -0.3906 -0.7480
 6158SOL     OW30106   2.937   2.900  15.886  0.4458 -0.2459 -0.3125
 6158SOL    HW130107   2.978   2.839  15.948 -0.8999  0.1722  0.9750
 6158SOL    HW230108   2.997   2.889  15.813  0.0822 -0.1052 -0.6278
 6159SOL     OW30109   2.262   3.991   5.006  0.8664 -0.1077  0.0088
 6159SOL    HW130110   2.302   3.959   5.087 -0.6867 -1.1891  0.3522
 6159SOL    HW230111   2.337   4.032   4.962  1.6315 -1.9203 -0.3756
 6160SOL     OW30112   1.123   2.182   5.380 -0.4889  0.0930 -0.0118
 6160SOL    HW130113   1.038   2.150   5.350 -0.0266  2.0053 -3.3283
 6160SOL    HW230114   1.102   2.200   5.472  1.5265 -0.6937  0.6128
 6161SOL     OW30115   3.179   3.031   1.680  0.2014 -0.5586 -0.3214
 6161SOL    HW130116   3.122   3.108   1.681  0.0122 -0.6879 -1.0190
 6161SOL    HW230117   3.117   2.961   1.703 -1.3916  0.6664 -0.9199
 6162SOL     OW30118   1.736   0.246   7.348  0.4270  0.2785 -0.3095
 6162SOL    HW130119   1.724   0.331   7.391 -1.5161  0.9376 -2.1526
 6162SOL    HW230120   1.672   0.257   7.278  1.2455 -1.7723 -1.3754
 6163SOL     OW30121   1.371   4.704  16.714 -0.2101  0.4900 -0.1974
 6163SOL    HW130122   1.399   4.627  16.664 -0.9077  0.7257 -0.9521
 6163SOL    HW230123   1.425   4.704  16.793 -0.0210 -2.0289 -0.3157
 6164SOL     OW30124   2.041   0.878   0.152 -0.4152 -0.2840  0.2868
 6164SOL    HW130125   2.010   0.807   0.209  2.9115 -2.4585 -0.6329
 6164SOL    HW230126   2.129   0.893   0.186 -0.4166 -0.7412  0.4963
 6165SOL     OW30127   0.777   0.955   9.122  0.0825 -0.0534 -0.2402
 6165SOL    HW130128   0.754   0.942   9.030 -2.6888  0.4379  0.3879
 6165SOL    HW230129   0.700   1.001   9.153 -0.0357 -1.0343  0.9395
 6166SOL     OW30130   0.042   0.695   5.377 -0.9265 -0.3899 -0.2191
 6166SOL    HW130131   4.707   0.757   5.381 -0.6794 -0.1896  1.3771
 6166SOL    HW230132   0.002   0.611   5.399 -1.4789  0.3677  1.6806
 6167SOL     OW30133   2.289   0.429  13.869  0.0593  0.5781  0.4901
 6167SOL    HW130134   2.380   0.408  13.849  0.1871  2.1901 -0.5747
 6167SOL    HW230135   2.263   0.365  13.935  1.5845 -0.4684  0.0651
 6168SOL     OW30136   3.850   4.736   7.317  0.2242  0.5707 -0.3284
 6168SOL    HW130137   3.850   0.006   7.413 -0.1407 -1.1648 -0.1747
 6168SOL    HW230138   3.909   4.662   7.300 -2.6126 -1.6658 -0.5778
 6169SOL     OW30139   1.234   1.234  13.728 -0.1980 -0.4980  0.1519
 6169SOL    HW130140   1.283   1.169  13.678  0.7682  1.0526 -0.8954
 6169SOL    HW230141   1.149   1.198  13.701  0.3208 -1.9010  0.3788
 6170SOL     OW30142   3.069   0.772  14.306  0.0068 -0.6736 -0.0101
 6170SOL    HW130143   3.101   0.700  14.252  0.5892  1.1396 -2.0696
 6170SOL    HW230144   3.000   0.813  14.253  0.6929  0.6297  0.1063
 6171SOL     OW30145   0.547   4.427   1.410  0.2017 -0.0324  0.4039
 6171SOL    HW130146   0.482   4.486   1.449 -0.9752 -1.3769  0.5129
 6171SOL    HW230147   0.590   4.473   1.339  1.1145 -1.8473 -0.2103
 6172SOL     OW30148   3.337   4.598   9.976  0.1931 -0.4465  0.3825
 6172SOL    HW130149   3.241   4.606   9.981  0.2500  0.0688  0.7022
 6172SOL    HW230150   3.368   4.569  10.062  1.4275  0.7787  0.3527
 6173SOL     OW30151   1.297   0.843  12.460  0.3574  0.4275  0.2127
 6173SOL    HW130152   1.295   0.794  12.377 -0.1356 -0.8969  1.0103
 6173SOL    HW230153   1.388   0.821  12.479  0.5690  1.3120  0.2207
 6174SOL     OW30154   3.143   4.075   1.401 -0.0086 -0.8561  0.7020
 6174SOL    HW130155   3.186   4.043   1.321 -1.1643 -0.1928 -0.1865
 6174SOL    HW230156   3.119   3.996   1.448  1.1583 -2.2529 -1.0720
 6175SOL     OW30157   0.408   0.025  17.609 -0.3087 -0.1174  0.0332
 6175SOL    HW130158   0.380   4.680  17.649  1.6922 -1.2358 -0.8993
 6175SOL    HW230159   0.357   0.087  17.661 -0.5389  0.6250 -1.0851
 6176SOL     OW30160   4.718   1.752  11.732  0.4179  0.0879  0.2817
 6176SOL    HW130161   0.040   1.766  11.658 -1.6904 -1.4385 -1.6901
 6176SOL    HW230162   0.015   1.821  11.788  0.7411 -0.6118  0.9419
 6177SOL     OW30163   4.296   3.831   6.163 -0.3806 -0.2523 -0.0333
 6177SOL    HW130164   4.253   3.745   6.165 -0.1986 -0.2537  2.7761
 6177SOL    HW230165   4.343   3.826   6.246 -1.3188 -0.5597  0.4777
 6178SOL     OW30166   1.004   1.918   8.774 -0.1446  0.7798  0.0043
 6178SOL    HW130167   0.911   1.916   8.754 -0.2095  0.2202  0.3790
 6178SOL    HW230168   1.037   1.903   8.686  1.5368  0.1801  0.7331
 6179SOL     OW30169   2.769   0.843  17.425  0.1502 -0.0179  0.1735
 6179SOL    HW130170   2.786   0.875  17.337 -3.1974  1.1876 -0.0658
 6179SOL    HW230171   2.836   0.784  17.459 -1.1259 -0.4889  1.8944
 6180SOL     OW30172   1.538   0.830   2.502 -0.3435  0.0643  0.3790
 6180SOL    HW130173   1.548   0.737   2.522  0.6155  0.1663  0.3437
 6180SOL    HW230174   1.456   0.838   2.551 -0.8812  1.1428 -0.7150
 6181SOL     OW30175   1.429   1.508   5.325  0.0605  0.3304  0.0900
 6181SOL    HW130176   1.394   1.597   5.318  1.5131  0.8246 -0.7550
 6181SOL    HW230177   1.426   1.472   5.237  0.6740 -2.7646  1.3613
 6182SOL     OW30178   4.255   1.216  17.374 -0.1808  0.5678  0.0213
 6182SOL    HW130179   4.280   1.308  17.381 -0.6145  0.6522  0.3954
 6182SOL    HW230180   4.251   1.179  17.462  3.7176 -0.1226 -0.0736
 6183SOL     OW30181   2.735   0.699   4.891  0.1949 -0.7208 -0.4354
 6183SOL    HW130182   2.682   0.689   4.970  1.0328 -0.0217  0.2149
 6183SOL    HW230183   2.700   0.628   4.836  1.3745  0.1946 -2.3831
 6184SOL     OW30184   0.062   4.685   7.409  0.7483 -0.7713  0.9172
 6184SOL    HW130185   0.076   4.703   7.316 -1.4152  0.5154  0.8455
 6184SOL    HW230186   0.147   4.647   7.433  2.3347  1.0543 -1.7266
 6185SOL     OW30187   3.839   1.528  10.313 -0.1937  0.1924 -0.4207
 6185SOL    HW130188   3.923   1.484  10.319 -0.0149  0.5062 -0.6316
 6185SOL    HW230189   3.815   1.532  10.406 -0.7179 -0.6995 -0.5235
 6186SOL     OW30190   2.905   2.389  10.949 -0.1124  0.3746  0.8432
 6186SOL    HW130191   2.827   2.402  11.002 -2.4077  1.2585 -2.7963
 6186SOL    HW230192   2.923   2.475  10.912 -0.0390 -0.1320 -0.2853
 6187SOL     OW30193   3.071   3.092  15.428  0.7643  0.3339 -0.9171
 6187SOL    HW130194   3.093   3.183  15.444 -2.3025  0.8291  0.6783
 6187SOL    HW230195   3.125   3.075  15.351  1.7180  1.9619 -0.5856
 6188SOL     OW30196   2.494   2.706  10.331 -0.9315  0.2351  0.0066
 6188SOL    HW130197   2.464   2.673  10.415  1.4416 -1.8149  0.0334
 6188SOL    HW230198   2.512   2.620  10.292  1.8241  0.9026 -0.2128
 6189SOL     OW30199   1.767   0.744   9.934  0.3432 -0.4555  0.1082
 6189SOL    HW130200   1.853   0.708   9.955  1.4718  0.8781 -2.2674
 6189SOL    HW230201   1.746   0.812   9.998  1.6856 -0.7711  0.8847
 6190SOL     OW30202   0.324   2.457   7.327  0.1643 -0.0775  0.0875
 6190SOL    HW130203   0.366   2.395   7.268 -1.0857  0.2823 -1.1776
 6190SOL    HW230204   0.295   2.522   7.262 -1.0562 -1.9844 -1.2680
 6191SOL     OW30205   4.486   2.770   8.653 -0.1648  0.1124  0.4548
 6191SOL    HW130206   4.486   2.674   8.652  1.9378  0.1255 -0.3411
 6191SOL    HW230207   4.495   2.794   8.561 -0.3891  1.1826  0.7084
 6192SOL     OW30208   1.979   3.436   6.754  0.3707 -0.2972  0.5561
 6192SOL    HW130209   2.039   3.367   6.781 -1.2899 -2.0952 -0.3148
 6192SOL    HW230210   1.990   3.438   6.659 -1.7349  1.9579  0.3546
 6193SOL     OW30211   4.300   1.422   2.340 -0.0593  0.5088 -0.4719
 6193SOL    HW130212   4.278   1.514   2.355  1.2131  0.4095  1.9182
 6193SOL    HW230213   4.381   1.418   2.389 -0.1128  0.4362 -0.3902
 6194SOL     OW30214   1.461   1.622   0.612  0.0862  0.4755  0.0285
 6194SOL    HW130215   1.401   1.573   0.669  0.0660 -1.3312 -1.5288
 6194SOL    HW230216   1.414   1.615   0.529  1.8253 -2.5925 -0.7202
 6195SOL     OW30217   1.420   1.240   0.884 -0.1596 -0.2526  0.3728
 6195SOL    HW130218   1.371   1.184   0.944 -1.1029 -0.5876 -0.7064
 6195SOL    HW230219   1.487   1.284   0.937  1.0838 -1.6814  0.0028
 6196SOL     OW30220   3.943   2.477   3.060 -0.4643 -0.5531  0.0554
 6196SOL    HW130221   3.851   2.458   3.043 -1.2258  0.7498  2.7894
 6196SOL    HW230222   3.975   2.462   2.971  0.3783  0.0791  0.2523
 6197SOL     OW30223   0.194   0.850   7.206 -0.0524 -0.5384  0.6641
 6197SOL    HW130224   0.225   0.889   7.288  1.7011  1.1893 -0.8318
 6197SOL    HW230225   0.274   0.823   7.162 -0.5067  2.9843 -2.3066
 6198SOL     OW30226   3.170   2.632   8.462  0.1359 -0.5416 -0.0086
 6198SOL    HW130227   3.258   2.655   8.430  0.5525 -2.4025 -0.1730
 6198SOL    HW230228   3.176   2.651   8.556 -1.0902  0.2450 -0.0812
 6199SOL     OW30229   2.548   3.453   2.711 -0.1921  0.5623  0.4478
 6199SOL    HW130230   2.550   3.474   2.618 -3.0434 -0.8256  0.0419
 6199SOL    HW230231   2.572   3.535   2.755 -0.8436  1.1737 -0.3452
 6200SOL     OW30232   2.257   2.808  15.926 -0.3330 -0.2326  0.5178
 6200SOL    HW130233   2.287   2.774  15.842 -2.6952  0.8311 -0.7504
 6200SOL    HW230234   2.173   2.761  15.925 -0.6259  0.2926  0.4260
 6201SOL     OW30235   1.489   1.031  13.339 -0.4009 -0.2744  0.2568
 6201SOL    HW130236   1.453   0.971  13.274  0.4236  0.3113 -0.7349
 6201SOL    HW230237   1.566   0.982  13.368 -0.0219  0.0968 -0.1282
 6202SOL     OW30238   1.017   4.361   3.490  0.3032  0.8738  0.3950
 6202SOL    HW130239   1.097   4.373   3.541  0.9893 -0.0995 -0.4451
 6202SOL    HW230240   1.017   4.267   3.473  0.9683  1.0286 -0.5006
 6203SOL     OW30241   0.902   2.078   4.092 -0.8889  0.1133 -0.0175
 6203SOL    HW130242   0.950   2.161   4.098  0.1386 -0.4176 -0.9156
 6203SOL    HW230243   0.894   2.044   4.181 -1.4581 -0.2470 -0.2042
 6204SOL     OW30244   1.947   2.474   4.223  0.9085  0.6754  0.1209
 6204SOL    HW130245   1.921   2.541   4.159 -3.1731  1.8695  2.9914
 6204SOL    HW230246   2.041   2.486   4.212  0.7978  0.6528 -0.8714
 6205SOL     OW30247   2.620   0.521  16.720  0.8144  0.2881  0.3177
 6205SOL    HW130248   2.715   0.511  16.728  1.2913  2.2163 -2.8094
 6205SOL    HW230249   2.620   0.601  16.667  0.7762  0.7594  1.0325
 6206SOL     OW30250   2.783   2.133   7.801  0.4219  0.2755  0.7114
 6206SOL    HW130251   2.760   2.176   7.719 -2.1058 -0.6424  0.9259
 6206SOL    HW230252   2.709   2.160   7.855 -0.7919 -1.3255 -0.1391
 6207SOL     OW30253   0.207   1.643   8.809  0.1841  0.3508  0.2110
 6207SOL    HW130254   0.178   1.717   8.863 -2.0851 -1.2178  1.1535
 6207SOL    HW230255   0.142   1.575   8.825  0.0172  0.1509 -1.2712
 6208SOL     OW30256   1.101   3.666  12.200 -0.1390 -0.2258 -0.3757
 6208SOL    HW130257   1.107   3.738  12.137  0.3032 -0.5374 -0.6911
 6208SOL    HW230258   1.196   3.651  12.205 -0.0386  0.6092  0.1957
 6209SOL     OW30259   3.453   0.624  16.037  0.0092 -0.0057  0.3154
 6209SOL    HW130260   3.478   0.543  16.082  0.3261 -0.6870 -1.0748
 6209SOL    HW230261   3.374   0.644  16.086 -0.3983 -1.9941  0.4535
 6210SOL     OW30262   1.597   3.025  15.383 -0.1205 -0.0945 -0.5991
 6210SOL    HW130263   1.622   2.986  15.299 -0.6576 -2.0051  0.1208
 6210SOL    HW230264   1.617   3.118  15.374  0.7877 -0.2259  0.0203
 6211SOL     OW30265   3.605   3.802   1.230  0.4130  0.4846  0.5044
 6211SOL    HW130266   3.672   3.796   1.298  1.2358 -0.9951 -0.4060
 6211SOL    HW230267   3.650   3.839   1.154 -0.0054  2.3524  1.1831
 6212SOL     OW30268   0.915   3.348   7.951  0.0350 -0.0798  0.3206
 6212SOL    HW130269   0.968   3.413   7.997  0.7776 -0.5524  0.1365
 6212SOL    HW230270   0.829   3.389   7.955  1.4340  3.0968 -1.7679
 6213SOL     OW30271   0.824   1.780   7.568  0.1629  0.1738  0.4228
 6213SOL    HW130272   0.848   1.739   7.485  2.2409 -1.1608  1.6633
 6213SOL    HW230273   0.886   1.853   7.574  0.0951  0.4969 -2.8468
 6214SOL     OW30274   4.325   4.261   8.336 -0.5391  0.0629 -0.2098
 6214SOL    HW130275   4.324   4.234   8.428  0.0557 -0.8487 -0.4662
 6214SOL    HW230276   4.233   4.285   8.327 -0.1277  1.2594 -1.2211
 6215SOL     OW30277   0.641   1.156   6.812  0.4642 -0.0967 -0.0258
 6215SOL    HW130278   0.685   1.085   6.766  1.1884 -1.4472  2.7323
 6215SOL    HW230279   0.585   1.190   6.743  0.6113  1.4010  0.5925
 6216SOL     OW30280   3.985   1.287   5.196 -0.2276 -0.4901  0.0222
 6216SOL    HW130281   3.935   1.251   5.123  0.5815 -1.5298 -0.0128
 6216SOL    HW230282   4.070   1.260   5.162  0.2959  1.2112 -0.0320
 6217SOL     OW30283   4.577   1.004   0.012 -0.1675  0.0045 -0.3450
 6217SOL    HW130284   4.534   1.056   0.080  0.0465 -0.6166  0.2683
 6217SOL    HW230285   4.655   1.059   0.003  0.8544 -1.2518  0.9774
 6218SOL     OW30286   0.400   1.821   2.916 -0.1378  0.0382  0.1529
 6218SOL    HW130287   0.488   1.857   2.927 -0.5516  1.0255  0.2677
 6218SOL    HW230288   0.355   1.887   2.968  0.3605 -0.7034  1.5194
 6219SOL     OW30289   1.075   2.377  16.686 -0.3783 -0.7908  0.3338
 6219SOL    HW130290   1.013   2.450  16.679  0.6043 -0.0896 -1.1328
 6219SOL    HW230291   1.151   2.432  16.664 -1.3113 -0.2896 -1.6097
 6220SOL     OW30292   1.214   0.034  17.302 -0.2729  0.3682 -0.3694
 6220SOL    HW130293   1.298   0.068  17.271 -0.0820  1.0599  0.9189
 6220SOL    HW230294   1.245   4.681  17.312  0.7680  0.9564  1.7725
 6221SOL     OW30295   1.497   2.469   5.122  0.0881 -0.7171  0.3771
 6221SOL    HW130296   1.439   2.447   5.195  0.6079  2.3804  1.6861
 6221SOL    HW230297   1.529   2.555   5.148  1.0720 -0.8275 -0.4719
 6222SOL     OW30298   3.636   3.733   1.653  0.8540  0.6893 -0.1602
 6222SOL    HW130299   3.695   3.658   1.649  0.5098  0.3786  0.6387
 6222SOL    HW230300   3.566   3.699   1.598  2.4404  0.8010 -2.2408
 6223SOL     OW30301   2.886   3.160   3.783 -0.3542 -0.1573  0.0123
 6223SOL    HW130302   2.977   3.138   3.800 -1.7171 -4.5038  1.6046
 6223SOL    HW230303   2.857   3.087   3.728 -1.2689 -1.7911  2.6659
 6224SOL     OW30304   1.536   3.803   5.373 -0.4463 -0.4669  0.7253
 6224SOL    HW130305   1.618   3.766   5.339 -1.8737 -0.8905 -2.2320
 6224SOL    HW230306   1.558   3.819   5.465 -1.0608 -0.3601  0.8487
 6225SOL     OW30307   2.638   3.802   6.694 -0.3468 -0.7815  0.6505
 6225SOL    HW130308   2.633   3.885   6.740 -3.3039  0.0012 -1.0780
 6225SOL    HW230309   2.562   3.756   6.730  1.1757 -2.6426  1.5210
 6226SOL     OW30310   1.820   3.740   5.290  0.2070  0.8261  0.4546
 6226SOL    HW130311   1.790   3.649   5.280  1.1308  0.7621 -1.6000
 6226SOL    HW230312   1.914   3.729   5.279  0.4047  0.8877  2.1289
 6227SOL     OW30313   3.708   3.864   2.761  0.3381  0.0362  0.1577
 6227SOL    HW130314   3.729   3.838   2.851 -0.3477  0.8368  0.5392
 6227SOL    HW230315   3.723   3.958   2.770  0.1515 -0.0050  0.8674
 6228SOL     OW30316   3.473   2.402   8.349 -0.0650 -0.7924 -0.0061
 6228SOL    HW130317   3.567   2.400   8.332  0.2722 -1.4344  1.9561
 6228SOL    HW230318   3.443   2.340   8.282  1.0073 -0.1540 -1.0755
 6229SOL     OW30319   1.068   2.425   0.487  0.4124  0.9946 -0.7097
 6229SOL    HW130320   0.986   2.375   0.484 -0.0143  1.7487 -1.3974
 6229SOL    HW230321   1.121   2.363   0.537  0.3693  1.2351 -0.3616
 6230SOL     OW30322   4.149   2.677  13.190 -0.3334  0.1977 -0.2777
 6230SOL    HW130323   4.191   2.728  13.122 -0.7442 -0.1568 -0.7931
 6230SOL    HW230324   4.081   2.636  13.137 -1.0156 -0.5130  1.1298
 6231SOL     OW30325   2.851   3.079   8.236 -0.1045  0.0491 -0.7661
 6231SOL    HW130326   2.858   3.050   8.146 -1.1086 -1.6332 -0.2938
 6231SOL    HW230327   2.837   2.999   8.286 -1.2141  0.5235 -0.3054
 6232SOL     OW30328   4.291   3.289   9.053 -0.0166 -0.2723  0.2073
 6232SOL    HW130329   4.365   3.281   9.114  0.7763 -2.5812 -1.0539
 6232SOL    HW230330   4.294   3.383   9.035 -0.0255 -0.5423 -1.1839
 6233SOL     OW30331   1.488   1.732  17.395  0.1579  0.3598 -0.6808
 6233SOL    HW130332   1.553   1.777  17.449 -0.9881  0.5361  0.5539
 6233SOL    HW230333   1.471   1.667  17.463 -1.6756  2.2199  0.6339
 6234SOL     OW30334   0.318   0.104   8.067 -0.1360  0.2885  0.2955
 6234SOL    HW130335   0.309   0.142   7.980 -0.7632 -2.2761 -0.7558
 6234SOL    HW230336   0.410   0.077   8.074 -0.3989 -0.0322  2.6095
 6235SOL     OW30337   3.477   2.646   5.995 -0.1967 -0.1224  0.2049
 6235SOL    HW130338   3.568   2.676   5.995 -0.4603  0.6503  1.1987
 6235SOL    HW230339   3.483   2.591   5.916  1.1431 -1.0457  0.9564
 6236SOL     OW30340   4.281   0.224  14.212  0.8366 -0.2352 -0.4428
 6236SOL    HW130341   4.208   0.195  14.267  0.3017  0.4887 -0.7700
 6236SOL    HW230342   4.290   0.317  14.233 -1.1103 -0.3566  0.9492
 6237SOL     OW30343   4.361   1.140  16.512  0.5046 -0.0133  0.4344
 6237SOL    HW130344   4.400   1.169  16.595  0.5677  1.9229 -0.2872
 6237SOL    HW230345   4.299   1.069  16.529 -0.1953  0.2330 -1.1409
 6238SOL     OW30346   1.462   1.196   6.328  0.0207  0.1662  0.3929
 6238SOL    HW130347   1.375   1.184   6.290  0.1886 -1.5521  0.5461
 6238SOL    HW230348   1.514   1.129   6.284 -0.8895 -1.3704  1.6176
 6239SOL     OW30349   0.630   0.574   1.567 -0.2821 -0.3707 -0.4407
 6239SOL    HW130350   0.591   0.504   1.619 -1.6087  1.3239  0.8779
 6239SOL    HW230351   0.599   0.648   1.620 -1.7756 -2.8263  2.1406
 6240SOL     OW30352   4.168   1.331  10.650  0.4119  0.1200  0.0354
 6240SOL    HW130353   4.143   1.403  10.707 -0.7453 -0.4256  0.2123
 6240SOL    HW230354   4.098   1.268  10.672 -0.6079  0.3874 -2.4421
 6241SOL     OW30355   1.766   2.340   9.172  0.2165  0.0087 -0.0125
 6241SOL    HW130356   1.730   2.322   9.085 -1.6929 -0.6154  0.8944
 6241SOL    HW230357   1.683   2.333   9.219  0.2470 -1.4767 -0.1776
 6242SOL     OW30358   4.546   1.860   2.681 -0.3453 -0.1563 -0.1394
 6242SOL    HW130359   4.585   1.837   2.766 -2.4364 -2.0622  0.3262
 6242SOL    HW230360   4.530   1.952   2.701  2.4539 -0.4662  3.5102
 6243SOL     OW30361   3.215   4.400   4.569  0.0174  0.2302  0.1184
 6243SOL    HW130362   3.192   4.313   4.603 -1.1554 -0.1548 -1.6710
 6243SOL    HW230363   3.294   4.367   4.525  0.3565 -1.1099  1.7232
 6244SOL     OW30364   2.604   1.677   3.058 -0.5069 -0.1285 -0.1865
 6244SOL    HW130365   2.602   1.617   3.133  3.1583  1.0762  0.8378
 6244SOL    HW230366   2.687   1.717   3.081 -0.7953 -1.0830  2.5193
 6245SOL     OW30367   2.090   4.195   5.799  0.4758 -0.3113 -0.3835
 6245SOL    HW130368   2.137   4.127   5.846  1.2465  1.0476  0.8359
 6245SOL    HW230369   2.002   4.165   5.819  0.4971 -0.7199 -0.9046
 6246SOL     OW30370   3.015   4.318   4.363  0.4180  0.1539 -0.3416
 6246SOL    HW130371   2.960   4.301   4.440  1.0007 -0.5325 -0.0749
 6246SOL    HW230372   3.074   4.387   4.392 -0.6024  1.0052 -0.2929
 6247SOL     OW30373   1.888   4.596   5.391 -0.1591  0.2548  0.5110
 6247SOL    HW130374   1.964   4.648   5.364 -0.4230 -0.4659 -1.6312
 6247SOL    HW230375   1.839   4.649   5.454  0.6890  0.9466  0.5861
 6248SOL     OW30376   1.658   2.619   5.537  0.1376  0.0975  0.2727
 6248SOL    HW130377   1.638   2.562   5.611  0.3659 -2.0794 -1.3444
 6248SOL    HW230378   1.574   2.631   5.493  1.3371 -1.0677 -2.3718
 6249SOL     OW30379   2.995   0.817   6.688  0.6588  0.0409  0.1613
 6249SOL    HW130380   2.999   0.891   6.748  3.5741 -1.5175  1.8680
 6249SOL    HW230381   3.084   0.786   6.675  0.0117 -1.6705 -0.1763
 6250SOL     OW30382   3.085   0.632   5.429 -0.2361 -0.0073  0.3585
 6250SOL    HW130383   3.078   0.569   5.357  0.1268 -0.2813  0.5648
 6250SOL    HW230384   2.999   0.626   5.471  0.4688  1.8266  2.0759
 6251SOL     OW30385   1.030   4.121  15.452  0.3929 -0.5808  0.4920
 6251SOL    HW130386   1.089   4.108  15.378 -0.0915  1.9701 -0.3573
 6251SOL    HW230387   1.061   4.206  15.483  1.9041 -0.5309 -1.1847
 6252SOL     OW30388   0.533   3.898   7.255 -0.2933  0.1442  0.4215
 6252SOL    HW130389   0.478   3.893   7.177 -1.1341  0.0199  1.0296
 6252SOL    HW230390   0.623   3.887   7.224 -0.5106  3.0536 -1.1708
 6253SOL     OW30391   1.146   2.801  13.713  0.5875  0.9514  0.1994
 6253SOL    HW130392   1.117   2.831  13.799  2.0494  0.5525  0.8281
 6253SOL    HW230393   1.231   2.846  13.713  1.7078 -1.1514 -1.2778
 6254SOL     OW30394   1.179   2.078   2.678 -0.1082  0.3218  0.0608
 6254SOL    HW130395   1.211   2.106   2.593  0.6624 -0.7449 -0.0091
 6254SOL    HW230396   1.087   2.104   2.671  0.0356  1.0257  0.7791
 6255SOL     OW30397   1.777   4.385  16.880  0.0810 -0.2051  0.1522
 6255SOL    HW130398   1.843   4.454  16.871 -0.7601  0.1559 -3.5968
 6255SOL    HW230399   1.732   4.403  16.962 -0.0259  1.5544 -0.3087
 6256SOL     OW30400   1.482   4.067   7.482  0.4032 -0.5546  0.0805
 6256SOL    HW130401   1.399   4.110   7.463  0.3345 -0.8024 -0.1736
 6256SOL    HW230402   1.487   4.071   7.578  1.2110 -2.0826  0.1077
 6257SOL     OW30403   3.685   4.504   2.323  0.4904 -0.9463  0.4701
 6257SOL    HW130404   3.652   4.456   2.400 -0.2219  1.4020  1.6415
 6257SOL    HW230405   3.630   4.461   2.257 -1.5950  0.0904  1.5309
 6258SOL     OW30406   2.213   0.776  16.806 -0.0802 -0.3270  0.8235
 6258SOL    HW130407   2.294   0.744  16.847  0.1587  1.0048  1.3982
 6258SOL    HW230408   2.188   0.846  16.867 -0.5456  0.3760 -0.1792
 6259SOL     OW30409   4.565   3.014   5.245  0.0556  0.6244  0.7286
 6259SOL    HW130410   4.629   3.041   5.310 -0.1459 -0.2440  1.2782
 6259SOL    HW230411   4.579   2.920   5.234 -0.7038  0.6893 -0.8697
 6260SOL     OW30412   1.862   0.605   8.205  0.3709  0.3697 -0.1617
 6260SOL    HW130413   1.796   0.539   8.182  1.3627 -0.7720  0.2189
 6260SOL    HW230414   1.848   0.629   8.296  3.4468 -0.8327  0.6182
 6261SOL     OW30415   1.393   2.298   2.543 -0.8224  0.0982  0.3208
 6261SOL    HW130416   1.346   2.336   2.470  0.8509 -0.6770 -1.1671
 6261SOL    HW230417   1.356   2.210   2.537 -0.1244 -0.1466 -0.4501
 6262SOL     OW30418   0.740   3.886  16.726  0.3733 -0.1866 -0.6325
 6262SOL    HW130419   0.821   3.895  16.776  0.0309  1.8341 -0.4350
 6262SOL    HW230420   0.701   3.969  16.753  0.9314 -0.1200 -0.0254
 6263SOL     OW30421   2.365   4.270  16.501  0.1711 -0.0853 -0.8102
 6263SOL    HW130422   2.327   4.355  16.478 -0.7020 -0.4724 -0.7727
 6263SOL    HW230423   2.280   4.227  16.501  1.0110 -1.7176 -1.1949
 6264SOL     OW30424   2.015   0.215   7.180  0.2485 -0.1726 -0.2741
 6264SOL    HW130425   1.970   0.222   7.264 -0.4566 -0.4927 -0.6309
 6264SOL    HW230426   1.949   0.251   7.120  1.4030  0.8074 -0.9644
 6265SOL     OW30427   0.527   1.246   3.642 -0.3499  0.3256 -0.7304
 6265SOL    HW130428   0.516   1.229   3.736 -2.2299 -0.6278 -1.1224
 6265SOL    HW230429   0.542   1.160   3.603  2.8970  0.3466  0.4904
 6266SOL     OW30430   0.423   3.228   8.281 -1.0270 -0.3607  0.1503
 6266SOL    HW130431   0.490   3.222   8.349 -2.1710 -0.2858  1.2694
 6266SOL    HW230432   0.363   3.161   8.314 -1.8652 -0.1963 -1.0038
 6267SOL     OW30433   0.551   3.565   9.287  0.2486 -0.0307  0.5960
 6267SOL    HW130434   0.492   3.640   9.289 -0.3209 -0.3660 -4.1304
 6267SOL    HW230435   0.634   3.608   9.306  0.0223  0.2791  0.8670
 6268SOL     OW30436   2.986   2.638   5.310  0.1616 -0.4843 -0.2023
 6268SOL    HW130437   3.075   2.603   5.306 -0.1339 -1.3765  0.6459
 6268SOL    HW230438   2.992   2.693   5.388  1.9842 -2.3598  0.9881
 6269SOL     OW30439   2.836   4.177   0.439  0.8680  0.1922  0.0428
 6269SOL    HW130440   2.869   4.167   0.350  2.4475  1.3524  0.4994
 6269SOL    HW230441   2.834   4.084   0.463 -2.8926 -0.2757 -2.0985
 6270SOL     OW30442   2.695   3.308   5.194 -0.0433  0.3016  0.0091
 6270SOL    HW130443   2.682   3.352   5.111  1.6107  1.1104  0.1738
 6270SOL    HW230444   2.655   3.222   5.179  2.6781 -0.5631 -2.1949
 6271SOL     OW30445   2.849   2.334  16.700 -0.0290  0.3725  0.5306
 6271SOL    HW130446   2.858   2.400  16.769 -2.2060  0.7669  0.4267
 6271SOL    HW230447   2.856   2.391  16.624  0.2080  2.4111  2.0813
 6272SOL     OW30448   3.548   3.212   3.424  0.0468 -0.2225 -0.1334
 6272SOL    HW130449   3.542   3.289   3.480 -1.3202 -0.9326  0.6815
 6272SOL    HW230450   3.462   3.213   3.382  0.4167  0.1473 -0.8941
 6273SOL     OW30451   4.423   1.193   8.532  0.2816  0.7694  0.2636
 6273SOL    HW130452   4.361   1.262   8.555  0.9715  1.9952 -1.5500
 6273SOL    HW230453   4.373   1.146   8.465 -1.5106  0.6964  1.6394
 6274SOL     OW30454   0.387   3.016   2.758 -0.1206  0.4145  0.0046
 6274SOL    HW130455   0.305   2.966   2.754  0.2661 -0.3157  1.0410
 6274SOL    HW230456   0.376   3.071   2.681 -0.9513 -0.3293 -0.4087
 6275SOL     OW30457   3.723   3.319   4.643 -0.0677 -0.2383 -0.2933
 6275SOL    HW130458   3.676   3.321   4.726 -1.4704  2.5686 -1.1321
 6275SOL    HW230459   3.795   3.380   4.659  0.6955 -1.8845  2.4520
 6276SOL     OW30460   3.080   3.668   2.896 -0.4520 -0.4667  0.3505
 6276SOL    HW130461   3.010   3.609   2.925  1.1457 -2.0816  0.8968
 6276SOL    HW230462   3.024   3.733   2.854 -1.6542 -1.6794  0.0616
 6277SOL     OW30463   3.324   3.112   0.305 -0.0375  0.4155 -0.3922
 6277SOL    HW130464   3.297   3.141   0.393  0.4624  0.2116 -0.1726
 6277SOL    HW230465   3.244   3.127   0.254 -0.7241 -0.4035  0.4321
 6278SOL     OW30466   4.229   1.908   2.625  0.7392  0.1304 -0.2005
 6278SOL    HW130467   4.174   1.986   2.615  0.1804 -0.2013  0.2584
 6278SOL    HW230468   4.310   1.943   2.661  0.9676  0.6176 -1.1872
 6279SOL     OW30469   2.130   1.777   4.133 -0.3076 -0.1975 -0.4450
 6279SOL    HW130470   2.199   1.737   4.080 -0.1676 -1.4281  0.6707
 6279SOL    HW230471   2.052   1.729   4.108 -0.3454  0.6284 -1.9303
 6280SOL     OW30472   2.392   3.047   5.494 -0.4525  0.2571 -0.8697
 6280SOL    HW130473   2.399   2.952   5.486 -0.9674  0.0829  0.8310
 6280SOL    HW230474   2.483   3.067   5.472 -0.0260  0.0418  0.7160
 6281SOL     OW30475   1.696   2.944   2.062  0.1386  0.2684 -0.1343
 6281SOL    HW130476   1.773   2.897   2.096 -0.0882 -0.4337 -0.5790
 6281SOL    HW230477   1.691   2.930   1.968 -1.7655  2.8831 -0.4006
 6282SOL     OW30478   3.608   1.053  17.482  0.3434 -0.0988  0.1564
 6282SOL    HW130479   3.590   1.041  17.389  0.0919 -1.8639  0.4401
 6282SOL    HW230480   3.538   1.011  17.531 -1.0695  1.2649 -0.6778
 6283SOL     OW30481   0.638   3.436   1.812 -0.0521 -0.3216 -0.2250
 6283SOL    HW130482   0.701   3.410   1.879  0.1607  1.3893  0.2468
 6283SOL    HW230483   0.702   3.470   1.749  0.8763  0.3750  1.1095
 6284SOL     OW30484   3.354   0.633   2.979  0.1981 -0.4422  0.0793
 6284SOL    HW130485   3.299   0.605   2.906 -1.9778  1.0065  1.1777
 6284SOL    HW230486   3.328   0.563   3.039  0.9822 -1.8164 -1.1806
 6285SOL     OW30487   2.363   2.549   9.637 -0.0985  0.2606 -0.3707
 6285SOL    HW130488   2.285   2.596   9.607 -0.3566 -0.7056 -1.2171
 6285SOL    HW230489   2.374   2.480   9.572 -1.6376 -1.8327  1.5723
 6286SOL     OW30490   3.582   0.356  16.147 -0.0920 -0.1640 -0.0287
 6286SOL    HW130491   3.674   0.352  16.120 -0.0756 -1.1834  0.1694
 6286SOL    HW230492   3.577   0.282  16.207 -2.1387 -0.5252 -0.6373
 6287SOL     OW30493   1.634   3.023  12.209  0.0015  0.3346 -0.0466
 6287SOL    HW130494   1.616   2.954  12.272  0.5426 -0.0537 -0.3103
 6287SOL    HW230495   1.674   3.090  12.265  2.8954 -0.9421 -0.5846
 6288SOL     OW30496   2.723   1.637   5.418  0.4546  0.4303  0.3170
 6288SOL    HW130497   2.731   1.599   5.505 -0.5682 -0.0612  0.1949
 6288SOL    HW230498   2.790   1.592   5.366  0.4473  1.9826 -1.0517
 6289SOL     OW30499   0.747   1.873   9.775 -0.0474  0.2989 -0.3548
 6289SOL    HW130500   0.798   1.799   9.808  0.6332  0.0231 -1.9832
 6289SOL    HW230501   0.665   1.827   9.762  1.0513 -1.9951  0.7895
 6290SOL     OW30502   3.597   4.730   5.349 -0.6769  0.3816 -0.0709
 6290SOL    HW130503   3.646   4.702   5.271 -0.4939  2.3158 -0.6629
 6290SOL    HW230504   3.521   4.675   5.333 -0.5987 -0.1863  1.4943
 6291SOL     OW30505   1.105   2.199   2.170  0.2583  0.5693  0.1415
 6291SOL    HW130506   1.028   2.180   2.117  1.2774 -2.7333 -0.1464
 6291SOL    HW230507   1.154   2.262   2.117 -0.1497  0.0873 -0.8055
 6292SOL     OW30508   3.937   2.359   6.926 -0.0064  0.0525 -0.3244
 6292SOL    HW130509   3.882   2.404   6.861  0.2359  0.7955 -0.0061
 6292SOL    HW230510   3.981   2.432   6.970  1.4807 -0.5553 -0.8056
 6293SOL     OW30511   4.289   4.475   3.088  0.0157  0.8770 -0.2257
 6293SOL    HW130512   4.370   4.429   3.070 -0.2694 -0.0725  0.9636
 6293SOL    HW230513   4.318   4.540   3.153 -1.1471  0.9991  0.1749
 6294SOL     OW30514   1.785   2.321  16.427 -0.7348  0.1974 -0.2350
 6294SOL    HW130515   1.864   2.337  16.376 -0.8894  1.8248  0.0582
 6294SOL    HW230516   1.821   2.245  16.472 -0.5478  1.1341  1.1790
 6295SOL     OW30517   1.477   4.556   8.986 -0.8137  0.6130 -0.3469
 6295SOL    HW130518   1.547   4.618   8.966  0.8762 -1.2352 -0.1556
 6295SOL    HW230519   1.416   4.573   8.915 -1.5515 -0.1050  0.1228
 6296SOL     OW30520   1.372   0.023   9.177 -0.1584  0.1234 -0.2079
 6296SOL    HW130521   1.417   4.727   9.254  0.2886  0.1458 -0.4602
 6296SOL    HW230522   1.411   4.708   9.107 -2.0034 -1.2047 -0.2285
 6297SOL     OW30523   2.363   1.277   5.306  0.4739  0.1146  0.0341
 6297SOL    HW130524   2.439   1.255   5.359  0.5053  3.6201  1.4340
 6297SOL    HW230525   2.375   1.372   5.306  0.8746  0.0593 -2.1149
 6298SOL     OW30526   4.379   4.513   7.342  0.3797  0.1316  0.2025
 6298SOL    HW130527   4.440   4.562   7.398 -1.0241  1.8228  0.2287
 6298SOL    HW230528   4.301   4.559   7.373  1.3560  0.3848  2.2835
 6299SOL     OW30529   3.785   1.809   5.301  0.0288 -0.0031 -0.2320
 6299SOL    HW130530   3.851   1.877   5.313  0.7093 -0.3251 -2.2167
 6299SOL    HW230531   3.818   1.743   5.363  0.4751  1.2505  0.8816
 6300SOL     OW30532   4.671   1.044  10.545 -0.1226 -0.8066  0.0070
 6300SOL    HW130533   4.598   1.102  10.526 -0.2533 -1.1638 -0.6185
 6300SOL    HW230534   4.731   1.059  10.472  0.8896  1.0910  1.2523
 6301SOL     OW30535   4.066   3.900  13.188  0.1777 -0.1213 -0.6841
 6301SOL    HW130536   4.153   3.904  13.147  0.0494 -0.8303 -1.0351
 6301SOL    HW230537   4.071   3.949  13.270 -0.3840 -1.1072 -0.0663
 6302SOL     OW30538   3.775   3.180  12.848 -0.4985 -0.1270 -0.1923
 6302SOL    HW130539   3.769   3.263  12.801  0.4203  1.2099  2.0553
 6302SOL    HW230540   3.797   3.122  12.775  0.3873  2.8636 -2.2860
 6303SOL     OW30541   1.419   4.519   8.357  0.3311  0.5196  0.2324
 6303SOL    HW130542   1.435   4.604   8.396  1.1964 -0.1607  1.3397
 6303SOL    HW230543   1.334   4.498   8.395  0.2530  0.0246 -0.2166
 6304SOL     OW30544   0.857   2.670  14.750 -0.3471  0.4151  0.1682
 6304SOL    HW130545   0.913   2.605  14.706  0.9396  0.2100  2.1215
 6304SOL    HW230546   0.819   2.615  14.818 -1.2230 -0.1023 -0.7336
 6305SOL     OW30547   0.177   1.589  12.191 -0.0287  0.3573 -0.0879
 6305SOL    HW130548   0.158   1.495  12.194 -1.7408  0.7088 -0.1156
 6305SOL    HW230549   0.254   1.585  12.248  1.6054 -0.2891 -2.3140
 6306SOL     OW30550   3.961   0.820  13.919 -0.0798  0.2355  1.0317
 6306SOL    HW130551   4.012   0.739  13.923  1.4178  1.0704 -1.1706
 6306SOL    HW230552   3.907   0.808  13.997 -0.8904  2.5299  0.8262
 6307SOL     OW30553   3.340   3.811  17.108 -0.0056  0.5277  0.3204
 6307SOL    HW130554   3.356   3.721  17.135 -0.0609  0.3418 -0.2688
 6307SOL    HW230555   3.401   3.815  17.034  1.4228 -1.6631  1.3813
 6308SOL     OW30556   0.824   3.673   9.288 -0.0415 -0.0263 -0.4034
 6308SOL    HW130557   0.818   3.656   9.194  0.9934 -0.2707 -0.4283
 6308SOL    HW230558   0.882   3.604   9.320  0.5868 -0.2589 -2.0862
 6309SOL     OW30559   3.217   1.643   9.391 -0.0285  0.2174  0.2953
 6309SOL    HW130560   3.169   1.601   9.320 -0.5515  0.5617  0.4481
 6309SOL    HW230561   3.138   1.655   9.442  1.8697 -0.3276  3.3235
 6310SOL     OW30562   4.578   3.032   2.183 -0.6896 -0.3035  0.1893
 6310SOL    HW130563   4.622   3.099   2.131  0.0413 -2.5618 -2.1130
 6310SOL    HW230564   4.485   3.054   2.171 -0.7038 -0.9437 -0.9134
 6311SOL     OW30565   0.946   3.929   8.826 -0.0352 -1.0459 -0.0945
 6311SOL    HW130566   0.991   3.966   8.749 -1.3390  0.3759 -0.1703
 6311SOL    HW230567   0.865   3.891   8.793 -0.4827 -2.2108  2.4167
 6312SOL     OW30568   1.779   3.690   1.134  0.6785  0.3139 -0.4280
 6312SOL    HW130569   1.772   3.602   1.171  0.8543  0.0643 -0.9943
 6312SOL    HW230570   1.780   3.745   1.212 -2.8970  0.2343 -0.3407
 6313SOL     OW30571   0.702   2.464   6.324 -0.1519  0.2945  0.1378
 6313SOL    HW130572   0.622   2.435   6.367  0.4429  1.1558  1.8162
 6313SOL    HW230573   0.755   2.387   6.342 -2.2848 -0.5521  2.6921
 6314SOL     OW30574   2.591   3.534   0.302  0.0894  0.1283 -0.3310
 6314SOL    HW130575   2.580   3.619   0.345  4.4474 -0.1042  1.2747
 6314SOL    HW230576   2.545   3.544   0.219 -1.3495 -0.8171  0.3452
 6315SOL     OW30577   3.819   2.624   7.207 -0.0865  0.3614  0.2532
 6315SOL    HW130578   3.796   2.533   7.187  2.0513  0.0368 -0.7374
 6315SOL    HW230579   3.907   2.610   7.242  1.7121  3.0486 -3.2626
 6316SOL     OW30580   0.610   1.002   3.523 -0.1966  0.4389  0.1061
 6316SOL    HW130581   0.644   0.938   3.585  0.6678 -0.4223 -1.2679
 6316SOL    HW230582   0.583   0.957   3.443  0.1001 -1.9947  1.4108
 6317SOL     OW30583   0.200   4.104   5.170  0.0664 -0.3786  0.2656
 6317SOL    HW130584   0.116   4.090   5.215  0.5050  1.0874  1.5622
 6317SOL    HW230585   0.174   4.077   5.082 -0.7245 -3.1879  1.3756
 6318SOL     OW30586   2.875   1.213   8.597  0.2453 -0.0790 -0.0643
 6318SOL    HW130587   2.845   1.126   8.622  0.1275  0.3823  1.3797
 6318SOL    HW230588   2.878   1.209   8.501 -1.4207 -0.2023 -0.1090
 6319SOL     OW30589   2.253   2.046   2.428 -0.3848 -0.7125  0.2296
 6319SOL    HW130590   2.315   2.117   2.419  1.0222 -2.0036 -0.2894
 6319SOL    HW230591   2.210   2.055   2.513 -1.1311  1.5898 -0.3900
 6320SOL     OW30592   0.577   2.660   3.340  0.1222  0.0811 -0.1436
 6320SOL    HW130593   0.545   2.655   3.430 -0.0876 -0.6469 -0.2573
 6320SOL    HW230594   0.501   2.697   3.296  1.2095  0.7817 -1.4433
 6321SOL     OW30595   1.548   2.229   9.558  0.2374  0.3873  0.0558
 6321SOL    HW130596   1.559   2.253   9.650 -0.6597  1.2701 -0.0618
 6321SOL    HW230597   1.580   2.312   9.522 -1.3726  1.3522  0.8547
 6322SOL     OW30598   2.261   0.057   4.561  0.0254 -0.3450 -0.3668
 6322SOL    HW130599   2.255   0.015   4.647  1.0715  0.0738 -0.0898
 6322SOL    HW230600   2.187   0.117   4.567 -1.3059 -1.9448 -0.7590
 6323SOL     OW30601   4.526   3.926  15.017 -0.0463 -0.3207 -0.2483
 6323SOL    HW130602   4.525   3.923  15.113  0.3637  1.1717 -0.2044
 6323SOL    HW230603   4.547   3.837  14.986 -0.0720 -0.0696 -0.9870
 6324SOL     OW30604   3.335   0.224  12.172  0.1659  0.2577 -0.2187
 6324SOL    HW130605   3.340   0.168  12.095  0.8133 -0.3651  0.2734
 6324SOL    HW230606   3.301   0.159  12.233  2.4349  0.8944  1.7662
 6325SOL     OW30607   3.471   1.323   0.003 -0.3872 -0.0366 -0.4562
 6325SOL    HW130608   3.429   1.308   0.088  1.3466  0.8615  0.5489
 6325SOL    HW230609   3.555   1.279   0.019 -0.9926  0.1242  3.3286
 6326SOL     OW30610   4.440   2.570  13.038  0.0481  0.5267  0.1898
 6326SOL    HW130611   4.364   2.603  12.990  0.0352  0.7815  0.3840
 6326SOL    HW230612   4.436   2.622  13.119 -1.6982 -1.6779  1.5216
 6327SOL     OW30613   2.678   1.468   3.543 -0.0698  0.3453  0.6923
 6327SOL    HW130614   2.761   1.500   3.508 -0.9602 -0.6200 -2.2738
 6327SOL    HW230615   2.634   1.548   3.573 -1.8438 -1.0137  1.7313
 6328SOL     OW30616   3.040   3.329   3.092  0.1386  0.0208 -0.2862
 6328SOL    HW130617   2.997   3.261   3.144  1.9903  0.4436  1.8311
 6328SOL    HW230618   3.049   3.396   3.160  2.2630 -1.0437  0.4917
 6329SOL     OW30619   0.756   0.046  16.114 -0.0640  0.1114  0.1450
 6329SOL    HW130620   0.764   4.734  16.033  0.9487  0.4636  0.0212
 6329SOL    HW230621   0.686   0.110  16.097 -1.6672 -1.3877  1.1224
 6330SOL     OW30622   4.333   1.714   4.095  0.3270  0.1909  0.5174
 6330SOL    HW130623   4.274   1.657   4.144 -1.3309  1.4959  0.0644
 6330SOL    HW230624   4.372   1.649   4.037 -1.0320 -2.1882  2.2676
 6331SOL     OW30625   3.378   1.803   2.822 -0.0604  0.2019  0.1992
 6331SOL    HW130626   3.443   1.758   2.769  1.5406 -0.1047  2.4259
 6331SOL    HW230627   3.303   1.801   2.763 -1.1213  2.8651  1.4264
 6332SOL     OW30628   2.419   1.474   8.693  0.4253  0.0789 -0.2129
 6332SOL    HW130629   2.455   1.487   8.781  3.4936  1.4199 -1.6544
 6332SOL    HW230630   2.501   1.438   8.658  0.8608 -0.7703  1.6949
 6333SOL     OW30631   2.046   1.218   3.946  0.4219  0.1115 -0.1924
 6333SOL    HW130632   2.066   1.131   3.980 -1.9254 -0.5658 -0.4872
 6333SOL    HW230633   1.965   1.238   3.993  0.8554  0.1343  0.5411
 6334SOL     OW30634   1.416   0.990   6.696  0.1106 -0.2641  0.0327
 6334SOL    HW130635   1.436   0.932   6.622 -0.0177 -1.0466  0.6224
 6334SOL    HW230636   1.338   1.035   6.663  0.0864 -0.4953 -0.2205
 6335SOL     OW30637   2.665   0.101   3.374  0.1529 -0.3637 -0.8775
 6335SOL    HW130638   2.658   0.178   3.318 -1.1868 -0.5939 -1.0166
 6335SOL    HW230639   2.652   0.139   3.461  0.0319  0.0441 -1.0718
 6336SOL     OW30640   2.258   1.053  13.315 -0.4159  0.1931 -0.1335
 6336SOL    HW130641   2.254   0.993  13.240 -2.2203 -0.9637  0.8986
 6336SOL    HW230642   2.342   1.021  13.349 -0.2625  0.4671 -0.2508
 6337SOL     OW30643   4.348   4.205   2.276 -0.0979  0.3569 -0.2076
 6337SOL    HW130644   4.342   4.183   2.369  2.2831  2.9970  0.5498
 6337SOL    HW230645   4.333   4.299   2.274  2.5017  0.7487 -1.2334
 6338SOL     OW30646   3.007   1.191   4.130  0.6409 -0.4058  0.0348
 6338SOL    HW130647   3.007   1.225   4.040  0.9319 -0.5022 -0.0031
 6338SOL    HW230648   3.086   1.238   4.160  1.5827 -1.1470 -1.2756
 6339SOL     OW30649   4.178   0.328   6.510  0.0508  0.3425 -0.2167
 6339SOL    HW130650   4.117   0.270   6.557  1.1775 -1.0740 -0.4767
 6339SOL    HW230651   4.125   0.355   6.436  0.9754 -0.9707 -1.3780
 6340SOL     OW30652   1.197   2.444   4.443  0.1837 -0.0058  0.0497
 6340SOL    HW130653   1.107   2.440   4.413  0.5142 -2.3398 -0.6602
 6340SOL    HW230654   1.184   2.423   4.536 -2.9905  0.8164 -0.2102
 6341SOL     OW30655   1.042   2.520   7.814  0.0837 -0.1304  0.2372
 6341SOL    HW130656   0.962   2.565   7.843 -0.4346  0.1301 -1.6349
 6341SOL    HW230657   1.005   2.490   7.731  0.0101  0.5116  0.0410
 6342SOL     OW30658   0.278   1.225   2.306 -0.6229  0.4831 -0.6581
 6342SOL    HW130659   0.326   1.305   2.286 -0.1254  0.8232  1.9901
 6342SOL    HW230660   0.293   1.205   2.398  0.5992 -0.5472 -1.0760
 6343SOL     OW30661   2.389   4.281   5.686 -0.0060  0.3327  0.1961
 6343SOL    HW130662   2.318   4.216   5.684 -0.5872  0.9494  0.6526
 6343SOL    HW230663   2.410   4.283   5.779  0.1729 -1.6659  0.2050
 6344SOL     OW30664   1.694   2.493   8.724 -0.3874 -0.2557  0.4414
 6344SOL    HW130665   1.756   2.542   8.669  0.2574  0.4550  1.7949
 6344SOL    HW230666   1.608   2.529   8.700 -0.1400  0.0484 -0.0114
 6345SOL     OW30667   2.794   3.549   2.426 -0.2191  0.1453 -0.1084
 6345SOL    HW130668   2.800   3.645   2.419  1.4384  0.0773  0.5977
 6345SOL    HW230669   2.699   3.543   2.437  0.1991 -2.0898  2.2588
 6346SOL     OW30670   0.739   0.942   8.854  0.7315 -0.3870 -0.4041
 6346SOL    HW130671   0.773   0.993   8.781  1.1218 -2.0751 -1.3926
 6346SOL    HW230672   0.651   0.944   8.815 -0.2138  0.6878  1.7795
 6347SOL     OW30673   1.222   3.658   2.831 -0.2072  0.0133  0.5523
 6347SOL    HW130674   1.231   3.563   2.843  0.9981  0.1416  0.6861
 6347SOL    HW230675   1.231   3.674   2.737  2.6983  0.8516  0.9612
 6348SOL     OW30676   2.194   3.934   8.490  0.2608  0.6247  0.0355
 6348SOL    HW130677   2.138   3.990   8.543 -0.6445  1.0775 -1.4025
 6348SOL    HW230678   2.286   3.943   8.516 -0.7549  2.1925  3.0423
 6349SOL     OW30679   3.941   3.541   8.258 -0.0120 -0.6361 -0.9282
 6349SOL    HW130680   3.936   3.606   8.188  2.1697  0.4020 -0.1155
 6349SOL    HW230681   3.906   3.466   8.209 -1.6777 -1.3854  1.4285
 6350SOL     OW30682   1.263   3.959   9.764 -0.1673 -0.5254  0.7755
 6350SOL    HW130683   1.275   3.865   9.750  0.6816 -0.5185  1.4315
 6350SOL    HW230684   1.340   4.006   9.798 -0.1206 -1.8344  2.4841
 6351SOL     OW30685   3.333   1.150   3.037  0.0575  0.3438 -0.0287
 6351SOL    HW130686   3.387   1.165   2.960  1.6224 -1.8038  0.6358
 6351SOL    HW230687   3.321   1.056   3.025 -0.2241  0.1304  1.9126
 6352SOL     OW30688   3.996   3.429   9.896  0.3944  0.6851  0.5461
 6352SOL    HW130689   4.000   3.506   9.840  0.0455  0.8248  0.7169
 6352SOL    HW230690   3.902   3.420   9.908 -0.2013  0.8141 -3.8677
 6353SOL     OW30691   0.960   4.479   7.615 -0.2057 -0.1279  0.2041
 6353SOL    HW130692   1.052   4.472   7.591  0.1820 -1.1121  1.9435
 6353SOL    HW230693   0.974   4.529   7.696  1.7791  2.3325 -1.6581
 6354SOL     OW30694   2.959   1.939   9.409 -0.0653 -0.0423  0.5863
 6354SOL    HW130695   2.962   1.849   9.378  5.3636 -0.0680  1.1395
 6354SOL    HW230696   3.047   1.969   9.384  0.2661 -1.9093 -0.4612
 6355SOL     OW30697   3.333   1.786   6.201 -0.0680 -0.2766 -0.3111
 6355SOL    HW130698   3.300   1.752   6.118  0.9908  0.9090 -1.2147
 6355SOL    HW230699   3.417   1.742   6.191 -0.4315 -1.3872  1.5803
 6356SOL     OW30700   3.772   3.586   8.839 -0.0581  0.6569  0.2548
 6356SOL    HW130701   3.782   3.496   8.807  0.7028  0.4536  1.1034
 6356SOL    HW230702   3.755   3.636   8.759  0.5681 -1.0015 -0.9147
 6357SOL     OW30703   4.353   4.146   6.217 -0.3481  0.3235 -0.3587
 6357SOL    HW130704   4.381   4.184   6.133 -1.0912  0.3843 -0.5795
 6357SOL    HW230705   4.417   4.075   6.226 -1.1625  0.0294  3.0269
 6358SOL     OW30706   1.456   3.043   5.062 -0.0627 -0.0136  0.1553
 6358SOL    HW130707   1.427   3.131   5.082 -0.8478 -0.4884  1.0607
 6358SOL    HW230708   1.374   2.994   5.058 -1.2616  2.0541 -0.1042
 6359SOL     OW30709   2.478   3.705   8.319 -0.5268  0.3822  0.2472
 6359SOL    HW130710   2.518   3.626   8.355  1.4336  1.2045 -0.0997
 6359SOL    HW230711   2.548   3.769   8.338  0.8520 -1.3565  1.0647
 6360SOL     OW30712   3.826   3.922   4.458  0.1305 -0.2713  0.9599
 6360SOL    HW130713   3.898   3.968   4.416 -1.8505  0.7641 -1.3266
 6360SOL    HW230714   3.815   3.973   4.538  1.2879  0.0969  0.8847
 6361SOL     OW30715   1.014   3.323   2.728 -0.3198  0.1018 -0.0685
 6361SOL    HW130716   0.932   3.348   2.771 -1.4872 -1.4545 -1.3912
 6361SOL    HW230717   0.983   3.289   2.644 -0.3820 -0.1116  0.0413
 6362SOL     OW30718   1.272   4.197   2.423  0.2557 -0.0900  0.4871
 6362SOL    HW130719   1.367   4.207   2.419  0.2985 -1.3702 -1.6760
 6362SOL    HW230720   1.261   4.103   2.439  0.9676 -0.3219 -0.3683
 6363SOL     OW30721   1.895   3.804   6.404  0.2696 -0.0840 -0.3919
 6363SOL    HW130722   1.820   3.847   6.364  0.1891 -0.0071 -0.1575
 6363SOL    HW230723   1.866   3.713   6.415  3.3583 -0.9907  0.3501
 6364SOL     OW30724   0.170   0.103  10.623  0.9049  0.3550  0.0798
 6364SOL    HW130725   0.090   0.064  10.588 -0.1375  1.0942  1.6176
 6364SOL    HW230726   0.144   0.195  10.614 -1.1926 -0.1491  1.1068
 6365SOL     OW30727   3.827   1.020   5.155  0.1197  0.4101  0.0013
 6365SOL    HW130728   3.887   1.022   5.081  0.9564 -2.7412  0.5949
 6365SOL    HW230729   3.888   1.035   5.228 -1.5791  2.1253  1.0735
 6366SOL     OW30730   2.997   1.185   8.307 -0.2025 -0.2869 -0.1865
 6366SOL    HW130731   2.944   1.128   8.251 -0.2187 -2.3590  1.9204
 6366SOL    HW230732   3.078   1.190   8.256 -0.0289  2.4914  0.3398
 6367SOL     OW30733   2.022   2.593  11.028  0.1457  0.6495 -0.6638
 6367SOL    HW130734   2.011   2.621  11.119  1.1806  0.4860 -0.4842
 6367SOL    HW230735   2.115   2.612  11.011  0.4043  0.4452  0.4962
 6368SOL     OW30736   2.307   4.442   8.672 -0.4647 -0.1873  0.3003
 6368SOL    HW130737   2.362   4.393   8.612  1.3406  1.1420  0.8615
 6368SOL    HW230738   2.293   4.517   8.613 -0.1496 -0.3090  0.0750
 6369SOL     OW30739   0.832   2.308   4.452  0.6267 -0.0642 -0.4353
 6369SOL    HW130740   0.757   2.356   4.417 -0.6144  0.0732  2.4017
 6369SOL    HW230741   0.859   2.360   4.527  1.5064 -3.0303  1.3065
 6370SOL     OW30742   3.473   2.695   4.958  0.0090  0.5241  0.2772
 6370SOL    HW130743   3.448   2.684   5.050  1.6586  3.1001  1.0446
 6370SOL    HW230744   3.403   2.649   4.912 -1.1400  1.4505  1.0733
 6371SOL     OW30745   4.388   2.199   6.429  0.3285 -0.1112 -0.6610
 6371SOL    HW130746   4.307   2.235   6.392  0.8001 -0.3136 -1.9008
 6371SOL    HW230747   4.355   2.116   6.464 -0.6933  0.8462  0.6667
 6372SOL     OW30748   3.736   3.643   6.586  0.1737 -0.1010 -0.8202
 6372SOL    HW130749   3.685   3.719   6.558 -0.1279  0.3801  1.0736
 6372SOL    HW230750   3.795   3.633   6.511  0.3884  1.0335 -0.7969
 6373SOL     OW30751   3.187   0.343   4.254 -0.2337  0.6681  0.8549
 6373SOL    HW130752   3.202   0.404   4.181  3.2753  0.5011  1.4250
 6373SOL    HW230753   3.145   0.409   4.309  1.5245  1.6030  1.0825
 6374SOL     OW30754   1.133   1.191   3.729  0.1141 -0.3048 -0.4151
 6374SOL    HW130755   1.124   1.227   3.640  1.3713  1.7876  0.3094
 6374SOL    HW230756   1.074   1.116   3.716  0.4697 -1.0875  2.4781
 6375SOL     OW30757   1.835   1.769  10.981  0.1842  1.3141  0.4800
 6375SOL    HW130758   1.898   1.837  11.004 -0.0806  1.4465  0.8327
 6375SOL    HW230759   1.793   1.808  10.904 -1.8826  0.4439  1.1673
 6376SOL     OW30760   1.838   3.840  15.691 -0.4482 -0.4565 -0.1975
 6376SOL    HW130761   1.914   3.844  15.632 -0.2042 -2.0033  0.0149
 6376SOL    HW230762   1.804   3.927  15.672  2.1616  0.3889 -1.0582
 6377SOL     OW30763   2.422   2.526   1.442 -0.1033 -0.5780 -0.0876
 6377SOL    HW130764   2.437   2.483   1.358  1.2798 -2.1958  0.9727
 6377SOL    HW230765   2.504   2.569   1.465 -0.6488  1.4185 -1.8978
 6378SOL     OW30766   3.484   0.825   4.522  0.6640 -0.1639  0.6800
 6378SOL    HW130767   3.444   0.911   4.511 -0.2786 -0.5714  0.9407
 6378SOL    HW230768   3.566   0.848   4.478  0.7062  0.1351  0.9163
 6379SOL     OW30769   3.742   0.273   0.503  0.7610 -0.2437 -0.0743
 6379SOL    HW130770   3.724   0.366   0.499 -4.3424 -1.2144  0.4206
 6379SOL    HW230771   3.792   0.265   0.585  1.2172 -1.8442 -0.5054
 6380SOL     OW30772   2.291   1.414   7.282 -0.4403 -0.4081  0.2286
 6380SOL    HW130773   2.324   1.392   7.369 -1.1304  0.7632  0.7857
 6380SOL    HW230774   2.357   1.481   7.264 -0.6481 -0.3892 -0.4794
 6381SOL     OW30775   1.892   2.826   8.078 -0.2662  0.7664  0.1434
 6381SOL    HW130776   1.881   2.895   8.143  0.8645 -0.4584  1.6274
 6381SOL    HW230777   1.987   2.824   8.080 -0.3247 -0.1701  1.6510
 6382SOL     OW30778   2.924   1.001   6.498  0.5090 -0.1011  0.0852
 6382SOL    HW130779   2.851   1.015   6.558  0.0381 -0.4471 -0.4070
 6382SOL    HW230780   2.947   0.919   6.542 -0.9275 -0.2049  0.6511
 6383SOL     OW30781   4.198   2.390   2.079  0.0376 -0.0656  0.0393
 6383SOL    HW130782   4.138   2.460   2.104  0.6919  1.2024 -1.9829
 6383SOL    HW230783   4.153   2.319   2.126  1.7330  0.2884  2.1931
 6384SOL     OW30784   0.420   2.644   5.894 -0.1389 -0.2350 -0.1558
 6384SOL    HW130785   0.427   2.564   5.842  0.2939  0.0460 -0.5327
 6384SOL    HW230786   0.341   2.619   5.941 -0.5482 -1.8116 -1.6734
 6385SOL     OW30787   0.814   0.796   5.138 -0.3590  0.3324  0.4505
 6385SOL    HW130788   0.833   0.807   5.045 -1.2483  0.3000  0.2637
 6385SOL    HW230789   0.746   0.862   5.153  0.4528  0.8190  1.9583
 6386SOL     OW30790   4.637   4.171   2.153  0.1721 -0.1545 -0.4135
 6386SOL    HW130791   4.697   4.232   2.195  1.5427 -0.2744 -2.2152
 6386SOL    HW230792   4.580   4.143   2.224  0.5277 -1.0387 -0.4808
 6387SOL     OW30793   4.277   2.861   9.665  0.5111 -0.2389 -0.0528
 6387SOL    HW130794   4.321   2.944   9.681  3.3498 -1.8117  0.2540
 6387SOL    HW230795   4.267   2.861   9.570 -2.5014 -0.6485  0.2639
 6388SOL     OW30796   1.862   0.672   5.444 -0.0524  0.5897  0.0942
 6388SOL    HW130797   1.868   0.717   5.528 -0.3036 -0.7963  0.8524
 6388SOL    HW230798   1.902   0.743   5.392 -0.3781  0.4314 -0.3778
 6389SOL     OW30799   1.605   0.833   8.561  0.1341 -0.1187 -0.0909
 6389SOL    HW130800   1.683   0.798   8.603  0.0032 -0.2522  0.0415
 6389SOL    HW230801   1.560   0.876   8.634 -0.1836 -0.0622 -0.3195
 6390SOL     OW30802   0.905   3.828   3.400 -0.0329 -0.2191  0.2215
 6390SOL    HW130803   0.864   3.793   3.320 -3.0802  0.4545  1.4772
 6390SOL    HW230804   0.838   3.823   3.469  0.9137  2.5334  1.3598
 6391SOL     OW30805   1.757   4.542   5.162 -0.0761  0.3569  0.2655
 6391SOL    HW130806   1.821   4.561   5.231 -1.4809 -0.8139  1.8838
 6391SOL    HW230807   1.730   4.451   5.167  0.2494  0.0761 -2.9147
 6392SOL     OW30808   4.060   4.105   3.725 -0.3517  0.3247 -0.2561
 6392SOL    HW130809   4.088   4.033   3.781  0.1613  1.2647  0.7056
 6392SOL    HW230810   4.132   4.123   3.665 -0.4078 -2.0408 -1.0096
 6393SOL     OW30811   0.072   3.807  13.965  0.7116 -0.2620 -0.4408
 6393SOL    HW130812   4.728   3.839  13.927 -0.0393 -1.7301 -0.0613
 6393SOL    HW230813   0.052   3.714  13.978 -0.5546 -0.3241 -2.9318
 6394SOL     OW30814   0.855   2.334   8.305  0.5023  0.0172 -0.1482
 6394SOL    HW130815   0.804   2.264   8.345  0.8539 -0.7943 -1.1230
 6394SOL    HW230816   0.797   2.361   8.234  0.5835 -0.4976 -0.4034
 6395SOL     OW30817   4.379   0.475   7.031  0.0809  0.5936 -0.2429
 6395SOL    HW130818   4.379   0.478   7.126  0.4545  1.3141 -0.2671
 6395SOL    HW230819   4.307   0.536   7.012 -1.2247 -0.6120  0.8252
 6396SOL     OW30820   4.351   3.552   7.572 -0.3138 -0.2101  0.6922
 6396SOL    HW130821   4.317   3.495   7.641 -2.5305  1.5650  1.0590
 6396SOL    HW230822   4.382   3.622   7.630 -0.6840  0.2538  0.3221
 6397SOL     OW30823   0.531   3.634   5.302  0.0219 -0.1165 -0.1604
 6397SOL    HW130824   0.456   3.576   5.319  1.2160 -1.1485  1.6532
 6397SOL    HW230825   0.593   3.562   5.288  0.7858  0.3694  0.6706
 6398SOL     OW30826   2.359   0.265   3.182 -0.4764 -0.5645  0.5021
 6398SOL    HW130827   2.350   0.230   3.271 -2.1539 -2.7323 -0.5411
 6398SOL    HW230828   2.454   0.273   3.170 -0.3575 -2.0191  0.4560
 6399SOL     OW30829   2.105   2.265   7.644 -0.0831  0.0755 -0.0221
 6399SOL    HW130830   2.038   2.276   7.577 -1.5046 -2.9513  0.9202
 6399SOL    HW230831   2.183   2.239   7.595  0.3113  1.6319 -0.2254
 6400SOL     OW30832   0.399   2.485   5.517 -0.3656  0.1834  0.4852
 6400SOL    HW130833   0.359   2.572   5.527  1.5809  1.2500 -0.8769
 6400SOL    HW230834   0.411   2.459   5.608 -0.9476  0.3977  0.6215
 6401SOL     OW30835   0.497   0.499   5.499 -0.3824 -0.3904 -0.3189
 6401SOL    HW130836   0.451   0.530   5.422  1.6536  1.4940 -0.7887
 6401SOL    HW230837   0.562   0.569   5.495 -0.8157  0.2359  3.8797
 6402SOL     OW30838   4.395   1.139   5.436 -0.0219  0.3436 -0.6761
 6402SOL    HW130839   4.378   1.049   5.463 -2.4462  1.2669  0.8384
 6402SOL    HW230840   4.446   1.125   5.356 -1.1752 -2.0353 -0.9992
 6403SOL     OW30841   4.492   1.473   7.455  0.2583 -0.0165  0.0344
 6403SOL    HW130842   4.582   1.503   7.470 -0.5301  1.3354  2.0578
 6403SOL    HW230843   4.465   1.444   7.542  0.5375 -0.6318 -0.0854
 6404SOL     OW30844   1.171   1.396   7.579 -0.5362  0.1974  0.2085
 6404SOL    HW130845   1.077   1.381   7.588 -0.2682 -1.6013  0.0497
 6404SOL    HW230846   1.182   1.457   7.652 -0.5279 -0.4701  0.7611
 6405SOL     OW30847   1.228   2.811   6.879 -0.1096 -0.1795  0.1660
 6405SOL    HW130848   1.242   2.853   6.964  0.7306  2.0942 -1.0856
 6405SOL    HW230849   1.311   2.775   6.847 -1.0609 -0.7859 -1.5818
 6406SOL     OW30850   4.566   0.729   5.609 -0.4235 -0.3139 -0.1468
 6406SOL    HW130851   4.610   0.657   5.564 -1.1692 -1.9436  1.7682
 6406SOL    HW230852   4.579   0.702   5.699 -1.7338 -0.1359  0.0971
 6407SOL     OW30853   0.283   1.119   0.495 -0.0718 -0.3350 -0.3570
 6407SOL    HW130854   0.345   1.106   0.423  0.8802  1.7141  0.0922
 6407SOL    HW230855   0.235   1.036   0.493  0.1203 -0.4177 -1.7190
 6408SOL     OW30856   4.154   2.675   4.309  0.4728  0.6264  0.6338
 6408SOL    HW130857   4.064   2.703   4.291  0.4312  0.7007  0.9590
 6408SOL    HW230858   4.175   2.628   4.229  0.0416 -0.1950  1.0059
 6409SOL     OW30859   4.510   0.203  10.488 -0.4608 -0.4320 -0.9396
 6409SOL    HW130860   4.479   0.217  10.398 -0.0689  0.1552 -0.9839
 6409SOL    HW230861   4.462   0.278  10.523 -1.4270 -0.5057 -2.0767
 6410SOL     OW30862   3.677   2.136   9.564  0.0396 -0.1140  0.1675
 6410SOL    HW130863   3.675   2.131   9.659  5.5908 -0.8929  0.2114
 6410SOL    HW230864   3.762   2.166   9.533  0.6883  0.0003  2.0643
 6411SOL     OW30865   1.145   3.644   4.612 -0.1818  0.1348 -0.6511
 6411SOL    HW130866   1.064   3.694   4.626 -0.1466 -0.1458  0.5888
 6411SOL    HW230867   1.113   3.567   4.566 -1.9856  1.0040 -0.8436
 6412SOL     OW30868   1.887   0.605  15.422  0.0497 -0.5668  0.3430
 6412SOL    HW130869   1.938   0.626  15.500 -2.1005  0.9916  1.3343
 6412SOL    HW230870   1.924   0.669  15.362 -2.2794  0.1531 -0.3464
 6413SOL     OW30871   4.394   0.640   7.753  0.4812 -0.3475 -0.5183
 6413SOL    HW130872   4.470   0.684   7.716  0.3673  0.5702  0.3349
 6413SOL    HW230873   4.341   0.716   7.777 -0.0270 -1.3175  1.4343
 6414SOL     OW30874   3.633   3.766   4.313  0.4701 -0.0325  0.2221
 6414SOL    HW130875   3.675   3.818   4.381 -0.6703 -1.6684  2.2222
 6414SOL    HW230876   3.607   3.833   4.250  0.9425 -0.4974 -0.4655
 6415SOL     OW30877   4.080   1.407   3.078 -0.2031  0.0024 -0.7388
 6415SOL    HW130878   4.038   1.354   3.146  1.2374 -1.5200 -1.0468
 6415SOL    HW230879   4.091   1.344   3.008 -0.1738 -1.1247  0.2772
 6416SOL     OW30880   3.776   1.587   8.387  0.0506  0.6473 -0.7197
 6416SOL    HW130881   3.728   1.641   8.324 -0.1968  1.0543 -0.1813
 6416SOL    HW230882   3.792   1.654   8.453  2.1922 -0.6360  0.0430
 6417SOL     OW30883   2.363   2.951   4.816 -0.1595  0.6759  0.1880
 6417SOL    HW130884   2.389   3.030   4.770 -0.5238  2.3266  2.7792
 6417SOL    HW230885   2.281   2.937   4.769  1.0078  0.5669 -1.8056
 6418SOL     OW30886   0.219   3.774   2.616  0.2250 -0.2386  0.6178
 6418SOL    HW130887   0.302   3.800   2.655  0.2543  3.1053 -1.6556
 6418SOL    HW230888   0.156   3.777   2.688 -1.6809 -0.6961 -1.0133
 6419SOL     OW30889   2.279   2.478   1.179  0.0879  0.2796 -0.3729
 6419SOL    HW130890   2.328   2.551   1.140 -2.5674  0.7217 -2.8712
 6419SOL    HW230891   2.204   2.529   1.209 -1.2955 -1.5246 -0.7886
 6420SOL     OW30892   3.337   2.108   9.148 -0.1445  0.1261 -0.1160
 6420SOL    HW130893   3.305   2.039   9.206  0.2584  1.1118  1.2833
 6420SOL    HW230894   3.392   2.151   9.214  1.0838 -0.1746 -0.9512
 6421SOL     OW30895   3.334   3.782  17.617 -0.6417  0.0202  1.0122
 6421SOL    HW130896   3.297   3.715  17.675  2.4660 -0.0020  2.9980
 6421SOL    HW230897   3.377   3.838  17.681 -1.1788  0.2347  1.1813
 6422SOL     OW30898   3.239   0.378   8.343 -0.3728  0.1019  0.6570
 6422SOL    HW130899   3.288   0.299   8.365 -0.7156 -0.7246 -1.5413
 6422SOL    HW230900   3.233   0.376   8.247  0.8364 -0.6027  0.6021
 6423SOL     OW30901   1.793   1.264   4.062  0.0974 -0.0719  0.2952
 6423SOL    HW130902   1.759   1.179   4.031 -2.6040  1.4337 -0.9035
 6423SOL    HW230903   1.752   1.315   3.992 -1.2689  0.5049  1.5071
 6424SOL     OW30904   4.486   1.610   8.911  0.6131 -0.0825  0.0095
 6424SOL    HW130905   4.390   1.601   8.915  0.7097 -0.6663  1.0209
 6424SOL    HW230906   4.519   1.618   9.000  1.0110 -0.9821 -0.0570
 6425SOL     OW30907   2.712   2.137  15.757  0.1218  0.0719 -0.1989
 6425SOL    HW130908   2.631   2.117  15.804 -1.1071  0.0608 -2.2864
 6425SOL    HW230909   2.692   2.215  15.705 -0.3544  0.2816  0.3043
 6426SOL     OW30910   3.702   1.705   6.859 -0.3500  0.0216 -0.3331
 6426SOL    HW130911   3.734   1.791   6.888  1.4042 -0.5466 -0.6274
 6426SOL    HW230912   3.642   1.735   6.790  0.4048 -0.9050 -1.3837
 6427SOL     OW30913   1.522   4.061   9.002  0.2055  0.4286 -0.0898
 6427SOL    HW130914   1.581   4.136   8.992  1.2115 -0.8467 -3.5941
 6427SOL    HW230915   1.582   3.987   8.999  1.2498  1.2807 -0.1037
 6428SOL     OW30916   3.374   4.397   1.709  0.1316  1.0445 -0.1486
 6428SOL    HW130917   3.302   4.382   1.648 -0.2326 -1.7714  0.9403
 6428SOL    HW230918   3.450   4.408   1.652 -0.8267  0.6211 -1.5059
 6429SOL     OW30919   0.508   0.908   3.297 -0.2361  0.1338  0.2411
 6429SOL    HW130920   0.534   0.838   3.236  2.9040 -1.2747  3.2064
 6429SOL    HW230921   0.416   0.883   3.303 -0.1127 -0.5878 -0.6713
 6430SOL     OW30922   4.200   0.302   6.863  0.8537 -0.1281 -0.2299
 6430SOL    HW130923   4.260   0.237   6.826 -1.4082 -1.5035 -1.4537
 6430SOL    HW230924   4.274   0.361   6.881  0.0216  0.9198 -0.2182
 6431SOL     OW30925   1.219   0.894   3.338 -0.6293  0.2822 -0.7005
 6431SOL    HW130926   1.225   0.807   3.300  1.4872  1.0754 -2.1797
 6431SOL    HW230927   1.126   0.906   3.359 -0.1310 -0.3156  1.7620
 6432SOL     OW30928   0.186   3.212   3.653  0.5122 -0.3046  0.0682
 6432SOL    HW130929   0.112   3.269   3.675  1.7304  1.7561 -1.1623
 6432SOL    HW230930   0.172   3.215   3.559 -0.5713  0.6811  0.2625
 6433SOL     OW30931   3.842   0.272   3.165  0.0779  0.3416 -0.6989
 6433SOL    HW130932   3.921   0.233   3.202  0.2353  0.3499 -1.0269
 6433SOL    HW230933   3.871   0.345   3.111  0.7347 -0.7270 -1.8001
 6434SOL     OW30934   3.073   0.911   8.760 -0.3776  0.0668 -0.0206
 6434SOL    HW130935   3.119   0.853   8.819 -0.0435  0.0239 -0.3211
 6434SOL    HW230936   3.139   0.974   8.731 -2.0940  1.6861 -0.4410
 6435SOL     OW30937   2.489   0.740   5.710  0.5467  0.0233 -0.1750
 6435SOL    HW130938   2.456   0.778   5.628 -1.5759 -0.6140  0.3728
 6435SOL    HW230939   2.420   0.677   5.730  0.2109  0.5986  0.4635
 6436SOL     OW30940   2.491   1.578   1.536  0.4593 -0.2142  0.2802
 6436SOL    HW130941   2.453   1.490   1.546  2.5094 -1.1947 -0.5728
 6436SOL    HW230942   2.471   1.607   1.625  0.9631  0.3959  0.1881
 6437SOL     OW30943   4.340   1.146   4.317  0.3848 -0.1752  0.1856
 6437SOL    HW130944   4.313   1.083   4.250 -0.7173  1.1777 -0.6393
 6437SOL    HW230945   4.410   1.103   4.366  1.2100 -1.6017 -2.2564
 6438SOL     OW30946   3.849   3.599  12.600  0.1387  0.1555  0.0141
 6438SOL    HW130947   3.918   3.632  12.541  0.4742 -1.3620 -0.4388
 6438SOL    HW230948   3.784   3.604  12.530 -1.8954 -3.1928  1.7070
 6439SOL     OW30949   1.164   3.265   3.571  0.4303 -0.1345  0.2872
 6439SOL    HW130950   1.240   3.322   3.580  1.2139 -1.0939 -0.1679
 6439SOL    HW230951   1.135   3.322   3.500  2.6233  2.4809  1.4913
 6440SOL     OW30952   0.675   2.474   1.869 -0.2125  0.2246  0.2471
 6440SOL    HW130953   0.624   2.555   1.868  1.9353  1.5444 -0.6868
 6440SOL    HW230954   0.623   2.415   1.923  0.9957  0.7260  1.9491
 6441SOL     OW30955   4.271   4.060   7.754  0.0477  0.4389  0.1339
 6441SOL    HW130956   4.259   3.975   7.711 -0.9018  1.2101 -1.0869
 6441SOL    HW230957   4.269   4.118   7.679 -0.3580 -0.1220 -0.2871
 6442SOL     OW30958   3.393   0.037  16.531 -0.7748  0.7456  0.2703
 6442SOL    HW130959   3.375   0.012  16.621 -0.4435  2.5916  0.8585
 6442SOL    HW230960   3.304   0.067  16.512 -1.2940 -0.6645  0.4564
 6443SOL     OW30961   1.656   1.932   1.389 -0.3545  0.1344  0.0821
 6443SOL    HW130962   1.740   1.942   1.343 -1.1941 -0.1214 -1.5116
 6443SOL    HW230963   1.644   1.837   1.383 -0.3488  0.2955 -2.5767
 6444SOL     OW30964   2.891   1.012  14.064  0.3140 -0.2748  0.5995
 6444SOL    HW130965   2.875   1.105  14.052  1.9138 -0.3033 -1.6820
 6444SOL    HW230966   2.811   0.977  14.104  0.3882  0.0689  1.0545
 6445SOL     OW30967   2.306   0.763  10.664  0.0237  0.2516  0.5615
 6445SOL    HW130968   2.240   0.832  10.663 -0.6704 -0.4149  0.2891
 6445SOL    HW230969   2.382   0.799  10.619  2.6522 -1.5724  3.5380
 6446SOL     OW30970   2.142   0.015  10.629 -0.1724  0.2300 -0.1535
 6446SOL    HW130971   2.163   4.660  10.614  0.3335 -0.2387  3.3488
 6446SOL    HW230972   2.179   0.026  10.717 -0.0574  3.2102 -0.5687
 6447SOL     OW30973   2.988   2.911   4.535  1.1116 -0.1361 -0.0510
 6447SOL    HW130974   2.937   2.832   4.552 -1.0389  1.5052  1.1934
 6447SOL    HW230975   3.044   2.917   4.613 -2.0040 -0.9272  2.2467
 6448SOL     OW30976   1.389   4.641  16.186 -0.3725  0.0632  0.0454
 6448SOL    HW130977   1.448   4.689  16.129 -0.6197  1.4473  0.9549
 6448SOL    HW230978   1.345   4.719  16.219  1.2653  0.2212  1.8317
 6449SOL     OW30979   3.291   4.206   3.907 -0.6293  0.3070 -0.0110
 6449SOL    HW130980   3.269   4.292   3.943 -0.2636  1.0189 -1.5224
 6449SOL    HW230981   3.259   4.226   3.820 -0.6990  1.6350  0.3203
 6450SOL     OW30982   4.313   1.920   4.295  0.4737 -0.7018  0.8281
 6450SOL    HW130983   4.242   1.883   4.349  0.4525 -2.2829 -0.2824
 6450SOL    HW230984   4.313   1.855   4.225 -1.4871  0.0666  0.1099
 6451SOL     OW30985   4.015   1.275   3.309 -0.5350 -0.5454  0.1822
 6451SOL    HW130986   3.980   1.362   3.329  1.1418  0.5665 -1.7210
 6451SOL    HW230987   3.937   1.222   3.296 -0.6021 -0.5322  0.5300
 6452SOL     OW30988   0.553   1.095   7.304 -0.0431  0.2284  0.1413
 6452SOL    HW130989   0.564   1.099   7.209  0.9002  1.3176  0.3011
 6452SOL    HW230990   0.495   1.171   7.314  1.4010  1.2155  1.0452
 6453SOL     OW30991   1.150   4.022   1.586  0.6228  0.2016 -0.0982
 6453SOL    HW130992   1.232   3.991   1.626  0.3886 -1.6143 -0.9994
 6453SOL    HW230993   1.179   4.086   1.522 -1.6452 -0.4424 -1.7644
 6454SOL     OW30994   1.199   4.351  16.829 -0.5714 -0.7438  0.1627
 6454SOL    HW130995   1.147   4.271  16.839  0.0521 -1.1549  0.1363
 6454SOL    HW230996   1.198   4.368  16.735 -0.5255  1.2218  0.5247
 6455SOL     OW30997   0.941   1.021   1.506  0.4719 -0.6698  0.5603
 6455SOL    HW130998   0.903   1.019   1.593 -2.1862  0.9733 -0.5743
 6455SOL    HW230999   1.001   1.096   1.513  0.4263 -0.6932  1.2178
 6456SOL     OW31000   2.645   1.003   7.835  0.3451  0.2035  0.2647
 6456SOL    HW131001   2.598   1.082   7.808 -1.6798 -0.6384  1.3129
 6456SOL    HW231002   2.732   1.036   7.856  0.6355  0.7524 -1.7708
 6457SOL     OW31003   1.239   2.985   1.999 -0.0724 -0.0592  0.1689
 6457SOL    HW131004   1.199   3.030   2.073 -0.6353  1.7222 -1.2104
 6457SOL    HW231005   1.300   3.057   1.981  1.0094 -0.7288  1.1848
 6458SOL     OW31006   2.440   0.490   8.219  0.3102 -0.2472  0.1484
 6458SOL    HW131007   2.363   0.487   8.276 -2.5456  0.0082 -3.6821
 6458SOL    HW231008   2.506   0.483   8.288  0.1481 -1.5031  0.1692
 6459SOL     OW31009   0.732   1.320  14.494 -0.0661 -0.1200 -0.2028
 6459SOL    HW131010   0.781   1.244  14.525 -2.7152 -1.1497  1.4529
 6459SOL    HW231011   0.747   1.386  14.561  1.0118 -0.6352  0.0676
 6460SOL     OW31012   4.574   3.220   0.132 -0.0216  0.5588  0.4787
 6460SOL    HW131013   4.652   3.248   0.084 -0.0390  0.6281  0.4913
 6460SOL    HW231014   4.624   3.214   0.214  0.1402  2.4648  0.5237
 6461SOL     OW31015   4.353   4.119  17.450  0.4742 -0.6243 -0.3552
 6461SOL    HW131016   4.258   4.111  17.439  0.4634 -0.1585 -0.5807
 6461SOL    HW231017   4.384   4.140  17.362 -0.5820 -0.3589 -0.6705
 6462SOL     OW31018   0.440   1.243   4.265 -0.3991 -0.4701 -0.3956
 6462SOL    HW131019   0.517   1.279   4.309 -0.4043 -2.0258  0.8980
 6462SOL    HW231020   0.387   1.266   4.342  0.8514  0.5890  0.1439
 6463SOL     OW31021   3.086   2.612  10.061  0.1707 -0.1587  0.0182
 6463SOL    HW131022   3.127   2.531  10.031  1.1380  0.2970  0.1007
 6463SOL    HW231023   3.003   2.588  10.101 -1.2781  0.9642 -2.2524
 6464SOL     OW31024   1.229   3.630   6.209  0.2911  0.5951 -0.0341
 6464SOL    HW131025   1.137   3.626   6.182 -0.5156 -1.1552  2.9275
 6464SOL    HW231026   1.276   3.567   6.154 -0.4128  3.3663 -3.7754
 6465SOL     OW31027   0.393   3.265  15.780 -0.0253 -0.1017  0.3070
 6465SOL    HW131028   0.487   3.245  15.780 -0.4493 -2.0078  2.6013
 6465SOL    HW231029   0.398   3.343  15.726  0.9393 -0.5097 -0.1980
 6466SOL     OW31030   0.718   3.079   5.654 -0.2778  0.1935 -0.0915
 6466SOL    HW131031   0.699   3.066   5.747  0.4440  1.9647  0.2936
 6466SOL    HW231032   0.798   3.027   5.647 -1.8403 -2.3826  0.9956
 6467SOL     OW31033   3.238   3.662  17.380  0.0166  0.4568  0.3798
 6467SOL    HW131034   3.321   3.709  17.386 -0.8793  2.2951 -1.4638
 6467SOL    HW231035   3.267   3.574  17.403 -0.8970 -0.2033 -0.9830
 6468SOL     OW31036   1.976   3.443   1.553  0.3994  0.3480  0.1925
 6468SOL    HW131037   2.031   3.502   1.605 -0.6330  0.2797  1.3382
 6468SOL    HW231038   1.963   3.501   1.478  1.5870 -0.4760 -0.6598
 6469SOL     OW31039   2.122   1.787   7.232  0.3728  0.6385 -0.8565
 6469SOL    HW131040   2.187   1.795   7.301  0.3269 -1.4578 -0.5768
 6469SOL    HW231041   2.131   1.874   7.191 -0.4999  1.9359  1.7109
 6470SOL     OW31042   1.468   1.404   8.122  0.0825  0.2570 -0.4038
 6470SOL    HW131043   1.452   1.375   8.032  1.9380  0.6383 -0.8678
 6470SOL    HW231044   1.548   1.456   8.122  0.9557 -1.0749  2.5582
 6471SOL     OW31045   4.340   1.534   0.601 -0.2570  0.3286  0.0707
 6471SOL    HW131046   4.385   1.463   0.554 -0.1414 -0.1967  0.9841
 6471SOL    HW231047   4.363   1.523   0.693 -4.0523 -1.4961  0.7629
 6472SOL     OW31048   1.587   2.819  13.992 -0.0321 -0.3992  0.0578
 6472SOL    HW131049   1.634   2.737  14.006 -0.4119 -0.3757  1.4870
 6472SOL    HW231050   1.625   2.871  14.063  1.2512 -0.1389 -0.8185
 6473SOL     OW31051   1.119   1.398   5.971  0.1413  0.5432  0.8507
 6473SOL    HW131052   1.104   1.380   5.878  0.0760  2.2688  0.5278
 6473SOL    HW231053   1.214   1.394   5.954  0.0988  0.1533  0.7012
 6474SOL     OW31054   4.574   4.098   7.218  0.3376  0.8609  0.7926
 6474SOL    HW131055   4.489   4.140   7.231 -0.5616 -0.5127 -0.5499
 6474SOL    HW231056   4.635   4.147   7.273 -0.7846  0.7071  2.1934
 6475SOL     OW31057   0.519   0.839   5.651  0.0906 -0.1493 -0.2520
 6475SOL    HW131058   0.438   0.797   5.623 -0.3086  0.7548 -0.4587
 6475SOL    HW231059   0.515   0.924   5.607 -1.0220  0.2312  0.5950
 6476SOL     OW31060   2.506   1.882  10.456 -0.3085  0.0806 -0.1361
 6476SOL    HW131061   2.482   1.904  10.546 -2.0872  0.1174 -0.6355
 6476SOL    HW231062   2.578   1.821  10.472 -0.9922 -0.9131 -0.9156
 6477SOL     OW31063   1.033   3.343   3.312  0.4094 -0.4284  0.4087
 6477SOL    HW131064   1.123   3.338   3.281  0.4988 -1.1067  0.7826
 6477SOL    HW231065   0.991   3.297   3.239  1.3922  1.5893 -1.4322
 6478SOL     OW31066   0.788   0.253   1.894  0.0114  0.2759  0.1193
 6478SOL    HW131067   0.752   0.181   1.947  0.3220  0.2433  0.2887
 6478SOL    HW231068   0.864   0.210   1.857  1.5241  2.7878  0.3039
 6479SOL     OW31069   4.391   0.163   9.780  0.1080 -0.2153 -1.0360
 6479SOL    HW131070   4.344   0.118   9.710  0.0453 -0.9546 -0.5217
 6479SOL    HW231071   4.474   0.169   9.732  0.5342  1.7552 -0.0602
 6480SOL     OW31072   2.225   1.865   8.866  0.1374  0.8045 -0.0899
 6480SOL    HW131073   2.307   1.844   8.912 -0.2115 -1.5537 -0.5446
 6480SOL    HW231074   2.252   1.936   8.809 -0.2757 -0.1726 -1.4907
 6481SOL     OW31075   1.932   0.991  11.887 -0.2188  0.0601 -0.4159
 6481SOL    HW131076   1.863   0.965  11.826 -0.0124 -2.2840  0.3676
 6481SOL    HW231077   1.942   1.082  11.858 -1.5957  0.6489  1.0178
 6482SOL     OW31078   4.508   0.446   3.546  0.4480  0.9925  0.8840
 6482SOL    HW131079   4.497   0.462   3.640 -0.8614 -0.0638  0.9133
 6482SOL    HW231080   4.480   0.529   3.508  1.5759  0.6069 -0.7731
 6483SOL     OW31081   2.668   3.556   9.005  0.6999  0.1268 -0.3774
 6483SOL    HW131082   2.634   3.514   8.927 -0.9292 -0.7830  0.8233
 6483SOL    HW231083   2.647   3.647   8.987  1.4365  0.1057 -1.3359
 6484SOL     OW31084   1.088   3.501   8.150 -0.4740  0.4933  0.0321
 6484SOL    HW131085   1.155   3.438   8.176 -0.1164  0.6223 -0.5846
 6484SOL    HW231086   1.140   3.555   8.090 -1.2678 -0.7673 -1.7863
 6485SOL     OW31087   1.354   0.816  12.016 -0.2210 -0.5655 -0.4790
 6485SOL    HW131088   1.289   0.870  11.971  0.5492 -0.4526 -1.4357
 6485SOL    HW231089   1.428   0.809  11.956 -0.0043 -0.1033 -0.2709
 6486SOL     OW31090   2.810   4.248   5.433 -0.6333 -0.1823 -0.4571
 6486SOL    HW131091   2.750   4.286   5.496 -2.2521 -0.7180 -1.6788
 6486SOL    HW231092   2.751   4.217   5.364 -0.2421 -1.8087 -0.0526
 6487SOL     OW31093   1.636   0.687  11.510  0.4599  0.0461 -0.1268
 6487SOL    HW131094   1.623   0.622  11.579 -0.9958 -0.3887 -0.8067
 6487SOL    HW231095   1.623   0.624  11.439  0.8895  2.3592 -2.2594
 6488SOL     OW31096   2.378   0.564   0.295  0.5552 -0.0338 -0.7659
 6488SOL    HW131097   2.388   0.626   0.222  1.6480  2.8976  1.8952
 6488SOL    HW231098   2.335   0.621   0.359  0.9360 -0.6900  0.0629
 6489SOL     OW31099   1.240   0.411  10.950  0.1766 -0.2780  0.2822
 6489SOL    HW131100   1.166   0.450  10.997 -0.5023  0.2958 -1.2768
 6489SOL    HW231101   1.197   0.326  10.938 -0.3848 -0.3670  2.8566
 6490SOL     OW31102   0.756   1.385  15.448  0.0209 -0.0673  0.1287
 6490SOL    HW131103   0.738   1.455  15.385 -0.6897 -0.6256 -0.2813
 6490SOL    HW231104   0.822   1.333  15.404  1.5191  0.2748  1.9755
 6491SOL     OW31105   3.343   0.948   2.651  0.1152  0.0542 -0.5079
 6491SOL    HW131106   3.279   0.963   2.721 -1.1751 -2.1007 -1.2281
 6491SOL    HW231107   3.304   0.874   2.604 -0.4426  1.0234 -1.5675
 6492SOL     OW31108   3.246   1.611   4.310  0.2646  0.6313 -0.0187
 6492SOL    HW131109   3.217   1.703   4.306  0.6149  0.7810  0.7941
 6492SOL    HW231110   3.339   1.614   4.291  0.4518 -1.7992  0.5216
 6493SOL     OW31111   0.116   1.847  15.361 -0.2763  0.1205 -0.1908
 6493SOL    HW131112   0.181   1.837  15.431  1.2254  0.7823 -1.5124
 6493SOL    HW231113   0.151   1.910  15.299  0.4285  0.2281  0.3180
 6494SOL     OW31114   1.813   1.040   3.190  0.5610  0.3411  0.2751
 6494SOL    HW131115   1.765   1.009   3.266  3.0338  0.4978  1.8898
 6494SOL    HW231116   1.845   0.956   3.155  1.6159  0.3103  1.3018
 6495SOL     OW31117   3.215   1.911   9.611  0.2816  0.1997  0.0223
 6495SOL    HW131118   3.147   1.867   9.663 -1.4190 -0.4068 -2.7243
 6495SOL    HW231119   3.291   1.881   9.661  0.7269  0.0524 -0.7585
 6496SOL     OW31120   0.704   0.887   1.419 -0.3038 -0.1186  0.8574
 6496SOL    HW131121   0.786   0.930   1.443  0.8967 -1.0810 -1.5385
 6496SOL    HW231122   0.662   0.896   1.505 -2.4424 -0.5430 -0.1494
 6497SOL     OW31123   3.986   0.336   4.124  0.3178 -0.1270  0.1647
 6497SOL    HW131124   3.904   0.371   4.159 -0.0927 -1.9164  0.9941
 6497SOL    HW231125   4.048   0.380   4.183  0.3341 -1.6218  1.2569
 6498SOL     OW31126   0.176   1.408  11.763 -0.3327  0.1588 -0.1465
 6498SOL    HW131127   0.116   1.429  11.834 -1.0159 -0.6533 -0.4841
 6498SOL    HW231128   0.157   1.316  11.746  1.9311 -0.2688 -0.4299
 6499SOL     OW31129   3.333   2.399   2.062 -0.3788  0.2306 -0.4615
 6499SOL    HW131130   3.312   2.307   2.075  1.2922  0.1085  1.3998
 6499SOL    HW231131   3.420   2.390   2.024  0.6243 -1.0257  2.1466
 6500SOL     OW31132   1.413   2.733   1.785 -0.3933  0.6322  0.1017
 6500SOL    HW131133   1.397   2.676   1.709  0.4634 -0.6753  0.8906
 6500SOL    HW231134   1.328   2.743   1.827 -1.0893  0.3747 -1.2549
 6501SOL     OW31135   4.516   2.527   8.734 -0.5362  0.6573 -0.1051
 6501SOL    HW131136   4.576   2.483   8.674  1.0193  1.5989  0.7646
 6501SOL    HW231137   4.581   2.546   8.802  0.1393  0.7728 -0.7798
 6502SOL     OW31138   4.712   0.100   5.781 -0.3180  0.4762 -0.3411
 6502SOL    HW131139   4.706   0.021   5.728  3.0971  0.1896 -0.2762
 6502SOL    HW231140   0.065   0.089   5.811 -0.0505 -0.7621 -1.6348
 6503SOL     OW31141   1.842   1.881  17.137  0.4915 -0.0904 -0.4154
 6503SOL    HW131142   1.759   1.927  17.137  1.8248  2.3165  0.0718
 6503SOL    HW231143   1.848   1.844  17.225  0.1462 -0.2538 -0.4603
 6504SOL     OW31144   3.759   0.929   6.616 -0.4340 -0.0702 -0.2703
 6504SOL    HW131145   3.730   0.859   6.675  0.0518  0.7634  0.9606
 6504SOL    HW231146   3.833   0.969   6.661 -1.4181 -1.2396  2.4281
 6505SOL     OW31147   3.017   3.946   7.321 -0.2949 -0.4818 -0.4627
 6505SOL    HW131148   2.967   3.901   7.252 -2.8849  0.4844  0.7962
 6505SOL    HW231149   2.955   3.935   7.394  0.4368 -0.3356  0.1729
 6506SOL     OW31150   0.444   0.972   4.491  0.0114 -0.6979 -0.0210
 6506SOL    HW131151   0.480   1.045   4.442 -0.4578 -0.5566 -0.1481
 6506SOL    HW231152   0.521   0.926   4.525  2.1046  1.2489 -2.1957
 6507SOL     OW31153   3.663   0.127   3.367  0.8171  0.4474 -0.2465
 6507SOL    HW131154   3.728   0.059   3.352 -1.9291 -2.3612  0.5305
 6507SOL    HW231155   3.689   0.180   3.292  0.2331  1.8380  0.5427
 6508SOL     OW31156   0.810   2.119   5.739  0.3962 -0.4978  0.4208
 6508SOL    HW131157   0.719   2.093   5.726 -0.5555  1.9812  2.2537
 6508SOL    HW231158   0.855   2.035   5.726 -0.0866 -0.7041  0.0753
 6509SOL     OW31159   4.104   1.395  10.956 -0.2792  0.5925 -0.1800
 6509SOL    HW131160   4.071   1.430  11.039 -0.9864 -1.7518  0.5375
 6509SOL    HW231161   4.073   1.305  10.948 -0.0926  0.4292  0.9739
 6510SOL     OW31162   0.033   1.181   7.203  0.8584  0.3049 -1.1073
 6510SOL    HW131163   0.043   1.185   7.298 -0.0239  1.0544 -1.0425
 6510SOL    HW231164   0.110   1.228   7.171  2.6580 -0.8977  1.4525
 6511SOL     OW31165   3.179   1.539   3.640  0.1421 -0.1592 -0.3296
 6511SOL    HW131166   3.173   1.503   3.552  1.7134 -4.0104  1.1166
 6511SOL    HW231167   3.242   1.611   3.636  1.1722 -1.0132  0.5218
 6512SOL     OW31168   3.778   2.019   3.333 -0.3487  0.0778 -0.3390
 6512SOL    HW131169   3.702   1.961   3.332  1.9022 -2.8657 -0.2238
 6512SOL    HW231170   3.818   1.987   3.253 -1.7249  0.8096 -1.3098
 6513SOL     OW31171   2.721   3.993  16.896  0.4079  0.0483 -0.4500
 6513SOL    HW131172   2.780   4.056  16.855 -0.9837  1.8391  0.2715
 6513SOL    HW231173   2.742   4.003  16.989 -0.7670  1.2446 -0.3063
 6514SOL     OW31174   1.484   4.721   4.640 -0.3287  0.1320  0.3811
 6514SOL    HW131175   1.498   4.628   4.627  0.0222  0.3155 -0.6059
 6514SOL    HW231176   1.414   4.723   4.705  0.3169  2.8400  1.0208
 6515SOL     OW31177   3.025   1.123   7.955  0.0320  0.5259 -0.3060
 6515SOL    HW131178   3.075   1.145   8.033  0.5836  0.3816 -0.6174
 6515SOL    HW231179   3.063   1.037   7.933 -1.3939  0.3313 -2.0664
 6516SOL     OW31180   0.340   3.946   2.993 -0.2684 -0.3016 -0.2500
 6516SOL    HW131181   0.295   4.009   2.936  3.2741 -0.3161 -3.0528
 6516SOL    HW231182   0.371   3.880   2.931  0.7980  1.9289 -2.0746
 6517SOL     OW31183   0.049   3.322   7.378 -0.0383  0.3794 -0.2685
 6517SOL    HW131184   4.725   3.391   7.354  0.4631  1.5454  1.8071
 6517SOL    HW231185   0.104   3.379   7.431 -0.5422 -0.5365  1.2461
 6518SOL     OW31186   0.440   0.964   5.312 -0.0405 -0.0257 -0.3935
 6518SOL    HW131187   0.399   0.899   5.369 -1.5528  1.5917  0.3831
 6518SOL    HW231188   0.378   1.037   5.305 -1.5313 -1.4332 -1.9055
 6519SOL     OW31189   1.199   1.977   8.172 -0.1248  0.0485 -0.2696
 6519SOL    HW131190   1.272   2.010   8.225  0.8311  2.9498 -3.3854
 6519SOL    HW231191   1.142   1.933   8.235  0.9380  0.5943  1.1001
 6520SOL     OW31192   2.498   4.566   2.592 -0.3901  0.4317  0.3733
 6520SOL    HW131193   2.440   4.586   2.519  2.1684  1.4179 -1.3925
 6520SOL    HW231194   2.568   4.628   2.572 -1.7141  1.9186  0.4178
 6521SOL     OW31195   1.687   1.884  12.335 -0.3495 -0.0560  0.3060
 6521SOL    HW131196   1.740   1.946  12.285 -0.7281  0.5157  0.6185
 6521SOL    HW231197   1.709   1.802  12.289  2.6626 -0.0639  1.7182
 6522SOL     OW31198   2.592   1.265   5.820 -0.0770 -0.3882  0.0547
 6522SOL    HW131199   2.547   1.188   5.856  0.8345 -1.2683 -0.6674
 6522SOL    HW231200   2.678   1.273   5.861 -1.3751  0.7451  2.5494
 6523SOL     OW31201   1.148   2.655  11.624 -0.3434  0.1887 -0.3918
 6523SOL    HW131202   1.069   2.628  11.577  0.1936  0.5045 -1.4594
 6523SOL    HW231203   1.142   2.749  11.640 -0.2747  0.3534 -1.3704
 6524SOL     OW31204   2.996   3.284  14.138  0.3141 -0.5532 -0.6033
 6524SOL    HW131205   3.060   3.259  14.205  1.5811 -1.2861 -2.0976
 6524SOL    HW231206   2.956   3.364  14.172  0.2963 -1.5485  1.7222
 6525SOL     OW31207   0.383   3.730   0.252 -0.6398  0.3399  0.4367
 6525SOL    HW131208   0.436   3.801   0.286  0.3396 -0.0392 -0.3238
 6525SOL    HW231209   0.383   3.761   0.162  0.3197 -2.0477 -0.3945
 6526SOL     OW31210   3.809   3.540  16.758  0.3752 -0.2110 -0.3501
 6526SOL    HW131211   3.793   3.630  16.785 -1.3924 -1.2967  2.1636
 6526SOL    HW231212   3.901   3.521  16.777 -0.3525 -1.1475  2.1519
 6527SOL     OW31213   0.894   1.030   3.703 -0.3072  0.4105  0.4452
 6527SOL    HW131214   0.802   1.032   3.729 -0.8396 -2.5984 -1.1953
 6527SOL    HW231215   0.924   1.009   3.791  0.5419 -2.2035 -0.4760
 6528SOL     OW31216   4.648   0.593   5.829  0.0657 -0.7025 -0.0259
 6528SOL    HW131217   4.628   0.514   5.778 -0.4980 -2.0280  2.2468
 6528SOL    HW231218   4.722   0.557   5.877  0.3444 -0.3492 -0.1960
 6529SOL     OW31219   2.732   4.442   4.337 -0.0610  0.1034  0.0960
 6529SOL    HW131220   2.727   4.463   4.430  0.5680 -0.2833  0.2158
 6529SOL    HW231221   2.709   4.532   4.314 -1.3423  0.6230  3.4704
 6530SOL     OW31222   0.845   3.191  14.069 -0.3125 -0.1396 -0.2906
 6530SOL    HW131223   0.900   3.156  14.139  0.4154 -0.6728 -1.1195
 6530SOL    HW231224   0.861   3.285  14.073  0.5599 -0.3786  1.7152
 6531SOL     OW31225   3.838   4.421   4.988  0.4227 -0.2179 -0.0759
 6531SOL    HW131226   3.909   4.433   4.925  1.7353 -0.3244  1.3895
 6531SOL    HW231227   3.773   4.371   4.939 -1.5178  2.8173 -0.5476
 6532SOL     OW31228   2.059   2.818   1.888 -0.2104 -0.5818 -0.2255
 6532SOL    HW131229   2.123   2.749   1.869  0.5981  0.4431 -1.2275
 6532SOL    HW231230   1.977   2.790   1.847 -0.3821  0.1693 -0.3850
 6533SOL     OW31231   3.966   3.334   1.461  0.1011 -0.0241 -0.5378
 6533SOL    HW131232   4.016   3.299   1.534 -1.4777  0.5164  0.7839
 6533SOL    HW231233   3.934   3.250   1.427  1.7858 -1.1657  0.6633
 6534SOL     OW31234   1.327   1.800  11.623 -0.2442 -0.1264  0.6194
 6534SOL    HW131235   1.323   1.726  11.685 -1.4965 -0.8514 -0.3230
 6534SOL    HW231236   1.419   1.821  11.612 -0.0904 -1.0830  0.0803
 6535SOL     OW31237   2.091   4.596  11.821 -0.4372  0.4103 -0.4004
 6535SOL    HW131238   2.171   4.564  11.780  0.7073 -0.2142  2.3251
 6535SOL    HW231239   2.107   4.595  11.915 -0.2152  0.8180 -0.4332
 6536SOL     OW31240   0.036   3.576   3.819 -0.0951  0.3304  0.3242
 6536SOL    HW131241   4.730   3.492   3.810  2.7511 -0.7669 -3.0425
 6536SOL    HW231242   0.115   3.557   3.769 -0.8972 -1.3059 -0.3257
 6537SOL     OW31243   0.523   4.176   6.803  0.2744  0.3643  0.0059
 6537SOL    HW131244   0.576   4.108   6.844 -0.9912 -1.1359 -0.8678
 6537SOL    HW231245   0.512   4.226   6.884 -0.8635  0.8650 -0.4650
 6538SOL     OW31246   0.775   1.293   5.409  0.1521  0.5876  0.2304
 6538SOL    HW131247   0.742   1.352   5.476  1.6534  1.4761  0.1781
 6538SOL    HW231248   0.804   1.357   5.344 -1.1103  0.4019 -0.5229
 6539SOL     OW31249   1.077   1.009   5.269 -0.3148 -0.5746 -0.4675
 6539SOL    HW131250   1.132   0.943   5.227  0.7697  1.4163 -2.1801
 6539SOL    HW231251   1.029   1.046   5.195  1.1673  1.1101 -0.5962
 6540SOL     OW31252   0.880   0.416   8.230 -0.3013  0.4964  0.0612
 6540SOL    HW131253   0.895   0.419   8.136 -0.0433  0.5477  0.1037
 6540SOL    HW231254   0.888   0.505   8.265 -1.3106  0.7007 -0.2207
 6541SOL     OW31255   3.205   1.558  11.956  0.8468 -0.1623 -0.2069
 6541SOL    HW131256   3.177   1.644  11.986  0.7650 -0.1707 -0.2581
 6541SOL    HW231257   3.276   1.586  11.898 -1.3146 -0.9312 -3.2206
 6542SOL     OW31258   0.108   0.549   4.830 -0.6489 -0.2764  0.2501
 6542SOL    HW131259   0.117   0.564   4.924  1.0675  1.8609 -0.2377
 6542SOL    HW231260   0.032   0.492   4.825  0.1210 -1.3535  0.8565
 6543SOL     OW31261   0.795   4.129   4.704  0.7272 -0.2971 -0.7526
 6543SOL    HW131262   0.753   4.213   4.719  2.0775  0.2262  0.0908
 6543SOL    HW231263   0.727   4.071   4.738  1.1587 -0.6774 -0.5313
 6544SOL     OW31264   1.337   0.669   6.342  0.6962 -0.7471  0.1072
 6544SOL    HW131265   1.258   0.723   6.342  0.8799 -0.4792  0.2577
 6544SOL    HW231266   1.389   0.746   6.364 -2.0818  0.8587  1.0352
 6545SOL     OW31267   4.456   0.510   1.876 -0.4451 -0.0375  0.1209
 6545SOL    HW131268   4.522   0.535   1.941 -0.3132  0.0119 -0.0317
 6545SOL    HW231269   4.513   0.470   1.811 -1.9232 -0.1408 -1.1325
 6546SOL     OW31270   4.700   1.933   0.093 -0.0706 -0.3223  0.3257
 6546SOL    HW131271   0.001   2.015   0.062  2.3800 -1.5963 -0.0348
 6546SOL    HW231272   4.624   1.969   0.138  0.4504 -0.2061  1.1173
 6547SOL     OW31273   4.421   1.476  11.251  0.1698  0.3038  0.7066
 6547SOL    HW131274   4.372   1.503  11.329  1.7135  1.0400  1.4142
 6547SOL    HW231275   4.370   1.397  11.234 -1.2827  1.4035 -0.1335
 6548SOL     OW31276   1.069   3.341   8.914 -0.0543  0.2459 -0.1644
 6548SOL    HW131277   1.134   3.386   8.967  0.3953  0.4255 -0.8661
 6548SOL    HW231278   1.114   3.256   8.909  1.2804  0.8986  0.6756
 6549SOL     OW31279   2.294   3.222   2.949 -0.1851 -0.3740 -0.0591
 6549SOL    HW131280   2.364   3.212   2.885 -0.2880 -0.7447 -0.1108
 6549SOL    HW231281   2.326   3.149   3.002  0.0350 -0.3068 -0.1022
 6550SOL     OW31282   1.727   2.923   7.870 -0.0894 -0.6940 -0.2360
 6550SOL    HW131283   1.800   2.888   7.922  0.4520  1.2534  0.3418
 6550SOL    HW231284   1.718   3.009   7.910  1.4053 -0.3743 -0.5769
 6551SOL     OW31285   1.779   3.230   6.625  0.2217 -0.3595 -0.0172
 6551SOL    HW131286   1.825   3.314   6.622 -0.2182 -0.0571  1.6671
 6551SOL    HW231287   1.823   3.184   6.697 -0.6988 -3.9939 -1.7441
 6552SOL     OW31288   3.058   2.643   8.103  0.7494 -0.1253  0.0401
 6552SOL    HW131289   3.049   2.645   8.008  0.0456 -1.2807  0.0796
 6552SOL    HW231290   3.078   2.733   8.128 -1.7997  0.5130 -0.1737
 6553SOL     OW31291   4.594   1.449   3.512  0.1366 -0.1716  0.1002
 6553SOL    HW131292   4.598   1.362   3.474 -2.1232 -0.4780  0.5932
 6553SOL    HW231293   4.609   1.437   3.605 -1.9055 -0.0626  0.4313
 6554SOL     OW31294   2.637   3.058   5.200 -0.3165  0.4201  0.1659
 6554SOL    HW131295   2.560   3.016   5.162 -0.1411 -0.2709  0.5903
 6554SOL    HW231296   2.694   2.982   5.206 -0.0900  0.4156 -2.2161
 6555SOL     OW31297   1.026   2.148   1.890 -0.0208 -0.2548 -0.0840
 6555SOL    HW131298   1.041   2.158   1.796  1.0879 -1.2510 -0.0074
 6555SOL    HW231299   1.073   2.066   1.904 -0.5703 -0.6335 -0.4565
 6556SOL     OW31300   4.616   2.667   7.951  0.1024  0.3244  0.0258
 6556SOL    HW131301   4.593   2.671   7.858 -1.0442  2.2997  0.4036
 6556SOL    HW231302   4.703   2.625   7.948  0.3212  0.6652  1.3272
 6557SOL     OW31303   0.308   0.964   6.851  0.0689 -0.4933 -0.3805
 6557SOL    HW131304   0.333   0.925   6.935  1.3981 -1.0884 -1.0555
 6557SOL    HW231305   0.359   0.909   6.791  2.8645  1.0558  0.5769
 6558SOL     OW31306   3.281   0.581   6.328 -0.1247 -0.2192 -0.7646
 6558SOL    HW131307   3.230   0.578   6.408  0.3506  0.5833 -0.4373
 6558SOL    HW231308   3.279   0.491   6.294  1.9195 -0.5718  0.0602
 6559SOL     OW31309   1.497   4.018   2.584 -0.6731 -0.3873  0.4057
 6559SOL    HW131310   1.403   4.004   2.593 -0.8838 -1.2448 -3.2213
 6559SOL    HW231311   1.508   4.108   2.616 -1.8210  0.2475 -0.9703
 6560SOL     OW31312   1.075   0.760   9.819 -0.6876  0.4879  0.2468
 6560SOL    HW131313   1.113   0.756   9.907  2.5561 -0.6082 -1.2063
 6560SOL    HW231314   0.981   0.775   9.831 -0.5697  1.0232  0.4663
 6561SOL     OW31315   1.455   0.411   4.999 -0.2779  0.2691 -0.3909
 6561SOL    HW131316   1.473   0.318   5.014  1.3597  0.4209 -1.3452
 6561SOL    HW231317   1.364   0.416   5.029  0.2165 -2.7887  1.7120
 6562SOL     OW31318   1.867   1.719   4.678 -0.2281 -0.5658 -0.1418
 6562SOL    HW131319   1.876   1.731   4.773 -2.4047 -0.0281 -0.0021
 6562SOL    HW231320   1.897   1.629   4.663 -3.0008 -1.5713  0.2201
 6563SOL     OW31321   0.702   1.423   1.940  0.3655 -0.0416 -0.3464
 6563SOL    HW131322   0.673   1.420   1.849  0.9021 -1.3346 -0.4705
 6563SOL    HW231323   0.736   1.335   1.950  0.4949 -0.1426 -1.7097
 6564SOL     OW31324   0.528   0.670   3.171 -0.2182 -0.8955  0.2423
 6564SOL    HW131325   0.603   0.635   3.124  0.5553  2.1650 -0.8190
 6564SOL    HW231326   0.473   0.594   3.192 -2.2851  0.3587 -0.6538
 6565SOL     OW31327   0.656   0.326   4.975 -0.2415  1.4039 -0.0753
 6565SOL    HW131328   0.685   0.321   5.066  0.8024 -0.6131 -0.5180
 6565SOL    HW231329   0.654   0.232   4.959  1.4534  1.6186 -1.4586
 6566SOL     OW31330   3.934   4.179  13.614 -0.2605  0.7527  0.1895
 6566SOL    HW131331   3.862   4.151  13.671 -0.4222 -0.9168 -0.8618
 6566SOL    HW231332   4.006   4.161  13.674  1.1704 -0.6495 -1.9617
 6567SOL     OW31333   1.027   0.121   5.068 -0.3206 -0.1234 -0.7499
 6567SOL    HW131334   1.081   0.044   5.085  0.8924  1.1582  1.2669
 6567SOL    HW231335   1.022   0.150   5.159  1.0120 -0.3243 -0.6131
 6568SOL     OW31336   1.332   3.035   6.539  0.0935  0.1907  0.1900
 6568SOL    HW131337   1.273   2.962   6.557  1.1312 -0.5503  0.5972
 6568SOL    HW231338   1.281   3.085   6.475 -0.3556 -0.7001 -0.1515
 6569SOL     OW31339   0.114   4.426   6.630 -0.1257  0.0145 -0.8771
 6569SOL    HW131340   0.169   4.352   6.654  0.1976 -0.0564 -1.8721
 6569SOL    HW231341   0.034   4.419   6.682  1.5696 -2.8894  1.3019
 6570SOL     OW31342   0.328   0.469   9.467 -0.2251  0.2594 -0.1288
 6570SOL    HW131343   0.245   0.422   9.462  0.3157 -0.3628 -2.9537
 6570SOL    HW231344   0.385   0.402   9.506 -2.8392 -3.0697 -2.0463
 6571SOL     OW31345   1.611   0.282   5.833  0.5510  0.3043 -0.0762
 6571SOL    HW131346   1.539   0.229   5.800  1.4968 -0.4433 -0.9568
 6571SOL    HW231347   1.612   0.242   5.920  0.2401  2.2164  0.8018
 6572SOL     OW31348   0.007   3.869   7.251 -0.2781 -0.4943 -0.1290
 6572SOL    HW131349   4.681   3.811   7.209 -0.3626 -0.2511 -0.3361
 6572SOL    HW231350   4.693   3.942   7.286 -0.3411 -0.1835 -0.8628
 6573SOL     OW31351   1.400   4.566   2.820  0.1779  0.1780  0.1226
 6573SOL    HW131352   1.322   4.519   2.850 -1.2182  1.4565 -1.4819
 6573SOL    HW231353   1.364   4.628   2.757  1.9570 -0.2353 -1.2966
 6574SOL     OW31354   1.222   1.604   7.754  0.0207 -0.7067 -0.2583
 6574SOL    HW131355   1.175   1.674   7.800  0.4368 -0.7749  0.2612
 6574SOL    HW231356   1.313   1.602   7.782  0.4591 -2.3299 -1.8447
 6575SOL     OW31357   0.852   4.353   1.298 -0.5476 -0.2012 -0.4611
 6575SOL    HW131358   0.875   4.272   1.344  2.2138  1.1788  0.5607
 6575SOL    HW231359   0.837   4.406   1.376  0.1497  0.8124 -1.0260
 6576SOL     OW31360   0.384   2.903   6.399 -0.5078  0.1305 -0.4368
 6576SOL    HW131361   0.469   2.940   6.426 -1.7861  1.9459  1.1077
 6576SOL    HW231362   0.358   2.981   6.350 -3.1115 -0.6769 -0.3449
 6577SOL     OW31363   0.980   0.825   9.530 -0.3163 -0.1771 -0.3949
 6577SOL    HW131364   1.051   0.819   9.466  1.8071  1.2709  1.8113
 6577SOL    HW231365   1.005   0.773   9.606  4.4436 -0.5115 -2.1574
 6578SOL     OW31366   2.901   4.709   3.354 -0.4801  0.1814 -0.1086
 6578SOL    HW131367   2.816   0.008   3.378 -0.6345 -0.5960  0.5080
 6578SOL    HW231368   2.902   4.636   3.416  1.2092  0.7534  0.5384
 6579SOL     OW31369   1.675   2.430   6.627  0.3750  0.8602 -1.1916
 6579SOL    HW131370   1.612   2.389   6.569  0.0906 -0.4611  0.0513
 6579SOL    HW231371   1.639   2.415   6.715  1.7838 -1.5287 -1.0268
 6580SOL     OW31372   3.024   0.738   7.053  0.4234  0.9842 -0.6747
 6580SOL    HW131373   2.947   0.691   7.022  1.2657 -0.7823 -0.0659
 6580SOL    HW231374   2.975   0.799   7.108 -0.5154 -0.1072 -0.2992
 6581SOL     OW31375   0.634   1.919   6.164  0.3423  0.1880  0.2279
 6581SOL    HW131376   0.667   1.988   6.107 -1.4558  1.3726  0.6251
 6581SOL    HW231377   0.569   1.969   6.213  1.3432  1.5583  0.1744
 6582SOL     OW31378   4.555   2.480   1.117 -0.4763  0.1157 -0.0823
 6582SOL    HW131379   4.465   2.505   1.140 -0.9022 -1.3271 -0.1206
 6582SOL    HW231380   4.548   2.393   1.078  2.2171  0.6272 -1.6806
 6583SOL     OW31381   2.747   4.147   1.472  0.5911  0.2876  0.1900
 6583SOL    HW131382   2.722   4.123   1.383  2.7865 -1.7138  0.0990
 6583SOL    HW231383   2.822   4.200   1.447  0.6411 -0.4097 -1.1143
 6584SOL     OW31384   2.318   3.215  12.422 -1.3407  0.7077  1.0530
 6584SOL    HW131385   2.339   3.296  12.469  2.2733 -0.6759  1.8289
 6584SOL    HW231386   2.371   3.218  12.342  0.0036  0.9763  1.9419
 6585SOL     OW31387   0.056   4.277   3.890  0.5588  0.2902 -0.2738
 6585SOL    HW131388   0.085   4.363   3.862  0.3704  0.0412 -1.2374
 6585SOL    HW231389   0.110   4.218   3.838 -0.4688 -1.2868  0.4282
 6586SOL     OW31390   2.425   2.744  16.477  0.3243  0.0376 -0.0809
 6586SOL    HW131391   2.443   2.711  16.564  1.1749  0.2098 -0.1971
 6586SOL    HW231392   2.424   2.834  16.509  2.2982 -0.2072  0.6131
 6587SOL     OW31393   3.332   3.156   9.608  0.2217  0.1698  0.0444
 6587SOL    HW131394   3.401   3.172   9.544 -0.7939  0.5253 -0.9576
 6587SOL    HW231395   3.336   3.060   9.608  2.6975  0.2497  2.6237
 6588SOL     OW31396   2.202   3.430  17.436  0.2390  0.3298  0.6714
 6588SOL    HW131397   2.279   3.378  17.458 -0.6702 -1.1923  0.2911
 6588SOL    HW231398   2.217   3.457  17.346 -0.8214 -1.0102  0.0888
 6589SOL     OW31399   0.997   0.812  14.435 -0.1577  0.1105 -0.2608
 6589SOL    HW131400   0.902   0.815  14.423 -0.1201  3.1617  0.1332
 6589SOL    HW231401   0.990   0.807  14.531  0.4051 -0.7507 -0.2627
 6590SOL     OW31402   3.977   2.241   4.462 -0.5543  0.1629  0.0025
 6590SOL    HW131403   4.064   2.214   4.431 -0.8274  0.7939 -1.2876
 6590SOL    HW231404   3.990   2.222   4.555  0.7806  0.3355 -0.1475
 6591SOL     OW31405   4.313   0.318   4.537  0.0762  0.2951 -0.4399
 6591SOL    HW131406   4.267   0.386   4.586  0.3422 -1.1960  1.8648
 6591SOL    HW231407   4.256   0.305   4.461  0.0542 -1.3914 -0.1451
 6592SOL     OW31408   4.358   0.807  16.075 -0.1483  0.0874 -0.2262
 6592SOL    HW131409   4.303   0.746  16.027 -1.8239 -0.4678  2.3901
 6592SOL    HW231410   4.355   0.889  16.026  1.3457 -0.4719 -1.2705
 6593SOL     OW31411   3.163   2.186   3.138 -0.4097 -0.4960 -0.0582
 6593SOL    HW131412   3.155   2.274   3.100 -1.0577  0.4262  2.1740
 6593SOL    HW231413   3.071   2.162   3.125 -0.6081 -0.1458  0.6700
 6594SOL     OW31414   3.522   1.807  14.845 -0.1689 -0.2360  0.4102
 6594SOL    HW131415   3.459   1.769  14.905 -0.4749 -1.6786 -0.8441
 6594SOL    HW231416   3.576   1.862  14.903  1.5575  1.4464 -2.7262
 6595SOL     OW31417   2.930   0.619   6.474  0.1209 -0.1843  0.0889
 6595SOL    HW131418   2.938   0.680   6.547 -2.9454 -1.2687  1.3000
 6595SOL    HW231419   2.937   0.675   6.396  0.2988 -0.5263 -0.1446
 6596SOL     OW31420   3.373   3.993   3.649 -0.4583 -0.1669  0.8755
 6596SOL    HW131421   3.381   3.960   3.560  1.2167  1.5153  0.3950
 6596SOL    HW231422   3.365   4.086   3.628  0.1575 -0.5818 -1.1677
 6597SOL     OW31423   4.710   4.162  15.071 -0.1325 -0.7805  0.5744
 6597SOL    HW131424   4.620   4.156  15.040  0.3396 -0.4769 -0.8381
 6597SOL    HW231425   0.016   4.103  15.009 -1.3420  0.1871 -1.2031
 6598SOL     OW31426   3.135   3.691   4.851 -0.7887 -0.2389 -0.0059
 6598SOL    HW131427   3.070   3.757   4.825 -0.1972  0.4992  0.3807
 6598SOL    HW231428   3.199   3.743   4.900 -0.7689  1.0401 -1.4100
 6599SOL     OW31429   3.967   3.061   6.247 -0.5639  0.1158 -0.5686
 6599SOL    HW131430   3.947   3.013   6.327  0.9099 -0.2553 -0.4329
 6599SOL    HW231431   4.043   3.010   6.219  0.1947  1.3805 -0.8228
 6600SOL     OW31432   2.850   1.987   9.051 -0.2077  0.3538  0.2157
 6600SOL    HW131433   2.831   1.957   8.962  3.0573 -2.4304  0.4945
 6600SOL    HW231434   2.877   2.078   9.036 -0.6755  0.6286  1.0246
 6601SOL     OW31435   4.492   0.405   6.261  0.2319 -0.2130 -0.0803
 6601SOL    HW131436   4.513   0.311   6.258  0.3078 -0.1086 -2.6782
 6601SOL    HW231437   4.584   0.431   6.271 -0.1480  0.5381  1.4027
 6602SOL     OW31438   0.198   2.464   8.454 -0.0203 -0.4238 -0.1699
 6602SOL    HW131439   0.190   2.373   8.428 -2.2655 -0.4523  0.6916
 6602SOL    HW231440   0.113   2.508   8.452  0.8847  1.4055  0.7282
 6603SOL     OW31441   1.698   3.427  14.207  0.4606  0.3173  0.2107
 6603SOL    HW131442   1.635   3.368  14.249  1.8276 -0.8352  0.6395
 6603SOL    HW231443   1.648   3.469  14.137  0.3559  0.4814  0.3830
 6604SOL     OW31444   3.966   2.517   1.840  0.1682  0.0393  0.3620
 6604SOL    HW131445   3.931   2.432   1.865 -3.5454  1.5464  0.2909
 6604SOL    HW231446   3.928   2.523   1.753  0.4226 -0.3810  0.2218
 6605SOL     OW31447   1.505   0.171   8.052 -0.2303  0.0856 -0.2469
 6605SOL    HW131448   1.566   0.119   7.998  0.8461 -1.0175  2.0211
 6605SOL    HW231449   1.432   0.113   8.072  0.1413 -0.4800 -0.5026
 6606SOL     OW31450   0.637   4.627   7.515 -0.0095  0.2363  0.0047
 6606SOL    HW131451   0.656   4.680   7.593  0.6581 -1.6683  1.1403
 6606SOL    HW231452   0.720   4.646   7.471 -0.0558 -0.5879 -0.4466
 6607SOL     OW31453   3.709   4.605  13.991  0.2000  0.3343  0.8396
 6607SOL    HW131454   3.657   4.670  14.039  0.1952 -0.0347  1.3307
 6607SOL    HW231455   3.742   4.668  13.926  0.8217 -2.8735 -1.9194
 6608SOL     OW31456   0.882   3.466  11.026  1.1465 -0.5727  0.4146
 6608SOL    HW131457   0.819   3.537  11.037 -1.6461 -3.2276  1.5799
 6608SOL    HW231458   0.870   3.460  10.931 -0.0930 -0.3558  0.5581
 6609SOL     OW31459   2.591   0.706   3.550  0.8982  0.6669 -0.3986
 6609SOL    HW131460   2.625   0.791   3.578  0.1190  1.6101 -2.2698
 6609SOL    HW231461   2.615   0.645   3.619  4.0052  1.5799 -0.6553
 6610SOL     OW31462   2.711   3.320   1.277  0.9098  0.2468 -0.1945
 6610SOL    HW131463   2.744   3.384   1.214  1.0542  2.9645  2.5921
 6610SOL    HW231464   2.637   3.371   1.311  0.5768 -0.3783  0.0242
 6611SOL     OW31465   2.342   3.920   0.975 -0.6915  0.1103 -0.1997
 6611SOL    HW131466   2.282   3.846   0.988 -0.2908 -0.3901 -1.1930
 6611SOL    HW231467   2.424   3.871   0.979 -0.1976  0.7645 -2.2051
 6612SOL     OW31468   2.483   1.502   8.398  0.3384 -0.0794  0.2497
 6612SOL    HW131469   2.549   1.455   8.449 -1.6574 -3.7358 -0.5709
 6612SOL    HW231470   2.486   1.590   8.436  0.9464  0.5136 -1.1913
 6613SOL     OW31471   2.791   1.997   5.513 -0.4276 -0.0380  0.0165
 6613SOL    HW131472   2.862   1.958   5.563 -0.4554 -0.8277 -0.5654
 6613SOL    HW231473   2.716   1.941   5.531  0.9567 -0.7077  3.7250
 6614SOL     OW31474   2.143   1.460   6.672  0.3033  0.3946 -1.1042
 6614SOL    HW131475   2.064   1.408   6.655 -0.1559  1.3344 -1.9018
 6614SOL    HW231476   2.179   1.391   6.727 -0.8003  0.1818 -0.6542
 6615SOL     OW31477   3.994   2.681   6.098  0.2403 -0.0932 -0.2382
 6615SOL    HW131478   4.075   2.702   6.145 -1.0744  2.1980  0.9919
 6615SOL    HW231479   4.012   2.728   6.017  0.3392  0.0638 -0.1234
 6616SOL     OW31480   1.359   3.458   3.584  0.5047  0.5584 -0.7507
 6616SOL    HW131481   1.361   3.531   3.522  1.0883  0.1330 -1.2263
 6616SOL    HW231482   1.446   3.420   3.570  0.5500  0.8191 -1.1808
 6617SOL     OW31483   0.500   1.388   6.687 -0.3217 -0.6425  0.2908
 6617SOL    HW131484   0.451   1.310   6.659 -0.7661  0.3823 -1.8305
 6617SOL    HW231485   0.426   1.448   6.696  0.7478  0.0085  4.5239
 6618SOL     OW31486   3.508   3.446   8.959 -0.1762  0.3797  0.4326
 6618SOL    HW131487   3.587   3.416   9.004 -0.2941  0.9994  1.0518
 6618SOL    HW231488   3.481   3.519   9.014 -5.0231 -0.4828 -0.8367
 6619SOL     OW31489   1.047   1.858   8.385 -0.4658  0.0535 -0.1757
 6619SOL    HW131490   0.963   1.897   8.411 -0.6294 -1.2902  1.3530
 6619SOL    HW231491   1.039   1.771   8.424  1.9029  0.0274  0.2401
 6620SOL     OW31492   3.901   3.379   6.876  0.2068  0.1048  0.5108
 6620SOL    HW131493   3.817   3.334   6.878  0.4424 -0.4239 -1.1414
 6620SOL    HW231494   3.951   3.325   6.938 -0.7594 -0.1030  1.0951
 6621SOL     OW31495   0.695   4.377   9.819  0.1095 -0.0580 -0.6062
 6621SOL    HW131496   0.778   4.370   9.772 -0.7999 -2.3746 -1.8265
 6621SOL    HW231497   0.666   4.287   9.833 -1.5804  0.5215 -0.4174
 6622SOL     OW31498   1.279   2.458   2.371 -0.1159 -0.6915  0.2667
 6622SOL    HW131499   1.326   2.541   2.365 -0.0518 -0.7853 -0.5945
 6622SOL    HW231500   1.264   2.447   2.277 -0.3711  1.6354  0.0356
 6623SOL     OW31501   3.250   4.239  14.230  0.3432 -0.0296  0.1816
 6623SOL    HW131502   3.344   4.256  14.225  0.4935 -0.2988  1.9435
 6623SOL    HW231503   3.223   4.323  14.268  2.5297  0.7842 -0.0724
 6624SOL     OW31504   0.262   0.248   9.748 -0.1825  0.2198 -0.2921
 6624SOL    HW131505   0.329   0.312   9.726  0.5511 -0.8630 -1.2594
 6624SOL    HW231506   0.185   0.301   9.724  1.0719  1.9002 -0.5634
 6625SOL     OW31507   0.117   0.118   8.331  0.0634  0.5228  0.1298
 6625SOL    HW131508   0.207   0.099   8.307  0.0586 -1.0437  1.3430
 6625SOL    HW231509   0.110   0.212   8.315  0.9636  0.7789  1.2601
 6626SOL     OW31510   4.030   3.438  16.864 -0.2031  0.2973  0.0495
 6626SOL    HW131511   4.109   3.456  16.914  0.0977 -0.5805 -0.1071
 6626SOL    HW231512   3.967   3.400  16.925  1.4709  0.2484  1.7373
 6627SOL     OW31513   3.723   1.845  12.041 -0.1776 -0.4294  0.2982
 6627SOL    HW131514   3.743   1.872  12.130  0.4412 -0.4329  0.1577
 6627SOL    HW231515   3.672   1.768  12.067  0.0498 -0.4776  0.5992
 6628SOL     OW31516   2.566   4.736   3.795 -0.5181 -0.8279  0.4441
 6628SOL    HW131517   2.478   0.023   3.823 -0.0985  1.3257 -0.1646
 6628SOL    HW231518   2.557   4.662   3.735  0.4399  0.6975 -1.5808
 6629SOL     OW31519   0.089   3.429   9.122 -0.1643 -0.0857  0.3369
 6629SOL    HW131520   0.170   3.382   9.139  0.2877  0.5277 -0.1189
 6629SOL    HW231521   0.079   3.407   9.030  3.1195  0.9740 -0.2657
 6630SOL     OW31522   4.231   1.617  17.149  0.3066  0.0901 -0.1457
 6630SOL    HW131523   4.227   1.571  17.232  0.4564 -1.6950 -1.1289
 6630SOL    HW231524   4.323   1.604  17.128  0.0715  0.7034 -1.6018
 6631SOL     OW31525   0.765   2.245   3.666 -0.2628  0.1043 -0.5760
 6631SOL    HW131526   0.673   2.261   3.644  0.0393  1.6493 -0.7286
 6631SOL    HW231527   0.790   2.174   3.606 -2.8344 -1.2420 -0.0640
 6632SOL     OW31528   4.034   4.726   2.492  0.0309  0.3071  0.0507
 6632SOL    HW131529   3.982   4.695   2.418  1.1712 -1.7473  0.1033
 6632SOL    HW231530   3.963   0.030   2.540  0.0145  1.9480 -1.4019
 6633SOL     OW31531   3.377   3.737   0.876  0.3374 -0.4795  0.0876
 6633SOL    HW131532   3.325   3.658   0.889  0.1771 -0.2868  0.6213
 6633SOL    HW231533   3.465   3.709   0.851  0.3515 -0.8681  0.5787
 6634SOL     OW31534   3.253   3.610   0.109  0.9672 -0.2872  0.2052
 6634SOL    HW131535   3.277   3.538   0.050  0.1299 -0.9914  0.7162
 6634SOL    HW231536   3.269   3.572   0.195  0.0965  0.8613  0.8798
 6635SOL     OW31537   0.441   4.066   6.029  0.8743 -0.3543 -0.5129
 6635SOL    HW131538   0.359   4.059   6.079  1.4152 -0.6332  0.3297
 6635SOL    HW231539   0.491   4.048   6.108 -0.9281 -0.6459  0.5681
 6636SOL     OW31540   2.023   1.943   3.728  0.0233 -0.3062  0.0865
 6636SOL    HW131541   1.946   1.974   3.775 -0.6754 -1.9265  0.0036
 6636SOL    HW231542   2.051   2.030   3.701 -1.8910  0.4754  0.6774
 6637SOL     OW31543   4.409   3.738   7.774  0.0948  0.1962 -0.0434
 6637SOL    HW131544   4.435   3.825   7.806 -0.7259  0.5265 -0.2552
 6637SOL    HW231545   4.317   3.739   7.803  0.2989  3.6991  0.4987
 6638SOL     OW31546   2.137   0.312   4.549  0.1154 -0.0679  0.4732
 6638SOL    HW131547   2.170   0.344   4.464  0.2711 -1.7651 -0.0953
 6638SOL    HW231548   2.172   0.380   4.607  0.4388  1.5082 -1.5253
 6639SOL     OW31549   1.179   3.130   2.997 -0.2777 -0.0173 -0.2497
 6639SOL    HW131550   1.231   3.165   3.069 -1.6034  1.5461 -0.0608
 6639SOL    HW231551   1.090   3.161   3.016 -0.4279 -0.5770 -0.0547
 6640SOL     OW31552   0.205   0.376   6.077 -0.8406 -0.3119  0.2048
 6640SOL    HW131553   0.297   0.402   6.072 -1.5971  2.2974 -0.3487
 6640SOL    HW231554   0.199   0.315   6.003 -1.0364  0.7129 -0.6175
 6641SOL     OW31555   0.751   0.932   1.955  0.0788 -0.5718 -0.1286
 6641SOL    HW131556   0.826   0.875   1.972  1.0254  0.1435 -1.9499
 6641SOL    HW231557   0.769   1.011   2.007 -3.6981  0.4298 -0.3477
 6642SOL     OW31558   0.437   3.751   2.790  0.3220  0.5285 -0.5276
 6642SOL    HW131559   0.412   3.659   2.779  1.7867 -0.2680  2.7659
 6642SOL    HW231560   0.532   3.752   2.786  0.3404 -2.0984 -0.7001
 6643SOL     OW31561   2.882   3.683   5.750 -0.0474  0.4305  0.3925
 6643SOL    HW131562   2.817   3.634   5.799  0.7182  1.2542  2.2452
 6643SOL    HW231563   2.888   3.627   5.673  0.5816 -0.8723  1.3957
 6644SOL     OW31564   2.366   2.084   6.704 -0.4077 -0.0248  0.6643
 6644SOL    HW131565   2.287   2.032   6.717  0.2942 -1.0430  0.7869
 6644SOL    HW231566   2.333   2.173   6.723  1.6086  0.9965 -0.6638
 6645SOL     OW31567   0.886   2.849   3.090 -0.3281 -0.0178  0.1084
 6645SOL    HW131568   0.933   2.813   3.016 -3.9282  1.2703 -2.7936
 6645SOL    HW231569   0.902   2.783   3.158 -1.9045  0.1708  0.6681
 6646SOL     OW31570   3.067   3.439   1.102  0.1442  0.0609  0.7274
 6646SOL    HW131571   2.974   3.463   1.101  0.1185 -0.0546  0.4910
 6646SOL    HW231572   3.067   3.384   1.181 -1.0093  0.7345  1.1917
 6647SOL     OW31573   1.902   3.291  14.301  0.3673  0.0462  0.3371
 6647SOL    HW131574   1.856   3.222  14.349 -0.9401 -0.5728 -1.7679
 6647SOL    HW231575   1.834   3.358  14.291 -0.2410 -0.8908 -1.8109
 6648SOL     OW31576   3.899   2.072  12.788  0.8677 -0.6568  0.8325
 6648SOL    HW131577   3.984   2.030  12.806  0.6241 -0.9619  1.2729
 6648SOL    HW231578   3.922   2.137  12.721 -1.8197  0.3386  0.8830
 6649SOL     OW31579   3.424   1.226   2.790  0.6353 -0.3459 -0.0316
 6649SOL    HW131580   3.400   1.147   2.742  0.1673 -0.1812 -0.0748
 6649SOL    HW231581   3.475   1.276   2.727  0.6999 -0.9626 -0.4605
 6650SOL     OW31582   3.065   3.847   8.907  0.4516  0.2900  0.0140
 6650SOL    HW131583   3.027   3.877   8.990 -1.3421  0.9908 -1.0734
 6650SOL    HW231584   3.075   3.936   8.872  2.4204 -1.3707 -3.6094
 6651SOL     OW31585   4.015   1.616  14.207  0.3124 -0.0260  0.2657
 6651SOL    HW131586   4.096   1.653  14.242  0.5484 -0.9920  0.7211
 6651SOL    HW231587   4.050   1.551  14.146  0.8732  1.5656 -1.1235
 6652SOL     OW31588   1.890   1.806  17.386  0.4222 -0.3763 -0.7113
 6652SOL    HW131589   1.877   1.894  17.423  0.3440 -1.2323  1.3118
 6652SOL    HW231590   1.939   1.759  17.453  0.3541  0.6335  0.0537
 6653SOL     OW31591   3.833   0.933  10.887  0.3081  0.0350 -0.5478
 6653SOL    HW131592   3.815   0.869  10.956  1.0830 -0.6509 -0.9731
 6653SOL    HW231593   3.746   0.973  10.879 -0.4372 -1.3003  0.7914
 6654SOL     OW31594   0.818   4.108  10.832 -0.2725  0.0283 -0.3477
 6654SOL    HW131595   0.860   4.177  10.781  1.4704  0.2009  1.3332
 6654SOL    HW231596   0.727   4.102  10.803 -1.2310 -0.2181  2.6875
 6655SOL     OW31597   2.677   0.093  12.747  0.3709  0.4867  0.2506
 6655SOL    HW131598   2.636   0.032  12.810  1.5740  0.7948  1.3317
 6655SOL    HW231599   2.725   0.141  12.814  0.5193  0.3336  0.2537
 6656SOL     OW31600   3.330   3.609   5.833 -0.8244 -0.7161  0.2328
 6656SOL    HW131601   3.302   3.625   5.743  1.3445 -0.7115 -0.4439
 6656SOL    HW231602   3.256   3.645   5.881 -0.6450  0.5631 -0.4528
 6657SOL     OW31603   0.208   1.847   3.263  0.4180 -0.4929 -0.2165
 6657SOL    HW131604   0.119   1.848   3.227 -0.0840 -0.6232  1.0202
 6657SOL    HW231605   0.217   1.756   3.289  0.0736 -1.1152 -2.2687
 6658SOL     OW31606   1.644   2.569  16.534  0.6656  0.4990  0.6385
 6658SOL    HW131607   1.711   2.502  16.522  0.5930  0.4301  0.6253
 6658SOL    HW231608   1.602   2.567  16.448 -0.1510 -0.7032  1.0723
 6659SOL     OW31609   0.047   1.919   7.639  0.2048  0.4023  0.2794
 6659SOL    HW131610   0.111   1.894   7.707  1.0327 -1.7127 -1.2748
 6659SOL    HW231611   4.717   1.854   7.661  0.7303 -0.1840  0.1748
 6660SOL     OW31612   2.354   2.703  12.047 -0.0406  0.2630 -0.6593
 6660SOL    HW131613   2.273   2.666  12.012 -1.3163  1.2646  1.1817
 6660SOL    HW231614   2.346   2.670  12.137 -0.0145 -0.6700 -1.0101
 6661SOL     OW31615   4.586   0.334  11.943 -0.1398  0.1459 -0.6521
 6661SOL    HW131616   4.530   0.410  11.956  0.0099  0.2245 -0.4637
 6661SOL    HW231617   4.567   0.289  12.025 -1.5382 -0.2068 -1.1645
 6662SOL     OW31618   0.205   2.310  10.703  0.6938 -0.2750  0.2542
 6662SOL    HW131619   0.173   2.246  10.640 -0.9327 -0.1395  0.9393
 6662SOL    HW231620   0.172   2.393  10.668 -0.7661 -0.8301  0.2923
 6663SOL     OW31621   4.290   1.308   5.208 -0.4836 -0.1805 -0.0756
 6663SOL    HW131622   4.306   1.279   5.297 -1.3582 -0.6404 -0.0751
 6663SOL    HW231623   4.381   1.323   5.180 -0.8242  1.6234 -0.2428
 6664SOL     OW31624   4.681   0.067  11.284 -0.2770 -0.5265  0.0439
 6664SOL    HW131625   4.726   0.112  11.355 -0.8259 -1.2784  0.8755
 6664SOL    HW231626   4.726   0.097  11.205 -0.7965  0.1885  0.0187
 6665SOL     OW31627   4.287   3.231   9.377  0.0117 -0.1122  0.4196
 6665SOL    HW131628   4.379   3.225   9.350 -0.7818  1.1994 -2.5161
 6665SOL    HW231629   4.272   3.325   9.368 -3.6588 -0.6524  1.0983
 6666SOL     OW31630   2.023   2.838   9.171  0.0147  0.4731 -0.0451
 6666SOL    HW131631   2.020   2.856   9.077  1.9319  0.2382 -0.1545
 6666SOL    HW231632   1.981   2.751   9.175  0.8044  0.1177  0.4544
 6667SOL     OW31633   0.745   0.495   3.129 -0.0180 -0.0047 -0.4681
 6667SOL    HW131634   0.828   0.450   3.146 -0.7167 -1.1138 -0.0642
 6667SOL    HW231635   0.754   0.526   3.038  0.1796 -0.7407 -0.6993
 6668SOL     OW31636   2.901   0.043   5.787 -0.2551 -0.4592  0.4103
 6668SOL    HW131637   2.983   0.059   5.739 -0.3296 -0.2925  0.3402
 6668SOL    HW231638   2.842   0.100   5.738 -0.5657  0.6115  2.0132
 6669SOL     OW31639   0.249   4.126   9.160  0.4456  0.8416 -0.4114
 6669SOL    HW131640   0.312   4.055   9.147 -0.4505 -0.3294  1.5975
 6669SOL    HW231641   0.311   4.199   9.170 -0.8423  2.1091 -1.6372
 6670SOL     OW31642   4.362   3.529  14.760 -0.2380  0.5076 -0.1160
 6670SOL    HW131643   4.301   3.480  14.704  0.3079  1.1779 -1.2718
 6670SOL    HW231644   4.387   3.591  14.692 -0.2663 -0.9660 -1.4642
 6671SOL     OW31645   4.621   0.467   5.432  0.2775  0.4587 -0.4155
 6671SOL    HW131646   4.549   0.406   5.413  2.0520 -1.3458 -1.2844
 6671SOL    HW231647   4.679   0.416   5.488  1.7538  0.6064 -1.8121
 6672SOL     OW31648   0.793   2.336   8.943  0.4023 -0.7450 -0.0995
 6672SOL    HW131649   0.753   2.252   8.961  0.8011 -1.0716 -0.7353
 6672SOL    HW231650   0.825   2.320   8.854 -0.7861  0.6923 -0.7846
 6673SOL     OW31651   0.573   0.811   1.712  0.1342 -0.3026  0.6569
 6673SOL    HW131652   0.634   0.828   1.784  2.3563 -0.9877 -1.0779
 6673SOL    HW231653   0.490   0.792   1.755 -0.5105  1.6772  0.3060
 6674SOL     OW31654   3.689   1.648   5.615  0.0807  0.0212  0.1258
 6674SOL    HW131655   3.742   1.578   5.576  1.8407  1.8386 -0.7462
 6674SOL    HW231656   3.617   1.598   5.653 -0.4110  1.3965  1.0046
 6675SOL     OW31657   2.592   2.542   9.155  0.6206 -0.0620 -0.5936
 6675SOL    HW131658   2.516   2.594   9.180  1.1170  1.4664 -2.2216
 6675SOL    HW231659   2.636   2.542   9.240  0.6118  1.4597 -0.5724
 6676SOL     OW31660   3.891   1.388   7.946  0.0788 -0.2406  0.3259
 6676SOL    HW131661   3.950   1.314   7.957  0.2456 -0.3251 -1.2217
 6676SOL    HW231662   3.875   1.407   8.039 -0.3966 -0.0776  0.2119
 6677SOL     OW31663   2.208   4.415   8.194  0.2392  0.1414  0.3426
 6677SOL    HW131664   2.113   4.422   8.194  0.2228 -0.0758  0.9019
 6677SOL    HW231665   2.234   4.435   8.104  0.3985 -1.6420 -0.0201
 6678SOL     OW31666   1.390   3.248   8.704  0.2673  0.2629 -0.1157
 6678SOL    HW131667   1.428   3.160   8.704 -0.6839 -0.1408  3.4663
 6678SOL    HW231668   1.306   3.218   8.738  0.5894 -0.9332 -0.3739
 6679SOL     OW31669   2.005   4.614   6.071  0.1059 -0.7576 -0.4995
 6679SOL    HW131670   1.938   4.670   6.033  0.0179 -1.7110 -1.7383
 6679SOL    HW231671   2.024   4.556   5.998  1.7445  1.2673 -1.6670
 6680SOL     OW31672   2.740   3.284  11.316 -0.1022 -0.5213  0.2690
 6680SOL    HW131673   2.675   3.230  11.271 -1.2960 -0.0154  1.3608
 6680SOL    HW231674   2.692   3.367  11.316 -0.5460 -0.7759  0.2827
 6681SOL     OW31675   0.084   1.432   5.061 -0.1233  0.2664 -0.2864
 6681SOL    HW131676   0.053   1.355   5.014  0.0543  0.5638 -0.8832
 6681SOL    HW231677   0.026   1.429   5.138  1.3806  0.9247  0.8663
 6682SOL     OW31678   3.644   0.349  10.889  0.1806  0.1024  0.0502
 6682SOL    HW131679   3.661   0.436  10.853  0.5634 -0.6563 -1.5829
 6682SOL    HW231680   3.552   0.345  10.863  0.4294  1.2738 -0.9982
 6683SOL     OW31681   3.359   3.165   2.536  0.4913  0.1577 -0.9864
 6683SOL    HW131682   3.321   3.198   2.455 -0.8189 -1.4289 -1.0085
 6683SOL    HW231683   3.294   3.099   2.559  1.7463  0.1390  2.6324
 6684SOL     OW31684   0.734   2.115   4.770  0.0242 -0.1280 -0.7561
 6684SOL    HW131685   0.758   2.091   4.680  0.4558  1.2542 -1.0052
 6684SOL    HW231686   0.761   2.205   4.786 -1.1928 -0.4081  2.7939
 6685SOL     OW31687   1.683   4.270   6.314  0.0222 -0.4352  0.5141
 6685SOL    HW131688   1.589   4.271   6.295  0.2144 -1.3251 -0.5261
 6685SOL    HW231689   1.682   4.292   6.407 -0.7053  1.3688  0.0818
 6686SOL     OW31690   0.030   4.549   2.889 -0.4142 -0.1064 -0.0409
 6686SOL    HW131691   0.014   4.461   2.923  0.7235 -0.9260 -1.6024
 6686SOL    HW231692   4.683   4.594   2.879  0.5696  1.8308  0.4198
 6687SOL     OW31693   3.627   3.835  13.431 -0.0302  0.0583  0.0058
 6687SOL    HW131694   3.572   3.799  13.501 -3.0320  0.7495 -2.0343
 6687SOL    HW231695   3.564   3.896  13.393 -1.1818 -1.6149 -0.7692
 6688SOL     OW31696   3.329   3.388   6.485 -0.4028 -0.3024  0.2006
 6688SOL    HW131697   3.381   3.351   6.414 -0.8292 -0.2454 -0.1419
 6688SOL    HW231698   3.309   3.463   6.430 -0.8667 -0.9690 -0.5399
 6689SOL     OW31699   1.899   2.714   9.425  0.1965  0.8250 -0.2043
 6689SOL    HW131700   1.865   2.801   9.402  1.2167  1.3378  0.2467
 6689SOL    HW231701   1.861   2.662   9.354  0.7529 -0.6533  0.5862
 6690SOL     OW31702   2.068   4.527   0.675  0.1068 -0.0066 -0.2496
 6690SOL    HW131703   2.026   4.596   0.726  0.1985 -1.1619  1.3844
 6690SOL    HW231704   2.088   4.582   0.599 -3.1231  0.5144 -0.7046
 6691SOL     OW31705   4.447   2.569   9.161  0.2481 -0.1850  0.4818
 6691SOL    HW131706   4.356   2.542   9.155  0.2421 -0.0608  0.0201
 6691SOL    HW231707   4.452   2.552   9.255  1.8041 -1.8895  0.0880
 6692SOL     OW31708   4.496   3.503   4.000 -0.5487  0.1025 -0.3469
 6692SOL    HW131709   4.529   3.420   4.034  0.5496  1.0657  0.9196
 6692SOL    HW231710   4.458   3.535   4.082 -1.3048 -0.0690 -0.6279
 6693SOL     OW31711   3.689   1.254   4.279 -0.3794 -0.0617  0.4037
 6693SOL    HW131712   3.687   1.317   4.208  1.5178 -1.3001 -0.7436
 6693SOL    HW231713   3.625   1.191   4.245 -1.0135  0.8118 -0.0073
 6694SOL     OW31714   3.554   4.463   4.553  0.3637 -0.2446  0.1487
 6694SOL    HW131715   3.575   4.463   4.460 -1.9695 -0.1616 -0.3863
 6694SOL    HW231716   3.515   4.375   4.553  0.9690 -0.5114  1.8424
 6695SOL     OW31717   3.922   2.165   4.194 -0.0694  0.5630 -0.0770
 6695SOL    HW131718   3.880   2.251   4.191 -1.1399 -0.0287 -1.9920
 6695SOL    HW231719   4.001   2.179   4.246  0.2015  0.0989 -0.3723
 6696SOL     OW31720   1.156   4.322   7.799 -0.4887 -0.1542 -0.5184
 6696SOL    HW131721   1.250   4.315   7.816 -0.4788 -0.6307 -0.7514
 6696SOL    HW231722   1.154   4.274   7.716  2.6678  0.8864 -1.1772
 6697SOL     OW31723   1.720   0.869  13.403 -0.2584 -0.2998 -0.2983
 6697SOL    HW131724   1.781   0.943  13.403  1.4530 -1.7325 -2.1804
 6697SOL    HW231725   1.691   0.879  13.494 -0.0229  0.0120 -0.2592
 6698SOL     OW31726   3.557   2.075   7.393 -0.4552 -0.5147 -0.4538
 6698SOL    HW131727   3.515   2.160   7.378  0.3104  0.1198  1.0149
 6698SOL    HW231728   3.480   2.023   7.414  1.5874 -2.7657  1.4144
 6699SOL     OW31729   3.145   4.028   8.330  0.5518  0.2526  0.4541
 6699SOL    HW131730   3.131   3.963   8.398 -1.3101  0.0242 -0.1475
 6699SOL    HW231731   3.103   4.100   8.376  1.0780  1.7000 -1.3042
 6700SOL     OW31732   2.646   1.841   8.039 -0.0323  0.4048 -0.7314
 6700SOL    HW131733   2.600   1.862   7.958  0.0070  1.0252 -0.5954
 6700SOL    HW231734   2.578   1.800   8.093  0.1481 -0.7050 -1.3524
 6701SOL     OW31735   2.408   0.747   4.827  0.3803  0.1996 -0.1968
 6701SOL    HW131736   2.336   0.728   4.886 -1.0989  0.9601 -1.7586
 6701SOL    HW231737   2.431   0.835   4.858  1.2876  0.1019 -0.5786
 6702SOL     OW31738   0.816   0.620  11.731  0.5635 -0.0314 -0.3292
 6702SOL    HW131739   0.826   0.703  11.684  3.8937  0.0452  0.4971
 6702SOL    HW231740   0.720   0.620  11.729  0.6078  3.2085 -2.9514
 6703SOL     OW31741   4.629   4.044  13.928 -0.0608  0.9355 -0.6519
 6703SOL    HW131742   4.579   4.050  14.009  1.1313  0.8280  0.0945
 6703SOL    HW231743   4.712   4.085  13.952 -0.2630  0.9599  0.0105
 6704SOL     OW31744   3.060   4.341   1.702  0.3266 -0.1894  0.1040
 6704SOL    HW131745   3.037   4.432   1.719  0.1379  0.1358 -1.8514
 6704SOL    HW231746   3.024   4.325   1.615  0.6370 -0.9093  0.1067
 6705SOL     OW31747   1.393   3.290   5.159  0.6804 -0.1640 -0.5198
 6705SOL    HW131748   1.440   3.310   5.240  0.7768  0.6664 -0.7754
 6705SOL    HW231749   1.304   3.279   5.192  0.7320  0.0839 -0.2967
 6706SOL     OW31750   0.812   0.013  11.826  0.8365 -0.3369 -0.0754
 6706SOL    HW131751   0.730   0.054  11.854  1.1104  0.5220 -0.5435
 6706SOL    HW231752   0.787   4.665  11.791 -4.2718  0.9786  0.3754
 6707SOL     OW31753   1.106   4.592   0.993 -0.1658 -0.2376  0.7346
 6707SOL    HW131754   1.032   4.532   0.987 -0.3171 -0.1623  1.8514
 6707SOL    HW231755   1.074   4.641   1.070 -1.3535  1.5855 -0.9108
 6708SOL     OW31756   4.317   4.568   8.601  0.4174  0.2340  0.5198
 6708SOL    HW131757   4.256   4.633   8.567  0.9920  0.4182 -0.1583
 6708SOL    HW231758   4.320   4.594   8.693  0.6565  0.7894  0.3559
 6709SOL     OW31759   3.667   2.949  11.943 -0.2274  0.4770  0.2089
 6709SOL    HW131760   3.696   2.896  11.869  2.1159 -0.8910  2.1221
 6709SOL    HW231761   3.574   2.963  11.925 -0.0469  2.7020  0.9042
 6710SOL     OW31762   4.237   0.639  12.731  0.4438  0.1880  0.1684
 6710SOL    HW131763   4.145   0.640  12.758  0.6755  1.7384  0.9443
 6710SOL    HW231764   4.280   0.573  12.785 -0.7787 -1.5882 -1.0236
 6711SOL     OW31765   2.930   0.012   9.802 -0.1275  0.2150 -0.4716
 6711SOL    HW131766   2.901   0.103   9.799 -0.8638 -0.0936 -2.7169
 6711SOL    HW231767   2.995   0.017   9.731  0.6298 -1.1312  0.1217
 6712SOL     OW31768   3.105   2.205  10.880 -0.4455 -0.1663  0.6498
 6712SOL    HW131769   3.096   2.128  10.936  0.2845 -0.4789  0.3344
 6712SOL    HW231770   3.028   2.254  10.911 -0.0540 -0.0288  1.4221
 6713SOL     OW31771   1.525   1.452   6.938  0.1038 -0.4433 -0.4362
 6713SOL    HW131772   1.548   1.416   7.024 -0.8413  0.8512  0.3564
 6713SOL    HW231773   1.432   1.470   6.945  0.3225  0.0337  1.3766
 6714SOL     OW31774   2.378   1.333   1.520 -0.6816 -0.5219 -0.0850
 6714SOL    HW131775   2.430   1.254   1.526  0.2320 -0.0620 -1.7942
 6714SOL    HW231776   2.350   1.339   1.611 -1.5116  2.9545 -0.5328
 6715SOL     OW31777   3.162   3.717   8.233  0.5933 -0.5990 -0.6811
 6715SOL    HW131778   3.183   3.646   8.173 -0.0253  1.3445 -3.1740
 6715SOL    HW231779   3.148   3.790   8.173  0.9070 -1.2643 -1.5639
 6716SOL     OW31780   1.417   0.397   3.886 -0.5910 -0.0422  0.0798
 6716SOL    HW131781   1.381   0.391   3.974 -1.0445 -3.0894 -0.3025
 6716SOL    HW231782   1.408   0.304   3.863 -1.0283  0.2365 -0.8787
 6717SOL     OW31783   0.288   3.763  15.163  1.1547  0.0422  0.0386
 6717SOL    HW131784   0.332   3.847  15.170  2.6067 -0.6162 -1.1302
 6717SOL    HW231785   0.352   3.706  15.205  1.1425  1.2886  1.7409
 6718SOL     OW31786   2.054   3.689   2.960  0.5725 -0.3840  0.2489
 6718SOL    HW131787   2.143   3.653   2.966  1.1451  1.2515  1.4036
 6718SOL    HW231788   2.022   3.649   2.879  0.3848 -0.5117  0.3878
 6719SOL     OW31789   4.104   3.733   2.141 -0.5096 -0.7523  0.1609
 6719SOL    HW131790   4.048   3.811   2.148  0.1923 -0.0004 -2.8394
 6719SOL    HW231791   4.136   3.717   2.230 -0.6290  3.4609  0.9638
 6720SOL     OW31792   1.774   3.179   1.159 -0.2732 -0.0324 -0.0380
 6720SOL    HW131793   1.704   3.156   1.220 -1.0559  0.7411 -0.6339
 6720SOL    HW231794   1.746   3.122   1.087 -2.2813 -0.4033  1.0252
 6721SOL     OW31795   1.942   0.902   5.305  0.0915 -0.2422 -0.4896
 6721SOL    HW131796   1.854   0.930   5.282 -0.3917 -0.1929  1.3833
 6721SOL    HW231797   1.990   0.935   5.229  1.7849 -2.6688 -0.4843
 6722SOL     OW31798   1.211   1.909  11.907 -0.3565 -0.0449  0.1937
 6722SOL    HW131799   1.258   1.840  11.861 -0.2811  1.0936 -1.4163
 6722SOL    HW231800   1.132   1.910  11.853 -0.9257 -1.8504  0.9725
 6723SOL     OW31801   1.929   4.635   8.143 -0.1603  0.2177 -0.1577
 6723SOL    HW131802   1.978   4.591   8.213 -1.3993 -0.4121  0.3116
 6723SOL    HW231803   1.837   4.629   8.169 -0.2762 -0.7619 -0.8106
 6724SOL     OW31804   1.597   4.312   6.627 -0.1230  0.2155 -0.3438
 6724SOL    HW131805   1.643   4.283   6.706  0.9380 -1.1400 -1.4578
 6724SOL    HW231806   1.545   4.384   6.662 -0.9599 -0.4637 -0.1744
 6725SOL     OW31807   1.747   4.501  14.508 -0.2392 -0.0565  0.1754
 6725SOL    HW131808   1.761   4.585  14.462  1.8261  0.3642  1.6065
 6725SOL    HW231809   1.662   4.525  14.545 -0.3891 -0.3501  0.0221
 6726SOL     OW31810   4.097   4.688  14.718 -0.8100  0.6063 -0.6391
 6726SOL    HW131811   4.107   4.592  14.718 -3.2009  0.3656 -1.4477
 6726SOL    HW231812   4.140   4.724  14.641  0.6062 -2.1083 -1.1371
 6727SOL     OW31813   0.447   2.638   3.670 -0.0868 -0.2841 -0.1141
 6727SOL    HW131814   0.393   2.598   3.739  1.2557 -1.3146  0.3395
 6727SOL    HW231815   0.528   2.672   3.707 -0.2047 -0.1185 -0.0088
 6728SOL     OW31816   3.818   0.244  15.880  0.1366  0.0781  0.9199
 6728SOL    HW131817   3.818   0.191  15.800  0.7673  1.3379  0.0778
 6728SOL    HW231818   3.731   0.277  15.900 -1.3248 -1.7671 -2.4664
 6729SOL     OW31819   3.744   3.457   9.635  0.1621  0.8092 -0.3358
 6729SOL    HW131820   3.815   3.481   9.575  1.3804 -0.6372  0.5317
 6729SOL    HW231821   3.777   3.499   9.714 -0.8006 -2.2329  1.6627
 6730SOL     OW31822   2.255   1.880  10.591  0.1020  0.0006  0.1406
 6730SOL    HW131823   2.203   1.905  10.667 -0.4016 -0.7050  0.0189
 6730SOL    HW231824   2.281   1.789  10.606 -0.4545  0.3676  3.3421
 6731SOL     OW31825   4.629   2.507   1.421  0.6097 -0.0963  0.3859
 6731SOL    HW131826   4.682   2.572   1.375 -2.5082  3.0132  1.2023
 6731SOL    HW231827   4.588   2.460   1.349 -0.2251  1.0555  0.1112
 6732SOL     OW31828   3.367   3.692   1.208 -0.2994  0.4496 -0.3043
 6732SOL    HW131829   3.458   3.723   1.205 -0.7419  1.7726  0.0078
 6732SOL    HW231830   3.371   3.612   1.156  2.2851  0.7676 -0.5931
 6733SOL     OW31831   1.203   4.256   9.752  0.4958 -0.1713  0.1669
 6733SOL    HW131832   1.140   4.315   9.710  0.1206  0.4089  1.5172
 6733SOL    HW231833   1.145   4.217   9.818  1.8330 -3.6933 -0.7240
 6734SOL     OW31834   2.247   3.675   9.001 -0.3292 -0.0981  0.2049
 6734SOL    HW131835   2.276   3.653   9.089 -0.4495 -1.2986 -0.0613
 6734SOL    HW231836   2.261   3.595   8.951 -0.0553  0.3167 -0.3821
 6735SOL     OW31837   4.529   4.345   1.663  0.6722 -0.0551  0.6378
 6735SOL    HW131838   4.541   4.314   1.753  1.8172 -1.8214 -0.1390
 6735SOL    HW231839   4.477   4.279   1.617 -0.6670  1.1253  0.4479
 6736SOL     OW31840   0.033   2.734   6.038  0.2048  0.2394  0.2261
 6736SOL    HW131841   0.112   2.682   6.047 -0.1775 -0.7415 -2.0913
 6736SOL    HW231842   0.059   2.825   6.023  0.8764  0.2766  1.6401
 6737SOL     OW31843   0.893   0.917   5.433  0.2872  0.4763  0.6835
 6737SOL    HW131844   0.862   0.836   5.393  1.3441 -0.2114  1.2385
 6737SOL    HW231845   0.970   0.939   5.381  0.1206 -0.1453  0.1753
 6738SOL     OW31846   0.283   1.006   0.078 -0.6975 -0.0652  0.1981
 6738SOL    HW131847   0.211   0.950   0.106 -0.6490 -0.0422  0.3700
 6738SOL    HW231848   0.327   0.959   0.008  1.9752  1.4461  0.8406
 6739SOL     OW31849   2.067   3.065   4.371  0.1775  0.6193  0.1660
 6739SOL    HW131850   2.118   3.124   4.315  0.1196  0.6827  0.1811
 6739SOL    HW231851   1.975   3.085   4.356 -0.4047  0.4916  3.5519
 6740SOL     OW31852   1.930   3.682   9.669  0.0369 -0.4253  0.1336
 6740SOL    HW131853   1.928   3.703   9.576  1.6923 -0.5104  0.0734
 6740SOL    HW231854   1.908   3.766   9.710 -0.1318 -0.0372 -0.7548
 6741SOL     OW31855   0.892   3.581   9.040  0.5155 -0.2347  0.0548
 6741SOL    HW131856   0.816   3.612   8.991  0.3400  0.9151  1.0441
 6741SOL    HW231857   0.900   3.492   9.005 -1.1741 -0.2113 -0.3563
 6742SOL     OW31858   4.083   1.392   6.248 -0.4924 -0.0144 -0.4985
 6742SOL    HW131859   4.032   1.311   6.241  1.8216 -1.3761 -1.3779
 6742SOL    HW231860   4.029   1.442   6.186  0.6973 -1.0421 -2.3558
 6743SOL     OW31861   2.970   4.216   8.151  0.3134 -0.1315  0.3383
 6743SOL    HW131862   3.049   4.261   8.177 -0.9350  1.2841  1.6297
 6743SOL    HW231863   2.913   4.292   8.140  2.2347  1.6385  2.8338
 6744SOL     OW31864   3.863   1.514  12.606  0.3573  0.6693  0.4968
 6744SOL    HW131865   3.949   1.479  12.583 -0.0712 -1.0102  1.4662
 6744SOL    HW231866   3.867   1.534  12.699 -0.3858  0.5694  0.5496
 6745SOL     OW31867   4.517   3.272   8.837 -0.6922 -0.3856 -0.4282
 6745SOL    HW131868   4.438   3.222   8.857  0.8931 -2.8609 -0.3867
 6745SOL    HW231869   4.498   3.355   8.881 -0.4085  0.2064 -1.4189
 6746SOL     OW31870   0.817   1.285   7.103 -0.3955  0.0958 -0.4075
 6746SOL    HW131871   0.865   1.316   7.026  1.3462 -2.5700 -0.3764
 6746SOL    HW231872   0.736   1.250   7.067  0.0719  0.1487 -1.5457
 6747SOL     OW31873   2.764   0.742   8.543 -0.0463  0.1168 -0.2675
 6747SOL    HW131874   2.760   0.834   8.568 -1.5551  0.1132 -0.4560
 6747SOL    HW231875   2.672   0.713   8.545  0.3756 -1.3027 -1.4087
 6748SOL     OW31876   4.167   1.111   7.154 -0.5624  0.9210  0.0784
 6748SOL    HW131877   4.229   1.038   7.154  1.4521  2.6300 -1.4205
 6748SOL    HW231878   4.218   1.174   7.103 -1.2695 -0.4215 -2.2580
 6749SOL     OW31879   4.355   1.415   2.801  0.0749 -0.2388 -0.0866
 6749SOL    HW131880   4.354   1.508   2.824  1.8665 -0.0243 -0.8991
 6749SOL    HW231881   4.268   1.407   2.760  0.0571 -0.2466 -0.0477
 6750SOL     OW31882   2.656   0.126   2.126 -0.0833 -0.0346  0.3531
 6750SOL    HW131883   2.642   0.033   2.110  0.2688 -0.2904  1.5378
 6750SOL    HW231884   2.692   0.147   2.040  0.5085  0.9207  0.8302
 6751SOL     OW31885   0.187   2.887   4.033 -0.4995  0.1465  0.4952
 6751SOL    HW131886   0.261   2.897   3.973 -2.1451 -1.6568 -1.8270
 6751SOL    HW231887   0.196   2.965   4.088  0.6872  1.6668 -1.8929
 6752SOL     OW31888   0.704   2.583  12.614 -0.1870 -0.1300 -0.8608
 6752SOL    HW131889   0.731   2.495  12.587 -0.0865 -0.1458 -0.7101
 6752SOL    HW231890   0.711   2.586  12.709 -0.8959  0.3278 -0.8273
 6753SOL     OW31891   2.523   2.237   7.644  0.0135  0.6506 -0.3403
 6753SOL    HW131892   2.590   2.256   7.578  1.1547  3.3025  1.5780
 6753SOL    HW231893   2.547   2.302   7.711  1.2669  0.0257 -0.1943
 6754SOL     OW31894   4.697   2.996   2.980  0.5201 -0.2737  0.1738
 6754SOL    HW131895   4.700   2.913   3.027 -2.6738 -0.4409  0.0903
 6754SOL    HW231896   4.675   3.056   3.051  0.4187  0.4764 -0.4899
 6755SOL     OW31897   0.143   1.483  16.677  0.1036  0.1349  0.4680
 6755SOL    HW131898   0.090   1.432  16.616 -1.2301  2.7075 -0.5086
 6755SOL    HW231899   0.074   1.521  16.731 -1.7447 -2.1390 -0.3083
 6756SOL     OW31900   2.952   0.839   1.233 -0.2348  0.1387 -0.0516
 6756SOL    HW131901   2.871   0.856   1.184 -0.9630  0.7814  1.3715
 6756SOL    HW231902   2.999   0.784   1.171  1.6048  0.1472  1.3297
 6757SOL     OW31903   2.089   3.526   7.601  0.3093  0.0300 -0.1098
 6757SOL    HW131904   2.162   3.467   7.619  1.0536  0.8235 -0.5160
 6757SOL    HW231905   2.009   3.473   7.601  0.4892 -0.2219  2.9513
 6758SOL     OW31906   4.205   0.936   4.660 -0.1933  0.1918  0.1836
 6758SOL    HW131907   4.294   0.904   4.671 -0.4572 -0.1444  1.2806
 6758SOL    HW231908   4.215   1.028   4.681 -0.6833  0.1452  0.6277
 6759SOL     OW31909   4.532   3.725   6.054  0.4974 -0.3883  0.2370
 6759SOL    HW131910   4.468   3.790   6.084 -0.6544 -1.8307  0.9173
 6759SOL    HW231911   4.532   3.741   5.960  0.6997  3.7327  0.9332
 6760SOL     OW31912   3.181   4.158  12.660 -0.4127 -0.2830  0.0492
 6760SOL    HW131913   3.107   4.102  12.684 -0.4860  0.0781  0.6393
 6760SOL    HW231914   3.145   4.246  12.666 -0.4216 -0.5666  3.7872
 6761SOL     OW31915   1.379   2.888  11.510 -0.6347 -0.0605 -0.2640
 6761SOL    HW131916   1.354   2.981  11.505  1.7665  0.5464 -0.7621
 6761SOL    HW231917   1.427   2.899  11.592  1.4899 -0.8585 -1.4068
 6762SOL     OW31918   1.118   0.807   8.885 -0.2031 -0.1607 -0.7086
 6762SOL    HW131919   1.195   0.760   8.917  0.3180  1.1806  0.0249
 6762SOL    HW231920   1.097   0.762   8.803  1.7324 -0.6927 -0.9130
 6763SOL     OW31921   2.421   0.795   0.464 -0.1866  0.4082  0.9854
 6763SOL    HW131922   2.457   0.856   0.529 -2.1086  1.0679  1.4307
 6763SOL    HW231923   2.479   0.719   0.453 -0.2168  0.5035  0.1782
 6764SOL     OW31924   0.442   0.537   2.872  0.1515 -0.1011 -0.0135
 6764SOL    HW131925   0.414   0.580   2.953 -0.8136 -2.0134  0.6393
 6764SOL    HW231926   0.402   0.451   2.883  1.1071 -0.6658 -0.9389
 6765SOL     OW31927   3.086   1.516  15.845  0.6065  0.2820  0.2725
 6765SOL    HW131928   3.049   1.473  15.768 -0.6894 -1.7512  2.0177
 6765SOL    HW231929   3.006   1.523  15.897  0.1134  2.2596 -0.7767
 6766SOL     OW31930   1.792   0.042  14.664 -0.4793 -0.4390  1.0944
 6766SOL    HW131931   1.721   0.001  14.615 -0.3517 -1.1373  1.4832
 6766SOL    HW231932   1.848   0.070  14.592 -1.7908 -2.9577 -0.8982
 6767SOL     OW31933   1.185   0.176   3.102  0.6651  0.0078 -0.0373
 6767SOL    HW131934   1.258   0.168   3.164 -0.8440 -2.4215  1.3922
 6767SOL    HW231935   1.128   0.107   3.135 -0.1301  0.6254 -0.1213
 6768SOL     OW31936   1.100   4.485   4.004  0.3563  0.3220 -0.2940
 6768SOL    HW131937   1.004   4.483   4.007  0.4197 -1.8086  0.5160
 6768SOL    HW231938   1.126   4.406   4.052  0.4242 -0.2253 -1.2309
 6769SOL     OW31939   1.464   2.982   3.769 -0.3011 -0.1700  0.2140
 6769SOL    HW131940   1.405   2.934   3.828  3.5671 -2.4716  2.2023
 6769SOL    HW231941   1.477   2.931   3.689  0.7471  0.2635  0.1170
 6770SOL     OW31942   1.806   3.410   5.755  0.0484  0.2522  0.0997
 6770SOL    HW131943   1.763   3.485   5.795 -1.0428 -0.0282 -0.5383
 6770SOL    HW231944   1.836   3.358   5.829  0.0096  2.7499  1.8565
 6771SOL     OW31945   0.685   4.719   4.020  0.1194  0.0746 -0.5193
 6771SOL    HW131946   0.736   4.680   3.949  0.8132  2.0351 -1.1084
 6771SOL    HW231947   0.722   0.070   4.016  0.5947 -0.0527  1.1823
 6772SOL     OW31948   1.591   2.319   5.582  0.3647  0.1044 -0.0240
 6772SOL    HW131949   1.589   2.370   5.663  0.6050 -0.8543  0.5816
 6772SOL    HW231950   1.525   2.249   5.582 -0.7753  1.1662 -0.6405
 6773SOL     OW31951   3.672   0.934   4.382 -0.2471 -0.5290 -0.3234
 6773SOL    HW131952   3.740   1.001   4.380 -0.2444 -0.6739 -3.7576
 6773SOL    HW231953   3.597   0.981   4.346 -1.7812 -0.9633  2.3008
 6774SOL     OW31954   0.421   0.492   8.105  0.2969  0.5160 -0.0162
 6774SOL    HW131955   0.472   0.413   8.124 -1.6549 -0.9032 -0.7261
 6774SOL    HW231956   0.450   0.522   8.019  3.1482 -0.4793  0.5622
 6775SOL     OW31957   2.166   0.456   3.203 -0.4663  0.3592 -0.7559
 6775SOL    HW131958   2.239   0.424   3.150  0.8408 -0.4974  1.5713
 6775SOL    HW231959   2.165   0.385   3.268 -0.2111  1.5653  0.5753
 6776SOL     OW31960   0.628   0.846   5.935 -0.2684  0.3306 -0.2731
 6776SOL    HW131961   0.614   0.933   5.973 -0.8442  0.1228 -0.0098
 6776SOL    HW231962   0.616   0.868   5.843 -0.7867  0.7930 -0.0943
 6777SOL     OW31963   0.324   1.905   8.682  0.5135 -0.1719  0.3680
 6777SOL    HW131964   0.314   1.993   8.719  0.7702 -0.1858  0.4747
 6777SOL    HW231965   0.368   1.863   8.756 -0.4893  0.0729  1.1091
 6778SOL     OW31966   1.965   2.642  14.036  0.2631  0.7210 -0.3914
 6778SOL    HW131967   2.057   2.654  14.059  0.1034  0.2065  0.5266
 6778SOL    HW231968   1.978   2.620  13.944  0.2957 -0.6069 -0.0800
 6779SOL     OW31969   0.634   4.187   9.030  0.6968  0.4739 -0.1569
 6779SOL    HW131970   0.548   4.216   9.059  0.9900  0.5575  0.6286
 6779SOL    HW231971   0.629   4.105   9.079  2.0246 -0.1148 -1.0146
 6780SOL     OW31972   3.541   0.943  13.343 -0.1591  0.5487  0.2049
 6780SOL    HW131973   3.447   0.953  13.328 -0.0474 -0.1913 -1.0127
 6780SOL    HW231974   3.576   0.932  13.254  1.0831  1.1664  0.6125
 6781SOL     OW31975   3.058   3.301   6.053  0.0470  0.4127  0.0677
 6781SOL    HW131976   3.079   3.227   6.110 -0.4214  1.2501  1.3178
 6781SOL    HW231977   2.995   3.255   5.998  1.5274 -0.2093 -1.1150
 6782SOL     OW31978   0.237   1.182   9.605  0.0248  0.1047  0.1417
 6782SOL    HW131979   0.149   1.184   9.567 -0.7952 -0.2749  2.0164
 6782SOL    HW231980   0.249   1.089   9.623 -1.3061 -0.0213  0.3425
 6783SOL     OW31981   1.406   4.317   6.359 -0.1477  0.1586  0.5983
 6783SOL    HW131982   1.359   4.381   6.305  0.7288 -0.6273 -1.0903
 6783SOL    HW231983   1.370   4.341   6.444 -2.2957  0.2686 -0.3262
 6784SOL     OW31984   0.387   2.683   0.746  0.0364  0.0096 -0.0134
 6784SOL    HW131985   0.364   2.763   0.699 -0.2642 -2.4007 -4.0275
 6784SOL    HW231986   0.388   2.717   0.835 -1.5008  1.4057 -0.5289
 6785SOL     OW31987   1.143   4.672   7.269 -0.1805 -0.7557  0.6504
 6785SOL    HW131988   1.188   4.587   7.260  2.8686  1.2326 -2.9281
 6785SOL    HW231989   1.197   4.712   7.201  2.3422 -1.8696  1.9867
 6786SOL     OW31990   1.270   3.663   5.407  0.4982 -0.0574  0.2718
 6786SOL    HW131991   1.230   3.605   5.342  0.9410  0.0105 -0.0571
 6786SOL    HW231992   1.361   3.655   5.382 -0.1926 -0.8816 -1.9404
 6787SOL     OW31993   0.855   3.179   8.299 -0.0342  0.2555 -0.0609
 6787SOL    HW131994   0.821   3.098   8.263  2.0488 -0.8330  0.3878
 6787SOL    HW231995   0.940   3.155   8.336 -0.2619  0.1766  0.4110
 6788SOL     OW31996   3.999   0.980   5.778  1.9099  0.1830  0.0688
 6788SOL    HW131997   3.963   1.016   5.859 -0.3564 -1.2432 -0.2822
 6788SOL    HW231998   4.037   0.896   5.807  0.1295 -0.2814  1.0850
 6789SOL     OW31999   1.464   3.289  17.635  0.4171 -0.4799  0.7246
 6789SOL    HW132000   1.368   3.286  17.634  0.4280 -0.0397 -2.0627
 6789SOL    HW232001   1.480   3.307  17.728 -0.2300  3.4208  0.0479
 6790SOL     OW32002   1.133   2.670   2.974 -0.1246 -0.0677  0.3410
 6790SOL    HW132003   1.102   2.648   2.886 -0.9062 -1.6329  1.0065
 6790SOL    HW232004   1.193   2.744   2.966  0.8989 -0.7362  2.1428
 6791SOL     OW32005   0.653   1.029   8.023 -0.8102  0.5632  0.0935
 6791SOL    HW132006   0.639   0.963   8.090 -1.2217  1.6989  1.1209
 6791SOL    HW232007   0.732   0.995   7.980 -1.3315 -1.5456  0.8095
 6792SOL     OW32008   1.294   0.249   8.900 -0.1750  0.0256 -0.1338
 6792SOL    HW132009   1.262   0.326   8.947  2.5595  1.4729 -0.5805
 6792SOL    HW232010   1.385   0.279   8.907 -0.0186 -0.9277  1.9036
 6793SOL     OW32011   1.924   0.030   8.541 -0.0995  0.2306  0.0299
 6793SOL    HW132012   1.949   0.121   8.558  2.2432 -0.2874 -0.5454
 6793SOL    HW232013   1.837   0.048   8.508 -0.1806  0.6279  0.4514
 6794SOL     OW32014   1.690   1.504   2.765 -0.0334  0.6062 -0.2900
 6794SOL    HW132015   1.616   1.483   2.822 -0.6088  1.0446 -0.8833
 6794SOL    HW232016   1.765   1.478   2.819 -1.7355 -0.7861  1.4031
 6795SOL     OW32017   2.651   2.762   5.752 -0.4755 -0.3234 -0.4484
 6795SOL    HW132018   2.559   2.739   5.738 -0.9048  1.0151  0.2317
 6795SOL    HW232019   2.705   2.699   5.704  0.7019  1.1508 -1.0316
 6796SOL     OW32020   1.048   1.160  12.434  0.2034  0.0065 -0.9195
 6796SOL    HW132021   1.114   1.193  12.495  1.1164 -0.4619 -1.6639
 6796SOL    HW232022   1.103   1.172  12.357  1.2664 -0.7003 -0.2682
 6797SOL     OW32023   1.920   0.929   7.619 -0.5030  0.3180 -0.0644
 6797SOL    HW132024   1.903   0.893   7.706 -1.9181 -0.7302 -0.7639
 6797SOL    HW232025   1.899   1.022   7.624  0.8026  0.6757 -1.1675
 6798SOL     OW32026   1.371   1.714   5.062  0.3496  0.0527 -0.2811
 6798SOL    HW132027   1.298   1.718   5.124  0.5264 -0.3126 -0.0483
 6798SOL    HW232028   1.423   1.787   5.095 -1.4619  1.3957 -0.4364
 6799SOL     OW32029   1.873   2.438   3.633 -0.0533 -0.5116 -0.3390
 6799SOL    HW132030   1.784   2.418   3.660 -0.4333 -0.1730 -1.3097
 6799SOL    HW232031   1.894   2.506   3.697 -0.3453 -0.8552  0.1140
 6800SOL     OW32032   2.607   3.765   3.291 -0.0936  0.1197 -0.0900
 6800SOL    HW132033   2.633   3.774   3.382 -2.2732  0.3307  0.5131
 6800SOL    HW232034   2.572   3.853   3.282 -0.5030 -0.1102 -0.7988
 6801SOL     OW32035   3.707   4.246  16.194 -0.0510  0.4050  0.3080
 6801SOL    HW132036   3.754   4.321  16.229 -1.5504  2.0686 -1.2387
 6801SOL    HW232037   3.710   4.272  16.102 -4.3785 -0.4978 -0.0921
 6802SOL     OW32038   2.035   1.175   9.162  0.4866 -0.3071  0.4253
 6802SOL    HW132039   2.069   1.263   9.153 -1.1296  0.4021  1.2865
 6802SOL    HW232040   2.006   1.175   9.253 -3.6253  0.3020 -0.8494
 6803SOL     OW32041   3.357   1.218   8.829  0.4740  0.0430  0.2218
 6803SOL    HW132042   3.440   1.203   8.875  2.6229 -1.3490 -4.1008
 6803SOL    HW232043   3.334   1.126   8.818 -2.9473  1.3257 -3.3205
 6804SOL     OW32044   1.106   4.159   5.791 -0.0326 -0.0808 -0.2663
 6804SOL    HW132045   1.058   4.106   5.726 -0.0634 -0.7491  0.2986
 6804SOL    HW232046   1.025   4.176   5.839 -1.2063 -1.1121 -1.8454
 6805SOL     OW32047   1.492   1.510   4.250 -0.0580  0.4947  0.5780
 6805SOL    HW132048   1.478   1.573   4.321  0.8468  3.1880 -1.6562
 6805SOL    HW232049   1.515   1.559   4.172  1.2280  1.1950  1.4038
 6806SOL     OW32050   4.175   2.836  13.624  0.2276 -0.0364  0.2735
 6806SOL    HW132051   4.222   2.870  13.549 -2.0905  3.1058  0.2458
 6806SOL    HW232052   4.236   2.860  13.694  0.6318 -0.9072  0.2161
 6807SOL     OW32053   2.251   3.867   6.165  0.3697 -0.5005  0.0647
 6807SOL    HW132054   2.187   3.835   6.229  2.9804  0.1364  2.9918
 6807SOL    HW232055   2.287   3.784   6.136 -0.3384 -1.2627  1.3655
 6808SOL     OW32056   0.972   3.447   4.438 -0.3288 -0.2472  0.5732
 6808SOL    HW132057   1.014   3.462   4.354 -1.4951 -0.4050 -0.0426
 6808SOL    HW232058   0.901   3.509   4.422 -0.8216 -0.3597  2.2511
 6809SOL     OW32059   1.063   0.491   3.453 -0.3649  0.0269  0.4150
 6809SOL    HW132060   0.996   0.560   3.462  0.0151  0.2737  1.3508
 6809SOL    HW232061   1.109   0.487   3.537  2.9471 -0.6417 -1.4354
 6810SOL     OW32062   1.628   0.596  15.179 -0.1757  0.2407  0.7923
 6810SOL    HW132063   1.685   0.526  15.147 -0.8021 -1.8484  4.2427
 6810SOL    HW232064   1.677   0.607  15.261 -0.5552  1.7575  0.8228
 6811SOL     OW32065   2.589   1.497   1.306 -0.6714 -0.2819  0.0887
 6811SOL    HW132066   2.525   1.426   1.304 -1.5327  0.4658  0.9502
 6811SOL    HW232067   2.569   1.542   1.388 -2.3457 -1.4226  0.2980
 6812SOL     OW32068   2.628   4.138   1.825 -0.3289  0.0370  0.0388
 6812SOL    HW132069   2.684   4.091   1.763 -0.8577 -1.5605  0.7732
 6812SOL    HW232070   2.543   4.097   1.805  0.2791  0.0290 -2.6155
 6813SOL     OW32071   2.406   1.670   1.805  0.5442 -0.0447  0.3003
 6813SOL    HW132072   2.449   1.616   1.872 -2.4678 -1.7596  0.8835
 6813SOL    HW232073   2.437   1.758   1.826 -2.7600  0.8622  1.3531
 6814SOL     OW32074   1.025   4.509   3.269 -0.1535  0.0192  0.4070
 6814SOL    HW132075   1.009   4.458   3.349 -2.2020  0.0936  0.0667
 6814SOL    HW232076   0.980   4.456   3.203 -0.2022 -1.7704  1.8685
 6815SOL     OW32077   1.831   1.146   8.974  0.4322 -0.3527 -0.2928
 6815SOL    HW132078   1.844   1.051   8.983  0.7432 -0.2521  0.2953
 6815SOL    HW232079   1.893   1.181   9.037 -2.4615  2.5522  0.8935
 6816SOL     OW32080   2.259   0.685  14.016  0.0846  0.2671  0.5014
 6816SOL    HW132081   2.264   0.614  14.080  0.3659 -0.3128 -0.1484
 6816SOL    HW232082   2.245   0.634  13.936 -2.9711 -1.1853  1.9838
 6817SOL     OW32083   0.073   2.228   6.559  0.0454 -0.3357 -0.0296
 6817SOL    HW132084   0.075   2.321   6.580  1.4227 -0.0857 -1.2871
 6817SOL    HW232085   0.009   2.227   6.488 -0.6976  1.9855  0.6209
 6818SOL     OW32086   1.712   0.971   4.577  0.0995 -0.0092 -0.3417
 6818SOL    HW132087   1.693   1.001   4.665 -1.9138 -1.4699 -0.2848
 6818SOL    HW232088   1.705   0.877   4.592  0.8687 -0.0781 -0.3957
 6819SOL     OW32089   3.613   2.488   2.204  0.6513  0.7576  0.0624
 6819SOL    HW132090   3.631   2.439   2.124  0.5236 -1.3953  1.3719
 6819SOL    HW232091   3.563   2.559   2.164 -1.4080  0.0949  1.5128
 6820SOL     OW32092   3.425   4.553   4.155  0.4649 -0.1657  0.2782
 6820SOL    HW132093   3.375   4.607   4.216  1.7664  0.2507  0.9780
 6820SOL    HW232094   3.354   4.526   4.096 -0.4513 -0.2810  1.4400
 6821SOL     OW32095   2.931   3.848   7.582  0.6462  0.8373  0.1752
 6821SOL    HW132096   3.009   3.892   7.614  0.9346 -1.0557  2.1000
 6821SOL    HW232097   2.862   3.891   7.633  0.0423  1.1631 -0.9127
 6822SOL     OW32098   2.383   3.058  10.139  0.0050 -0.1370  0.1944
 6822SOL    HW132099   2.384   2.966  10.115  0.0887 -0.2100  0.4772
 6822SOL    HW232100   2.418   3.055  10.228  3.5430  0.7552 -1.1844
 6823SOL     OW32101   2.752   3.920   8.827 -0.1768 -0.0622 -0.5438
 6823SOL    HW132102   2.755   3.865   8.749  1.1219 -0.7359 -0.0112
 6823SOL    HW232103   2.826   3.979   8.812 -1.5396  1.8000  0.0493
 6824SOL     OW32104   4.219   2.172   7.267  0.1046 -0.0370  0.2806
 6824SOL    HW132105   4.129   2.191   7.295 -0.1589  2.7225 -2.4104
 6824SOL    HW232106   4.212   2.156   7.173 -1.2129  1.9886  0.0148
 6825SOL     OW32107   1.503   2.846   4.724  0.4724 -0.1454  0.3221
 6825SOL    HW132108   1.463   2.918   4.675 -0.3231 -1.7320 -1.3246
 6825SOL    HW232109   1.448   2.785   4.674 -1.6343  0.6324  1.6723
 6826SOL     OW32110   1.661   3.419   0.043 -0.1209  0.8150 -0.5609
 6826SOL    HW132111   1.623   3.472  17.721 -1.7088 -2.1244 -1.9330
 6826SOL    HW232112   1.750   3.453   0.048 -0.6480  2.1413 -0.4407
 6827SOL     OW32113   1.800   0.658   2.760 -0.2184 -0.2750  0.2201
 6827SOL    HW132114   1.797   0.582   2.818  3.3764  0.0599  0.8503
 6827SOL    HW232115   1.828   0.612   2.681  1.3368  1.8587 -0.4599
 6828SOL     OW32116   3.784   2.181   7.532  0.0675  0.4145 -0.2256
 6828SOL    HW132117   3.708   2.151   7.481  0.7720 -1.6244 -0.0779
 6828SOL    HW232118   3.797   2.104   7.588 -1.1311  0.2351 -0.1944
 6829SOL     OW32119   4.382   2.490   2.672 -0.2576 -0.2110  0.0477
 6829SOL    HW132120   4.378   2.438   2.752  1.4727  0.8462  0.8156
 6829SOL    HW232121   4.358   2.575   2.710 -1.3979 -0.2300 -0.6175
 6830SOL     OW32122   1.755   3.296   5.495 -0.4004 -0.0284  0.0769
 6830SOL    HW132123   1.837   3.260   5.461 -1.1140  0.2671 -1.9799
 6830SOL    HW232124   1.775   3.354   5.568 -0.0445 -1.7240  1.3042
 6831SOL     OW32125   4.129   4.654   3.891  0.3788 -0.3446 -0.2385
 6831SOL    HW132126   4.076   4.732   3.907  1.3411 -0.5311  3.8234
 6831SOL    HW232127   4.102   4.626   3.804 -2.4794  3.5614 -0.6253
 6832SOL     OW32128   4.303   4.211   6.469  0.0977 -0.0203 -0.2057
 6832SOL    HW132129   4.327   4.191   6.379  0.8062  0.6957 -0.1814
 6832SOL    HW232130   4.377   4.267   6.496 -1.1770  0.7602  1.6536
 6833SOL     OW32131   1.803   3.884   9.837 -0.0158  0.3774 -0.2889
 6833SOL    HW132132   1.746   3.956   9.863 -1.5362 -0.1667 -2.0994
 6833SOL    HW232133   1.887   3.927   9.850  0.0384  0.3564 -0.5607
 6834SOL     OW32134   1.142   0.171   9.191 -0.0692  0.0394 -0.3035
 6834SOL    HW132135   1.154   0.194   9.283 -1.2125  1.4578 -0.5054
 6834SOL    HW232136   1.221   0.119   9.179  0.6967  0.8447  1.2665
 6835SOL     OW32137   1.579   2.975   0.091 -0.3722 -0.3008  0.0796
 6835SOL    HW132138   1.523   3.005   0.162 -1.0561  2.6535 -1.7133
 6835SOL    HW232139   1.606   2.886   0.115 -2.0990 -0.5459  1.0524
 6836SOL     OW32140   1.871   0.517   2.535  0.1629 -0.7118  0.0129
 6836SOL    HW132141   1.819   0.481   2.463 -1.5154  0.9320  0.4077
 6836SOL    HW232142   1.893   0.433   2.574 -1.5134 -1.3735 -0.4638
 6837SOL     OW32143   4.660   4.734   5.426  0.5089  0.3676 -0.0748
 6837SOL    HW132144   4.693   0.002   5.336  0.8521  1.0397  0.0899
 6837SOL    HW232145   4.735   4.702   5.476  2.9913 -0.2828 -4.1379
 6838SOL     OW32146   1.988   4.276   0.491  0.0233 -0.4654  0.2102
 6838SOL    HW132147   1.981   4.330   0.412 -1.6987 -1.7457 -0.5328
 6838SOL    HW232148   2.036   4.336   0.547  0.9413  0.0027 -1.0708
 6839SOL     OW32149   4.386   4.513  11.440  0.4242 -0.5701 -0.2765
 6839SOL    HW132150   4.427   4.554  11.364 -0.3799  1.2978  0.2995
 6839SOL    HW232151   4.293   4.531  11.428 -0.4907 -3.5620  2.2334
 6840SOL     OW32152   1.395   3.671  12.190  0.6301  0.2372 -0.0029
 6840SOL    HW132153   1.447   3.592  12.208 -2.1080 -1.6255 -0.2293
 6840SOL    HW232154   1.454   3.713  12.128  1.3462 -2.3721 -1.0824
 6841SOL     OW32155   0.895   2.710   1.089  0.0437 -0.2662 -0.1155
 6841SOL    HW132156   0.904   2.752   1.004 -1.5438 -2.4266 -1.3471
 6841SOL    HW232157   0.898   2.788   1.145  0.2449 -0.3754  0.0269
 6842SOL     OW32158   3.465   3.571   4.378 -0.7600 -0.4662 -0.1818
 6842SOL    HW132159   3.428   3.598   4.462 -0.7862 -0.3937 -0.2172
 6842SOL    HW232160   3.520   3.646   4.354 -0.1722 -0.2356  1.9071
 6843SOL     OW32161   0.366   4.068   7.415  0.0818  0.4597 -0.0614
 6843SOL    HW132162   0.439   4.125   7.438 -0.2291 -0.9184  4.3232
 6843SOL    HW232163   0.415   4.002   7.367  0.2179  0.4998  0.0232
 6844SOL     OW32164   1.952   3.839   3.500  0.8978  0.1305  0.3577
 6844SOL    HW132165   2.010   3.851   3.425 -0.4076  0.0519 -0.6621
 6844SOL    HW232166   2.001   3.887   3.566  0.2259  0.2605  0.7648
 6845SOL     OW32167   2.987   1.180   3.842  0.1720  0.1658  0.2074
 6845SOL    HW132168   2.960   1.237   3.770 -0.7651  0.0417  0.4664
 6845SOL    HW232169   2.953   1.095   3.812  1.1528 -0.3386  0.5115
 6846SOL     OW32170   1.371   3.511   7.818  0.0467 -0.0529 -0.5907
 6846SOL    HW132171   1.449   3.458   7.834  0.1363 -0.3976 -2.1062
 6846SOL    HW232172   1.382   3.535   7.726  1.6257 -0.5841 -0.5325
 6847SOL     OW32173   2.139   3.195   8.566  0.4317 -0.3377 -0.4848
 6847SOL    HW132174   2.155   3.169   8.475 -1.3371 -1.9335 -0.3338
 6847SOL    HW232175   2.187   3.278   8.568  0.0559 -0.1858  2.0610
 6848SOL     OW32176   0.731   3.055   3.041 -0.3225  0.5424  0.1998
 6848SOL    HW132177   0.778   2.985   3.088 -1.6120  0.4225  1.3127
 6848SOL    HW232178   0.716   3.014   2.956  1.0739 -1.2844  0.8089
 6849SOL     OW32179   1.048   4.100   9.903  0.2775 -0.0224  0.1012
 6849SOL    HW132180   0.984   4.060   9.961  1.3172  0.9057  1.8964
 6849SOL    HW232181   1.092   4.022   9.868 -1.9964 -0.5659 -1.5093
 6850SOL     OW32182   3.850   0.982   9.897  0.2718 -0.1041 -0.6260
 6850SOL    HW132183   3.942   0.984   9.923  0.6856  0.2256 -2.1205
 6850SOL    HW232184   3.842   1.068   9.855 -4.5838 -0.6155 -0.7758
 6851SOL     OW32185   3.809   0.592   8.576 -0.1113 -0.5179  0.0434
 6851SOL    HW132186   3.784   0.564   8.663  1.8890 -1.5226  0.3019
 6851SOL    HW232187   3.735   0.647   8.552 -1.3101 -1.4857  1.5349
 6852SOL     OW32188   2.749   3.445   5.907 -0.6782 -0.1623  0.4474
 6852SOL    HW132189   2.682   3.439   5.839  0.5235  0.1359 -0.7712
 6852SOL    HW232190   2.791   3.359   5.894  1.0361  0.5736  1.1157
 6853SOL     OW32191   3.038   3.869   1.534  0.1414  0.2703 -0.0754
 6853SOL    HW132192   3.060   3.800   1.472 -0.3076 -0.3729  0.4648
 6853SOL    HW232193   3.085   3.846   1.614  0.6379  0.2256 -0.3829
 6854SOL     OW32194   3.767   1.054   8.094  0.0811 -0.2317  0.2729
 6854SOL    HW132195   3.820   0.975   8.079  0.2538  0.1681 -1.1815
 6854SOL    HW232196   3.741   1.039   8.185 -0.1378 -0.3769  0.1857
 6855SOL     OW32197   2.474   2.499  15.703  0.4559 -0.2750 -0.3697
 6855SOL    HW132198   2.483   2.495  15.608  1.4602 -0.0495 -0.2826
 6855SOL    HW232199   2.444   2.590  15.710  0.2181 -0.3793 -0.0047
 6856SOL     OW32200   2.505   1.272   3.628  0.3301  0.4273 -0.1605
 6856SOL    HW132201   2.543   1.253   3.713  1.0491  2.1606 -0.0862
 6856SOL    HW232202   2.569   1.331   3.589  0.8307 -0.4218 -0.6276
 6857SOL     OW32203   2.979   3.810  15.733  0.4842 -0.4613 -0.0294
 6857SOL    HW132204   3.046   3.817  15.800 -0.0449  0.7110  0.3767
 6857SOL    HW232205   2.911   3.751  15.766  1.3897 -1.2193  0.4876
 6858SOL     OW32206   1.958   1.339  14.929 -0.1739 -0.3164 -0.2389
 6858SOL    HW132207   1.897   1.411  14.947  1.9477  0.5126  3.7213
 6858SOL    HW232208   1.937   1.279  15.001 -0.6420 -0.7029 -0.7042
 6859SOL     OW32209   1.806   1.669   1.636  0.1385  0.3405 -0.1234
 6859SOL    HW132210   1.882   1.722   1.610  0.2007  1.2454  1.9238
 6859SOL    HW232211   1.748   1.681   1.561 -0.8890 -0.0242  0.6199
 6860SOL     OW32212   4.043   1.895   8.001 -0.4654  0.0201  0.3359
 6860SOL    HW132213   3.968   1.950   7.980  1.3763  2.4076 -0.1276
 6860SOL    HW232214   4.011   1.809   7.975 -1.1678  0.1297  0.8568
 6861SOL     OW32215   2.331   1.877   3.601  0.0673  0.1267 -0.3850
 6861SOL    HW132216   2.347   1.971   3.603 -1.0377  0.2935  0.5182
 6861SOL    HW232217   2.235   1.878   3.598 -0.0220 -0.0763  2.3631
 6862SOL     OW32218   1.154   3.036   5.918  0.0217 -0.3124  0.2073
 6862SOL    HW132219   1.137   2.958   5.970  0.2685  1.4805  2.9862
 6862SOL    HW232220   1.209   3.087   5.978  2.3045  0.4076 -2.4642
 6863SOL     OW32221   4.154   0.550   8.876 -0.1508 -0.5023  0.1923
 6863SOL    HW132222   4.100   0.472   8.887 -0.8019 -0.0649  0.0818
 6863SOL    HW232223   4.112   0.604   8.943  1.8839 -2.7492  3.3234
 6864SOL     OW32224   1.916   2.330   2.872 -0.6290 -0.0932  0.1380
 6864SOL    HW132225   1.943   2.240   2.894 -0.6958 -0.3009 -0.6215
 6864SOL    HW232226   1.989   2.387   2.896  0.1739 -2.1202  2.5825
 6865SOL     OW32227   0.617   1.096   5.549  0.1503 -0.1140  0.0679
 6865SOL    HW132228   0.712   1.098   5.560  0.1859  1.0386 -0.4102
 6865SOL    HW232229   0.606   1.142   5.465  0.8917  1.0691  0.6198
 6866SOL     OW32230   3.748   2.324   7.207 -0.0514 -0.4942 -0.5956
 6866SOL    HW132231   3.671   2.359   7.253  1.8576  1.2784  1.2374
 6866SOL    HW232232   3.726   2.251   7.149  0.1936  0.2569 -1.6212
 6867SOL     OW32233   3.415   0.131   3.114 -0.2954 -0.4277  0.3757
 6867SOL    HW132234   3.360   0.148   3.037 -0.1076  0.2062  0.3867
 6867SOL    HW232235   3.498   0.163   3.078  1.3956 -3.4079  1.5671
 6868SOL     OW32236   1.363   2.659  11.335  0.1372  0.6454  0.1861
 6868SOL    HW132237   1.378   2.717  11.410  0.6318 -1.2780  1.5815
 6868SOL    HW232238   1.299   2.710  11.286 -1.3400 -0.5789  0.8714
 6869SOL     OW32239   2.937   2.248   9.027 -0.3263  0.2282 -0.2519
 6869SOL    HW132240   2.954   2.276   8.937 -0.7470  1.6907  0.1365
 6869SOL    HW232241   3.001   2.299   9.076  0.0768  2.5609 -3.2054
 6870SOL     OW32242   1.695   4.734   5.527  0.2994  0.2552 -0.1806
 6870SOL    HW132243   1.607   4.727   5.565  0.1898 -0.2085 -0.5205
 6870SOL    HW232244   1.667   4.684   5.450 -2.1551  2.3471 -0.6582
 6871SOL     OW32245   4.484   3.051  13.539 -0.4797 -0.7398 -0.2725
 6871SOL    HW132246   4.436   2.985  13.489 -1.1731  0.9745 -1.9072
 6871SOL    HW232247   4.405   3.082  13.583  0.6965  1.8015  0.0407
 6872SOL     OW32248   3.499   0.549   7.288  0.2124  0.3003  0.2467
 6872SOL    HW132249   3.491   0.569   7.195 -0.7410 -0.8015  0.0904
 6872SOL    HW232250   3.587   0.582   7.305  0.0911  0.5811  0.3371
 6873SOL     OW32251   4.692   1.600  16.833  0.0582 -0.0390  0.2838
 6873SOL    HW132252   4.733   1.583  16.918  0.6813  1.5063  0.2969
 6873SOL    HW232253   4.648   1.684  16.847 -1.0737 -0.0240 -3.3866
 6874SOL     OW32254   2.730   3.691  15.809  0.1936 -0.3453 -0.3499
 6874SOL    HW132255   2.724   3.610  15.758 -1.9163 -0.6892  0.4718
 6874SOL    HW232256   2.661   3.676  15.874  0.1131  1.3308 -0.0554
 6875SOL     OW32257   2.542   2.124  12.306 -1.0121 -0.7182  0.2108
 6875SOL    HW132258   2.570   2.041  12.267 -1.6890 -1.5555  1.5382
 6875SOL    HW232259   2.536   2.103  12.399  0.3101 -1.0819  0.2151
 6876SOL     OW32260   3.540   2.300   4.855  0.2927  0.6091 -0.0511
 6876SOL    HW132261   3.613   2.242   4.831 -2.3125 -2.0726 -1.4683
 6876SOL    HW232262   3.570   2.341   4.936  3.5843 -0.3995 -0.7318
 6877SOL     OW32263   4.399   0.722   6.439  0.3040  0.5085 -0.2288
 6877SOL    HW132264   4.344   0.671   6.498 -0.3823  0.2379 -1.1049
 6877SOL    HW232265   4.334   0.738   6.371  2.1075  1.4355 -1.7519
 6878SOL     OW32266   4.395   2.774   8.088  0.0650 -0.2332 -0.3355
 6878SOL    HW132267   4.449   2.721   8.030  0.9558 -0.1537  0.4165
 6878SOL    HW232268   4.316   2.722   8.078 -0.2122  0.1600 -0.1796
 6879SOL     OW32269   2.631   2.322   8.996  0.2607  0.3893  0.3479
 6879SOL    HW132270   2.713   2.300   9.040  2.4647  1.2720 -3.3875
 6879SOL    HW232271   2.613   2.391   9.061  0.0952  2.0737 -1.4802
 6880SOL     OW32272   0.073   2.508   6.607 -0.2607  0.2034  0.1217
 6880SOL    HW132273   0.132   2.581   6.587 -0.0458  0.3837  1.4254
 6880SOL    HW232274   4.725   2.547   6.625 -0.4842 -0.2235 -0.0169
 6881SOL     OW32275   1.416   2.646   3.905 -0.2835  0.1510  0.3389
 6881SOL    HW132276   1.483   2.621   3.841 -0.2404 -1.0293  0.8520
 6881SOL    HW232277   1.450   2.604   3.984  0.1339 -1.3463 -0.6373
 6882SOL     OW32278   2.309   0.149  14.098 -0.0269 -0.1506  0.1509
 6882SOL    HW132279   2.314   0.102  14.015 -0.9887 -1.7063  0.9772
 6882SOL    HW232280   2.222   0.125  14.131 -1.3160  1.1416 -2.3130
 6883SOL     OW32281   2.675   3.327   3.824 -0.1342 -0.3050 -0.2966
 6883SOL    HW132282   2.620   3.249   3.826  1.5361 -1.4906 -1.1765
 6883SOL    HW232283   2.762   3.292   3.808  0.6895  1.8725 -0.5458
 6884SOL     OW32284   0.966   4.628   6.349 -0.6304  0.1566  0.5544
 6884SOL    HW132285   0.982   4.573   6.272 -0.9707  0.1415  0.4962
 6884SOL    HW232286   0.873   4.644   6.339 -1.1107 -1.2353  2.9445
 6885SOL     OW32287   1.353   3.452   6.987  0.0135  0.0684  0.1189
 6885SOL    HW132288   1.313   3.389   6.927  0.0950 -0.9024  1.0801
 6885SOL    HW232289   1.408   3.505   6.930  0.1360  0.3067  0.4595
 6886SOL     OW32290   0.728   1.025   4.232 -0.4814 -0.1330 -0.0923
 6886SOL    HW132291   0.708   1.084   4.159  1.0474 -0.6171 -0.9151
 6886SOL    HW232292   0.722   0.939   4.192  0.6624  0.0540 -0.6910
 6887SOL     OW32293   4.323   2.178   8.606 -0.1660 -0.5957 -0.1065
 6887SOL    HW132294   4.254   2.183   8.540  0.1175 -0.6262 -0.4015
 6887SOL    HW232295   4.273   2.198   8.685 -0.6563 -3.1719  0.2464
 6888SOL     OW32296   4.601   4.141   3.129 -0.2168  0.1087 -0.0177
 6888SOL    HW132297   4.693   4.119   3.112  0.1776  1.8209 -0.1010
 6888SOL    HW232298   4.579   4.081   3.199 -0.0389 -0.5154 -0.4956
 6889SOL     OW32299   1.953   1.464   8.717 -0.1736 -0.4451 -0.5894
 6889SOL    HW132300   1.912   1.509   8.791 -0.0144 -0.8459 -0.2560
 6889SOL    HW232301   1.913   1.377   8.719 -1.0025 -0.0610 -0.6619
 6890SOL     OW32302   2.177   3.222   2.614  0.1310  0.2635  0.7484
 6890SOL    HW132303   2.181   3.215   2.710  0.0673 -0.9377  0.6624
 6890SOL    HW232304   2.268   3.248   2.600  0.1004  0.1066  0.2665
 6891SOL     OW32305   2.898   2.518   0.540 -0.2625 -0.2322  0.7725
 6891SOL    HW132306   2.828   2.582   0.528 -0.4687  0.1046  3.8013
 6891SOL    HW232307   2.846   2.448   0.578 -0.7929  0.3055  1.0217
 6892SOL     OW32308   0.471   0.147  12.260 -0.0601 -0.4126  0.4291
 6892SOL    HW132309   0.522   0.151  12.179  1.5826 -1.8419  1.3840
 6892SOL    HW232310   0.450   0.238  12.281 -1.1815 -0.6060  0.1700
 6893SOL     OW32311   4.584   4.106  13.604  0.4041  0.4115  0.2343
 6893SOL    HW132312   4.601   4.126  13.697  1.5718  0.3213  0.0443
 6893SOL    HW232313   4.531   4.179  13.575  0.7040  0.6671  0.3310
 6894SOL     OW32314   2.929   4.259   7.514  0.5711  0.3029 -0.6763
 6894SOL    HW132315   2.988   4.228   7.582  0.5385 -0.9988 -1.2404
 6894SOL    HW232316   2.848   4.228   7.555 -0.0174  0.3075 -1.8095
 6895SOL     OW32317   0.687   0.264   4.101  0.2352 -0.3456  0.3386
 6895SOL    HW132318   0.724   0.263   4.189 -2.6618  1.7075  1.5999
 6895SOL    HW232319   0.600   0.227   4.115 -0.0796  0.7031  1.1470
 6896SOL     OW32320   1.179   0.563   9.672 -0.1772 -0.4830 -0.5067
 6896SOL    HW132321   1.140   0.627   9.732  0.2252  1.4706 -2.3654
 6896SOL    HW232322   1.274   0.570   9.678 -0.1958  0.1206 -0.9908
 6897SOL     OW32323   3.104   2.075   0.211  0.4093 -0.2300  0.2816
 6897SOL    HW132324   3.026   2.125   0.186  1.5606  2.2677  1.6987
 6897SOL    HW232325   3.064   1.988   0.221 -0.3385 -0.1072 -1.6180
 6898SOL     OW32326   1.785   0.710  14.119  0.1877  0.2143 -0.1038
 6898SOL    HW132327   1.861   0.737  14.171  0.8768  1.2327 -1.6580
 6898SOL    HW232328   1.781   0.614  14.118 -0.2865  0.2374 -0.5091
 6899SOL     OW32329   2.741   2.548   7.463 -0.1267 -0.1146  0.1004
 6899SOL    HW132330   2.697   2.539   7.548 -0.4388  0.0923 -0.0394
 6899SOL    HW232331   2.665   2.546   7.405  0.1667  2.5124 -0.3883
 6900SOL     OW32332   0.241   1.185   6.992  0.8074 -0.0061  0.3917
 6900SOL    HW132333   0.230   1.103   6.944 -0.3269 -0.3979  1.3216
 6900SOL    HW232334   0.164   1.237   6.969 -0.8255 -1.3568  2.8446
 6901SOL     OW32335   2.588   2.471  10.246 -0.4345 -1.0872 -0.2682
 6901SOL    HW132336   2.595   2.379  10.270 -2.3573 -1.4824 -1.2148
 6901SOL    HW232337   2.554   2.472  10.156 -0.5695 -0.6996 -0.2125
 6902SOL     OW32338   3.503   3.497   8.693 -0.1620 -0.3769  0.2439
 6902SOL    HW132339   3.529   3.470   8.782 -0.1187  0.7241  0.5600
 6902SOL    HW232340   3.409   3.482   8.700 -0.1684 -0.2051  0.5547
 6903SOL     OW32341   1.822   1.787   7.288  0.5077  0.5892  0.2283
 6903SOL    HW132342   1.905   1.752   7.254 -1.4730  0.6516 -4.6799
 6903SOL    HW232343   1.757   1.748   7.230 -0.0524 -2.0371  2.6679
 6904SOL     OW32344   4.415   3.770  12.009  0.0903  0.3097  0.0396
 6904SOL    HW132345   4.398   3.710  12.082 -1.6879 -0.9130 -1.3723
 6904SOL    HW232346   4.358   3.745  11.936  0.8219  0.3206 -0.5406
 6905SOL     OW32347   4.233   3.635  16.726 -0.3935 -0.4792 -0.7686
 6905SOL    HW132348   4.287   3.558  16.711  2.3982  0.9389  1.7935
 6905SOL    HW232349   4.207   3.631  16.818 -1.5377 -0.2595 -1.0873
 6906SOL     OW32350   2.998   3.460   0.168  0.0862  0.2488  0.0880
 6906SOL    HW132351   2.918   3.494   0.128 -0.2937 -1.5907 -0.6877
 6906SOL    HW232352   3.064   3.496   0.109 -0.1903 -0.0732 -0.4193
 6907SOL     OW32353   0.086   4.183  15.333  0.0354 -0.0455  0.0769
 6907SOL    HW132354   0.025   4.127  15.381 -0.4161  2.1293  2.0175
 6907SOL    HW232355   0.046   4.179  15.246 -0.4575 -2.3524  0.3998
 6908SOL     OW32356   1.993   2.278   1.653  0.1375  0.0324 -0.0106
 6908SOL    HW132357   2.041   2.221   1.593 -0.0147 -0.0720 -0.0332
 6908SOL    HW232358   2.032   2.363   1.632  0.6874 -0.4307 -0.8738
 6909SOL     OW32359   4.170   1.661   3.357  0.0175 -0.3397  0.4474
 6909SOL    HW132360   4.231   1.621   3.419 -1.7598  0.5840  2.8415
 6909SOL    HW232361   4.162   1.753   3.382  0.9238  0.0003 -0.5148
 6910SOL     OW32362   0.407   1.955   1.370 -0.0594 -0.0277 -0.0011
 6910SOL    HW132363   0.318   1.989   1.358  0.4317  1.8713  1.6502
 6910SOL    HW232364   0.384   1.865   1.348 -0.3571 -0.0524  0.4061
 6911SOL     OW32365   1.123   3.793  17.304  1.3961  0.0913 -0.7462
 6911SOL    HW132366   1.153   3.798  17.213  0.1046  3.1736 -0.9921
 6911SOL    HW232367   1.157   3.708  17.332 -0.3655  0.1454  1.5514
 6912SOL     OW32368   1.599   2.161  12.076 -0.1129 -0.3637 -0.1327
 6912SOL    HW132369   1.534   2.199  12.136  1.1397  0.1549  0.8942
 6912SOL    HW232370   1.642   2.244  12.057 -0.8353  0.6378  2.5649
 6913SOL     OW32371   4.124   3.490   3.592 -0.2198 -0.0592 -0.3047
 6913SOL    HW132372   4.204   3.494   3.644 -1.2249  1.3411  1.1355
 6913SOL    HW232373   4.064   3.447   3.652  1.2564  0.4007  1.4885
 6914SOL     OW32374   3.695   4.481   7.274 -0.4613 -0.1996  0.5683
 6914SOL    HW132375   3.728   4.452   7.188 -1.5542 -0.3780  0.2037
 6914SOL    HW232376   3.735   4.568   7.271 -0.3918 -0.2547 -0.3356
 6915SOL     OW32377   1.776   0.882   2.264 -0.3556 -0.1352 -0.2165
 6915SOL    HW132378   1.855   0.881   2.318 -0.7371  1.4430  0.3674
 6915SOL    HW232379   1.805   0.811   2.207  2.8947  1.2035 -0.2280
 6916SOL     OW32380   4.458   4.316   4.830  0.5193 -0.0460  0.1277
 6916SOL    HW132381   4.418   4.368   4.900 -0.6394 -3.1771  1.7998
 6916SOL    HW232382   4.424   4.363   4.754 -0.4940 -1.6850 -0.4143
 6917SOL     OW32383   2.134   0.732  16.538 -0.2557 -0.0153  0.7274
 6917SOL    HW132384   2.111   0.820  16.508  0.6358 -0.0608 -0.0843
 6917SOL    HW232385   2.139   0.747  16.632 -0.0425 -0.4312  0.7802
 6918SOL     OW32386   3.455   3.629   7.209  0.4732 -0.1969  0.7097
 6918SOL    HW132387   3.513   3.646   7.283 -0.6005  1.8821  1.0681
 6918SOL    HW232388   3.396   3.704   7.220  0.5372  0.1164 -1.1356
 6919SOL     OW32389   4.197   1.575   8.916  0.2274 -0.9689  0.1535
 6919SOL    HW132390   4.104   1.564   8.896 -0.0699 -0.0116  1.0137
 6919SOL    HW232391   4.217   1.486   8.946 -1.2769 -1.7145 -1.0407
 6920SOL     OW32392   2.328   1.860   3.054  0.0786 -0.1121 -0.4855
 6920SOL    HW132393   2.393   1.795   3.029  1.2695  0.4722  1.0551
 6920SOL    HW232394   2.255   1.848   2.993  0.3444  0.2941 -0.8847
 6921SOL     OW32395   1.800   1.271   8.351 -0.1215  0.5532 -0.2356
 6921SOL    HW132396   1.867   1.336   8.372 -0.7799  0.9969  0.4750
 6921SOL    HW232397   1.836   1.193   8.393  2.0342  1.3683 -0.5931
 6922SOL     OW32398   3.015   1.764   9.049 -0.0359 -0.0422  0.3463
 6922SOL    HW132399   2.968   1.845   9.066 -2.0576 -0.1211 -4.8457
 6922SOL    HW232400   3.085   1.796   8.992 -1.2229 -0.4982 -1.3775
 6923SOL     OW32401   3.840   2.162   2.584 -0.3065  0.0294  0.4380
 6923SOL    HW132402   3.806   2.187   2.670 -2.2975 -0.9308 -0.0583
 6923SOL    HW232403   3.776   2.206   2.527  1.2671 -0.0813 -1.4264
 6924SOL     OW32404   2.209   0.516   8.731 -1.1830 -0.4512  0.0197
 6924SOL    HW132405   2.255   0.494   8.650 -2.0750  1.1158 -0.9328
 6924SOL    HW232406   2.135   0.562   8.691  0.0911  1.8651  0.3311
 6925SOL     OW32407   2.306   3.633  13.529  0.0308 -0.2068 -0.2927
 6925SOL    HW132408   2.340   3.586  13.606 -1.1765 -0.7513 -0.0882
 6925SOL    HW232409   2.214   3.657  13.539  0.4891  1.1263  0.6682
 6926SOL     OW32410   1.797   1.563  15.987  0.2000  0.0760 -0.1927
 6926SOL    HW132411   1.810   1.477  16.027 -3.3666  0.3867  1.5921
 6926SOL    HW232412   1.860   1.620  16.031  0.2862 -0.8071  0.8088
 6927SOL     OW32413   1.604   3.698   3.376  0.0583  0.4255 -0.1470
 6927SOL    HW132414   1.680   3.652   3.411  0.7934 -0.1939 -2.5516
 6927SOL    HW232415   1.616   3.771   3.437 -3.0926  3.1189 -2.7668
 6928SOL     OW32416   4.692   2.211  16.719  0.3160 -0.2698 -0.0688
 6928SOL    HW132417   4.603   2.222  16.753  0.8075 -1.3611  1.5559
 6928SOL    HW232418   4.704   2.299  16.682  0.2170 -0.5703 -0.8068
 6929SOL     OW32419   0.141   2.858   8.156 -0.1871  0.1145 -0.5528
 6929SOL    HW132420   0.159   2.834   8.065  0.9195  0.7879 -0.5161
 6929SOL    HW232421   0.181   2.783   8.201  0.0530 -0.1388 -1.1951
 6930SOL     OW32422   0.917   4.078   6.112  0.0818 -0.2371  0.5230
 6930SOL    HW132423   0.939   4.017   6.042  0.8447 -2.1211  2.3928
 6930SOL    HW232424   0.887   4.151   6.059 -2.4551 -2.0248 -0.5263
 6931SOL     OW32425   1.330   2.683   4.537 -0.1827  0.0784  0.3475
 6931SOL    HW132426   1.316   2.742   4.462 -1.4655  0.0967  0.6065
 6931SOL    HW232427   1.268   2.614   4.510 -1.2134 -0.2066  3.5210
 6932SOL     OW32428   3.278   1.349   5.471 -0.6807 -0.6227  1.2522
 6932SOL    HW132429   3.271   1.301   5.554  0.7872 -0.9766  1.1715
 6932SOL    HW232430   3.236   1.290   5.408 -1.7757 -0.0410  1.4414
 6933SOL     OW32431   2.433   1.922  14.059  0.1175  0.0125 -0.4528
 6933SOL    HW132432   2.351   1.878  14.079 -1.2857  1.9907 -1.8882
 6933SOL    HW232433   2.419   2.009  14.096  2.4173  0.0089  0.4778
 6934SOL     OW32434   4.285   0.421   3.324 -0.4595  0.1758  0.4351
 6934SOL    HW132435   4.232   0.499   3.335 -1.1411 -0.1082 -0.7864
 6934SOL    HW232436   4.291   0.389   3.414  1.0403  2.4894  1.1555
 6935SOL     OW32437   1.467   0.809  10.205  0.3185  0.3875 -0.0203
 6935SOL    HW132438   1.383   0.763  10.205  0.7959 -0.4968  0.2065
 6935SOL    HW232439   1.528   0.754  10.255 -1.1507  1.1642  2.6520
 6936SOL     OW32440   4.230   2.072   2.323  0.4039 -0.6783 -0.2249
 6936SOL    HW132441   4.171   2.003   2.353 -1.5509  0.5552 -1.2733
 6936SOL    HW232442   4.283   2.018   2.264 -0.9135 -2.2735  0.0599
 6937SOL     OW32443   0.528   4.367   5.437 -0.1295  0.3101  0.1603
 6937SOL    HW132444   0.622   4.381   5.424  0.1239 -0.0646  1.6627
 6937SOL    HW232445   0.509   4.286   5.390  0.6381  0.9188 -1.2223
 6938SOL     OW32446   0.892   1.748   5.269  0.2745  0.3174  0.5804
 6938SOL    HW132447   0.902   1.794   5.186 -1.9587  2.0960  1.3079
 6938SOL    HW232448   0.828   1.805   5.313 -0.7019  1.8877 -2.9224
 6939SOL     OW32449   2.866   3.850   3.215 -0.3110 -0.0387 -0.0040
 6939SOL    HW132450   2.775   3.820   3.216 -1.1651  2.6406  2.1601
 6939SOL    HW232451   2.907   3.787   3.274 -1.9748 -2.1203 -1.0696
 6940SOL     OW32452   2.094   4.215   6.363 -0.3471 -0.4997  0.2043
 6940SOL    HW132453   2.110   4.144   6.425 -0.2146  1.0680  1.9734
 6940SOL    HW232454   2.181   4.251   6.341 -0.8764  0.6350 -0.0325
 6941SOL     OW32455   0.663   2.741   3.833 -0.2112  0.6773 -0.2754
 6941SOL    HW132456   0.737   2.690   3.800 -1.1932 -0.4271 -0.7721
 6941SOL    HW232457   0.641   2.683   3.906 -0.7638  0.7817 -0.3549
 6942SOL     OW32458   2.771   1.221   5.237 -0.0716 -0.7674  0.0468
 6942SOL    HW132459   2.765   1.309   5.273  0.2556  0.4058 -2.8672
 6942SOL    HW232460   2.729   1.180   5.314  0.8506  0.3906  1.1649
 6943SOL     OW32461   2.866   4.610   6.204 -0.1830 -0.2207  0.0817
 6943SOL    HW132462   2.903   4.619   6.116 -1.7889  0.3088 -0.5372
 6943SOL    HW232463   2.911   4.669   6.265  0.0339 -1.0492  0.7240
 6944SOL     OW32464   4.302   2.810   8.848  0.1362 -0.0198  0.0445
 6944SOL    HW132465   4.320   2.753   8.922  1.3303  1.1770  0.6715
 6944SOL    HW232466   4.359   2.772   8.780 -0.5702 -1.3392  0.1934
 6945SOL     OW32467   3.619   2.441   9.746  0.2649  0.1467  0.1084
 6945SOL    HW132468   3.658   2.354   9.745 -0.1198 -0.0198 -0.4779
 6945SOL    HW232469   3.593   2.448   9.654 -2.2679 -3.6939  0.5629
 6946SOL     OW32470   3.737   2.915  12.659 -0.4781 -0.0603 -0.6907
 6946SOL    HW132471   3.693   2.994  12.626 -0.4584  0.7241  1.1068
 6946SOL    HW232472   3.669   2.865  12.705 -1.2412 -1.1391 -3.0120
 6947SOL     OW32473   2.139   0.947   5.094  0.2093  0.3196  0.1079
 6947SOL    HW132474   2.200   0.975   5.026  1.8762 -1.2426  0.9667
 6947SOL    HW232475   2.129   0.856   5.065  0.3736 -0.2712  1.8914
 6948SOL     OW32476   2.470   1.909  13.439 -0.2700  0.1899 -0.3242
 6948SOL    HW132477   2.560   1.900  13.407  0.0607 -0.6202  0.8295
 6948SOL    HW232478   2.425   1.940  13.361 -1.1310  0.7298  0.3866
 6949SOL     OW32479   1.454   0.841   0.521 -0.6340  0.5656  0.9473
 6949SOL    HW132480   1.377   0.896   0.532 -0.0349  1.2574  1.7030
 6949SOL    HW232481   1.526   0.904   0.525  1.3789 -1.5379 -1.3684
 6950SOL     OW32482   2.693   0.024   4.049  0.3896 -0.1607 -0.9830
 6950SOL    HW132483   2.664   4.733   3.963  0.1854 -2.4463 -0.1484
 6950SOL    HW232484   2.788   0.034   4.039  0.7712 -1.8607  0.7995
 6951SOL     OW32485   1.093   2.257   4.199  0.7569 -0.4921 -0.6097
 6951SOL    HW132486   1.133   2.263   4.285 -1.7835  0.1443  0.5099
 6951SOL    HW232487   1.131   2.327   4.145  0.8845 -0.2970 -0.2632
 6952SOL     OW32488   1.745   2.026   9.069 -0.2147  0.6225 -0.2787
 6952SOL    HW132489   1.680   2.019   9.139  2.0384 -1.6681  1.5765
 6952SOL    HW232490   1.711   2.074   8.993  3.0886  2.1531 -0.8349
 6953SOL     OW32491   3.926   1.532   8.898 -0.0772  0.2652  0.2514
 6953SOL    HW132492   3.876   1.612   8.909  0.4930  0.6230  0.2647
 6953SOL    HW232493   3.922   1.499   8.988 -0.8298  1.0974  0.5155
 6954SOL     OW32494   3.424   3.056   1.551 -0.0642  0.5800  0.4204
 6954SOL    HW132495   3.401   3.038   1.460 -1.8861 -1.3526  1.2698
 6954SOL    HW232496   3.341   3.033   1.592 -0.9947  2.4762 -0.3725
 6955SOL     OW32497   0.684   4.207  13.859  0.1286 -0.0967  0.2688
 6955SOL    HW132498   0.696   4.118  13.894 -2.2317 -0.3793  0.3519
 6955SOL    HW232499   0.596   4.230  13.890  0.0253  0.1634 -0.2239
 6956SOL     OW32500   4.271   1.204   3.404  0.3132  0.0097  0.1626
 6956SOL    HW132501   4.178   1.226   3.408  0.3116  0.5672 -2.8799
 6956SOL    HW232502   4.305   1.232   3.489  0.7986 -0.5343  0.1461
 6957SOL     OW32503   0.847   4.628   7.355 -0.1025  0.1764  0.2385
 6957SOL    HW132504   0.882   4.539   7.357  3.0092  1.4517  2.7715
 6957SOL    HW232505   0.916   4.671   7.306 -0.3887  1.8318  1.2773
 6958SOL     OW32506   1.040   1.682   8.156  0.0736 -0.1922 -0.0190
 6958SOL    HW132507   0.967   1.627   8.185  1.7753 -1.8775  1.0348
 6958SOL    HW232508   1.056   1.738   8.232  0.9855 -1.9568  1.0914
 6959SOL     OW32509   0.757   0.315   9.593  0.1250 -0.3572 -0.6604
 6959SOL    HW132510   0.807   0.339   9.514 -1.6214 -2.5453 -2.4279
 6959SOL    HW232511   0.833   0.320   9.650 -0.4595 -0.4202  0.1200
 6960SOL     OW32512   2.688   3.351  17.670  0.4478 -0.2304 -0.6183
 6960SOL    HW132513   2.668   3.264  17.704 -1.1648  0.5948  0.5412
 6960SOL    HW232514   2.735   3.319  17.593 -1.1541  0.1571 -1.7346
 6961SOL     OW32515   2.187   4.321   2.418 -0.4036 -0.7410  0.4521
 6961SOL    HW132516   2.109   4.306   2.472  0.4095  0.2005  1.8805
 6961SOL    HW232517   2.151   4.378   2.350 -0.6276  1.3476  2.3175
 6962SOL     OW32518   4.151   2.146  15.571  0.7095  0.0265 -0.5570
 6962SOL    HW132519   4.225   2.085  15.576  2.4154  2.0463 -1.0690
 6962SOL    HW232520   4.174   2.211  15.638 -1.8370  1.7496 -1.3512
 6963SOL     OW32521   0.728   0.697   5.561  0.5108  0.3458  0.1604
 6963SOL    HW132522   0.668   0.748   5.616 -1.0957 -3.0261  1.5645
 6963SOL    HW232523   0.816   0.712   5.597  0.9209  0.7483 -1.0257
 6964SOL     OW32524   3.391   2.366  13.135  0.6631 -0.4734 -0.4531
 6964SOL    HW132525   3.483   2.353  13.154  0.1920 -1.0437  1.3827
 6964SOL    HW232526   3.349   2.339  13.217 -0.7443 -2.2584 -1.7468
 6965SOL     OW32527   2.130   0.362   9.386  0.0642 -0.0161  0.3678
 6965SOL    HW132528   2.150   0.416   9.463  0.0537 -0.5759  0.7588
 6965SOL    HW232529   2.036   0.376   9.386  0.2167  1.0062  1.4857
 6966SOL     OW32530   1.875   3.971  12.851 -0.1586  0.3343 -0.0823
 6966SOL    HW132531   1.949   3.925  12.810 -0.4444 -0.5956  0.4386
 6966SOL    HW232532   1.869   4.035  12.780 -1.6262  0.5577  0.2394
 6967SOL     OW32533   4.322   4.283   8.938  0.7827  0.1353 -0.0839
 6967SOL    HW132534   4.283   4.252   8.857 -0.6034  1.8453 -0.0708
 6967SOL    HW232535   4.245   4.315   8.985 -2.0385  0.4634 -4.8587
 6968SOL     OW32536   1.218   3.658   3.408 -0.0718 -0.1905  0.4775
 6968SOL    HW132537   1.267   3.740   3.419  1.1560 -0.9439  0.5871
 6968SOL    HW232538   1.148   3.689   3.350  0.8849 -2.1734 -1.7232
 6969SOL     OW32539   0.536   4.312   4.500 -0.5938 -0.2777  0.5543
 6969SOL    HW132540   0.467   4.316   4.434  2.2303  0.6887 -2.3175
 6969SOL    HW232541   0.544   4.406   4.517 -0.2219  0.1583 -2.1411
 6970SOL     OW32542   1.064   1.721   4.611 -0.2773 -0.7000 -0.0810
 6970SOL    HW132543   1.112   1.795   4.573  2.5925 -2.8209 -0.5604
 6970SOL    HW232544   1.013   1.692   4.535  1.6994 -2.8588 -0.5694
 6971SOL     OW32545   4.591   0.289  16.702  0.4677 -0.3134  0.3566
 6971SOL    HW132546   4.609   0.198  16.680  0.8286 -0.0538 -0.4215
 6971SOL    HW232547   4.559   0.315  16.616  0.2769 -0.4814  0.3762
 6972SOL     OW32548   2.611   3.506   9.287  0.1700  0.3314  0.5549
 6972SOL    HW132549   2.571   3.420   9.277  1.2297 -0.1961  0.8260
 6972SOL    HW232550   2.635   3.530   9.197  2.5279 -1.8032  0.6292
 6973SOL     OW32551   2.933   1.305   3.393  0.1574  0.4446  0.1288
 6973SOL    HW132552   2.854   1.252   3.402  0.6839 -0.0913  1.5649
 6973SOL    HW232553   3.003   1.239   3.384  0.4953  1.0783 -1.9873
 6974SOL     OW32554   3.251   4.255   8.626 -0.0127  0.2748 -0.6972
 6974SOL    HW132555   3.304   4.175   8.620  1.3649  0.9334  2.9792
 6974SOL    HW232556   3.184   4.234   8.561 -0.9813 -0.7603  0.6561
 6975SOL     OW32557   0.498   4.207   9.457 -0.0639 -0.0073 -0.3341
 6975SOL    HW132558   0.490   4.248   9.371 -0.6569 -1.5156 -1.0002
 6975SOL    HW232559   0.560   4.267   9.498 -0.2264 -0.4791  0.5938
 6976SOL     OW32560   0.867   3.964   5.863  0.9009 -0.3968  0.2164
 6976SOL    HW132561   0.783   3.998   5.832  0.5105 -1.0111  0.6070
 6976SOL    HW232562   0.839   3.873   5.856  0.8747 -0.4356  0.7920
 6977SOL     OW32563   4.476   4.183  17.201  0.1245  0.3834 -0.1473
 6977SOL    HW132564   4.550   4.125  17.184  0.4535  0.1599  2.0850
 6977SOL    HW232565   4.523   4.262  17.227  1.9382  0.5277 -3.9099
 6978SOL     OW32566   3.990   3.968   2.133 -0.0125 -0.7032  0.2662
 6978SOL    HW132567   3.900   3.980   2.104 -0.2197  2.2826  2.0542
 6978SOL    HW232568   4.040   4.033   2.084  0.4775 -1.7155 -0.5637
 6979SOL     OW32569   2.251   4.586   8.963 -0.3714 -0.0493  0.3196
 6979SOL    HW132570   2.263   4.681   8.967 -0.7632 -0.0343  1.0681
 6979SOL    HW232571   2.158   4.592   8.987 -0.9169 -2.1963 -1.1894
 6980SOL     OW32572   3.165   3.815   5.224  0.6174  0.2235 -0.8643
 6980SOL    HW132573   3.182   3.840   5.315 -2.7288 -4.7831  1.1228
 6980SOL    HW232574   3.144   3.722   5.230 -0.1692  0.3945 -1.0154
 6981SOL     OW32575   1.404   0.396   3.302  0.1542  0.2740 -0.6640
 6981SOL    HW132576   1.407   0.301   3.288  0.9818  0.2681 -0.4470
 6981SOL    HW232577   1.367   0.409   3.390  0.8233 -2.5844  0.0363
 6982SOL     OW32578   0.812   2.557   8.694 -0.1947 -0.3897 -0.1614
 6982SOL    HW132579   0.833   2.464   8.706 -0.4235 -0.2548  1.3083
 6982SOL    HW232580   0.785   2.552   8.602  0.1203 -0.2540 -0.2584
 6983SOL     OW32581   2.233   4.575   6.190 -0.0760 -0.0486 -0.3814
 6983SOL    HW132582   2.146   4.567   6.151 -0.2054  1.0130 -0.3071
 6983SOL    HW232583   2.243   4.487   6.225  0.0260  0.4351  0.8018
 6984SOL     OW32584   0.339   3.407  13.383  0.4253 -0.0359 -0.0612
 6984SOL    HW132585   0.430   3.381  13.373 -0.1790 -2.2962  0.4090
 6984SOL    HW232586   0.308   3.454  13.305 -1.1235  1.0363  1.1849
 6985SOL     OW32587   2.752   3.560   7.574  0.3554 -0.7300 -1.1115
 6985SOL    HW132588   2.788   3.647   7.555  0.1921  0.2002  2.9255
 6985SOL    HW232589   2.673   3.594   7.616 -0.0271 -1.6818 -1.0675
 6986SOL     OW32590   2.290   3.447   0.111  0.1239 -0.7193 -0.0280
 6986SOL    HW132591   2.372   3.484   0.080  0.6706 -0.2585  1.9396
 6986SOL    HW232592   2.223   3.459   0.043  0.5689 -0.4697 -0.4237
 6987SOL     OW32593   1.876   3.879   6.714  1.0648  0.1187  0.0196
 6987SOL    HW132594   1.960   3.836   6.724  0.7355 -1.1483 -2.6780
 6987SOL    HW232595   1.904   3.970   6.708  3.4860 -0.7356 -1.4030
 6988SOL     OW32596   2.213   1.593   4.373 -0.3536 -0.4696 -0.1643
 6988SOL    HW132597   2.188   1.662   4.312  0.3882 -0.1103 -0.0579
 6988SOL    HW232598   2.131   1.544   4.366 -0.2571 -0.5880 -0.4694
 6989SOL     OW32599   4.660   2.262   9.102  0.1083 -0.0436 -0.1019
 6989SOL    HW132600   4.631   2.272   9.193 -0.5569 -0.3098 -0.2886
 6989SOL    HW232601   4.637   2.172   9.078 -1.3056  0.5061 -0.7738
 6990SOL     OW32602   0.071   1.157   2.125  0.0868  0.3333  0.1107
 6990SOL    HW132603   0.146   1.166   2.183  0.2626  2.0195 -0.3767
 6990SOL    HW232604   0.104   1.094   2.060  0.6743 -1.6708  2.3631
 6991SOL     OW32605   1.869   1.024   6.942  0.8302  0.1353  0.8466
 6991SOL    HW132606   1.787   1.064   6.911  1.4536  1.6831  1.1940
 6991SOL    HW232607   1.906   1.104   6.980 -0.9964  1.3860 -0.0057
 6992SOL     OW32608   0.882   2.193   6.223  0.0711  0.2448  0.3951
 6992SOL    HW132609   0.906   2.125   6.286 -1.3979  0.0941  0.8010
 6992SOL    HW232610   0.842   2.144   6.150 -0.8820  0.5775  0.6887
 6993SOL     OW32611   0.423   3.929   4.119  0.0984  0.1983 -0.2749
 6993SOL    HW132612   0.391   3.868   4.052  0.5819  0.4598 -0.7519
 6993SOL    HW232613   0.446   4.010   4.073  1.0605  0.9979  1.6283
 6994SOL     OW32614   3.716   2.731   7.439  0.9986 -0.0413  0.3307
 6994SOL    HW132615   3.704   2.636   7.443 -0.5248  0.1309  0.0009
 6994SOL    HW232616   3.766   2.744   7.359  0.0476 -0.9142 -0.4036
 6995SOL     OW32617   3.982   2.921  12.743  0.2548 -0.5265  0.1478
 6995SOL    HW132618   3.889   2.915  12.720 -0.5036  0.4734  2.8490
 6995SOL    HW232619   4.012   2.961  12.662 -1.8849 -0.3731 -0.5750
 6996SOL     OW32620   4.536   2.440   3.891 -0.5121 -0.3090  1.0104
 6996SOL    HW132621   4.529   2.505   3.962 -3.2287  1.2746 -0.7044
 6996SOL    HW232622   4.594   2.379   3.936 -2.0200 -3.2482 -1.0838
 6997SOL     OW32623   4.288   2.374   5.198 -0.1895  0.4587 -0.3914
 6997SOL    HW132624   4.263   2.327   5.278  0.2747 -0.0139 -0.5268
 6997SOL    HW232625   4.230   2.450   5.205 -1.2091 -0.3584  0.2197
 6998SOL     OW32626   3.686   4.418  17.157  0.0701  0.8046 -0.4204
 6998SOL    HW132627   3.637   4.336  17.162  0.7163  0.4942  0.7750
 6998SOL    HW232628   3.737   4.407  17.078  2.6372 -1.4801  1.5523
 6999SOL     OW32629   0.638   2.562   8.476 -0.1856  0.0947  0.0787
 6999SOL    HW132630   0.653   2.641   8.425 -1.6793  0.8905  0.8826
 6999SOL    HW232631   0.585   2.507   8.419  1.2858  0.0103 -1.1992
 7000SOL     OW32632   1.940   3.020   4.918 -0.5901 -0.3381  0.1910
 7000SOL    HW132633   1.858   3.068   4.902 -1.5073 -1.2703  2.1106
 7000SOL    HW232634   1.916   2.971   4.997 -0.6072 -1.5408 -0.5629
 7001SOL     OW32635   3.880   4.506   9.006 -0.0547 -0.0109  0.0343
 7001SOL    HW132636   3.845   4.537   9.089  1.2554 -0.5014  0.7657
 7001SOL    HW232637   3.901   4.595   8.977  0.2348 -0.0106  0.2494
 7002SOL     OW32638   2.613   0.859   3.102 -0.2961 -0.1074 -0.0483
 7002SOL    HW132639   2.586   0.943   3.139 -1.8127 -1.3134  1.5867
 7002SOL    HW232640   2.640   0.805   3.177 -1.3870 -1.0094 -0.2955
 7003SOL     OW32641   3.654   4.191   9.084  0.3272  0.1133  0.1899
 7003SOL    HW132642   3.655   4.203   8.989  0.4867  0.3824  0.2254
 7003SOL    HW232643   3.587   4.249   9.122  1.4859  1.4808  0.1497
 7004SOL     OW32644   3.308   0.293   6.636 -0.0449  0.7499 -0.1945
 7004SOL    HW132645   3.221   0.313   6.602 -0.2018  0.2262 -0.0911
 7004SOL    HW232646   3.285   0.233   6.706 -1.4180  2.0206  0.4473
 7005SOL     OW32647   2.041   2.141   6.872  0.2841 -0.2848  0.4905
 7005SOL    HW132648   2.057   2.074   6.807 -0.7897 -1.6250  1.6049
 7005SOL    HW232649   2.130   2.169   6.893  0.8522 -0.6785 -1.3961
 7006SOL     OW32650   4.240   1.174   9.877 -0.3437  0.0388 -0.4236
 7006SOL    HW132651   4.311   1.111   9.864  0.2589  1.0898 -2.2412
 7006SOL    HW232652   4.240   1.219   9.792 -2.0230 -1.1385 -1.0531
 7007SOL     OW32653   2.598   1.460  10.505 -0.1911  0.0337  0.1130
 7007SOL    HW132654   2.612   1.476  10.412 -3.3147  2.8608  0.1174
 7007SOL    HW232655   2.656   1.524  10.546 -0.7843  0.9144 -0.4148
 7008SOL     OW32656   3.066   2.665   9.060  0.3043  0.5488 -0.0789
 7008SOL    HW132657   3.063   2.760   9.076 -1.3358  0.4964 -0.0690
 7008SOL    HW232658   3.020   2.661   8.976 -0.1920  2.4856  0.0953
 7009SOL     OW32659   2.524   4.358   1.540  0.4675  0.5854 -0.4218
 7009SOL    HW132660   2.577   4.420   1.590  0.9625 -0.9799  0.9793
 7009SOL    HW232661   2.587   4.298   1.501 -1.6485 -0.7053 -1.9018
 7010SOL     OW32662   0.383   1.683  17.432 -0.2060  0.3728 -0.1291
 7010SOL    HW132663   0.298   1.728  17.433 -1.0690 -1.2605 -0.4834
 7010SOL    HW232664   0.427   1.704  17.515 -0.5102  1.3461 -0.2128
 7011SOL     OW32665   0.645   0.216   2.377  0.0968  0.0172 -0.0260
 7011SOL    HW132666   0.575   0.239   2.439 -0.9760 -3.1618 -0.0402
 7011SOL    HW232667   0.610   0.136   2.338 -2.4111  1.0872  0.0283
 7012SOL     OW32668   4.349   0.280   5.849 -0.0601  0.0295  0.7746
 7012SOL    HW132669   4.394   0.223   5.912  0.2753 -0.6805 -0.0969
 7012SOL    HW232670   4.383   0.235   5.771  1.1034  0.0061  1.2919
 7013SOL     OW32671   3.411   0.333   6.244 -1.0200  0.2493 -0.4310
 7013SOL    HW132672   3.429   0.243   6.271 -0.6690  0.5044  0.1879
 7013SOL    HW232673   3.504   0.351   6.230 -1.0556  1.1898  0.5890
 7014SOL     OW32674   0.790   2.968   3.955 -0.2216 -0.2896  0.2287
 7014SOL    HW132675   0.723   3.014   3.905 -0.2531  2.5069  2.8523
 7014SOL    HW232676   0.772   2.884   3.912 -1.7708 -0.1015  0.5184
 7015SOL     OW32677   1.314   3.049  13.470  0.1506  0.1726 -0.1041
 7015SOL    HW132678   1.284   3.074  13.557 -0.3933  0.9089 -0.5060
 7015SOL    HW232679   1.264   2.970  13.451 -0.4403  0.3829  0.5739
 7016SOL     OW32680   1.987   1.731   3.197  0.0441  0.2353  0.1056
 7016SOL    HW132681   1.941   1.790   3.138  1.7786  2.8286  1.3178
 7016SOL    HW232682   2.038   1.789   3.254  0.9467  1.6602 -2.1595
 7017SOL     OW32683   4.262   3.305   2.177 -0.0131 -0.1446  0.0125
 7017SOL    HW132684   4.247   3.341   2.265 -1.1536  0.2329 -0.3406
 7017SOL    HW232685   4.284   3.214   2.199 -0.0969  0.0759  1.0177
 7018SOL     OW32686   0.718   0.955   4.497 -0.0059  0.0878  0.5147
 7018SOL    HW132687   0.757   0.869   4.514 -1.8993 -0.4416  2.2066
 7018SOL    HW232688   0.735   0.971   4.404 -0.1530  0.0459  0.4805
 7019SOL     OW32689   4.005   0.888  16.795  0.1083 -0.8333 -0.3052
 7019SOL    HW132690   3.985   0.826  16.725 -0.2156 -0.6883 -0.3393
 7019SOL    HW232691   3.922   0.887  16.841 -0.9715  0.7347 -2.2441
 7020SOL     OW32692   1.533   0.348   8.649  0.2128 -0.4045  0.2199
 7020SOL    HW132693   1.571   0.391   8.725 -2.2568  1.0941  0.5846
 7020SOL    HW232694   1.464   0.409   8.623  1.1823 -0.4446 -2.4482
 7021SOL     OW32695   2.787   0.347   8.609  0.0008 -0.4379  0.5658
 7021SOL    HW132696   2.857   0.366   8.546  0.3360 -1.0579  0.7597
 7021SOL    HW232697   2.826   0.410   8.670  0.7253 -2.0184  1.7031
 7022SOL     OW32698   3.900   1.152   4.691  0.3133  0.4421 -0.2529
 7022SOL    HW132699   3.908   1.165   4.596 -1.4618 -2.4950 -0.8340
 7022SOL    HW232700   3.819   1.100   4.698 -0.3238  1.1601 -2.0436
 7023SOL     OW32701   4.677   3.381  13.734  0.4120 -0.3720 -0.4245
 7023SOL    HW132702   4.660   3.288  13.742 -2.2879  0.0120 -1.6745
 7023SOL    HW232703   4.714   3.397  13.647 -2.3453  0.4686 -1.4600
 7024SOL     OW32704   0.657   2.108   3.974  0.2401 -0.9208  0.0327
 7024SOL    HW132705   0.733   2.084   4.027 -0.9000 -0.0122  2.1056
 7024SOL    HW232706   0.620   2.020   3.966 -0.0001 -0.8182  0.0108
 7025SOL     OW32707   3.170   0.222   4.719  0.1423 -0.0148 -0.0906
 7025SOL    HW132708   3.132   0.224   4.631  0.5940 -1.4135 -0.3244
 7025SOL    HW232709   3.089   0.209   4.768 -1.0286  0.6431 -1.8459
 7026SOL     OW32710   1.066   2.099  12.758 -0.1939  0.3700 -0.1440
 7026SOL    HW132711   1.063   2.194  12.759 -0.7526  0.3846 -2.5550
 7026SOL    HW232712   1.135   2.080  12.694 -1.9689 -1.6567 -1.4879
 7027SOL     OW32713   4.093   0.959   9.982  0.9876 -0.5632 -0.3715
 7027SOL    HW132714   4.157   0.888   9.987  3.3330  1.7201  1.4682
 7027SOL    HW232715   4.149   1.034   9.963  0.3949  0.3814  1.5756
 7028SOL     OW32716   0.901   2.457  13.487 -0.3788 -0.1527  0.2539
 7028SOL    HW132717   0.864   2.517  13.551 -0.2179 -0.0778  0.2749
 7028SOL    HW232718   0.850   2.477  13.408  1.2030  0.7642 -0.5305
 7029SOL     OW32719   0.538   4.525   5.662 -0.2700  0.0199 -0.7575
 7029SOL    HW132720   0.500   4.478   5.587  2.3985 -0.3622 -1.8523
 7029SOL    HW232721   0.542   4.610   5.620 -3.2907  0.3446 -0.4354
 7030SOL     OW32722   3.003   2.663  16.095 -0.5444  0.4172  0.6448
 7030SOL    HW132723   3.032   2.579  16.058  0.5721  1.7752 -1.5329
 7030SOL    HW232724   3.066   2.682  16.164 -0.6892 -2.7251  1.6422
 7031SOL     OW32725   1.461   4.684   3.534 -0.5436  0.1854 -0.7107
 7031SOL    HW132726   1.494   4.600   3.501 -0.1638  0.0004  0.1294
 7031SOL    HW232727   1.542   4.700   3.583 -0.4884 -2.0539 -0.0814
 7032SOL     OW32728   4.305   0.942   3.328 -0.1835  0.0041  0.3793
 7032SOL    HW132729   4.228   0.900   3.368  0.3672 -0.7736  0.6224
 7032SOL    HW232730   4.298   1.029   3.367  0.0541  0.9513 -1.6974
 7033SOL     OW32731   1.256   0.831  11.559  0.2851 -0.0547  0.0947
 7033SOL    HW132732   1.193   0.834  11.631  2.0965  0.2123  1.6658
 7033SOL    HW232733   1.331   0.881  11.590 -0.3578  0.0753  1.4714
 7034SOL     OW32734   3.419   0.485   8.542 -0.3380  0.1703  0.1415
 7034SOL    HW132735   3.357   0.465   8.612  2.0689  0.6571  2.4029
 7034SOL    HW232736   3.366   0.481   8.462 -0.6812 -2.8418  0.5090
 7035SOL     OW32737   4.554   4.675   7.555  0.1702  0.6585 -0.1495
 7035SOL    HW132738   4.557   4.670   7.651  0.8411  2.1935 -0.0887
 7035SOL    HW232739   4.639   4.631   7.555 -0.3829 -0.4320 -0.4176
 7036SOL     OW32740   3.777   1.539  10.576 -0.5571 -0.7323  0.4204
 7036SOL    HW132741   3.735   1.622  10.551  4.3820  0.9836 -2.1433
 7036SOL    HW232742   3.743   1.518  10.663  1.3150 -0.5325  1.1980
 7037SOL     OW32743   4.142   2.669   3.443 -0.4174  0.0462  0.1671
 7037SOL    HW132744   4.202   2.718   3.499  0.7400 -0.6107 -0.5036
 7037SOL    HW232745   4.058   2.705   3.473 -2.2103 -1.8385 -2.6112
 7038SOL     OW32746   0.573   3.925   1.877  0.2264  0.0312 -0.5009
 7038SOL    HW132747   0.484   3.895   1.895  0.8478 -1.1042  0.6286
 7038SOL    HW232748   0.623   3.886   1.949  0.1710 -0.5029 -0.7472
 7039SOL     OW32749   4.233   2.893  12.091  0.5244  0.4823  0.3783
 7039SOL    HW132750   4.285   2.970  12.114 -1.4402  1.9156  0.0392
 7039SOL    HW232751   4.301   2.827  12.077  0.0976  0.0541  0.3389
 7040SOL     OW32752   2.565   2.265   5.719  0.3818 -0.0066  0.8461
 7040SOL    HW132753   2.513   2.185   5.731  0.9938 -0.4076  0.8314
 7040SOL    HW232754   2.654   2.234   5.733 -0.2825 -1.7018  1.3173
 7041SOL     OW32755   0.813   4.385   5.437 -0.1034  0.1369  0.1060
 7041SOL    HW132756   0.820   4.306   5.492 -0.5063 -1.6141 -2.3614
 7041SOL    HW232757   0.860   4.365   5.356  3.0852  1.6028  1.5778
 7042SOL     OW32758   2.806   3.361   2.625  0.1776  0.3587  0.7536
 7042SOL    HW132759   2.804   3.421   2.550 -0.0719 -2.5753 -1.5950
 7042SOL    HW232760   2.740   3.401   2.682 -2.5114 -2.8311 -0.0882
 7043SOL     OW32761   1.510   3.809   9.199  0.0894 -0.0578  0.5558
 7043SOL    HW132762   1.473   3.757   9.128  1.6410  0.7918 -0.8678
 7043SOL    HW232763   1.431   3.850   9.236 -0.8245 -0.7359 -0.6643
 7044SOL     OW32764   3.784   2.611   5.723 -0.1635  0.0836  0.1019
 7044SOL    HW132765   3.698   2.575   5.745 -0.1707 -0.5486 -0.9653
 7044SOL    HW232766   3.793   2.677   5.792  0.5533  1.7094 -1.5550
 7045SOL     OW32767   1.849   1.577   3.583 -0.1154 -0.1038 -0.0685
 7045SOL    HW132768   1.904   1.520   3.529 -0.7735 -0.7105 -0.0924
 7045SOL    HW232769   1.829   1.650   3.524  0.3002 -1.7760 -2.3003
 7046SOL     OW32770   2.099   2.388   8.456  0.0375  0.6039  0.5670
 7046SOL    HW132771   2.031   2.370   8.391 -0.7406  2.2738  0.8982
 7046SOL    HW232772   2.132   2.300   8.471 -1.3113  0.2165  1.2946
 7047SOL     OW32773   1.136   2.839   0.777  0.2041 -0.0561 -0.1065
 7047SOL    HW132774   1.157   2.746   0.781  1.1083  0.2450  2.4469
 7047SOL    HW232775   1.042   2.840   0.791  0.5250  3.3960  1.8205
 7048SOL     OW32776   0.706   3.331   7.630  0.2408  0.2962  0.2788
 7048SOL    HW132777   0.684   3.281   7.709  0.7199 -0.3887 -0.0250
 7048SOL    HW232778   0.627   3.385   7.622  0.0388 -0.2787 -1.6336
 7049SOL     OW32779   1.192   0.805  15.126 -0.1547 -0.4013 -0.2145
 7049SOL    HW132780   1.200   0.781  15.033  0.1988 -2.5221  0.3501
 7049SOL    HW232781   1.254   0.744  15.166 -1.1559 -0.5409  1.1312
 7050SOL     OW32782   0.328   3.510   4.251 -0.0811  0.1569 -0.3481
 7050SOL    HW132783   0.286   3.458   4.319  0.5014  0.3448  0.1519
 7050SOL    HW232784   0.250   3.538   4.204 -1.1722 -0.6651  0.9681
 7051SOL     OW32785   1.497   0.667   5.651 -0.4047  0.5392 -0.2524
 7051SOL    HW132786   1.576   0.615   5.664 -0.7241  0.0567 -0.2507
 7051SOL    HW232787   1.535   0.741   5.602  1.6828 -0.4258 -0.0869
 7052SOL     OW32788   0.075   4.219   9.962  0.2232 -0.6439  0.2817
 7052SOL    HW132789   0.055   4.229   9.869  0.2763  0.0244  0.3404
 7052SOL    HW232790   0.070   4.124   9.961  1.4470 -0.7217  0.7064
 7053SOL     OW32791   0.078   4.115   6.424  0.3873 -0.6296 -0.3678
 7053SOL    HW132792   0.133   4.136   6.500 -0.3285  0.3081 -0.0981
 7053SOL    HW232793   0.012   4.054   6.456  0.2419  0.5939  1.6565
 7054SOL     OW32794   2.383   2.827   3.793 -0.6022  0.3008 -0.0365
 7054SOL    HW132795   2.349   2.802   3.879  2.5228  0.4075  1.1889
 7054SOL    HW232796   2.365   2.750   3.738 -1.1311 -1.0697  2.0834
 7055SOL     OW32797   0.766   0.345   7.116 -0.1968  0.5418 -0.3432
 7055SOL    HW132798   0.858   0.343   7.088 -0.5546  0.1176 -1.4961
 7055SOL    HW232799   0.750   0.261   7.157  3.1310  0.7458  1.3435
 7056SOL     OW32800   1.850   3.423   1.125 -0.8425 -0.0709 -0.4090
 7056SOL    HW132801   1.943   3.407   1.143 -0.4004  3.8565  0.7074
 7056SOL    HW232802   1.833   3.329   1.130  1.0526 -0.3363  1.3037
 7057SOL     OW32803   1.507   4.487   5.766  0.2915 -0.0874  0.2888
 7057SOL    HW132804   1.602   4.489   5.753  0.1309  1.7687 -0.5130
 7057SOL    HW232805   1.499   4.408   5.819  2.6204  0.1750  1.0430
 7058SOL     OW32806   1.287   4.652   5.954  0.1102 -0.4974 -0.4439
 7058SOL    HW132807   1.223   4.653   5.882  1.2905 -1.3016 -1.4998
 7058SOL    HW232808   1.317   0.005   5.959 -2.7031  0.3609  1.2187
 7059SOL     OW32809   2.286   2.444   3.599 -0.0067 -0.1783  0.7410
 7059SOL    HW132810   2.220   2.510   3.621 -1.7797 -0.5738 -3.3521
 7059SOL    HW232811   2.353   2.486   3.545 -0.9597 -0.5227 -0.6992
 7060SOL     OW32812   2.086   1.014  14.178  0.2911  0.1277  0.2641
 7060SOL    HW132813   2.037   1.008  14.260  0.6728  2.3540  0.6471
 7060SOL    HW232814   2.114   1.105  14.176 -0.6404  0.3030 -2.9581
 7061SOL     OW32815   1.589   3.078  16.051  0.0994 -0.4085 -0.4767
 7061SOL    HW132816   1.677   3.078  16.015  0.6844 -2.5099  0.9496
 7061SOL    HW232817   1.615   3.110  16.138 -1.5532  0.0479 -0.1448
 7062SOL     OW32818   2.902   1.929  10.462  0.4521  0.4606 -0.6962
 7062SOL    HW132819   2.841   1.992  10.422 -0.7180 -0.4471 -0.3435
 7062SOL    HW232820   2.950   1.979  10.527  0.2430  1.4411 -1.2929
 7063SOL     OW32821   3.021   2.064   2.162  0.1057 -0.6061 -0.5698
 7063SOL    HW132822   3.108   2.092   2.190 -0.8610  1.9403 -0.1277
 7063SOL    HW232823   2.974   2.125   2.219 -1.1502 -1.8654 -0.2777
 7064SOL     OW32824   2.918   2.386   2.297 -0.0893  0.5945  0.4629
 7064SOL    HW132825   2.956   2.386   2.209 -0.4968 -4.1711  0.2706
 7064SOL    HW232826   2.996   2.402   2.350  1.5300 -2.4659 -0.9766
 7065SOL     OW32827   1.908   2.601   9.161  0.3577 -0.1543  0.6829
 7065SOL    HW132828   1.901   2.608   9.065  2.3506  0.7938  0.6026
 7065SOL    HW232829   1.861   2.520   9.182  1.3960 -1.2568 -1.2507
 7066SOL     OW32830   3.100   2.682  15.696 -0.1567 -0.2796  0.7246
 7066SOL    HW132831   3.121   2.775  15.701  0.0649 -0.2887 -0.1111
 7066SOL    HW232832   3.116   2.656  15.787 -2.2041 -2.8038  0.3563
 7067SOL     OW32833   4.259   0.736   7.452  0.1279  0.2244  0.4224
 7067SOL    HW132834   4.263   0.741   7.547  1.3137 -1.0444  0.4449
 7067SOL    HW232835   4.311   0.813   7.432 -2.1885  1.3482 -1.2615
 7068SOL     OW32836   4.101   1.793   3.839  0.2413  0.3577  0.0466
 7068SOL    HW132837   4.038   1.769   3.771  0.5828  0.5464 -0.3406
 7068SOL    HW232838   4.090   1.887   3.853  2.1035  0.6324 -0.3496
 7069SOL     OW32839   3.532   4.588   8.407 -0.4058 -0.2571  0.0107
 7069SOL    HW132840   3.613   4.639   8.418 -0.8990  0.6179 -0.4204
 7069SOL    HW232841   3.462   4.652   8.414  0.7267  1.1445 -1.4069
 7070SOL     OW32842   3.745   0.538   8.189 -0.1859 -0.3072 -0.7272
 7070SOL    HW132843   3.679   0.483   8.145 -0.4843 -0.9617  0.5436
 7070SOL    HW232844   3.821   0.481   8.202  0.4788  0.6837 -0.3002
 7071SOL     OW32845   1.375   3.075   7.472 -0.0488  0.0190  0.6705
 7071SOL    HW132846   1.416   3.050   7.389  1.1499 -1.8783  1.8271
 7071SOL    HW232847   1.349   2.991   7.510  1.0522 -1.3865 -1.6606
 7072SOL     OW32848   2.398   0.980   4.944 -0.0395  0.0399 -0.5328
 7072SOL    HW132849   2.449   1.023   5.013  3.5013 -1.2277 -2.4066
 7072SOL    HW232850   2.382   1.056   4.889  2.3138  0.0860 -1.1410
 7073SOL     OW32851   0.568   4.675   8.488 -0.7170  0.0302  0.5725
 7073SOL    HW132852   0.604   4.587   8.498 -2.5386 -0.6815  0.7719
 7073SOL    HW232853   0.484   4.668   8.532 -0.9564  0.4482  0.1869
 7074SOL     OW32854   3.510   1.413  14.770  0.3104  0.1328 -0.0061
 7074SOL    HW132855   3.426   1.440  14.733 -0.3983 -0.3229  1.3001
 7074SOL    HW232856   3.530   1.486  14.829  1.7711 -0.2331 -0.0363
 7075SOL     OW32857   1.860   0.447   5.946 -0.1308 -0.0051  0.0878
 7075SOL    HW132858   1.900   0.514   6.001 -0.7905 -0.3603  1.0053
 7075SOL    HW232859   1.845   0.375   6.008 -1.2524  1.8562  1.9831
 7076SOL     OW32860   0.231   0.730   3.353  0.0485 -0.4891  1.0790
 7076SOL    HW132861   0.163   0.732   3.420 -1.8313  2.0482 -0.8946
 7076SOL    HW232862   0.295   0.679   3.403  1.3966 -0.0354 -0.1894
 7077SOL     OW32863   2.356   2.610   4.826 -0.2268 -0.8624  0.9227
 7077SOL    HW132864   2.442   2.617   4.784 -0.1965 -0.9867  0.9626
 7077SOL    HW232865   2.304   2.678   4.784  0.0806  0.1860  2.2679
 7078SOL     OW32866   3.414   4.283   6.657 -0.0558 -0.6552  0.3013
 7078SOL    HW132867   3.453   4.320   6.736 -1.1453 -0.5392  0.7837
 7078SOL    HW232868   3.484   4.308   6.597  0.1708 -1.0430  0.4082
 7079SOL     OW32869   0.162   4.351   8.870 -0.7797 -0.9109  0.1330
 7079SOL    HW132870   0.131   4.366   8.780 -0.4199  3.6503  0.7794
 7079SOL    HW232871   0.256   4.341   8.857 -0.5214  1.5570  0.0321
 7080SOL     OW32872   1.688   0.329   6.685 -0.3824 -0.2657  0.0232
 7080SOL    HW132873   1.605   0.297   6.720  0.6930 -1.6843  1.2458
 7080SOL    HW232874   1.660   0.380   6.609 -0.6072  0.6997  0.7510
 7081SOL     OW32875   1.323   0.197  11.381  0.6886 -0.3884  0.3568
 7081SOL    HW132876   1.294   0.266  11.441  2.8586 -0.3342  1.3256
 7081SOL    HW232877   1.340   0.246  11.300  0.5270  1.0915  1.2336
 7082SOL     OW32878   2.641   3.095   7.058  0.4210  0.4807 -0.1069
 7082SOL    HW132879   2.642   3.088   6.963  1.4668 -1.6775  0.0597
 7082SOL    HW232880   2.698   3.172   7.061 -0.6449  1.3479 -2.5018
 7083SOL     OW32881   4.379   2.710   7.089 -0.0340  0.1093 -0.2518
 7083SOL    HW132882   4.389   2.799   7.056  1.2944 -0.0718 -0.3309
 7083SOL    HW232883   4.289   2.711   7.122 -0.7772  2.1129 -2.3208
 7084SOL     OW32884   3.430   1.536  10.054  0.0116  0.1263  0.6324
 7084SOL    HW132885   3.365   1.517  10.121 -0.4559 -2.3893 -0.5241
 7084SOL    HW232886   3.502   1.483  10.088  1.3412  2.4529  1.4382
 7085SOL     OW32887   2.117   1.161   6.348  0.4471  0.3294  0.0725
 7085SOL    HW132888   2.115   1.241   6.295 -2.6458 -0.9037 -1.7019
 7085SOL    HW232889   2.023   1.149   6.360  0.0594  1.8790 -1.2886
 7086SOL     OW32890   0.707   3.912   5.044  0.4056 -0.0853 -0.6112
 7086SOL    HW132891   0.661   3.996   5.052  0.9487 -0.1296  2.7286
 7086SOL    HW232892   0.745   3.919   4.956 -0.3112 -1.5504 -1.0372
 7087SOL     OW32893   1.694   2.392   7.126 -0.1908 -0.2968  0.1854
 7087SOL    HW132894   1.679   2.476   7.169  1.4515  0.9586 -1.6639
 7087SOL    HW232895   1.758   2.352   7.185 -0.8265 -3.2668 -1.1658
 7088SOL     OW32896   0.843   3.580  13.034  0.0658  0.1424 -0.4159
 7088SOL    HW132897   0.813   3.569  12.944  0.4418  1.8557 -0.7490
 7088SOL    HW232898   0.924   3.528  13.031  0.0168  0.0610 -0.3216
 7089SOL     OW32899   3.428   0.933   3.975  0.2375  0.8310 -0.1494
 7089SOL    HW132900   3.359   0.900   3.918 -0.8094 -1.4100  2.3900
 7089SOL    HW232901   3.452   1.019   3.941  0.6477  1.1701  0.9993
 7090SOL     OW32902   2.814   1.452  17.617  0.1924  0.3282  0.0587
 7090SOL    HW132903   2.745   1.494  17.566 -0.1615  0.4956  0.6705
 7090SOL    HW232904   2.817   1.376  17.560  2.6684 -0.4466  1.2122
 7091SOL     OW32905   2.979   2.244  11.227 -0.5320  0.0468 -0.0623
 7091SOL    HW132906   3.044   2.314  11.222  1.4787 -1.7373  1.2900
 7091SOL    HW232907   3.037   2.175  11.196 -2.0340 -1.3241  0.1902
 7092SOL     OW32908   0.080   0.817   0.119  0.2647 -0.5244  0.1293
 7092SOL    HW132909   0.096   0.724   0.104  1.5261 -0.3073  0.1657
 7092SOL    HW232910   0.033   0.848   0.041  1.2715  2.9618  0.9087
 7093SOL     OW32911   3.218   0.068   5.319 -0.0770  0.6557  0.4600
 7093SOL    HW132912   3.267   4.727   5.297  0.6067  1.0251  0.6780
 7093SOL    HW232913   3.190   0.088   5.230 -1.3628  2.2707  1.2196
 7094SOL     OW32914   3.727   4.079  13.741  0.5380 -0.0127 -0.1814
 7094SOL    HW132915   3.643   4.057  13.700 -1.6486  0.2622  4.2113
 7094SOL    HW232916   3.705   4.145  13.807  1.3932 -0.3393  0.4311
 7095SOL     OW32917   0.419   2.907   3.904 -0.6536  0.1925 -0.2249
 7095SOL    HW132918   0.475   2.917   3.827  0.1330 -0.1932  0.2977
 7095SOL    HW232919   0.484   2.894   3.972 -0.2207  0.6468 -0.5458
 7096SOL     OW32920   1.568   3.494   0.429 -0.3801  0.6319  0.0561
 7096SOL    HW132921   1.489   3.527   0.471 -1.5570 -1.8420 -0.2266
 7096SOL    HW232922   1.595   3.578   0.392 -2.1396  1.2718  0.2676
 7097SOL     OW32923   1.230   2.733   6.001  0.0564  0.3537  0.3782
 7097SOL    HW132924   1.314   2.739   5.955 -1.5682 -0.0458 -2.6005
 7097SOL    HW232925   1.225   2.646   6.042 -0.0383  0.7656  1.2540
 7098SOL     OW32926   1.122   2.365   7.446  0.0542  0.2155 -0.1190
 7098SOL    HW132927   1.140   2.281   7.489 -2.0822 -1.0242 -1.6543
 7098SOL    HW232928   1.048   2.401   7.494  0.3109  0.6431 -0.0456
 7099SOL     OW32929   2.071   0.319  10.956  0.1663  0.2125  0.1525
 7099SOL    HW132930   2.156   0.329  10.999 -0.4727 -0.9065  1.6907
 7099SOL    HW232931   2.022   0.372  11.018 -3.6619 -1.7287 -1.2258
 7100SOL     OW32932   0.127   0.513   1.062  0.1640 -0.2283 -0.0755
 7100SOL    HW132933   0.199   0.463   1.102 -0.9795 -2.6844 -1.1105
 7100SOL    HW232934   0.115   0.450   0.992  1.9186 -0.6526 -0.0064
 7101SOL     OW32935   3.855   0.850   1.885  0.1394 -0.0865  0.3406
 7101SOL    HW132936   3.876   0.774   1.831 -0.0618  1.0828 -1.3822
 7101SOL    HW232937   3.853   0.923   1.823  2.1192 -1.5851 -1.4774
 7102SOL     OW32938   2.875   2.409   5.491  0.0871 -0.1639  0.0029
 7102SOL    HW132939   2.952   2.362   5.457 -0.7713 -1.1895 -0.5144
 7102SOL    HW232940   2.880   2.395   5.585  1.6107  1.2932  0.1553
 7103SOL     OW32941   1.818   1.286   1.797 -0.4877 -0.0531 -0.5160
 7103SOL    HW132942   1.912   1.301   1.792 -0.3425 -1.4128 -1.8985
 7103SOL    HW232943   1.792   1.369   1.838  0.1659  0.4937 -1.2036
 7104SOL     OW32944   2.991   0.393   2.769 -0.5362  0.5864  0.0415
 7104SOL    HW132945   2.945   0.381   2.686  0.0268 -2.4285  0.1817
 7104SOL    HW232946   2.941   0.471   2.795 -1.2842 -0.5757  2.1161
 7105SOL     OW32947   1.579   1.219   8.533  0.0534  0.5555  0.7244
 7105SOL    HW132948   1.633   1.223   8.612  0.3684  3.5583  0.3317
 7105SOL    HW232949   1.654   1.224   8.474 -0.6280  0.3877 -0.1494
 7106SOL     OW32950   3.180   1.996   4.451 -0.1262  0.6296  0.1872
 7106SOL    HW132951   3.196   1.974   4.543  0.6314 -1.3759 -0.4444
 7106SOL    HW232952   3.155   1.911   4.416  1.1189 -0.2633  1.4527
 7107SOL     OW32953   2.936   1.826   6.142  0.0360 -0.3644  0.1195
 7107SOL    HW132954   2.940   1.868   6.228 -1.6889 -0.3550  0.1859
 7107SOL    HW232955   2.857   1.774   6.154  0.6825 -1.1931  0.8141
 7108SOL     OW32956   0.604   1.636   8.970 -0.4745  0.1436 -0.2569
 7108SOL    HW132957   0.688   1.642   9.015 -0.0311  1.3362 -1.2394
 7108SOL    HW232958   0.566   1.556   9.007 -1.7714  0.5141 -0.7725
 7109SOL     OW32959   4.122   2.353   9.990  0.1433  0.3728 -0.8660
 7109SOL    HW132960   4.048   2.404  10.023 -0.5129  0.4537 -2.4188
 7109SOL    HW232961   4.111   2.351   9.895  2.5389  0.5205 -1.1491
 7110SOL     OW32962   1.078   0.509   4.093  0.5447 -0.4103  0.0925
 7110SOL    HW132963   1.159   0.556   4.112  0.3571  0.6506 -1.7158
 7110SOL    HW232964   1.115   0.422   4.111  1.8791  0.1473  0.0638
 7111SOL     OW32965   3.580   0.644   3.528  0.0365 -0.6404 -0.0606
 7111SOL    HW132966   3.606   0.639   3.620  0.4882 -0.6608 -0.1912
 7111SOL    HW232967   3.596   0.553   3.503  0.6556 -0.2032 -1.2301
 7112SOL     OW32968   4.370   4.608   3.713 -0.2074  0.1050 -0.1828
 7112SOL    HW132969   4.328   4.649   3.637  0.8479 -0.8904 -1.3167
 7112SOL    HW232970   4.305   4.631   3.779 -0.1113  1.1847 -0.4658
 7113SOL     OW32971   0.100   3.774   6.607 -0.1791 -0.8493 -0.0228
 7113SOL    HW132972   0.194   3.763   6.590 -0.3261 -1.0502 -0.7175
 7113SOL    HW232973   0.089   3.864   6.576  0.8967 -1.2815 -1.6675
 7114SOL     OW32974   4.158   0.470   5.015  0.2577 -0.5470 -0.3135
 7114SOL    HW132975   4.152   0.434   4.927 -0.0012 -1.1116 -0.0612
 7114SOL    HW232976   4.083   0.530   5.008  0.8578  0.4822  2.0563
 7115SOL     OW32977   3.261   3.928   4.994 -0.3767 -0.4247  0.2269
 7115SOL    HW132978   3.338   3.890   5.036  0.5666  1.9990  0.6533
 7115SOL    HW232979   3.190   3.901   5.053  2.1708 -3.6172  1.8387
 7116SOL     OW32980   0.389   4.501  15.957 -0.1610 -0.4001  0.6185
 7116SOL    HW132981   0.380   4.560  16.032 -1.8164 -2.3831  1.9965
 7116SOL    HW232982   0.433   4.551  15.888  0.5192 -2.2072 -0.2704
 7117SOL     OW32983   2.989   0.742  14.601  0.6547 -0.2551  0.1286
 7117SOL    HW132984   3.057   0.809  14.597 -1.5800  1.8873 -1.9155
 7117SOL    HW232985   2.990   0.712  14.510  0.7295 -3.6183  1.2164
 7118SOL     OW32986   4.737   0.453   8.474 -0.3006  0.0816 -0.4657
 7118SOL    HW132987   4.715   0.404   8.553 -2.0716  1.7693  0.0919
 7118SOL    HW232988   4.736   0.542   8.509  3.3451  0.5681 -1.5735
 7119SOL     OW32989   3.110   2.337   5.885  0.0366  0.2725  0.6717
 7119SOL    HW132990   3.081   2.270   5.822  3.1526  0.7826 -1.2953
 7119SOL    HW232991   3.193   2.303   5.920  1.0678  1.3078 -0.7550
 7120SOL     OW32992   4.243   0.986   2.886  0.2387  0.0253 -0.2531
 7120SOL    HW132993   4.156   0.990   2.927 -0.4876  0.3099 -1.8334
 7120SOL    HW232994   4.216   0.987   2.794 -1.2077 -0.6242  0.1545
 7121SOL     OW32995   3.252   0.646   2.108  0.0923  0.3786 -0.2504
 7121SOL    HW132996   3.287   0.734   2.092  1.3202 -0.1237 -0.3851
 7121SOL    HW232997   3.290   0.628   2.194  0.1250 -0.4724 -0.4457
 7122SOL     OW32998   1.618   2.954  11.105  0.4360  0.1616  0.1186
 7122SOL    HW132999   1.599   2.999  11.188  1.0378  0.8111 -0.1001
 7122SOL    HW233000   1.680   3.009  11.058  1.0485 -1.7030 -1.2367
 7123SOL     OW33001   0.983   1.905  15.843 -0.6622  0.3526  0.0404
 7123SOL    HW133002   1.059   1.904  15.785  0.7882 -1.5867  1.9645
 7123SOL    HW233003   0.986   1.993  15.880 -0.1454 -0.1424  1.1766
 7124SOL     OW33004   4.486   2.023   7.111  0.1342 -0.1878  0.4519
 7124SOL    HW133005   4.499   2.032   7.205 -1.2231 -0.2362  0.6462
 7124SOL    HW233006   4.494   1.928   7.103  1.8179 -0.0578  0.5464
 7125SOL     OW33007   2.335   4.092   3.990  0.5445  0.4912  0.4113
 7125SOL    HW133008   2.317   4.075   4.082 -1.4531  0.8446  0.0837
 7125SOL    HW233009   2.291   4.176   3.980 -0.2986 -0.0628 -0.6092
 7126SOL     OW33010   1.244   2.044  12.573  0.5758 -0.6292  0.4631
 7126SOL    HW133011   1.335   2.058  12.597 -0.3923  2.1599  2.4548
 7126SOL    HW233012   1.243   1.959  12.528  1.4775 -0.2610 -0.2491
 7127SOL     OW33013   0.529   2.689   5.150  0.6658 -0.1636 -0.0754
 7127SOL    HW133014   0.436   2.676   5.133  0.9931  0.0015 -1.9626
 7127SOL    HW233015   0.559   2.720   5.064 -0.8822 -0.6215 -0.7767
 7128SOL     OW33016   3.617   2.995   9.128 -0.5125  0.3692 -0.1765
 7128SOL    HW133017   3.649   3.081   9.155  0.6885 -0.4665  1.0200
 7128SOL    HW233018   3.681   2.940   9.172 -1.0002  0.4180  0.5837
 7129SOL     OW33019   4.226   0.504  12.480  0.0548  0.1340  0.4158
 7129SOL    HW133020   4.248   0.546  12.563 -1.2346  1.1401  0.2524
 7129SOL    HW233021   4.188   0.418  12.501  1.0826 -0.6354 -0.8834
 7130SOL     OW33022   4.548   1.596   8.644 -0.3983 -0.2264 -0.4466
 7130SOL    HW133023   4.629   1.646   8.639 -0.2473 -0.2669  1.7013
 7130SOL    HW233024   4.531   1.593   8.738 -1.5496 -0.4021 -0.6517
 7131SOL     OW33025   2.025   1.839   9.331  0.3019  0.1421  0.2919
 7131SOL    HW133026   2.012   1.824   9.237 -0.1531  0.0601  0.3691
 7131SOL    HW233027   1.966   1.912   9.350  0.1943  0.0962  0.1353
 7132SOL     OW33028   3.479   0.920  17.276  0.4030  0.4378 -0.3604
 7132SOL    HW133029   3.545   0.919  17.206 -1.9542  1.0743 -2.6162
 7132SOL    HW233030   3.429   0.847  17.241 -0.6209  0.7994  0.3561
 7133SOL     OW33031   0.029   3.192   8.684 -0.5754  0.1095 -0.2407
 7133SOL    HW133032   0.025   3.098   8.670 -1.0569  0.0195  0.4897
 7133SOL    HW233033   4.675   3.214   8.704 -1.2586 -0.2742 -2.9815
 7134SOL     OW33034   2.252   4.624   4.772 -0.2915 -0.0469 -0.5989
 7134SOL    HW133035   2.331   4.621   4.826 -1.4339 -2.0893  0.9472
 7134SOL    HW233036   2.216   4.546   4.814 -2.5110  0.0858 -2.2858
 7135SOL     OW33037   3.414   2.654   6.275 -0.1325  0.0671  0.1291
 7135SOL    HW133038   3.455   2.669   6.190 -0.1094 -1.5414 -0.1420
 7135SOL    HW233039   3.478   2.597   6.318  0.4531 -0.4933 -1.4952
 7136SOL     OW33040   0.666   2.378   2.367  0.4717 -0.5452  0.9951
 7136SOL    HW133041   0.611   2.337   2.300  3.6892 -1.2126 -1.2482
 7136SOL    HW233042   0.738   2.410   2.313 -1.6087 -1.9801 -2.6007
 7137SOL     OW33043   0.631   4.425  14.545 -0.0726  0.2269 -0.6097
 7137SOL    HW133044   0.682   4.485  14.600  0.3979 -2.4392  1.8341
 7137SOL    HW233045   0.545   4.467  14.548  0.2232  0.7169  0.7986
 7138SOL     OW33046   4.012   2.903  12.258  0.6662 -0.3128 -0.5831
 7138SOL    HW133047   3.974   2.967  12.198  0.5287 -0.7705 -0.9839
 7138SOL    HW233048   4.102   2.890  12.226  1.3756 -1.1512  1.7327
 7139SOL     OW33049   2.793   1.310   1.413  0.1385 -0.9375 -0.4228
 7139SOL    HW133050   2.806   1.352   1.498  1.0386 -0.8342 -0.6103
 7139SOL    HW233051   2.741   1.380   1.373 -1.3057 -0.6927  1.8811
 7140SOL     OW33052   2.312   3.386   7.709  0.6224 -0.7448 -0.0018
 7140SOL    HW133053   2.337   3.424   7.625  0.0216 -2.4033 -0.9323
 7140SOL    HW233054   2.371   3.436   7.765  0.2986 -0.5581  0.1700
 7141SOL     OW33055   1.402   0.923   3.606 -0.4401 -0.3997  0.1105
 7141SOL    HW133056   1.450   0.867   3.545 -0.7939  1.1393 -1.5759
 7141SOL    HW233057   1.320   0.927   3.557 -0.2871  0.1422 -0.0926
 7142SOL     OW33058   1.904   3.901   1.655 -0.0874  0.1217  0.3793
 7142SOL    HW133059   1.875   3.959   1.725  0.4959  2.2880 -1.1967
 7142SOL    HW233060   1.984   3.860   1.688  2.4948  2.5763 -2.9099
 7143SOL     OW33061   3.594   2.067  14.123  0.0752  0.4183 -0.5205
 7143SOL    HW133062   3.602   2.162  14.124 -1.0565  0.4941  0.8092
 7143SOL    HW233063   3.629   2.053  14.211 -0.6530 -0.5487 -0.3864
 7144SOL     OW33064   3.979   0.983   7.316  0.0421 -0.2000  0.5054
 7144SOL    HW133065   4.033   1.032   7.254 -1.1255  0.2738 -0.1332
 7144SOL    HW233066   4.004   1.023   7.400  2.7019 -1.3244  0.2476
 7145SOL     OW33067   2.143   4.107  16.471 -0.1583  0.2394 -0.2305
 7145SOL    HW133068   2.052   4.097  16.501 -0.0513  0.8733  0.3176
 7145SOL    HW233069   2.127   4.068  16.385  0.9479  2.1748 -1.3103
 7146SOL     OW33070   3.459   3.456   4.767 -0.1780  0.1470 -0.2231
 7146SOL    HW133071   3.400   3.498   4.705 -1.4793 -1.1111  0.1594
 7146SOL    HW233072   3.394   3.401   4.811  0.1791  1.1338  1.5241
 7147SOL     OW33073   0.144   1.314   4.450 -0.6352  0.1931  0.2405
 7147SOL    HW133074   0.218   1.296   4.508  0.6108 -1.4007 -1.8664
 7147SOL    HW233075   0.082   1.350   4.514  0.6144  1.0478  0.9747
 7148SOL     OW33076   2.586   2.834  16.257  0.2913  0.0701  0.2050
 7148SOL    HW133077   2.543   2.779  16.322  2.3541 -0.6876  0.9275
 7148SOL    HW233078   2.562   2.790  16.176  0.3754  1.1057 -0.3888
 7149SOL     OW33079   1.335   4.121   0.525  0.4327  0.6884 -0.5504
 7149SOL    HW133080   1.417   4.118   0.574  1.0998  0.8914 -1.6764
 7149SOL    HW233081   1.284   4.186   0.574 -2.6254 -2.7578  0.8933
 7150SOL     OW33082   2.588   2.609   3.133 -0.8965  0.1548  0.0902
 7150SOL    HW133083   2.651   2.546   3.098  0.5824  1.8828 -0.3216
 7150SOL    HW233084   2.570   2.642   3.045 -1.2889  3.0728  1.2737
 7151SOL     OW33085   1.953   2.025   2.957  0.0308 -0.2352 -0.0070
 7151SOL    HW133086   1.940   2.074   3.039  0.1498  0.6707 -0.5287
 7151SOL    HW233087   1.874   1.974   2.974  0.5013  0.2599  3.7524
 7152SOL     OW33088   0.803   0.174  16.974  0.3184 -0.0809 -0.6143
 7152SOL    HW133089   0.890   0.140  16.957  0.1662  0.0483 -1.6660
 7152SOL    HW233090   0.774   0.204  16.887 -2.5302 -3.1758 -0.7331
 7153SOL     OW33091   2.414   2.431   3.870 -0.1514  0.7579  0.2654
 7153SOL    HW133092   2.453   2.351   3.905 -1.9301 -1.0439 -1.8676
 7153SOL    HW233093   2.395   2.416   3.777 -0.8165  1.6465  0.2548
 7154SOL     OW33094   3.970   0.870   4.479 -0.4381  0.2523 -0.2867
 7154SOL    HW133095   3.978   0.831   4.566 -0.9431  0.0352 -0.3422
 7154SOL    HW233096   3.971   0.966   4.489 -0.2575  0.4016 -1.7018
 7155SOL     OW33097   1.020   3.799   7.034  0.0898 -0.1309 -0.6798
 7155SOL    HW133098   1.069   3.729   6.991  1.4435  0.8567 -0.7338
 7155SOL    HW233099   0.972   3.837   6.961 -0.5325 -1.2064 -0.8208
 7156SOL     OW33100   0.671   4.400  11.984  0.2501  0.0930  0.0438
 7156SOL    HW133101   0.642   4.318  12.022  0.5848 -1.2557 -2.6011
 7156SOL    HW233102   0.766   4.392  11.994 -0.0747 -2.3197  1.1589
 7157SOL     OW33103   4.476   2.832   5.493 -0.1293 -0.0472 -0.4290
 7157SOL    HW133104   4.488   2.876   5.578 -0.1292 -2.5679  0.8561
 7157SOL    HW233105   4.512   2.902   5.438  2.1962 -0.5316  0.5144
 7158SOL     OW33106   3.494   3.283   4.470 -0.4945 -0.4729 -0.2097
 7158SOL    HW133107   3.556   3.319   4.534  0.6251 -0.4036 -1.3512
 7158SOL    HW233108   3.459   3.362   4.430 -2.4981 -1.6401 -0.7579
 7159SOL     OW33109   1.342   1.770   3.126 -0.0394 -0.2861  0.7719
 7159SOL    HW133110   1.426   1.729   3.147  1.0237  2.1587  1.1910
 7159SOL    HW233111   1.356   1.863   3.111 -0.1241 -0.3831  0.0845
 7160SOL     OW33112   2.572   0.504  15.338  0.3006 -0.0447 -0.2545
 7160SOL    HW133113   2.526   0.431  15.379  0.5336 -0.3593 -0.5597
 7160SOL    HW233114   2.535   0.499  15.250 -1.8324  0.4763  0.6028
 7161SOL     OW33115   2.421   4.734   8.745  0.7077  0.1379 -0.4866
 7161SOL    HW133116   2.349   4.682   8.778  1.0483  1.3213  2.1419
 7161SOL    HW233117   2.459   0.031   8.827  0.4515 -1.4332  0.2793
 7162SOL     OW33118   2.429   3.122   0.168 -0.1769 -0.2363  0.2066
 7162SOL    HW133119   2.386   3.038   0.156  0.8338 -0.5532 -1.2072
 7162SOL    HW233120   2.370   3.162   0.233  2.2266 -0.4442  2.5221
 7163SOL     OW33121   4.178   3.312  14.339  0.3433 -0.3709  0.5217
 7163SOL    HW133122   4.118   3.267  14.280 -0.0910  1.0371 -0.1183
 7163SOL    HW233123   4.237   3.242  14.368 -2.5589 -3.2714 -0.6525
 7164SOL     OW33124   1.384   3.476   8.843  0.0275 -0.4591  0.5236
 7164SOL    HW133125   1.322   3.436   8.904  0.7280  0.5177  1.8591
 7164SOL    HW233126   1.390   3.408   8.776 -0.0407  0.1060 -0.0560
 7165SOL     OW33127   2.955   1.764   2.532  0.6024 -0.0861 -0.3530
 7165SOL    HW133128   2.887   1.820   2.496  1.5380  0.3764 -1.3819
 7165SOL    HW233129   2.987   1.719   2.454 -0.3036 -1.0222 -0.1784
 7166SOL     OW33130   2.168   1.496  14.838 -0.2456  0.3110 -0.2829
 7166SOL    HW133131   2.091   1.451  14.874  0.6248 -0.9388  0.0091
 7166SOL    HW233132   2.131   1.585  14.834  1.9159  1.1725 -1.2098
 7167SOL     OW33133   4.444   1.074   3.965  0.3887  0.0298  0.4278
 7167SOL    HW133134   4.375   1.024   4.008  0.6995 -1.3152 -0.6281
 7167SOL    HW233135   4.450   1.156   4.014 -0.9672 -0.3656  1.2586
 7168SOL     OW33136   3.946   4.633   6.271  0.1268 -0.6245 -0.0921
 7168SOL    HW133137   3.874   4.694   6.258 -1.7614 -2.7511  0.2660
 7168SOL    HW233138   4.022   4.689   6.282 -1.2937  1.1746  0.4560
 7169SOL     OW33139   3.711   0.803  16.078  0.5466  0.5428 -0.1859
 7169SOL    HW133140   3.702   0.754  15.997 -3.9265  0.5647  0.3065
 7169SOL    HW233141   3.660   0.883  16.062  1.0760  0.4683 -2.2347
 7170SOL     OW33142   1.711   0.765   3.107  0.2124 -0.1819  0.1448
 7170SOL    HW133143   1.649   0.826   3.147 -0.0089  0.1060 -0.6367
 7170SOL    HW233144   1.658   0.686   3.112  0.4700 -0.3442  0.2719
 7171SOL     OW33145   3.311   2.500   2.685 -0.4115 -0.4017  0.2693
 7171SOL    HW133146   3.304   2.595   2.675 -0.8430  0.0580  5.1809
 7171SOL    HW233147   3.332   2.484   2.777  0.2908  1.1021  0.3674
 7172SOL     OW33148   1.429   3.610   8.129  0.1028  0.1466 -0.5260
 7172SOL    HW133149   1.394   3.692   8.164 -2.9277 -1.0673 -0.8119
 7172SOL    HW233150   1.523   3.625   8.146 -0.2528  0.8811  0.8008
 7173SOL     OW33151   3.840   3.361   6.552 -0.6501  0.0317  0.2481
 7173SOL    HW133152   3.883   3.343   6.636  1.1331 -2.4873 -1.2005
 7173SOL    HW233153   3.837   3.457   6.551  0.6634  0.0853  1.7960
 7174SOL     OW33154   2.855   3.139   4.578 -0.5100 -0.1635 -0.9191
 7174SOL    HW133155   2.807   3.139   4.660 -1.7164 -1.0402 -1.6259
 7174SOL    HW233156   2.892   3.051   4.576  0.2737  0.1528 -0.3052
 7175SOL     OW33157   2.270   2.181   9.261 -0.1975 -0.0137 -0.3383
 7175SOL    HW133158   2.190   2.231   9.277  0.3536  0.5026  0.8073
 7175SOL    HW233159   2.274   2.185   9.165  2.3208 -2.0864 -0.2972
 7176SOL     OW33160   0.059   3.918  16.873 -0.2298 -0.7137 -0.6211
 7176SOL    HW133161   0.030   3.994  16.925 -2.0322 -1.9791  0.2351
 7176SOL    HW233162   0.072   3.845  16.933 -1.6738  0.2878  0.9231
 7177SOL     OW33163   1.005   1.907   6.058 -0.5746 -0.4587 -0.2305
 7177SOL    HW133164   1.072   1.877   6.120  1.4964  2.5638 -0.9957
 7177SOL    HW233165   0.989   1.821   6.019 -2.4419 -0.3275  0.2497
 7178SOL     OW33166   0.480   2.982   3.202  0.4370  0.2022  0.8229
 7178SOL    HW133167   0.529   2.987   3.120  1.9789  0.1075  1.7590
 7178SOL    HW233168   0.391   2.983   3.167  0.6880 -0.6630  0.1707
 7179SOL     OW33169   2.019   4.550   1.899  0.0015  0.7118  0.2210
 7179SOL    HW133170   2.005   4.564   1.805  2.3463  0.9892 -0.0808
 7179SOL    HW233171   2.051   4.637   1.922  1.0960 -0.0444  1.5452
 7180SOL     OW33172   1.533   1.344   2.121  0.2743  0.2425 -0.0224
 7180SOL    HW133173   1.490   1.396   2.188 -0.3040  1.4395 -1.3159
 7180SOL    HW233174   1.543   1.415   2.058 -2.0272  0.6122  0.0432
 7181SOL     OW33175   3.779   2.998   7.960  0.1330  0.1610  0.3611
 7181SOL    HW133176   3.752   3.033   8.045 -0.9493 -0.0461  0.1068
 7181SOL    HW233177   3.705   2.991   7.900  0.4707  0.1521 -0.0471
 7182SOL     OW33178   3.468   1.964   8.067 -0.8300  0.0380 -0.3468
 7182SOL    HW133179   3.421   1.906   8.127  0.6248 -1.2699 -0.5010
 7182SOL    HW233180   3.534   1.900   8.043  0.1368  0.6816  0.5879
 7183SOL     OW33181   0.849   0.567  16.716  0.4851  0.1140 -0.1881
 7183SOL    HW133182   0.907   0.527  16.652  1.3789  1.3007 -0.1229
 7183SOL    HW233183   0.806   0.631  16.658  0.7780  1.3290  0.9370
 7184SOL     OW33184   3.115   3.129  14.620 -0.8355 -0.4481  0.0705
 7184SOL    HW133185   3.023   3.115  14.600 -1.4745  1.4706  1.6446
 7184SOL    HW233186   3.140   3.090  14.536 -1.7866 -2.0708  0.5518
 7185SOL     OW33187   3.372   2.430   8.607 -0.2099 -0.3933  0.3371
 7185SOL    HW133188   3.353   2.520   8.631  1.3707  0.4479 -1.5144
 7185SOL    HW233189   3.423   2.438   8.526 -1.0558 -0.3448 -0.1892
 7186SOL     OW33190   0.746   3.751   2.012 -0.2933  0.4475 -0.0814
 7186SOL    HW133191   0.721   3.668   2.051  0.0840 -0.4039 -1.6683
 7186SOL    HW233192   0.841   3.748   2.015 -0.3521 -0.6188  0.4679
 7187SOL     OW33193   2.440   0.763   4.401  0.0454 -0.0641  0.3609
 7187SOL    HW133194   2.496   0.799   4.332 -0.3058  0.8958  0.5902
 7187SOL    HW233195   2.399   0.844   4.428 -3.2995 -0.1535 -4.4248
 7188SOL     OW33196   2.967   4.391   3.789 -0.1830 -0.5633  0.5754
 7188SOL    HW133197   2.929   4.403   3.876  2.1950  2.0813  1.2874
 7188SOL    HW233198   2.924   4.311   3.761 -1.2702  0.3542 -0.3488
 7189SOL     OW33199   0.737   1.098  11.209 -0.5420  0.5823  0.0487
 7189SOL    HW133200   0.656   1.118  11.255 -0.2759 -0.8466  1.1472
 7189SOL    HW233201   0.802   1.154  11.250 -1.1024 -0.6141  2.5479
 7190SOL     OW33202   0.475   1.141  11.667 -0.1949 -0.0005 -0.1245
 7190SOL    HW133203   0.564   1.178  11.674 -0.8486  1.3643  1.0191
 7190SOL    HW233204   0.439   1.207  11.726 -2.7854 -1.2169 -0.3521
 7191SOL     OW33205   0.199   4.282   1.480 -0.5589 -0.2124 -0.2980
 7191SOL    HW133206   0.132   4.347   1.458 -0.7840 -0.9102 -1.7019
 7191SOL    HW233207   0.161   4.254   1.563 -1.8911 -2.6717 -1.7348
 7192SOL     OW33208   4.020   2.427   7.750  0.0316  0.2162 -0.1805
 7192SOL    HW133209   4.107   2.465   7.737 -0.5548  1.2778 -1.0214
 7192SOL    HW233210   4.003   2.390   7.664 -2.3055 -0.5649  0.6141
 7193SOL     OW33211   4.647   3.834   8.628 -0.6005 -0.3660 -0.2213
 7193SOL    HW133212   4.709   3.762   8.642  0.0961 -0.0901 -1.9763
 7193SOL    HW233213   4.667   3.878   8.711 -0.5589 -0.0790 -0.3861
 7194SOL     OW33214   2.163   0.175   2.687  0.1792 -0.1473 -0.2835
 7194SOL    HW133215   2.121   0.090   2.686 -0.2375  0.0573 -0.1036
 7194SOL    HW233216   2.242   0.176   2.742  0.7675 -0.6020 -1.1249
 7195SOL     OW33217   4.549   0.105   3.405 -0.2840 -0.0801 -0.4969
 7195SOL    HW133218   4.475   0.097   3.464 -0.4044 -1.5111 -0.8394
 7195SOL    HW233219   4.553   0.195   3.373 -1.7440 -0.2463 -1.1575
 7196SOL     OW33220   3.300   4.280   4.952 -0.5513  0.9036  0.1129
 7196SOL    HW133221   3.263   4.333   5.021 -0.5000  1.1539 -0.0530
 7196SOL    HW233222   3.249   4.201   4.969  0.7423  0.0182 -0.0853
 7197SOL     OW33223   1.042   2.948   8.644 -0.5367 -0.4619  0.4075
 7197SOL    HW133224   1.008   2.892   8.714 -1.5916 -1.7964 -1.1533
 7197SOL    HW233225   1.063   2.889   8.571 -2.2494 -1.9423  1.0985
 7198SOL     OW33226   0.152   4.033  13.557 -0.0919 -0.1387  0.9391
 7198SOL    HW133227   0.227   4.069  13.604  0.9682  0.8337 -1.5179
 7198SOL    HW233228   0.120   4.119  13.527  0.2709 -1.6698 -3.9064
 7199SOL     OW33229   2.536   3.473   4.765 -0.1774  0.2858 -0.0795
 7199SOL    HW133230   2.529   3.458   4.671  0.0073  1.5045 -0.2885
 7199SOL    HW233231   2.443   3.489   4.781  0.2570  2.3300  0.4039
 7200SOL     OW33232   2.600   2.084   8.849  0.0241  0.7163  0.3525
 7200SOL    HW133233   2.661   2.094   8.776  1.0898  0.8185  1.2642
 7200SOL    HW233234   2.611   2.164   8.899 -1.3550  1.2628 -0.2257
 7201SOL     OW33235   3.664   4.562   4.786  0.4068  0.0451 -0.0542
 7201SOL    HW133236   3.700   4.475   4.803 -0.7484  0.0916  2.5332
 7201SOL    HW233237   3.647   4.551   4.692 -0.4938 -0.5985  0.1803
 7202SOL     OW33238   2.903   2.268   4.717  0.2013 -0.1961 -0.6330
 7202SOL    HW133239   2.859   2.236   4.639 -1.0386 -0.5760  0.2194
 7202SOL    HW233240   2.859   2.353   4.710 -0.6699 -0.3255  3.3355
 7203SOL     OW33241   4.482   1.874   6.236 -0.0539 -0.0850 -0.4505
 7203SOL    HW133242   4.406   1.848   6.287  0.1958  1.4059  0.7173
 7203SOL    HW233243   4.530   1.930   6.297  1.2051  0.1347 -1.6456
 7204SOL     OW33244   2.730   1.476   7.199  0.0603  0.2295  0.7934
 7204SOL    HW133245   2.753   1.400   7.253 -0.3743 -0.2865  0.2617
 7204SOL    HW233246   2.790   1.540   7.236 -1.4905  1.1993  1.6279
 7205SOL     OW33247   2.716   4.434   2.713 -0.0112 -0.2083  0.4932
 7205SOL    HW133248   2.646   4.460   2.654 -0.7324 -0.8194  1.0939
 7205SOL    HW233249   2.664   4.403   2.787 -0.3376 -1.0041 -0.0742
 7206SOL     OW33250   2.251   2.383   5.474  0.6988  0.2060 -0.7907
 7206SOL    HW133251   2.335   2.350   5.442 -0.1208 -0.0457 -2.6883
 7206SOL    HW233252   2.204   2.300   5.477  0.2454  0.4436 -1.3416
 7207SOL     OW33253   4.475   3.180   3.699  0.2249 -0.4584  0.4850
 7207SOL    HW133254   4.461   3.125   3.776  2.2262 -0.4409  0.8573
 7207SOL    HW233255   4.426   3.132   3.631  0.7377  1.0426 -0.9381
 7208SOL     OW33256   1.068   4.205  11.824 -0.2123  0.2655 -0.1462
 7208SOL    HW133257   1.034   4.272  11.884 -1.8475 -0.5700 -0.1566
 7208SOL    HW233258   0.997   4.142  11.828 -0.8093  0.8472 -1.7847
 7209SOL     OW33259   1.437   2.370   2.827  0.5635 -0.8164  0.6444
 7209SOL    HW133260   1.514   2.313   2.835  2.1057  1.1753 -0.0724
 7209SOL    HW233261   1.394   2.343   2.746  0.2007  0.1825  0.5045
 7210SOL     OW33262   2.132   2.672   6.839  0.3496 -0.9956 -0.0272
 7210SOL    HW133263   2.138   2.603   6.905  2.7374  0.1837  0.9932
 7210SOL    HW233264   2.220   2.709   6.842 -0.9018  1.9492  0.1320
 7211SOL     OW33265   3.242   1.271   3.752  0.0037  0.5769 -0.3876
 7211SOL    HW133266   3.157   1.239   3.783 -0.5181  0.6320 -1.7899
 7211SOL    HW233267   3.216   1.361   3.733  1.2284  1.1221  0.5162
 7212SOL     OW33268   1.956   1.500   4.309 -0.4200 -0.0043 -0.3311
 7212SOL    HW133269   1.878   1.532   4.354 -1.6209 -3.4418  0.0157
 7212SOL    HW233270   1.913   1.474   4.227 -1.8213  3.6294 -0.7487
 7213SOL     OW33271   3.337   3.153  13.454 -0.7560  0.1283 -0.1931
 7213SOL    HW133272   3.403   3.169  13.521 -1.5773  2.0063  0.1573
 7213SOL    HW233273   3.267   3.211  13.485  0.5288 -0.4498  3.7350
 7214SOL     OW33274   3.892   2.621   5.456  0.1039 -0.0214 -0.0108
 7214SOL    HW133275   3.825   2.570   5.410  0.0682  1.4361 -1.5479
 7214SOL    HW233276   3.867   2.597   5.546  2.3249  2.1830  1.1934
 7215SOL     OW33277   1.017   1.462   2.149 -0.3154  0.6335  0.5114
 7215SOL    HW133278   0.959   1.404   2.198 -0.5502  1.5772  1.3423
 7215SOL    HW233279   0.992   1.551   2.171  0.3582  1.6637 -2.9338
 7216SOL     OW33280   0.515   1.197   7.028  0.2457 -0.8993  0.0530
 7216SOL    HW133281   0.554   1.189   6.941 -0.6624  1.5874 -0.5947
 7216SOL    HW233282   0.420   1.200   7.017 -0.1293 -0.0728  3.2747
 7217SOL     OW33283   4.474   4.667   4.073 -0.1822  0.3807  0.4273
 7217SOL    HW133284   4.466   4.584   4.120  0.7182  0.9649  1.5806
 7217SOL    HW233285   4.439   4.727   4.139 -3.0229  0.9609 -1.6216
 7218SOL     OW33286   1.568   0.700   3.548 -0.5035 -0.4306 -0.0330
 7218SOL    HW133287   1.640   0.691   3.486  0.6515 -4.4136  1.8679
 7218SOL    HW233288   1.553   0.610   3.578 -2.6069 -0.8920 -2.4247
 7219SOL     OW33289   4.109   1.853   6.692 -0.3256  0.1205 -0.2230
 7219SOL    HW133290   4.075   1.859   6.781  1.9463  0.8087  0.6033
 7219SOL    HW233291   4.103   1.941   6.655  1.6221  0.3599  0.0455
 7220SOL     OW33292   4.293   2.947  15.637 -0.2849 -0.2255  0.0148
 7220SOL    HW133293   4.272   2.926  15.546  0.2653  1.4393 -0.4917
 7220SOL    HW233294   4.212   2.994  15.657 -0.6642 -0.8207 -0.0911
 7221SOL     OW33295   2.520   4.334  16.719  0.0549 -0.5536  0.3742
 7221SOL    HW133296   2.511   4.429  16.714 -0.7278 -0.6566 -0.2349
 7221SOL    HW233297   2.484   4.305  16.635 -1.5776 -1.1298  1.2860
 7222SOL     OW33298   1.754   1.796   8.761  0.5669  0.2491  0.6910
 7222SOL    HW133299   1.676   1.829   8.806  0.2503  0.2448  0.1444
 7222SOL    HW233300   1.784   1.735   8.829  0.1546 -1.8163 -0.9687
 7223SOL     OW33301   1.378   1.153  16.542 -0.1063  0.3977 -0.6002
 7223SOL    HW133302   1.397   1.072  16.589 -2.6797  0.7127  0.9506
 7223SOL    HW233303   1.285   1.169  16.556 -0.1697 -0.9905  0.6409
 7224SOL     OW33304   2.826   2.346  13.993 -0.3906 -0.1010 -0.0538
 7224SOL    HW133305   2.888   2.316  13.927 -0.6403  0.6211 -0.6169
 7224SOL    HW233306   2.771   2.267  13.986 -1.6333  0.8660 -1.1956
 7225SOL     OW33307   1.360   1.050  13.568  0.4447 -0.1172 -0.3814
 7225SOL    HW133308   1.382   1.050  13.475 -2.4389 -0.5448 -1.0626
 7225SOL    HW233309   1.448   1.060  13.604  0.5806 -2.0442 -0.1598
 7226SOL     OW33310   1.149   2.755   1.907  0.4174 -0.6413  0.3022
 7226SOL    HW133311   1.191   2.838   1.930  2.2729 -0.4093 -3.8831
 7226SOL    HW233312   1.103   2.730   1.987  2.1141 -1.6503  0.9630
 7227SOL     OW33313   3.116   4.585   4.750  0.3022 -0.2169 -0.2079
 7227SOL    HW133314   3.169   4.535   4.688  1.3227  2.0313 -1.1280
 7227SOL    HW233315   3.081   4.645   4.685  2.3666  0.6077 -0.5676
 7228SOL     OW33316   0.924   1.984   5.073 -0.2562  0.3866  0.5484
 7228SOL    HW133317   0.874   2.016   4.998 -0.2460 -1.5288 -0.2846
 7228SOL    HW233318   1.013   1.978   5.038 -0.8086 -1.1115 -0.6095
 7229SOL     OW33319   3.109   1.570   6.658 -0.2368 -0.3295 -0.3577
 7229SOL    HW133320   3.147   1.633   6.719 -2.1453  0.4688 -0.0064
 7229SOL    HW233321   3.125   1.620   6.577  0.3782  0.1221  0.0408
 7230SOL     OW33322   4.501   1.135   7.180 -0.4931  0.2771  0.1307
 7230SOL    HW133323   4.478   1.225   7.158  2.8481  0.5791 -2.2654
 7230SOL    HW233324   4.596   1.143   7.187 -0.5081  0.7578 -0.1906
 7231SOL     OW33325   3.594   1.153   0.978  0.3980 -0.5873  0.4889
 7231SOL    HW133326   3.604   1.108   1.062 -1.4357  0.7867  1.4461
 7231SOL    HW233327   3.543   1.228   1.008  1.1904 -0.1669  0.8098
 7232SOL     OW33328   1.673   0.876   5.067 -0.2744 -0.7001  0.3947
 7232SOL    HW133329   1.711   0.809   5.010 -0.8616 -1.6382  1.1115
 7232SOL    HW233330   1.605   0.822   5.107 -1.0008 -0.4591 -0.5022
 7233SOL     OW33331   4.139   3.492  12.965  0.0377  0.0436  0.1882
 7233SOL    HW133332   4.065   3.481  13.024  1.2455 -0.7339  1.5394
 7233SOL    HW233333   4.205   3.446  13.016 -0.0948  0.8532  1.1037
 7234SOL     OW33334   1.100   3.756   7.279  0.1577  0.0602  0.1501
 7234SOL    HW133335   1.053   3.762   7.196  1.6287 -1.1036 -0.7571
 7234SOL    HW233336   1.142   3.673   7.259 -0.0816  0.6869 -2.9848
 7235SOL     OW33337   3.653   3.583  12.427 -0.2863 -0.1999 -0.1627
 7235SOL    HW133338   3.666   3.613  12.337  0.6927  0.2221  0.1225
 7235SOL    HW233339   3.596   3.511  12.400 -0.9673  2.0741 -4.9490
 7236SOL     OW33340   1.793   4.049   4.577  0.4215 -0.0239  0.2922
 7236SOL    HW133341   1.755   4.092   4.654  0.1978  1.1931 -0.4871
 7236SOL    HW233342   1.884   4.039   4.606  0.3227 -0.4364  0.4530
 7237SOL     OW33343   4.653   2.203   5.139  0.6800 -0.1612  0.6231
 7237SOL    HW133344   4.601   2.269   5.093  1.1703  1.2781  2.1489
 7237SOL    HW233345   4.675   2.144   5.066 -1.8391 -1.3514  0.8335
 7238SOL     OW33346   3.720   3.468   2.326 -0.0122 -0.0388 -0.1847
 7238SOL    HW133347   3.776   3.412   2.379 -0.2084 -1.1943 -1.1972
 7238SOL    HW233348   3.722   3.537   2.392 -0.0694  1.4080 -1.6952
 7239SOL     OW33349   0.867   1.270   2.555 -0.1178 -0.2129  0.3934
 7239SOL    HW133350   0.831   1.324   2.625  0.2456  1.4730 -0.7490
 7239SOL    HW233351   0.959   1.274   2.579 -0.0646 -1.6419  0.4603
 7240SOL     OW33352   0.020   0.651   9.429 -0.1345  0.1579  0.4128
 7240SOL    HW133353   0.029   0.718   9.496 -0.7587 -0.0665  0.7256
 7240SOL    HW233354   4.715   0.587   9.486 -0.2560  0.7166  0.9525
 7241SOL     OW33355   2.343   0.397  11.098  0.2188  0.1674 -0.2523
 7241SOL    HW133356   2.348   0.313  11.144  0.5238  1.0092  1.2456
 7241SOL    HW233357   2.401   0.455  11.148  1.8360 -0.6344 -1.1930
 7242SOL     OW33358   3.270   3.002   0.707  0.1947 -0.2104  0.5009
 7242SOL    HW133359   3.336   3.050   0.757  1.0262 -0.1999 -0.6041
 7242SOL    HW233360   3.229   3.065   0.648 -0.4944  0.5170  1.7733
 7243SOL     OW33361   2.239   0.961   7.811  0.1428 -0.4684 -0.4685
 7243SOL    HW133362   2.238   0.959   7.907 -3.0556 -0.0738 -0.4895
 7243SOL    HW233363   2.151   0.995   7.795  0.3230  0.3057  0.1738
 7244SOL     OW33364   1.146   2.421  13.599  0.2494  0.0314  0.0489
 7244SOL    HW133365   1.122   2.470  13.677  1.3425 -0.0791  0.4609
 7244SOL    HW233366   1.059   2.422  13.558  0.1548  1.7413  0.3267
 7245SOL     OW33367   4.421   3.619   4.227 -0.3604 -0.3613  0.4735
 7245SOL    HW133368   4.485   3.687   4.209 -1.0540 -0.6799 -3.1954
 7245SOL    HW233369   4.373   3.659   4.300 -1.0178 -2.5518  1.2305
 7246SOL     OW33370   1.833   0.812   3.521 -0.5782 -0.2388 -0.9642
 7246SOL    HW133371   1.799   0.900   3.534 -1.0690 -0.3662 -1.3695
 7246SOL    HW233372   1.913   0.823   3.469  1.2683 -1.7520  1.5449
 7247SOL     OW33373   0.407   1.624  11.993  0.1623 -0.3225 -0.4955
 7247SOL    HW133374   0.314   1.629  12.017  0.2839 -0.0151 -0.1010
 7247SOL    HW233375   0.443   1.679  12.062  0.6640 -0.7164 -0.4484
 7248SOL     OW33376   4.092   1.729   7.648  0.5105 -0.8123 -0.1910
 7248SOL    HW133377   4.176   1.726   7.693 -0.2569  0.1181  1.3016
 7248SOL    HW233378   4.078   1.824   7.643 -2.3677 -1.2089  0.3388
 7249SOL     OW33379   3.228   2.579   3.299 -0.5914 -0.1498  0.5390
 7249SOL    HW133380   3.295   2.631   3.342  0.4851 -0.2184 -1.0227
 7249SOL    HW233381   3.253   2.498   3.343  1.5316  0.6920  0.8789
 7250SOL     OW33382   1.352   4.484   8.093  0.6157 -0.0881  0.0823
 7250SOL    HW133383   1.317   4.572   8.075  1.9248  0.2188 -0.9735
 7250SOL    HW233384   1.382   4.499   8.182  0.2105 -1.9025  0.5272
 7251SOL     OW33385   3.163   2.008  10.147  0.2923  0.0080 -0.1218
 7251SOL    HW133386   3.123   2.058  10.076 -2.7996  0.0168  1.6398
 7251SOL    HW233387   3.103   2.014  10.221  0.4020  1.8956 -0.1786
 7252SOL     OW33388   4.603   1.192   3.414  0.3370 -0.2445 -0.5314
 7252SOL    HW133389   4.569   1.103   3.420  3.2168 -1.2972  0.0632
 7252SOL    HW233390   4.620   1.187   3.319  0.8385  2.2455 -0.5710
 7253SOL     OW33391   2.615   1.245   2.441 -0.2706  0.3101  0.2452
 7253SOL    HW133392   2.657   1.330   2.433 -0.5881  0.5298  0.9191
 7253SOL    HW233393   2.538   1.280   2.485 -0.0098 -1.8189  2.4112
 7254SOL     OW33394   1.562   1.218   6.018  0.1671  0.0724  0.2948
 7254SOL    HW133395   1.499   1.285   6.045 -0.3447  0.1551 -1.1071
 7254SOL    HW233396   1.514   1.192   5.939  1.4697 -0.3746 -0.3472
 7255SOL     OW33397   4.342   4.056   5.602  0.0284  0.4980 -0.1135
 7255SOL    HW133398   4.322   4.066   5.509 -1.0312  0.9517  0.1707
 7255SOL    HW233399   4.436   4.074   5.596  0.8607 -2.8815  3.2982
 7256SOL     OW33400   3.735   2.510   8.033 -0.0788  0.2729  0.3800
 7256SOL    HW133401   3.825   2.506   8.002 -0.0893 -1.0000  0.5103
 7256SOL    HW233402   3.740   2.590   8.085  2.0414  0.3332  0.0753
 7257SOL     OW33403   3.410   0.676   7.502 -0.3317  0.6832 -0.1133
 7257SOL    HW133404   3.330   0.697   7.455 -0.2556 -0.0676 -0.5826
 7257SOL    HW233405   3.470   0.638   7.438 -0.8309  0.1298 -0.2497
 7258SOL     OW33406   1.951   2.241   0.642  0.1611 -0.4441 -0.0615
 7258SOL    HW133407   1.971   2.150   0.620  0.3343 -0.5404  0.5123
 7258SOL    HW233408   1.897   2.230   0.720  0.6641  0.3180  0.3819
 7259SOL     OW33409   4.571   4.412   5.515  0.2193  0.5531  0.0067
 7259SOL    HW133410   4.557   4.380   5.426 -3.8381  2.0014  0.1556
 7259SOL    HW233411   4.559   4.505   5.496 -0.7506  0.1864 -1.1258
 7260SOL     OW33412   4.694   2.284   2.614  0.1919 -0.3183 -0.2092
 7260SOL    HW133413   4.731   2.265   2.700  0.4860  4.1116  0.6675
 7260SOL    HW233414   4.718   2.205   2.566 -0.0197 -0.8977  0.6398
 7261SOL     OW33415   4.202   0.673   7.005  0.1560 -0.6323  0.1168
 7261SOL    HW133416   4.123   0.725   7.020  0.9364 -0.0048  2.0620
 7261SOL    HW233417   4.267   0.743   6.996 -1.2872  0.7770  0.4464
 7262SOL     OW33418   1.810   1.029   0.215  0.3988  0.3802  0.1340
 7262SOL    HW133419   1.882   0.966   0.211  0.2379  0.3500 -1.9146
 7262SOL    HW233420   1.788   1.032   0.122 -1.0099  1.0279  0.4819
 7263SOL     OW33421   1.145   2.171  15.483  0.2464 -0.4259 -0.2604
 7263SOL    HW133422   1.173   2.101  15.543  1.4507  1.6090  1.5692
 7263SOL    HW233423   1.189   2.247  15.521 -0.5099  0.3241 -0.8853
 7264SOL     OW33424   1.508   2.604  13.101 -0.2800 -0.2122  0.4571
 7264SOL    HW133425   1.548   2.686  13.129 -1.3861  0.8518 -1.0747
 7264SOL    HW233426   1.582   2.543  13.099  0.7016  1.0978 -2.7963
 7265SOL     OW33427   2.520   0.610  12.319 -0.7271 -0.1940 -0.4188
 7265SOL    HW133428   2.590   0.604  12.254  1.1708 -2.0075  1.7505
 7265SOL    HW233429   2.502   0.518  12.342  2.0066 -0.7777 -0.6177
 7266SOL     OW33430   4.095   2.658  11.377  0.3606  0.4096  0.6497
 7266SOL    HW133431   4.023   2.605  11.411  0.0957  1.0958  1.1606
 7266SOL    HW233432   4.159   2.639  11.445  1.0006 -0.0633 -0.0877
 7267SOL     OW33433   0.991   3.908   6.325 -0.0216  0.3916  0.0114
 7267SOL    HW133434   1.056   3.977   6.316  0.4018 -0.1337 -0.9227
 7267SOL    HW233435   0.926   3.928   6.258  0.1625  0.1373 -0.2392
 7268SOL     OW33436   0.480   1.558   9.842  0.4505  0.2150 -0.6830
 7268SOL    HW133437   0.531   1.483   9.809 -0.5216 -1.3927  1.5155
 7268SOL    HW233438   0.475   1.530   9.933  3.1581 -0.6917 -0.7869
 7269SOL     OW33439   1.648   4.104  12.500  0.2385 -0.2685 -0.0844
 7269SOL    HW133440   1.610   4.052  12.429  1.2666 -1.6120  0.3569
 7269SOL    HW233441   1.607   4.062  12.576  1.9842 -2.7902 -0.5397
 7270SOL     OW33442   3.422   0.554   5.009  0.5546 -0.1574 -0.0261
 7270SOL    HW133443   3.384   0.468   5.028  0.8348  0.5438  3.7611
 7270SOL    HW233444   3.361   0.615   5.052  0.9406 -1.1372  1.9242
 7271SOL     OW33445   0.895   2.467   7.587  0.4068 -0.1751 -0.6775
 7271SOL    HW133446   0.846   2.394   7.550  0.8710  0.3437 -2.3136
 7271SOL    HW233447   0.886   2.543   7.529  0.5267  0.4981  0.1709
 7272SOL     OW33448   2.601   2.193   7.054  0.2858  0.2108  0.5916
 7272SOL    HW133449   2.516   2.234   7.071  1.1351  1.8572  0.9668
 7272SOL    HW233450   2.633   2.255   6.989 -0.3545 -0.1228 -0.0314
 7273SOL     OW33451   1.893   3.037   0.776  0.1811 -0.1288  0.4013
 7273SOL    HW133452   1.937   3.118   0.801  1.1251 -1.3705  2.7634
 7273SOL    HW233453   1.846   3.032   0.859 -0.6758 -3.7707 -0.2716
 7274SOL     OW33454   3.560   1.031   6.479 -0.1655 -0.1149  0.0773
 7274SOL    HW133455   3.602   1.115   6.498  0.4512 -0.5048  0.4086
 7274SOL    HW233456   3.603   0.977   6.545 -1.9449  2.2504  3.1687
 7275SOL     OW33457   1.920   1.907   1.290  0.0028 -0.3548 -0.0592
 7275SOL    HW133458   1.928   1.825   1.241 -0.0027 -1.4769  1.8318
 7275SOL    HW233459   1.942   1.968   1.220 -0.6353  2.5309  2.2790
 7276SOL     OW33460   3.817   2.129   6.719 -0.3266  0.1683 -0.2357
 7276SOL    HW133461   3.731   2.089   6.736 -1.2769  2.3608  0.0922
 7276SOL    HW233462   3.805   2.211   6.767  2.3349  0.1229  0.5155
 7277SOL     OW33463   4.304   1.125   4.840 -0.0230 -0.0237 -0.3335
 7277SOL    HW133464   4.374   1.188   4.824 -0.6667  0.0234 -3.0830
 7277SOL    HW233465   4.337   1.077   4.916 -1.2030 -2.1777 -1.1922
 7278SOL     OW33466   1.346   1.810  17.146  0.1354  0.3757  0.1244
 7278SOL    HW133467   1.427   1.811  17.195  0.4633 -0.6550 -0.3939
 7278SOL    HW233468   1.282   1.811  17.217  2.4403 -2.1132  2.2078
 7279SOL     OW33469   0.787   3.868  11.626 -0.3844  0.1789  0.3680
 7279SOL    HW133470   0.827   3.843  11.543 -0.3572  1.1164  0.1047
 7279SOL    HW233471   0.699   3.882  11.592 -0.4909 -0.7526  0.2498
 7280SOL     OW33472   1.261   2.645   9.783  0.3733 -0.1034 -0.6476
 7280SOL    HW133473   1.251   2.554   9.757 -1.1519  0.5209 -2.2584
 7280SOL    HW233474   1.356   2.649   9.791  0.2570  1.7532 -0.0685
 7281SOL     OW33475   0.497   3.003  10.738 -0.3825  0.5288  0.5017
 7281SOL    HW133476   0.522   2.912  10.722 -1.1316  0.2202  1.1321
 7281SOL    HW233477   0.438   3.018  10.664  0.2048  1.2576  0.1732
 7282SOL     OW33478   0.155   0.019   7.160  0.7332  0.7712  0.1036
 7282SOL    HW133479   0.209   0.095   7.180 -1.3013  1.5513  2.6403
 7282SOL    HW233480   0.218   4.699   7.117  1.8674  1.7200  0.5042
 7283SOL     OW33481   3.615   1.027  10.028 -0.3270 -0.2108  0.7133
 7283SOL    HW133482   3.702   0.990  10.009  0.4534  2.1157 -0.2525
 7283SOL    HW233483   3.647   1.070  10.107  0.5908  1.0801 -0.3630
 7284SOL     OW33484   4.222   1.297   8.824  0.0837 -0.3795 -0.0355
 7284SOL    HW133485   4.264   1.347   8.754 -0.8453 -1.7592 -1.5788
 7284SOL    HW233486   4.161   1.249   8.768 -1.6497 -0.7283  2.1686
 7285SOL     OW33487   0.944   3.892   1.713 -0.0848 -0.4492  0.3405
 7285SOL    HW133488   1.024   3.933   1.679  0.4651 -2.4445 -0.7645
 7285SOL    HW233489   0.942   3.929   1.801 -0.6919 -0.5701  0.3770
 7286SOL     OW33490   1.591   3.531  12.496 -0.0522 -0.3221 -0.2931
 7286SOL    HW133491   1.628   3.613  12.464 -1.5038 -0.5283 -2.4854
 7286SOL    HW233492   1.535   3.504  12.424 -1.4487 -3.2107  1.8603
 7287SOL     OW33493   3.344   1.292  14.083 -0.0020 -0.5152 -0.2272
 7287SOL    HW133494   3.408   1.363  14.080  0.1363 -0.5690  1.4021
 7287SOL    HW233495   3.274   1.334  14.133 -0.7196  0.3866 -1.9909
 7288SOL     OW33496   0.126   4.310   1.969 -0.0189 -0.8940  0.0849
 7288SOL    HW133497   0.170   4.394   1.955  1.0478 -1.5713 -0.6340
 7288SOL    HW233498   0.110   4.321   2.062 -0.9024  0.9473 -0.2780
 7289SOL     OW33499   0.913   0.624   4.273  0.1352  0.3358  0.0713
 7289SOL    HW133500   0.962   0.564   4.217  0.8131  1.6457 -0.7271
 7289SOL    HW233501   0.844   0.566   4.306 -0.4901  0.1352 -1.5749
 7290SOL     OW33502   2.980   0.424   1.314 -0.3491  0.0255  0.7956
 7290SOL    HW133503   2.964   0.352   1.253  0.5956 -1.2433  2.0451
 7290SOL    HW233504   3.058   0.457   1.269 -0.9086  0.7922  0.3690
 7291SOL     OW33505   1.485   2.884   0.374  0.5439  0.1660 -0.2385
 7291SOL    HW133506   1.538   2.812   0.408 -1.4101 -0.8480  0.6634
 7291SOL    HW233507   1.416   2.865   0.437  0.9696 -1.6111 -0.3233
 7292SOL     OW33508   1.974   0.771   2.089 -0.0550 -0.7062 -0.6575
 7292SOL    HW133509   2.065   0.771   2.059  0.7558 -2.1487  1.7742
 7292SOL    HW233510   1.941   0.840   2.032  0.7637 -0.6487 -1.0615
 7293SOL     OW33511   3.147   0.628   7.841 -0.3047  0.3174  0.3022
 7293SOL    HW133512   3.230   0.614   7.885 -0.1504 -1.5324 -0.5684
 7293SOL    HW233513   3.102   0.612   7.923  0.0423 -1.0048  0.2312
 7294SOL     OW33514   2.609   4.592   8.607 -0.5945 -0.1533 -0.1312
 7294SOL    HW133515   2.579   4.561   8.521 -1.4812 -2.0950  0.8799
 7294SOL    HW233516   2.542   4.648   8.645  0.3101 -0.3112  1.7156
 7295SOL     OW33517   0.884   0.814   4.884 -0.0036 -0.1437  0.1513
 7295SOL    HW133518   0.976   0.792   4.872 -0.1174 -0.3179 -0.4071
 7295SOL    HW233519   0.854   0.813   4.793 -1.0120  3.3535  0.4424
 7296SOL     OW33520   4.083   0.284  12.572  0.3101 -0.1655 -0.3165
 7296SOL    HW133521   4.085   0.202  12.622 -2.8874  1.0793  1.8656
 7296SOL    HW233522   3.996   0.283  12.532  0.8142  0.1620 -1.4029
 7297SOL     OW33523   3.002   3.469   2.226 -0.4540  0.8280 -0.3572
 7297SOL    HW133524   3.048   3.552   2.211 -0.3028  0.9202  0.5883
 7297SOL    HW233525   2.944   3.482   2.302  1.0793 -1.5144  1.2235
 7298SOL     OW33526   3.799   4.036   4.696 -0.3871  0.7817 -0.2831
 7298SOL    HW133527   3.849   3.991   4.764 -0.2319  1.7051  0.2203
 7298SOL    HW233528   3.711   4.024   4.731 -0.5145  0.5015 -0.7093
 7299SOL     OW33529   3.365   0.911  10.029 -0.2775  0.2197  0.5582
 7299SOL    HW133530   3.336   0.930   9.940  0.7462 -0.5736  0.0575
 7299SOL    HW233531   3.444   0.964  10.024  0.5658 -0.8549  2.5856
 7300SOL     OW33532   2.186   3.900  16.658 -0.2467 -0.1406  0.2966
 7300SOL    HW133533   2.279   3.906  16.636 -0.4095 -0.0963 -0.3525
 7300SOL    HW233534   2.156   3.962  16.593 -2.8051 -0.8900  0.7781
 7301SOL     OW33535   0.129   0.457   6.751  0.7683 -0.2577  0.7768
 7301SOL    HW133536   0.109   0.550   6.741  1.3365 -0.2130  0.0711
 7301SOL    HW233537   0.223   0.446   6.762  0.7372 -1.8751 -0.5314
 7302SOL     OW33538   3.212   3.923   1.168  0.2992  0.1215 -0.1159
 7302SOL    HW133539   3.225   3.955   1.079 -1.2280  0.8687 -0.0657
 7302SOL    HW233540   3.275   3.852   1.175 -0.6171 -0.5744  1.0099
 7303SOL     OW33541   3.657   0.202   3.836  0.4478 -0.1407  0.3222
 7303SOL    HW133542   3.625   0.154   3.760 -0.8236  2.8061 -1.0039
 7303SOL    HW233543   3.708   0.270   3.790 -0.5043  0.9658  0.8943
 7304SOL     OW33544   0.100   3.400  13.497  0.3622 -0.4693  0.2920
 7304SOL    HW133545   0.174   3.348  13.529  0.7920  1.4290  2.4381
 7304SOL    HW233546   0.123   3.425  13.408  2.0517 -1.3123  0.4996
 7305SOL     OW33547   2.380   2.777   6.898  0.0209 -0.4579 -0.4295
 7305SOL    HW133548   2.471   2.748   6.889 -0.4554 -2.6332  1.6589
 7305SOL    HW233549   2.390   2.858   6.946 -1.0802 -0.4619 -0.1984
 7306SOL     OW33550   3.111   2.974   8.522  0.2994 -0.1881 -0.0866
 7306SOL    HW133551   3.176   3.026   8.474 -0.5380  1.5861  0.6770
 7306SOL    HW233552   3.156   2.890   8.536 -1.2900 -1.2631 -1.4989
 7307SOL     OW33553   4.296   1.765   8.732  0.1915  0.1942  0.2120
 7307SOL    HW133554   4.292   1.710   8.654 -2.4899 -2.5487  2.2837
 7307SOL    HW233555   4.293   1.702   8.804  0.6806 -1.9075 -1.6120
 7308SOL     OW33556   3.975   2.844   6.445 -0.3904 -0.2160  0.1117
 7308SOL    HW133557   3.938   2.816   6.529 -2.6849  0.2155 -0.7666
 7308SOL    HW233558   4.050   2.784   6.439 -0.6107 -0.3846 -0.8968
 7309SOL     OW33559   0.683   0.653  10.070  0.6536  0.3483  0.5239
 7309SOL    HW133560   0.741   0.583  10.040 -1.7458 -1.1940 -0.5034
 7309SOL    HW233561   0.756   0.716  10.071 -0.6485  1.8765  0.2658
 7310SOL     OW33562   1.516   1.884   1.694  0.6210 -0.2855  0.3727
 7310SOL    HW133563   1.461   1.816   1.657 -0.9703  1.2899 -0.1717
 7310SOL    HW233564   1.602   1.843   1.697  1.2785  1.0002 -1.1048
 7311SOL     OW33565   2.259   3.296   9.402 -0.1243  0.5840  0.1033
 7311SOL    HW133566   2.181   3.248   9.374  0.2544 -0.0805  0.1825
 7311SOL    HW233567   2.321   3.254   9.343 -3.7432 -1.9503 -1.8984
 7312SOL     OW33568   3.523   0.441   4.461  0.9886 -0.7723 -0.0916
 7312SOL    HW133569   3.510   0.433   4.555 -3.2262  0.4744 -0.5593
 7312SOL    HW233570   3.464   0.371   4.434 -0.8112  0.9355 -0.6107
 7313SOL     OW33571   2.802   0.591   1.224  0.2862  0.6717 -0.2720
 7313SOL    HW133572   2.807   0.571   1.130 -0.3053  2.0820 -0.6110
 7313SOL    HW233573   2.865   0.528   1.260  0.6165  0.3770 -1.3614
 7314SOL     OW33574   2.305   2.357  17.409 -0.5026 -0.2463 -0.3760
 7314SOL    HW133575   2.275   2.400  17.329  1.0474  2.8488  0.7366
 7314SOL    HW233576   2.335   2.440  17.445 -0.1309 -0.2948 -0.5819
 7315SOL     OW33577   2.424   0.958   2.487  0.4245 -0.0648 -0.0948
 7315SOL    HW133578   2.399   1.048   2.467  0.3107  0.6336  3.2328
 7315SOL    HW233579   2.420   0.961   2.583  2.3836 -0.0409 -0.0241
 7316SOL     OW33580   0.965   0.750   5.692  0.3005 -0.1485  0.5624
 7316SOL    HW133581   0.994   0.689   5.760  2.3374  0.9110  0.6479
 7316SOL    HW233582   1.043   0.751   5.637  1.1973 -2.2441  1.7920
 7317SOL     OW33583   4.139   4.731   8.481 -0.0778  0.4652 -0.2286
 7317SOL    HW133584   4.114   4.712   8.391  1.9817 -6.1211  0.5938
 7317SOL    HW233585   4.145   0.089   8.480  1.5611  0.3854  2.4223
 7318SOL     OW33586   2.728   1.501   2.433  0.4720  0.6622  0.3643
 7318SOL    HW133587   2.712   1.573   2.494  0.5108  0.4174  0.6635
 7318SOL    HW233588   2.823   1.494   2.424  0.3913 -2.2850  1.8727
 7319SOL     OW33589   1.710   3.418  10.685 -0.2730  0.2343  0.5209
 7319SOL    HW133590   1.659   3.477  10.630  0.0887 -1.7453 -1.9059
 7319SOL    HW233591   1.796   3.430  10.645  0.1531 -2.3456  0.6419
 7320SOL     OW33592   4.480   0.100  14.586 -0.1326  0.0685 -0.4796
 7320SOL    HW133593   4.535   0.069  14.658 -2.0122 -0.1147  0.8949
 7320SOL    HW233594   4.513   0.046  14.515  0.2429  2.5150 -2.1912
 7321SOL     OW33595   4.525   1.882   3.886  0.4164  0.2792 -0.5768
 7321SOL    HW133596   4.463   1.870   3.958  2.5438  0.2072  1.2258
 7321SOL    HW233597   4.463   1.912   3.819 -0.2708 -1.5539 -0.7679
 7322SOL     OW33598   3.384   1.480   2.908 -0.3775 -0.5147 -0.4144
 7322SOL    HW133599   3.427   1.518   2.832  0.0848 -0.7541 -0.2698
 7322SOL    HW233600   3.372   1.392   2.874  0.7975 -0.2797 -1.4415
 7323SOL     OW33601   2.434   4.307   8.479  0.4168  0.2198 -0.5378
 7323SOL    HW133602   2.527   4.312   8.460  0.4094  1.1224 -0.3013
 7323SOL    HW233603   2.387   4.275   8.402  3.1826  0.8950 -2.4693
 7324SOL     OW33604   2.042   4.121   4.714  0.1559  0.0031  0.3321
 7324SOL    HW133605   2.065   4.187   4.780 -2.1566 -1.2880  2.4795
 7324SOL    HW233606   2.037   4.180   4.639 -1.6208  0.7304  1.0084
 7325SOL     OW33607   3.238   1.115   7.399  0.3417  0.5106  0.0494
 7325SOL    HW133608   3.186   1.189   7.429  2.1721  0.8509  2.3906
 7325SOL    HW233609   3.213   1.105   7.307 -2.5958 -1.5839  1.0596
 7326SOL     OW33610   4.509   4.350   6.008 -0.5424  0.6532  0.2773
 7326SOL    HW133611   4.448   4.387   5.945  2.2814  0.1294 -2.7706
 7326SOL    HW233612   4.532   4.425   6.063 -0.7105 -0.7617  2.2929
 7327SOL     OW33613   3.645   1.176   7.163  0.0028  0.0645  0.5808
 7327SOL    HW133614   3.580   1.234   7.123  0.2857  0.2115  0.3374
 7327SOL    HW233615   3.728   1.216   7.136  0.5077 -1.9029 -0.7700
 7328SOL     OW33616   0.233   2.854  16.070 -0.3475 -0.1161  0.2432
 7328SOL    HW133617   0.147   2.857  16.028 -0.3143 -1.3663  0.0741
 7328SOL    HW233618   0.251   2.947  16.059  1.0161 -0.2024  1.6531
 7329SOL     OW33619   4.351   4.024  16.942 -0.0505  0.4570 -0.1581
 7329SOL    HW133620   4.350   3.995  16.851  1.9085  0.7340 -0.2825
 7329SOL    HW233621   4.389   3.945  16.981  1.4936  1.6309  0.7513
 7330SOL     OW33622   3.807   3.191   5.177  0.1380 -0.4486 -0.1042
 7330SOL    HW133623   3.873   3.143   5.227 -1.5054  1.1216  3.5756
 7330SOL    HW233624   3.730   3.187   5.234  0.0644 -0.7218 -0.2236
 7331SOL     OW33625   2.474   1.855   4.505  0.1455 -0.1563 -0.1238
 7331SOL    HW133626   2.524   1.801   4.444  0.1972 -0.3319  0.0743
 7331SOL    HW233627   2.451   1.797   4.578  0.2053 -0.5833 -0.4489
 7332SOL     OW33628   2.454   4.178  15.102  0.2057 -0.5922  0.4970
 7332SOL    HW133629   2.387   4.115  15.128 -0.3460  0.4195  1.4797
 7332SOL    HW233630   2.525   4.143  15.157  0.1446 -1.0369  0.2976
 7333SOL     OW33631   1.923   1.430   0.769  0.1863  0.3824 -0.0250
 7333SOL    HW133632   1.834   1.450   0.740  0.8559 -0.9382 -2.9815
 7333SOL    HW233633   1.903   1.393   0.855  0.6850 -0.0202 -0.0828
 7334SOL     OW33634   3.970   3.736  15.402 -0.0506 -0.4305  0.2353
 7334SOL    HW133635   4.060   3.715  15.381 -0.5259 -0.9050 -1.2872
 7334SOL    HW233636   3.965   3.830  15.386 -0.2712 -0.6777 -1.1255
 7335SOL     OW33637   4.367   0.143   6.547  0.3564 -0.2123  0.3213
 7335SOL    HW133638   4.303   0.203   6.507  0.3278 -1.2238 -1.1739
 7335SOL    HW233639   4.361   0.155   6.641  0.9113 -2.4037  0.6121
 7336SOL     OW33640   3.241   0.222   9.007  0.1186  0.8687  0.8110
 7336SOL    HW133641   3.194   0.223   8.924  0.4281  0.3845  0.6275
 7336SOL    HW233642   3.234   0.132   9.041 -2.0834  0.8030  0.1619
 7337SOL     OW33643   0.405   3.818   7.741  0.2331 -0.0299 -0.0512
 7337SOL    HW133644   0.318   3.780   7.725 -0.2349  1.6116 -1.3738
 7337SOL    HW233645   0.417   3.817   7.836  1.0742 -0.6834 -0.1613
 7338SOL     OW33646   0.187   3.028  10.745 -0.5154  0.6451  0.2044
 7338SOL    HW133647   0.236   3.077  10.811 -1.7265 -0.1922  1.7441
 7338SOL    HW233648   0.233   2.944  10.755 -1.7753  0.3341  3.6535
 7339SOL     OW33649   1.700   3.866   1.357 -0.4969 -0.6359  0.0166
 7339SOL    HW133650   1.667   3.831   1.440 -0.5862  0.6393  0.5268
 7339SOL    HW233651   1.699   3.960   1.379 -1.0806 -1.2918  2.8549
 7340SOL     OW33652   3.069   1.785   4.866 -0.2296 -0.1504 -0.3114
 7340SOL    HW133653   3.006   1.857   4.866 -0.2923 -0.2132  3.2075
 7340SOL    HW233654   3.144   1.818   4.816 -1.1518  0.2159 -1.4631
 7341SOL     OW33655   1.624   0.991   6.254 -0.0838  0.2167 -0.1970
 7341SOL    HW133656   1.681   1.065   6.234  0.6723 -0.1919  0.4360
 7341SOL    HW233657   1.681   0.916   6.238  0.0357  0.7173 -2.0245
 7342SOL     OW33658   0.996   4.431   9.056  0.4863  0.1646 -0.3602
 7342SOL    HW133659   0.986   4.339   9.031  0.0713 -0.4438  2.0209
 7342SOL    HW233660   1.088   4.433   9.083  0.4517  1.4237 -0.3780
 7343SOL     OW33661   2.835   2.534   3.402 -0.1309  0.1452  0.1347
 7343SOL    HW133662   2.759   2.508   3.455  0.1085 -0.2511  0.2819
 7343SOL    HW233663   2.834   2.469   3.332  2.7388  0.5079 -0.2406
 7344SOL     OW33664   1.585   3.782  12.029 -0.4091  0.3792  0.6742
 7344SOL    HW133665   1.632   3.720  11.973 -1.1645 -0.3610  0.8624
 7344SOL    HW233666   1.645   3.854  12.048 -0.9513  1.1211 -0.4086
 7345SOL     OW33667   1.795   2.976   2.824  0.1006 -0.3345 -0.6047
 7345SOL    HW133668   1.731   2.908   2.846  1.2535 -1.8567 -1.9014
 7345SOL    HW233669   1.761   3.048   2.877  0.8882 -0.4442  0.0340
 7346SOL     OW33670   1.168   0.665   8.376 -0.0085 -0.2653  0.5299
 7346SOL    HW133671   1.248   0.712   8.399 -0.7681  0.9918  0.6689
 7346SOL    HW233672   1.193   0.657   8.285 -1.7643 -0.8424  0.0944
 7347SOL     OW33673   1.423   1.588  11.780 -0.9625 -0.2756 -0.5163
 7347SOL    HW133674   1.390   1.613  11.867  0.6406 -1.7985  0.5325
 7347SOL    HW233675   1.504   1.538  11.788 -0.2949  0.8345 -0.1942
 7348SOL     OW33676   1.722   2.865   3.153 -0.3924  0.3775  0.8314
 7348SOL    HW133677   1.711   2.947   3.106 -2.1878 -0.1397  0.3703
 7348SOL    HW233678   1.688   2.801   3.090 -1.4507  1.3867  0.3928
 7349SOL     OW33679   0.189   3.114  16.903  0.3249  0.0527 -0.0422
 7349SOL    HW133680   0.254   3.184  16.903  0.3576  0.0202  0.8065
 7349SOL    HW233681   0.223   3.060  16.974 -3.9376 -0.2244  1.7950
 7350SOL     OW33682   3.639   2.793   3.786 -0.0193 -0.4975 -0.1340
 7350SOL    HW133683   3.641   2.844   3.867 -0.4713 -0.5671 -0.0791
 7350SOL    HW233684   3.617   2.865   3.727 -0.3332 -1.2724 -0.9593
 7351SOL     OW33685   0.959   3.757   2.973 -0.5716 -0.2239  0.6404
 7351SOL    HW133686   1.019   3.692   2.936 -1.3856 -1.0442  0.7527
 7351SOL    HW233687   1.013   3.812   3.030 -0.1494  0.5722 -0.5330
 7352SOL     OW33688   4.433   1.418   9.264  0.4695 -0.3896 -0.0624
 7352SOL    HW133689   4.356   1.409   9.320  2.0683 -1.8207  1.9059
 7352SOL    HW233690   4.426   1.340   9.209  0.2619 -1.3196  1.2961
 7353SOL     OW33691   3.417   2.372   4.639  0.0344  0.4244  0.1647
 7353SOL    HW133692   3.321   2.373   4.638  0.0191 -1.7538 -0.5173
 7353SOL    HW233693   3.455   2.350   4.724 -0.2528 -0.6854  0.0109
 7354SOL     OW33694   2.244   3.288   0.327  0.5763  0.2145 -0.1946
 7354SOL    HW133695   2.166   3.325   0.369  1.6872 -0.5149  2.4618
 7354SOL    HW233696   2.252   3.338   0.245  0.8200 -0.5033 -0.6085
 7355SOL     OW33697   1.490   1.871   2.732 -0.0818  1.3197 -0.1987
 7355SOL    HW133698   1.427   1.800   2.724  0.8002  0.5804 -0.5283
 7355SOL    HW233699   1.449   1.930   2.668 -1.1303 -0.5536 -1.2670
 7356SOL     OW33700   0.256   4.299   4.369  0.5226 -0.0136  0.1304
 7356SOL    HW133701   0.165   4.325   4.350 -0.1192 -2.4038 -0.1220
 7356SOL    HW233702   0.244   4.273   4.460  1.1992 -1.3692 -0.1680
 7357SOL     OW33703   1.131   2.537  13.843 -0.4612  0.3996 -0.0722
 7357SOL    HW133704   1.180   2.618  13.850 -1.0622  0.8743 -1.3637
 7357SOL    HW233705   1.189   2.467  13.875  0.9108  1.2566 -0.7156
 7358SOL     OW33706   3.763   3.503   1.529  0.3254  0.2509 -0.1245
 7358SOL    HW133707   3.834   3.460   1.481 -1.3044  0.8951 -3.1000
 7358SOL    HW233708   3.693   3.438   1.523 -0.2117  0.8256 -0.0357
 7359SOL     OW33709   0.287   1.621   9.165  0.5419  0.2436  0.4890
 7359SOL    HW133710   0.210   1.648   9.116 -0.2733  0.5827  1.9569
 7359SOL    HW233711   0.300   1.665   9.249 -1.3531 -0.7843  1.3168
 7360SOL     OW33712   3.791   3.356   2.090 -0.3012 -0.1760  0.5305
 7360SOL    HW133713   3.777   3.423   2.157  0.8326 -0.7870  1.3854
 7360SOL    HW233714   3.881   3.382   2.072 -0.1262 -0.5194  0.9038
 7361SOL     OW33715   1.407   1.181   3.763 -0.2082 -0.7524 -0.1968
 7361SOL    HW133716   1.403   1.105   3.705 -0.8235  0.2556 -1.4740
 7361SOL    HW233717   1.316   1.208   3.758  0.6680  1.9253 -1.9737
 7362SOL     OW33718   1.099   2.973   5.256  0.2291 -0.0060 -0.0198
 7362SOL    HW133719   1.163   2.945   5.321 -1.6571  0.5541  2.0824
 7362SOL    HW233720   1.138   2.927   5.181  0.1413 -0.1257  0.0077
 7363SOL     OW33721   2.551   1.190  10.487 -0.2314  0.6360 -0.0653
 7363SOL    HW133722   2.566   1.282  10.509 -0.1095  0.9673 -1.4938
 7363SOL    HW233723   2.642   1.165  10.500 -0.8219 -0.7589  1.3379
 7364SOL     OW33724   3.562   2.365   1.698 -0.5026 -0.1542  0.3344
 7364SOL    HW133725   3.484   2.390   1.648 -0.2190  0.0023 -0.0352
 7364SOL    HW233726   3.611   2.328   1.625  0.2187 -0.6452  1.0749
 7365SOL     OW33727   3.644   1.277   6.608 -0.8360 -0.0472  0.5400
 7365SOL    HW133728   3.666   1.266   6.701 -0.0550 -1.6018  0.1604
 7365SOL    HW233729   3.555   1.314   6.612  0.5271  3.3866 -0.7134
 7366SOL     OW33730   4.722   1.413   2.190  0.2374  0.4171  0.0825
 7366SOL    HW133731   0.007   1.322   2.171  1.1152  0.2137  2.0956
 7366SOL    HW233732   4.626   1.413   2.189  0.2430  0.5957 -1.0383
 7367SOL     OW33733   2.625   3.594  14.675 -0.2227 -0.6021  0.1319
 7367SOL    HW133734   2.579   3.647  14.611  0.4618 -1.8933 -1.4105
 7367SOL    HW233735   2.567   3.581  14.750  1.6066  1.1161  1.8643
 7368SOL     OW33736   4.415   1.593  13.899 -0.3792  0.7173 -0.2201
 7368SOL    HW133737   4.396   1.628  13.812 -0.5509  0.5039 -0.2689
 7368SOL    HW233738   4.383   1.666  13.952  0.3470  1.4269 -0.7564
 7369SOL     OW33739   1.414   1.313   6.598  0.7160  1.0199  0.1806
 7369SOL    HW133740   1.322   1.325   6.622  0.0462  0.4593 -2.0715
 7369SOL    HW233741   1.408   1.287   6.506  1.1682  1.5226  0.0101
 7370SOL     OW33742   4.666   3.107   4.480  0.0305 -0.1898  0.0527
 7370SOL    HW133743   4.647   3.084   4.571 -2.1249  0.6342 -0.1891
 7370SOL    HW233744   4.594   3.169   4.473 -1.5342 -1.7458  2.4177
 7371SOL     OW33745   1.349   0.371   8.140 -0.6114 -0.2565  0.2144
 7371SOL    HW133746   1.283   0.303   8.131 -1.1100  0.0967  1.2270
 7371SOL    HW233747   1.425   0.326   8.104 -0.3654  1.2543 -1.1607
 7372SOL     OW33748   3.656   0.598   3.812 -0.2396 -0.0640 -0.2518
 7372SOL    HW133749   3.743   0.614   3.849 -0.0313 -2.1202  0.1353
 7372SOL    HW233750   3.605   0.599   3.893  2.6415  1.5251  1.5321
 7373SOL     OW33751   1.893   4.144   3.321 -0.5730  0.4424  0.1273
 7373SOL    HW133752   1.885   4.071   3.260 -0.5764 -0.5598  1.3416
 7373SOL    HW233753   1.984   4.169   3.310 -0.1405 -1.6116 -0.9179
 7374SOL     OW33754   3.858   2.601   8.821  0.0966  0.5273  0.1741
 7374SOL    HW133755   3.906   2.679   8.794 -2.2294  1.4576 -1.2481
 7374SOL    HW233756   3.866   2.598   8.916  0.2379  1.0873  0.1805
 7375SOL     OW33757   3.292   3.929   3.963 -0.4538 -0.0420  0.1044
 7375SOL    HW133758   3.383   3.914   3.938 -0.6755  1.1570 -1.3749
 7375SOL    HW233759   3.293   4.025   3.960 -1.4306  0.1029  4.0194
 7376SOL     OW33760   2.020   2.708   1.512 -0.4010 -0.6787  0.0752
 7376SOL    HW133761   1.960   2.636   1.530 -2.5951  1.9454  3.1849
 7376SOL    HW233762   1.953   2.775   1.506 -0.8433 -1.0276  1.0698
 7377SOL     OW33763   2.938   3.800  10.176  0.4575 -0.0651 -0.1001
 7377SOL    HW133764   2.915   3.854  10.251 -1.3702 -1.5874  0.4153
 7377SOL    HW233765   2.857   3.804  10.126  2.6883 -0.5556 -3.7345
 7378SOL     OW33766   4.361   3.934  15.417  0.0975 -0.3689 -0.3689
 7378SOL    HW133767   4.316   3.868  15.363  0.4008 -1.6748  0.9752
 7378SOL    HW233768   4.307   3.937  15.496  1.5163 -0.5512  0.6063
 7379SOL     OW33769   0.442   2.391   8.063  0.6470  0.0286 -0.6489
 7379SOL    HW133770   0.444   2.474   8.015 -0.3441  0.6345  0.3846
 7379SOL    HW233771   0.407   2.341   7.989  0.1988 -2.0592  0.9846
 7380SOL     OW33772   4.505   0.459   6.547 -0.0805 -0.5669 -0.0228
 7380SOL    HW133773   4.476   0.448   6.456  1.4731 -0.8868 -0.4677
 7380SOL    HW233774   4.572   0.392   6.554 -0.3136 -0.6216  1.6595
 7381SOL     OW33775   3.779   0.796   5.465  0.3762  0.0622  1.1197
 7381SOL    HW133776   3.719   0.787   5.391  0.9993  0.0387  0.6160
 7381SOL    HW233777   3.860   0.757   5.432  0.1843  0.3422  0.3195
 7382SOL     OW33778   0.890   0.044   6.029  0.7689 -0.3028 -0.1350
 7382SOL    HW133779   0.944   4.729   6.087  1.7641 -0.2036 -0.9520
 7382SOL    HW233780   0.915   0.019   5.940  0.3748 -0.3396 -0.2376
 7383SOL     OW33781   1.975   2.880   8.430 -0.4605 -0.4581  0.3168
 7383SOL    HW133782   1.932   2.923   8.504 -0.0293  0.8404 -0.1885
 7383SOL    HW233783   1.989   2.958   8.376  0.9993 -1.6576 -1.0182
 7384SOL     OW33784   3.328   3.973  11.034  0.4867  0.5517 -0.5888
 7384SOL    HW133785   3.413   3.980  10.990  1.6830  0.0964  1.6661
 7384SOL    HW233786   3.329   4.046  11.096 -2.0325  0.6409 -0.6503
 7385SOL     OW33787   3.176   4.309   2.369  0.5919 -0.5650  0.2213
 7385SOL    HW133788   3.127   4.271   2.297  0.0394 -0.0264  0.3130
 7385SOL    HW233789   3.233   4.372   2.324  2.5731 -1.8026  0.9670
 7386SOL     OW33790   0.204   2.930  17.102 -0.3837 -0.0669 -0.3778
 7386SOL    HW133791   0.279   2.898  17.052 -0.7321 -1.4142 -0.0337
 7386SOL    HW233792   0.207   2.864  17.171 -1.9813  1.2695  0.9592
 7387SOL     OW33793   0.180   3.645   1.120 -0.2538 -0.3286  0.0362
 7387SOL    HW133794   0.195   3.617   1.211  1.7517  0.9594  0.0859
 7387SOL    HW233795   0.121   3.720   1.130 -0.4597 -0.3358 -1.2154
 7388SOL     OW33796   1.510   2.356   1.309  0.0313  0.3497  0.3340
 7388SOL    HW133797   1.451   2.281   1.320  1.3618 -0.9803 -1.5021
 7388SOL    HW233798   1.485   2.406   1.386  2.6931 -0.5440  1.7707
 7389SOL     OW33799   0.950   0.925   2.424 -0.3884 -0.5337 -0.2675
 7389SOL    HW133800   1.015   0.916   2.354  0.7722 -0.3285  0.7896
 7389SOL    HW233801   1.003   0.922   2.503  1.1655 -1.7631 -1.3603
 7390SOL     OW33802   3.830   0.310   7.261  0.3038  0.3594 -0.8463
 7390SOL    HW133803   3.767   0.254   7.216  1.6847 -0.7278 -1.4016
 7390SOL    HW233804   3.910   0.290   7.213  0.7121  1.7490 -0.7502
 7391SOL     OW33805   1.713   2.926   5.798 -1.0989 -0.4995 -0.4362
 7391SOL    HW133806   1.735   2.985   5.870 -1.9476  0.8726 -1.3029
 7391SOL    HW233807   1.791   2.872   5.797 -2.4582 -2.4515 -0.0250
 7392SOL     OW33808   3.836   0.706  11.082  0.4376  0.0130 -0.8725
 7392SOL    HW133809   3.930   0.719  11.100  0.1505  0.1728  0.5282
 7392SOL    HW233810   3.827   0.637  11.148 -0.5360 -1.1885 -2.2755
 7393SOL     OW33811   0.322   4.282   7.892  0.5852 -0.1229 -0.4105
 7393SOL    HW133812   0.283   4.321   7.814 -2.1116 -0.4091  0.7972
 7393SOL    HW233813   0.341   4.199   7.848 -0.2867 -0.4003 -0.2518
 7394SOL     OW33814   3.406   0.053  17.743  0.6017  0.0345  0.4878
 7394SOL    HW133815   3.469   0.021   0.058 -1.2368 -2.4365  1.0546
 7394SOL    HW233816   3.456   0.026  17.666  0.8826  0.7495  0.4205
 7395SOL     OW33817   3.897   3.060   3.623 -0.1596 -0.0350  0.0891
 7395SOL    HW133818   3.983   3.023   3.644 -1.2442 -2.0411  0.9255
 7395SOL    HW233819   3.898   3.136   3.681 -3.1288  0.1718 -0.1705
 7396SOL     OW33820   4.575   0.704   8.025 -0.0148  0.0539  0.7682
 7396SOL    HW133821   4.657   0.692   8.074 -0.1323  2.0004  1.4678
 7396SOL    HW233822   4.588   0.644   7.951 -2.6625  0.6570 -0.1617
 7397SOL     OW33823   2.376   3.693   6.421 -0.5445  0.3388  0.0566
 7397SOL    HW133824   2.426   3.774   6.422 -0.1875  0.1468 -1.4726
 7397SOL    HW233825   2.434   3.635   6.472 -1.4351  0.5408  1.2924
 7398SOL     OW33826   2.952   0.398  11.396 -0.2088  0.1229  0.4370
 7398SOL    HW133827   3.020   0.443  11.347  1.7234 -0.3643  2.7000
 7398SOL    HW233828   2.874   0.453  11.399 -0.5704 -0.5304  2.8319
 7399SOL     OW33829   4.218   3.142  12.265  0.0125  0.2571  0.2696
 7399SOL    HW133830   4.201   3.200  12.339  2.2562  0.0498  0.9269
 7399SOL    HW233831   4.253   3.065  12.309  1.1898  0.6818  0.0911
 7400SOL     OW33832   2.519   3.229  15.180  0.3927  0.1387  0.6101
 7400SOL    HW133833   2.443   3.279  15.149  0.4365 -0.4246 -0.3969
 7400SOL    HW233834   2.594   3.287  15.166  0.2366  0.1995  0.0367
 7401SOL     OW33835   1.029   1.069   4.147  0.0679  0.1042  0.3554
 7401SOL    HW133836   0.960   1.054   4.212  0.7401 -2.1094  0.5755
 7401SOL    HW233837   1.086   1.119   4.205  0.8896 -2.0461  1.4033
 7402SOL     OW33838   2.629   3.750  17.650 -0.0446  0.3774 -0.4124
 7402SOL    HW133839   2.610   3.842  17.671  0.3219  0.4580 -0.4333
 7402SOL    HW233840   2.554   3.733  17.593 -1.9149  0.5747  1.9471
 7403SOL     OW33841   1.713   2.182   8.296 -0.0626 -0.2970 -0.3998
 7403SOL    HW133842   1.694   2.185   8.390  1.1365 -1.6984 -0.0999
 7403SOL    HW233843   1.809   2.191   8.300 -0.0248 -0.4594 -0.9193
 7404SOL     OW33844   3.906   0.597   2.660 -0.2557 -0.0063 -0.7200
 7404SOL    HW133845   3.854   0.678   2.660  1.0363  0.8234 -1.2250
 7404SOL    HW233846   3.887   0.575   2.569 -3.4625 -1.1582  0.2349
 7405SOL     OW33847   0.694   0.083   2.654  0.4351  0.0249  0.1403
 7405SOL    HW133848   0.698   0.159   2.712  1.5994  0.8768 -1.0538
 7405SOL    HW233849   0.692   0.123   2.567 -0.5665 -0.8464 -0.2315
 7406SOL     OW33850   2.188   1.891  17.629  0.1705 -0.1901  0.1938
 7406SOL    HW133851   2.243   1.903  17.707 -0.2358 -1.3165  0.6474
 7406SOL    HW233852   2.250   1.903  17.556 -2.3992 -0.5617 -2.0618
 7407SOL     OW33853   2.569   0.249   6.275 -0.3513  0.2452  0.7313
 7407SOL    HW133854   2.534   0.177   6.223 -0.4089  1.3046 -0.6934
 7407SOL    HW233855   2.628   0.203   6.335 -1.7325  0.1167  1.9901
 7408SOL     OW33856   1.482   4.225   2.771 -0.2212  0.0371 -0.0557
 7408SOL    HW133857   1.393   4.236   2.805 -0.4325 -1.2563 -0.2248
 7408SOL    HW233858   1.538   4.224   2.850 -0.3075 -2.4070 -0.0272
 7409SOL     OW33859   1.652   1.135   2.431 -0.9266 -0.1633  0.0449
 7409SOL    HW133860   1.639   1.156   2.524 -0.3922 -2.6934  0.7153
 7409SOL    HW233861   1.724   1.193   2.407  0.1726 -1.8908 -0.7968
 7410SOL     OW33862   2.477   3.309   0.883  0.5121  0.2158  0.2452
 7410SOL    HW133863   2.568   3.325   0.908  0.8021  0.0585 -0.7201
 7410SOL    HW233864   2.473   3.331   0.790  1.6837 -0.4289  0.0391
 7411SOL     OW33865   2.598   0.782   7.713  0.0137 -0.4015  0.2487
 7411SOL    HW133866   2.524   0.842   7.709  0.4551  0.2872  2.5633
 7411SOL    HW233867   2.649   0.823   7.783 -1.2666  0.6069  0.5909
 7412SOL     OW33868   1.241   1.335   9.043  0.0542 -0.2508  0.1380
 7412SOL    HW133869   1.164   1.288   9.010 -0.2741 -0.1055  0.7018
 7412SOL    HW233870   1.255   1.294   9.128 -2.9153  0.4903  0.9938
 7413SOL     OW33871   2.083   2.627  10.501 -0.7004  0.4622  0.0632
 7413SOL    HW133872   2.000   2.661  10.533 -1.2711 -0.1165 -0.8164
 7413SOL    HW233873   2.135   2.703  10.473  1.3463 -0.0541  2.4072
 7414SOL     OW33874   4.684   2.607  16.180  0.0677 -0.3857  0.8082
 7414SOL    HW133875   0.039   2.593  16.196  0.7486  3.1389 -0.0745
 7414SOL    HW233876   4.650   2.528  16.137 -2.3109  2.1140 -1.9222
 7415SOL     OW33877   3.803   1.885  16.862  0.0458 -0.0615 -0.4004
 7415SOL    HW133878   3.788   1.808  16.807  0.7883 -0.0744 -0.5836
 7415SOL    HW233879   3.851   1.852  16.938  0.7124  0.0888 -0.7493
 7416SOL     OW33880   2.823   1.641  13.545 -0.4703  0.0375  0.0931
 7416SOL    HW133881   2.840   1.711  13.482 -1.8865  0.2008 -0.1044
 7416SOL    HW233882   2.890   1.657  13.611 -1.1264 -0.1239  0.7985
 7417SOL     OW33883   4.251   3.171  16.102 -0.4142  0.6267  0.3724
 7417SOL    HW133884   4.205   3.200  16.023 -2.0914  0.1563  1.1827
 7417SOL    HW233885   4.295   3.254  16.121  3.1273 -1.1191 -0.1985
 7418SOL     OW33886   0.875   1.269   9.062 -0.2471  0.3631  0.3160
 7418SOL    HW133887   0.848   1.279   9.153 -0.4914 -0.8638  0.3811
 7418SOL    HW233888   0.797   1.223   9.033  0.2482  0.3527 -1.0093
 7419SOL     OW33889   2.320   1.187   4.806 -0.6458 -0.2773 -0.4618
 7419SOL    HW133890   2.386   1.249   4.836 -0.7406  0.2166 -1.2678
 7419SOL    HW233891   2.262   1.245   4.757  0.2613  0.4159 -0.7169
 7420SOL     OW33892   3.114   4.377   8.827  0.1119  0.7736 -0.0341
 7420SOL    HW133893   3.164   4.337   8.756 -0.6949 -0.4471  0.0746
 7420SOL    HW233894   3.172   4.421   8.889 -0.3597  1.2087  0.0978
 7421SOL     OW33895   1.429   3.234   8.454  0.4092  0.2035 -0.3249
 7421SOL    HW133896   1.482   3.311   8.435 -1.2515  1.4925  0.2770
 7421SOL    HW233897   1.430   3.241   8.549 -0.1748 -1.4830 -0.1873
 7422SOL     OW33898   2.843   0.113   8.310 -0.6689  0.4212  0.2931
 7422SOL    HW133899   2.801   0.050   8.251 -1.5980 -0.6487  2.1122
 7422SOL    HW233900   2.767   0.138   8.362  0.3535  1.4336  1.2972
 7423SOL     OW33901   4.428   2.565   5.461  0.4647  0.1443  0.0630
 7423SOL    HW133902   4.445   2.659   5.466  0.3744  0.1384  0.4377
 7423SOL    HW233903   4.514   2.525   5.453  0.3830 -0.0770  0.3012
 7424SOL     OW33904   4.173   4.269   1.710 -0.2873  0.0211 -0.1970
 7424SOL    HW133905   4.089   4.223   1.703  0.1483 -0.4990 -1.9342
 7424SOL    HW233906   4.159   4.353   1.753 -2.0438 -0.0660 -0.6058
 7425SOL     OW33907   0.228   4.469   5.233 -0.1385 -0.1812 -0.4499
 7425SOL    HW133908   0.139   4.466   5.196 -1.0441  2.0080  1.5805
 7425SOL    HW233909   0.270   4.447   5.149  1.9826 -1.8598  1.0478
 7426SOL     OW33910   3.677   2.471   5.349 -0.4477 -0.1691 -0.4223
 7426SOL    HW133911   3.698   2.415   5.424  0.3690  2.1923  1.0978
 7426SOL    HW233912   3.582   2.474   5.351 -0.4851 -1.4513 -0.4704
 7427SOL     OW33913   0.445   3.771  16.231 -0.0635 -0.1206  0.1316
 7427SOL    HW133914   0.456   3.684  16.193  2.2448  0.3152 -0.1525
 7427SOL    HW233915   0.354   3.786  16.204 -0.3963 -1.9412  0.2534
 7428SOL     OW33916   1.801   3.295   0.307  0.2232  0.2302 -0.3160
 7428SOL    HW133917   1.762   3.334   0.228  0.1484  0.6413 -0.0756
 7428SOL    HW233918   1.821   3.212   0.265 -0.8205 -0.2889  0.2297
 7429SOL     OW33919   1.246   4.011   7.123  0.3274  0.2235  0.6023
 7429SOL    HW133920   1.192   3.931   7.118  1.5254 -0.4382 -2.0498
 7429SOL    HW233921   1.332   3.977   7.097 -0.2993 -0.5389 -0.4875
 7430SOL     OW33922   0.373   3.340   3.435  0.2535  0.2420 -0.7102
 7430SOL    HW133923   0.304   3.402   3.458  1.5923  1.6943 -0.5323
 7430SOL    HW233924   0.318   3.263   3.421 -0.9037  0.9078  0.1817
 7431SOL     OW33925   0.074   1.466  14.054 -0.6885  0.3875 -0.0264
 7431SOL    HW133926   0.133   1.447  14.127  0.3248 -1.4237 -1.3232
 7431SOL    HW233927   0.001   1.405  14.066 -0.2693 -0.2008 -0.4200
 7432SOL     OW33928   0.991   4.486   6.106 -0.3746  0.2711  0.5631
 7432SOL    HW133929   0.941   4.414   6.066 -1.7567  0.8391  1.2505
 7432SOL    HW233930   1.082   4.465   6.086 -0.7796 -0.0734 -0.9781
 7433SOL     OW33931   3.078   2.773   3.227 -0.0347 -0.4514 -0.1757
 7433SOL    HW133932   3.129   2.693   3.214 -0.2598 -0.6697  0.2844
 7433SOL    HW233933   3.146   2.839   3.238 -1.5474  1.5515 -2.8832
 7434SOL     OW33934   3.779   3.660   4.840  0.4506 -0.4344  0.3264
 7434SOL    HW133935   3.773   3.618   4.926 -0.2825 -1.7384 -0.3761
 7434SOL    HW233936   3.763   3.753   4.855  1.0294 -0.0082 -1.7510
 7435SOL     OW33937   0.386   3.480   2.780 -0.1950 -0.4463  0.7016
 7435SOL    HW133938   0.454   3.420   2.812 -0.1067 -1.3674 -1.1683
 7435SOL    HW233939   0.304   3.434   2.794 -0.5761  0.0766  0.1918
 7436SOL     OW33940   4.451   1.263  17.583  0.7462 -0.3799  0.4444
 7436SOL    HW133941   4.380   1.324  17.605 -1.2882 -3.2588  1.8329
 7436SOL    HW233942   4.437   1.194  17.648  0.3627 -1.3462 -0.6784
 7437SOL     OW33943   0.196   1.886   1.126 -0.2843  0.6114 -0.5072
 7437SOL    HW133944   0.198   1.820   1.196 -1.1632  0.7391 -0.3641
 7437SOL    HW233945   0.219   1.837   1.047 -0.7013 -0.9828  0.3486
 7438SOL     OW33946   0.413   4.645   2.767  0.9528 -0.1688  0.0270
 7438SOL    HW133947   0.368   4.632   2.851  0.3592  0.7179 -0.1550
 7438SOL    HW233948   0.381   4.727   2.730  1.6067 -0.6480 -1.6026
 7439SOL     OW33949   2.254   2.171   0.495  0.0996  0.0657 -0.1734
 7439SOL    HW133950   2.260   2.233   0.568 -1.4732 -0.2500  0.2225
 7439SOL    HW233951   2.287   2.098   0.547 -2.1631 -0.1579  0.9449
 7440SOL     OW33952   4.429   2.099   2.708  0.6797 -0.1697  0.4878
 7440SOL    HW133953   4.397   2.185   2.736 -0.3411 -0.7861  1.1944
 7440SOL    HW233954   4.439   2.112   2.614 -0.1032  0.3407  0.4749
 7441SOL     OW33955   2.994   3.850   0.811  0.0333 -0.4141 -0.7186
 7441SOL    HW133956   2.944   3.789   0.755  0.1655 -2.1070  0.9984
 7441SOL    HW233957   3.067   3.805   0.854 -0.2276 -1.3554 -1.2544
 7442SOL     OW33958   2.376   0.032   4.249 -0.1275 -0.6628 -0.4936
 7442SOL    HW133959   2.374   4.680   4.215 -0.8921 -1.0631  0.5777
 7442SOL    HW233960   2.321   0.023   4.327  1.1697 -0.0621  0.4913
 7443SOL     OW33961   4.175   3.594   6.286  0.9044  0.3523  0.2185
 7443SOL    HW133962   4.217   3.557   6.363  2.7659  1.2486 -0.3696
 7443SOL    HW233963   4.128   3.520   6.246  1.0529  0.1175  0.4809
 7444SOL     OW33964   2.953   3.536  11.990 -0.2408  0.1475  0.4608
 7444SOL    HW133965   2.904   3.618  11.985  0.0838  0.3397  0.4079
 7444SOL    HW233966   2.882   3.472  11.986 -0.4690  0.4708 -0.7350
 7445SOL     OW33967   1.259   2.872   3.914  0.2933 -0.1272  0.4649
 7445SOL    HW133968   1.174   2.855   3.954  0.1899 -0.0357  0.2878
 7445SOL    HW233969   1.267   2.789   3.868  1.4958 -0.2622  0.9440
 7446SOL     OW33970   1.513   2.760   5.956  0.1358 -0.6852  0.0026
 7446SOL    HW133971   1.589   2.787   5.905 -0.5495 -1.8517 -1.6359
 7446SOL    HW233972   1.515   2.827   6.025 -1.1179 -1.3894  0.7308
 7447SOL     OW33973   4.181   0.332   8.205 -0.4193 -0.0122 -0.1075
 7447SOL    HW133974   4.139   0.313   8.121 -0.7726  0.1791  0.0283
 7447SOL    HW233975   4.247   0.396   8.178  0.7887 -0.3387  2.1179
 7448SOL     OW33976   0.999   2.064  17.367  0.0955  0.5396 -0.0094
 7448SOL    HW133977   1.020   2.138  17.424  2.0984  0.5674 -0.7555
 7448SOL    HW233978   1.052   2.088  17.290  1.3707 -0.9147  0.4143
 7449SOL     OW33979   3.884   4.269  13.350  0.0782  0.0464  0.3898
 7449SOL    HW133980   3.978   4.283  13.338 -0.1034 -0.7367 -1.9349
 7449SOL    HW233981   3.880   4.246  13.443 -0.1347  1.2579  0.6810
 7450SOL     OW33982   0.067   0.611   7.362 -0.0852 -0.0972 -0.3183
 7450SOL    HW133983   0.001   0.542   7.372 -0.4399 -0.2670 -3.7670
 7450SOL    HW233984   0.121   0.570   7.294 -1.1711  1.8980 -2.4044
 7451SOL     OW33985   0.773   0.689   2.566  0.4189  0.2537  0.4028
 7451SOL    HW133986   0.743   0.691   2.657  1.5468 -1.8540  0.8123
 7451SOL    HW233987   0.848   0.749   2.573  1.6893 -0.8371 -3.8610
 7452SOL     OW33988   1.331   3.177  15.591 -0.5153  0.1525 -0.1058
 7452SOL    HW133989   1.374   3.260  15.573 -0.0216  0.4958  2.7141
 7452SOL    HW233990   1.392   3.137  15.653  0.4875  0.6423 -0.7779
 7453SOL     OW33991   0.625   1.155   4.649  0.0388 -0.3146 -0.5011
 7453SOL    HW133992   0.584   1.113   4.725  1.3685  0.3662  0.5946
 7453SOL    HW233993   0.647   1.079   4.594 -0.2736  0.4131 -1.6330
 7454SOL     OW33994   1.166   2.877   1.240 -0.0312 -0.8572  0.2103
 7454SOL    HW133995   1.084   2.914   1.208 -0.9525 -1.6092  1.7226
 7454SOL    HW233996   1.150   2.811   1.308 -2.9527 -0.0729  0.2741
 7455SOL     OW33997   3.214   1.586   8.006 -0.3045 -0.3032 -0.0950
 7455SOL    HW133998   3.228   1.608   8.098  2.2486 -2.7471  0.0761
 7455SOL    HW233999   3.122   1.564   8.022 -0.2673  0.6787  1.3836
 7456SOL     OW34000   2.447   2.159   2.193 -0.9060 -0.0577 -0.2379
 7456SOL    HW134001   2.353   2.153   2.175 -0.8474  1.9187 -1.2545
 7456SOL    HW234002   2.436   2.245   2.233  1.9675 -0.6158  1.7860
 7457SOL     OW34003   2.142   3.243  10.364 -0.5546  0.0111  0.1376
 7457SOL    HW134004   2.117   3.156  10.395  1.2501 -0.6280 -0.2115
 7457SOL    HW234005   2.128   3.221  10.272  0.4991 -0.3369  0.0536
 7458SOL     OW34006   0.884   4.332   5.170 -0.2429 -0.0207  0.1245
 7458SOL    HW134007   0.934   4.303   5.094 -0.5896  0.5467 -0.3177
 7458SOL    HW234008   0.798   4.350   5.131 -0.0157 -0.8718 -0.7933
 7459SOL     OW34009   3.256   1.579   1.065  0.5572  0.3345 -0.1200
 7459SOL    HW134010   3.185   1.604   1.123  1.5178  1.5296  0.5520
 7459SOL    HW234011   3.254   1.487   1.089 -2.9187  0.2970 -0.5650
 7460SOL     OW34012   1.440   1.237   7.215  0.7162 -0.6743  0.4189
 7460SOL    HW134013   1.510   1.293   7.250  0.7463 -0.0276 -0.6800
 7460SOL    HW234014   1.386   1.309   7.182 -0.0039 -1.9683 -1.1984
 7461SOL     OW34015   0.071   0.267   1.385 -0.1847 -0.6295  1.3844
 7461SOL    HW134016   0.057   0.235   1.475  0.8006 -0.2718  1.6720
 7461SOL    HW234017   0.084   0.189   1.331  1.8562  1.2541 -0.8018
 7462SOL     OW34018   4.374   3.827   6.423  0.2228 -0.1622 -0.8027
 7462SOL    HW134019   4.348   3.739   6.449  1.0898 -0.1788  0.0376
 7462SOL    HW234020   4.307   3.874   6.473  0.1066 -0.2929 -0.8371
 7463SOL     OW34021   1.829   3.024   8.613 -0.6900  0.0163 -0.2591
 7463SOL    HW134022   1.762   2.959   8.635 -0.3220 -0.2765 -0.0198
 7463SOL    HW234023   1.787   3.100   8.655  0.1484  0.6355 -0.5433
 7464SOL     OW34024   3.458   1.878   8.824 -0.5389 -0.4850  0.0595
 7464SOL    HW134025   3.409   1.959   8.842  0.8652  0.4900 -0.5394
 7464SOL    HW234026   3.476   1.893   8.732  2.2938 -0.0431  0.6837
 7465SOL     OW34027   2.902   2.144   1.626 -0.4231  0.3165  0.3161
 7465SOL    HW134028   2.953   2.216   1.589 -1.3917  0.7516 -0.1727
 7465SOL    HW234029   2.872   2.181   1.709 -0.8545 -2.3848  1.3957
 7466SOL     OW34030   4.573   3.637  12.460 -0.1658  0.6386  0.7604
 7466SOL    HW134031   4.532   3.698  12.521 -0.5306  0.5642  0.5863
 7466SOL    HW234032   4.632   3.694  12.411  1.2487  1.1502  3.0770
 7467SOL     OW34033   3.289   3.390  17.670  0.1791  0.4585  0.5369
 7467SOL    HW134034   3.375   3.347  17.667 -0.7082 -1.4965  2.6011
 7467SOL    HW234035   3.268   3.378  17.578  0.3150 -1.0099  0.6896
 7468SOL     OW34036   0.552   0.608   7.422  0.8976  0.1061 -0.2099
 7468SOL    HW134037   0.491   0.539   7.398  1.4390  0.1233 -1.6364
 7468SOL    HW234038   0.507   0.691   7.401  1.0383  0.3421  0.4226
 7469SOL     OW34039   2.442   0.507   2.297 -0.1497 -0.0984  0.1961
 7469SOL    HW134040   2.492   0.541   2.372  1.3568  0.0209 -0.8740
 7469SOL    HW234041   2.387   0.586   2.295 -1.5866 -1.0849  0.2684
 7470SOL     OW34042   1.080   2.301   1.634 -0.8812  0.0668  0.7100
 7470SOL    HW134043   1.112   2.383   1.672 -0.6878  0.4847 -0.3624
 7470SOL    HW234044   1.098   2.315   1.541  0.7186  1.2839  1.1971
 7471SOL     OW34045   3.515   1.572   4.303 -0.2916  0.3633 -0.0116
 7471SOL    HW134046   3.609   1.562   4.321 -0.5387  1.0973  1.6369
 7471SOL    HW234047   3.524   1.589   4.209 -0.7597  0.9096  0.0482
 7472SOL     OW34048   0.962   4.074  10.483  0.7970  0.2264 -0.4750
 7472SOL    HW134049   0.927   4.146  10.534 -0.3551 -0.8047  0.1834
 7472SOL    HW234050   1.055   4.072  10.506  1.4430  0.9361 -3.0795
 7473SOL     OW34051   4.684   0.002  10.504  0.4282  0.2618 -0.0310
 7473SOL    HW134052   4.625   0.076  10.520  0.7697  0.4498  0.3446
 7473SOL    HW234053   4.622   4.668  10.516  0.4390 -0.2890 -3.2442
 7474SOL     OW34054   4.446   0.504   5.033  0.0008 -0.4225 -0.0308
 7474SOL    HW134055   4.361   0.546   5.045  0.5602 -0.4543  3.9457
 7474SOL    HW234056   4.431   0.417   5.071 -0.3189 -0.8315 -1.0756
 7475SOL     OW34057   2.949   0.303  14.190 -0.2336  0.0691 -0.1633
 7475SOL    HW134058   2.909   0.299  14.277 -3.6127  1.3875 -1.6492
 7475SOL    HW234059   2.957   0.212  14.160  0.7500  0.0122  0.2967
 7476SOL     OW34060   0.915   1.365  13.415  0.1172 -0.0644 -0.1632
 7476SOL    HW134061   0.868   1.347  13.334  0.7624 -0.0900 -0.5325
 7476SOL    HW234062   0.997   1.392  13.373 -1.1986  1.6534 -1.5817
 7477SOL     OW34063   4.298   4.126   5.353 -0.0768  0.4931  0.2403
 7477SOL    HW134064   4.256   4.209   5.375  0.5837  0.8997 -0.0388
 7477SOL    HW234065   4.307   4.128   5.257  1.6260 -2.6082  0.3133
 7478SOL     OW34066   3.726   0.204   6.559 -0.0619 -0.4514  0.9532
 7478SOL    HW134067   3.724   0.205   6.655  1.1891 -1.2262  0.9847
 7478SOL    HW234068   3.818   0.186   6.539 -1.2402 -2.4960 -2.5699
 7479SOL     OW34069   0.293   0.630   5.791  0.2139 -0.6575  0.0350
 7479SOL    HW134070   0.385   0.605   5.802  0.3879 -0.0861 -0.1359
 7479SOL    HW234071   0.293   0.632   5.695  1.6524  1.4593  0.0874
 7480SOL     OW34072   2.616   1.541   8.164 -0.7710 -0.7363  0.7027
 7480SOL    HW134073   2.547   1.507   8.220 -2.1440 -0.4054 -0.7967
 7480SOL    HW234074   2.660   1.602   8.224  2.7878 -1.5324 -1.0714
 7481SOL     OW34075   4.036   4.498   2.717 -0.1901  0.3672 -0.1138
 7481SOL    HW134076   4.049   4.409   2.751  0.8440  0.9343  0.9477
 7481SOL    HW234077   3.955   4.483   2.669  0.2451 -0.9887 -0.4364
 7482SOL     OW34078   2.337   0.736  12.457 -0.6902  0.1119 -0.1616
 7482SOL    HW134079   2.390   0.678  12.402  0.6273  2.3568 -1.2568
 7482SOL    HW234080   2.314   0.813  12.404 -0.3695 -1.5232 -2.7143
 7483SOL     OW34081   1.763   1.349   9.232  0.0034 -0.3606  0.0897
 7483SOL    HW134082   1.721   1.392   9.157 -0.1215 -2.3245 -0.9728
 7483SOL    HW234083   1.828   1.414   9.258 -0.3751 -0.1874  0.6090
 7484SOL     OW34084   2.695   1.259   6.707  0.5680 -0.1226 -0.4961
 7484SOL    HW134085   2.619   1.312   6.681  0.8676  0.7321  0.3623
 7484SOL    HW234086   2.719   1.283   6.796  0.2567  1.6942 -0.8859
 7485SOL     OW34087   0.778   1.551   8.204  0.3353  0.5098  0.1084
 7485SOL    HW134088   0.722   1.507   8.140  0.2516  1.3207 -0.3725
 7485SOL    HW234089   0.797   1.481   8.267 -0.8183  1.0810  1.0902
 7486SOL     OW34090   1.417   1.174   5.273  0.5960 -0.2202 -0.1085
 7486SOL    HW134091   1.363   1.116   5.219  0.4060  1.0821 -1.3032
 7486SOL    HW234092   1.454   1.228   5.204  1.0844 -0.4280 -0.0125
 7487SOL     OW34093   4.221   1.550   3.858  0.5441 -0.2394  0.2415
 7487SOL    HW134094   4.180   1.636   3.867 -0.9126 -0.9950  0.7718
 7487SOL    HW234095   4.315   1.571   3.860  0.3465  0.4984  1.6626
 7488SOL     OW34096   2.998   2.714   1.166 -0.5023  0.1647  0.0990
 7488SOL    HW134097   2.989   2.772   1.242 -3.9353  1.1993 -1.0863
 7488SOL    HW234098   3.016   2.767   1.089 -1.3873  1.2536  0.6351
 7489SOL     OW34099   1.789   0.341   1.994  0.4240 -0.0977  0.3768
 7489SOL    HW134100   1.841   0.398   1.937 -0.4398  0.9889  0.6745
 7489SOL    HW234101   1.704   0.382   1.973 -0.8983 -1.1319  3.7404
 7490SOL     OW34102   3.713   3.290   7.571 -0.0084 -0.2723  0.5346
 7490SOL    HW134103   3.667   3.309   7.653  0.0003  0.4357  0.3772
 7490SOL    HW234104   3.650   3.226   7.538 -0.2184  1.0135 -1.5703
 7491SOL     OW34105   0.539   2.938   3.482  0.5589 -0.1277 -0.3221
 7491SOL    HW134106   0.557   2.860   3.428 -2.9428 -3.0328  2.7171
 7491SOL    HW234107   0.501   3.003   3.423  0.0119 -1.9301 -1.9491
 7492SOL     OW34108   2.607   1.036  14.164  0.2483 -0.2068  0.1041
 7492SOL    HW134109   2.512   1.027  14.168  0.3491 -0.6070  1.5718
 7492SOL    HW234110   2.635   0.987  14.241  0.7992  0.3829  0.2815
 7493SOL     OW34111   1.681   3.290  12.645 -0.0159  0.2580 -0.1819
 7493SOL    HW134112   1.656   3.209  12.601  2.4344 -1.0646  0.8978
 7493SOL    HW234113   1.653   3.350  12.575  0.1450 -0.0548 -0.5119
 7494SOL     OW34114   0.814   3.062   6.002 -0.2911 -0.5907 -0.0079
 7494SOL    HW134115   0.836   2.969   6.009  2.0581 -0.0154  0.5080
 7494SOL    HW234116   0.870   3.104   6.068 -0.0321 -0.1905 -0.4783
 7495SOL     OW34117   4.607   1.508  15.362 -0.1656  0.0754 -0.2231
 7495SOL    HW134118   4.516   1.511  15.389 -0.4414  1.2085 -1.2632
 7495SOL    HW234119   4.600   1.415  15.339 -1.1519  0.3093 -0.8776
 7496SOL     OW34120   1.992   3.972   7.464 -0.1475 -0.1700 -0.5065
 7496SOL    HW134121   1.912   3.976   7.411  0.8795  0.1884 -2.0384
 7496SOL    HW234122   1.985   3.889   7.511  0.8127 -0.6151 -1.1634
 7497SOL     OW34123   4.057   0.041   8.989  0.1521  0.2967 -0.5666
 7497SOL    HW134124   4.054   0.109   8.921 -1.2675 -1.9866 -2.7932
 7497SOL    HW234125   4.134   4.733   8.955 -0.8100 -0.7351 -1.3535
 7498SOL     OW34126   2.436   0.021   6.100  0.7454  0.0013 -0.1896
 7498SOL    HW134127   2.350   4.719   6.112  1.0025 -0.2764  0.7640
 7498SOL    HW234128   2.482   4.680   6.132 -0.0437 -0.2481  0.3173
 7499SOL     OW34129   3.533   0.208   4.081  0.1271  0.0266 -0.4795
 7499SOL    HW134130   3.598   0.180   4.017  0.8556  0.6779 -0.0305
 7499SOL    HW234131   3.457   0.217   4.024  0.8351  2.8573 -0.9943
 7500SOL     OW34132   1.385   3.998   4.660  0.5119 -0.1993  0.0534
 7500SOL    HW134133   1.328   3.972   4.587 -1.5468 -0.7414  1.8600
 7500SOL    HW234134   1.453   3.931   4.662  3.7189  3.1162  0.5199
 7501SOL     OW34135   4.063   3.912   5.372 -0.2605  0.4518 -0.0024
 7501SOL    HW134136   4.149   3.935   5.336  0.2104 -1.8795 -0.4174
 7501SOL    HW234137   4.085   3.905   5.465  0.7095 -2.2823 -0.4090
 7502SOL     OW34138   2.853   3.099   3.261  0.4354 -0.2018  0.2335
 7502SOL    HW134139   2.866   3.168   3.326  2.3481 -0.0695 -0.2997
 7502SOL    HW234140   2.931   3.045   3.271  0.6698  0.4573  1.9212
 7503SOL     OW34141   1.979   0.619   8.538  0.5635  0.3963  0.1595
 7503SOL    HW134142   2.021   0.701   8.511 -0.8385  0.8609 -0.5729
 7503SOL    HW234143   1.890   0.612   8.505 -0.0912  1.3441  1.7404
 7504SOL     OW34144   0.608   1.184  10.658  0.1867  0.4850  0.4227
 7504SOL    HW134145   0.630   1.275  10.644 -0.2884  0.4209 -0.7184
 7504SOL    HW234146   0.625   1.173  10.752 -1.2580  1.3472  0.7919
 7505SOL     OW34147   1.195   2.491   7.190 -0.0916  0.1562  0.4333
 7505SOL    HW134148   1.218   2.581   7.214  1.8045  0.0270 -0.9722
 7505SOL    HW234149   1.161   2.453   7.271  3.2501 -1.7565  0.9342
 7506SOL     OW34150   2.952   4.474   8.055 -0.3047 -0.3997  0.2331
 7506SOL    HW134151   2.997   4.558   8.045 -2.9074  1.0291  0.4955
 7506SOL    HW234152   2.945   4.442   7.965  2.2075 -1.3655  0.3822
 7507SOL     OW34153   3.662   4.539  16.024  0.2006 -0.0797 -0.4642
 7507SOL    HW134154   3.718   4.555  15.949 -0.1589  0.0959 -0.6941
 7507SOL    HW234155   3.693   4.613  16.077  0.5181  0.3651 -1.2663
 7508SOL     OW34156   2.188   1.934   5.115  0.1450 -0.0874  0.1481
 7508SOL    HW134157   2.116   1.925   5.053  0.9193 -0.4143 -0.7170
 7508SOL    HW234158   2.262   1.955   5.058 -0.0598  0.7604  0.1902
 7509SOL     OW34159   1.761   1.015   3.936  0.3371  0.3270  0.4207
 7509SOL    HW134160   1.830   0.958   3.969 -0.3009 -0.7495 -0.0721
 7509SOL    HW234161   1.763   1.002   3.841 -1.0896 -1.7346  0.6744
 7510SOL     OW34162   0.177   4.214   5.907 -0.3655 -0.1368 -0.0053
 7510SOL    HW134163   0.186   4.159   5.985 -0.0875 -1.1000 -0.7116
 7510SOL    HW234164   0.259   4.264   5.900  0.3191 -1.4763 -1.4864
 7511SOL     OW34165   3.052   3.215   1.975  0.1744  0.1416  1.0015
 7511SOL    HW134166   3.124   3.276   1.956 -0.9013  1.5216  1.3359
 7511SOL    HW234167   3.072   3.202   2.068 -3.1795  0.2325  1.7168
 7512SOL     OW34168   1.383   3.406  13.416  0.3662  0.5742  0.1460
 7512SOL    HW134169   1.330   3.371  13.488 -3.2333  2.1985 -1.7206
 7512SOL    HW234170   1.433   3.331  13.384  0.2729  0.4296  0.3349
 7513SOL     OW34171   0.484   2.764   9.157  0.0198 -0.6180 -0.3926
 7513SOL    HW134172   0.437   2.801   9.082 -1.6624  0.5280  1.2518
 7513SOL    HW234173   0.548   2.706   9.113  0.1477  0.5925 -1.8098
 7514SOL     OW34174   1.556   2.595   7.721 -0.1334  0.1738 -0.1957
 7514SOL    HW134175   1.531   2.558   7.806  2.5007  0.7890  0.8499
 7514SOL    HW234176   1.492   2.544   7.673 -1.3595  0.6599  0.9187
 7515SOL     OW34177   2.493   2.300  11.106  0.3122 -0.7198  0.2531
 7515SOL    HW134178   2.535   2.380  11.075 -2.1170  0.2189 -0.6007
 7515SOL    HW234179   2.573   2.247  11.109 -0.0322 -1.2808 -0.3576
 7516SOL     OW34180   3.270   3.434   2.665  0.8127  0.4064  0.0155
 7516SOL    HW134181   3.363   3.432   2.645  1.1975 -0.6083  1.9540
 7516SOL    HW234182   3.254   3.525   2.691  1.6503  0.8432 -0.9898
 7517SOL     OW34183   0.428   1.105   5.735 -0.3327 -0.2625  0.4972
 7517SOL    HW134184   0.397   1.196   5.731 -0.7824 -0.3857  1.0322
 7517SOL    HW234185   0.482   1.099   5.657 -1.0487  2.2112 -0.2026
 7518SOL     OW34186   3.197   3.607   8.923  0.2727  0.4727  0.0806
 7518SOL    HW134187   3.168   3.559   9.001 -0.1912  2.3564  1.0790
 7518SOL    HW234188   3.139   3.682   8.940 -3.2410 -2.6058  1.5849
 7519SOL     OW34189   3.767   3.795   7.347 -0.2426 -0.4898  0.2588
 7519SOL    HW134190   3.753   3.824   7.437 -2.4891 -1.3750  0.1967
 7519SOL    HW234191   3.841   3.738   7.365 -0.0345 -0.1942  0.3236
 7520SOL     OW34192   4.062   0.483   4.650 -0.0059 -0.2258 -0.5261
 7520SOL    HW134193   3.985   0.496   4.594 -1.6370 -1.0122  1.5463
 7520SOL    HW234194   4.064   0.562   4.705 -0.0433  0.1662 -1.0856
 7521SOL     OW34195   0.586   4.313   2.965 -0.0047 -0.4044 -0.4497
 7521SOL    HW134196   0.616   4.227   2.996 -1.4538 -0.2876  1.2641
 7521SOL    HW234197   0.503   4.315   3.011  0.7021 -1.1172  0.8647
 7522SOL     OW34198   1.195   1.724  15.722 -0.0747  0.4751  0.3604
 7522SOL    HW134199   1.278   1.678  15.713  0.7710  1.7754  1.5390
 7522SOL    HW234200   1.139   1.647  15.717 -2.0122  2.0764 -2.4318
 7523SOL     OW34201   1.422   1.458   2.911  0.2078  1.1121 -0.2929
 7523SOL    HW134202   1.486   1.392   2.938 -1.7171 -1.1119 -1.2091
 7523SOL    HW234203   1.348   1.452   2.972 -0.6902 -1.5918 -1.6693
 7524SOL     OW34204   3.049   1.164  16.627 -0.0049  0.2311  0.7462
 7524SOL    HW134205   3.073   1.252  16.656 -0.9717  0.3636  1.1391
 7524SOL    HW234206   2.978   1.170  16.690 -0.3025 -2.0072  0.6072
 7525SOL     OW34207   1.979   4.516   8.453  0.0257 -0.6374 -0.1036
 7525SOL    HW134208   1.932   4.585   8.499 -0.4080 -0.1627 -1.2619
 7525SOL    HW234209   2.067   4.538   8.482 -1.1928  1.3409  2.0805
 7526SOL     OW34210   3.531   1.813  15.855  0.4702  0.3520  0.0947
 7526SOL    HW134211   3.452   1.760  15.862  0.3131  0.7220  1.1614
 7526SOL    HW234212   3.494   1.900  15.866 -0.4979  0.0481 -0.7979
 7527SOL     OW34213   2.486   2.784   5.419  0.8250 -0.0069 -0.2497
 7527SOL    HW134214   2.525   2.737   5.493 -1.9275  0.5176  1.5345
 7527SOL    HW234215   2.551   2.812   5.354 -1.3602  3.4092 -0.9271
 7528SOL     OW34216   2.207   2.242   1.063  0.2234  0.3225  0.0315
 7528SOL    HW134217   2.132   2.234   1.122 -0.1575 -0.7356 -0.5993
 7528SOL    HW234218   2.242   2.329   1.086  0.8790 -0.0895  0.5806
 7529SOL     OW34219   4.218   2.952   1.717  0.0397  0.2203  0.3619
 7529SOL    HW134220   4.186   2.895   1.787 -3.4645  0.9681 -0.6330
 7529SOL    HW234221   4.307   2.975   1.745 -0.2858 -0.2432  1.8016
 7530SOL     OW34222   4.241   0.966   4.134 -0.3621 -0.1820 -0.1679
 7530SOL    HW134223   4.259   0.876   4.162  2.2571  0.1571 -0.7530
 7530SOL    HW234224   4.145   0.961   4.126 -0.6121  0.9774  2.0896
 7531SOL     OW34225   3.083   2.126   9.916 -0.0442 -0.3465 -0.8401
 7531SOL    HW134226   3.045   2.192   9.857  2.3480  0.2290 -1.7358
 7531SOL    HW234227   3.056   2.043   9.878 -1.3384 -0.4752  0.3621
 7532SOL     OW34228   2.102   2.087   6.062  0.5203 -0.8617  0.0893
 7532SOL    HW134229   2.066   2.163   6.108 -1.9423 -1.1206 -1.3601
 7532SOL    HW234230   2.040   2.083   5.989  1.4818 -2.1862 -0.6379
 7533SOL     OW34231   3.754   3.771   7.631 -0.7486  0.5558  0.0136
 7533SOL    HW134232   3.771   3.808   7.717  1.1856 -0.4146  0.0383
 7533SOL    HW234233   3.692   3.699   7.643 -0.2932  0.0718 -0.5394
 7534SOL     OW34234   2.770   3.123   9.198 -0.4625 -0.3052  0.2498
 7534SOL    HW134235   2.824   3.048   9.175 -0.5020 -0.3227  0.2159
 7534SOL    HW234236   2.774   3.181   9.122  1.5129 -0.7133  0.0288
 7535SOL     OW34237   3.071   1.195   2.615  0.1636 -0.1694  0.7413
 7535SOL    HW134238   2.977   1.195   2.597 -0.4221  3.0287  3.7649
 7535SOL    HW234239   3.091   1.285   2.641  0.5865 -0.2877  0.8222
 7536SOL     OW34240   4.701   2.401   5.986  0.7365 -0.1966 -0.2308
 7536SOL    HW134241   4.711   2.358   5.901 -0.5918 -1.0260  0.0275
 7536SOL    HW234242   4.655   2.329   6.029 -2.7289  1.2464 -1.5429
 7537SOL     OW34243   2.812   2.211   4.479  0.4046  0.5623 -0.3792
 7537SOL    HW134244   2.729   2.248   4.449 -0.4831 -2.7467 -1.9989
 7537SOL    HW234245   2.854   2.193   4.395 -0.7732 -0.7641 -0.6807
 7538SOL     OW34246   0.239   2.980   2.178  0.7556  0.1181  0.2470
 7538SOL    HW134247   0.238   3.050   2.113  2.0098  2.6707  2.9676
 7538SOL    HW234248   0.193   3.022   2.250  1.6621  1.6090 -0.0491
 7539SOL     OW34249   0.037   2.971  15.355 -0.0502 -0.1783  0.1797
 7539SOL    HW134250   0.054   2.896  15.413 -0.5555  0.1686  0.7827
 7539SOL    HW234251   0.020   3.046  15.412 -0.3671  1.0793 -1.5896
 7540SOL     OW34252   2.563   3.107  11.940  0.5460 -0.0343 -0.2014
 7540SOL    HW134253   2.648   3.086  11.902  0.1331  0.6748 -1.4948
 7540SOL    HW234254   2.509   3.054  11.882  1.1364  0.4929 -1.2367
 7541SOL     OW34255   0.713   3.656  11.081  0.1263  0.3453  0.1018
 7541SOL    HW134256   0.629   3.641  11.038 -0.1125  0.0642  0.6679
 7541SOL    HW234257   0.700   3.750  11.097  0.6965  0.5624 -0.7616
 7542SOL     OW34258   2.969   1.285  13.919  0.0792 -0.6658 -0.6745
 7542SOL    HW134259   3.024   1.282  13.998  0.3006  0.4971 -0.7821
 7542SOL    HW234260   2.881   1.313  13.944  0.8345 -0.0910  1.3502
 7543SOL     OW34261   4.526   2.040   9.492 -0.3792  0.0771  0.0450
 7543SOL    HW134262   4.448   2.024   9.544  0.3462  0.8014  1.3343
 7543SOL    HW234263   4.508   2.102   9.420 -2.6316  0.2596  0.7618
 7544SOL     OW34264   3.470   1.572   3.971 -0.0877 -0.5253 -0.4544
 7544SOL    HW134265   3.394   1.605   3.924 -2.4015 -1.5783  2.5749
 7544SOL    HW234266   3.529   1.647   3.969 -1.8456  0.8400 -0.6043
 7545SOL     OW34267   0.294   3.752   5.132 -0.2416  0.2182  0.0654
 7545SOL    HW134268   0.266   3.820   5.070 -0.6538 -0.2360 -0.2509
 7545SOL    HW234269   0.358   3.710   5.075  1.0962 -0.7498  2.3235
 7546SOL     OW34270   3.603   1.218   5.678  0.1635  0.2641 -0.0371
 7546SOL    HW134271   3.679   1.161   5.668  0.4125  0.9754 -2.0945
 7546SOL    HW234272   3.628   1.269   5.601 -0.2317 -1.3658 -1.2609
 7547SOL     OW34273   2.553   0.547   6.252  0.3556  0.5696 -0.1595
 7547SOL    HW134274   2.568   0.454   6.267 -1.6431  0.5734  1.8888
 7547SOL    HW234275   2.469   0.539   6.208  0.7112  1.2476 -0.9854
 7548SOL     OW34276   2.080   3.387   3.810  0.1646  0.2512  0.3315
 7548SOL    HW134277   2.097   3.343   3.727  0.5902 -0.1433  0.6266
 7548SOL    HW234278   2.141   3.339   3.866  0.4203  0.3478  0.1338
 7549SOL     OW34279   0.157   3.378   8.211  0.3884 -0.6739 -0.1671
 7549SOL    HW134280   0.108   3.456   8.185  0.4641  0.0358  1.7641
 7549SOL    HW234281   0.238   3.414   8.248 -0.7853  0.1299  1.6173
 7550SOL     OW34282   1.676   4.006   9.312  0.4255 -0.1034 -0.1201
 7550SOL    HW134283   1.623   4.025   9.389  2.6090  0.1273  1.3202
 7550SOL    HW234284   1.643   3.920   9.288 -1.4078  0.5822 -0.0580
 7551SOL     OW34285   3.315   1.927   0.542  0.2759 -0.5893 -0.6874
 7551SOL    HW134286   3.396   1.947   0.590 -1.5144  0.2292  1.9849
 7551SOL    HW234287   3.287   2.007   0.499  0.1227 -1.2394 -1.7915
 7552SOL     OW34288   1.329   4.331   1.867 -0.3665 -0.2317 -0.0521
 7552SOL    HW134289   1.407   4.319   1.813 -2.1018 -2.1708 -2.1211
 7552SOL    HW234290   1.368   4.365   1.948  2.6790 -1.6585 -0.9333
 7553SOL     OW34291   3.707   2.909   4.028  0.0413 -0.2347  0.0959
 7553SOL    HW134292   3.748   2.990   4.058  0.5864 -1.6952  3.3293
 7553SOL    HW234293   3.625   2.902   4.079 -0.7933 -0.5976 -1.2981
 7554SOL     OW34294   1.036   3.287  10.123  0.5030 -0.1717  0.5024
 7554SOL    HW134295   1.131   3.283  10.113  0.5003  0.1437  0.3415
 7554SOL    HW234296   1.025   3.368  10.173  0.3758  1.0933 -1.5563
 7555SOL     OW34297   1.307   0.129   5.320 -0.1028 -0.3076  0.1008
 7555SOL    HW134298   1.375   0.062   5.312  0.3218  0.4255 -2.1991
 7555SOL    HW234299   1.362   0.203   5.344  1.0147 -1.0954 -0.0487
 7556SOL     OW34300   0.340   1.036  15.801  0.4821 -0.3369 -0.3539
 7556SOL    HW134301   0.283   1.092  15.854  1.7380 -0.5984  1.2870
 7556SOL    HW234302   0.398   1.091  15.748  0.7514  0.9006  1.2417
 7557SOL     OW34303   4.288   4.137   3.590 -0.0069  0.1607 -0.5053
 7557SOL    HW134304   4.317   4.063   3.537  1.7784 -0.6769  1.6818
 7557SOL    HW234305   4.364   4.187   3.561 -0.7237  0.3049 -2.1676
 7558SOL     OW34306   2.373   0.492   3.733 -0.4168 -0.3919  0.2657
 7558SOL    HW134307   2.325   0.574   3.745  0.1885 -0.2123  1.4529
 7558SOL    HW234308   2.452   0.509   3.784 -1.6936  3.4573  0.9607
 7559SOL     OW34309   2.996   4.467   3.106  0.2850 -0.5903 -0.5756
 7559SOL    HW134310   2.992   4.410   3.184  1.2098  0.3040  0.1272
 7559SOL    HW234311   3.020   4.398   3.045  1.3389 -1.5157  0.8794
 7560SOL     OW34312   2.886   1.661   7.284 -0.3381 -0.6188 -0.2002
 7560SOL    HW134313   2.949   1.682   7.215 -1.8047  0.3266 -1.2530
 7560SOL    HW234314   2.865   1.743   7.329 -2.6360 -1.0739 -0.4187
 7561SOL     OW34315   1.047   0.245   8.769  0.5688  0.4589 -0.2479
 7561SOL    HW134316   1.124   0.266   8.821  0.3076  0.3527  0.1765
 7561SOL    HW234317   0.977   0.240   8.833 -1.6846  0.7394 -2.6993
 7562SOL     OW34318   4.204   0.398  15.774 -0.3190 -0.5093  0.1689
 7562SOL    HW134319   4.190   0.473  15.716 -2.7481 -0.8052  0.3425
 7562SOL    HW234320   4.168   0.323  15.727 -1.2771 -0.2651  0.5132
 7563SOL     OW34321   3.952   2.972  14.890 -0.0551  0.4404 -0.1032
 7563SOL    HW134322   4.030   3.026  14.897 -0.0681  0.8932 -3.8043
 7563SOL    HW234323   3.958   2.911  14.964  1.9026  2.5715  1.4934
 7564SOL     OW34324   4.239   3.017   4.444  0.3415  0.5167 -0.1429
 7564SOL    HW134325   4.281   3.031   4.528  0.7559 -1.2823 -0.0505
 7564SOL    HW234326   4.157   2.980   4.478  0.4819 -0.6613 -1.0755
 7565SOL     OW34327   1.808   2.555   6.054 -0.1309 -0.8164 -0.6230
 7565SOL    HW134328   1.830   2.648   6.050 -1.5480 -0.3521  2.1674
 7565SOL    HW234329   1.857   2.533   5.975  0.1711  1.2004 -0.9888
 7566SOL     OW34330   1.589   2.497   1.085 -0.1301  0.1398  0.2307
 7566SOL    HW134331   1.667   2.443   1.095 -2.2188 -2.9050  0.0946
 7566SOL    HW234332   1.538   2.455   1.154  0.0525 -2.2481 -1.1045
 7567SOL     OW34333   2.238   3.030   1.460  0.7541  0.3426  0.0642
 7567SOL    HW134334   2.205   3.073   1.381  1.4202  0.9318  0.1098
 7567SOL    HW234335   2.162   3.049   1.515  0.5785  0.3626 -0.1863
 7568SOL     OW34336   1.397   0.090   3.307  0.3161 -0.0759  0.0658
 7568SOL    HW134337   1.385   0.054   3.395 -0.2876  0.0840  0.0459
 7568SOL    HW234338   1.431   0.019   3.252 -0.2775 -0.7958  0.6492
 7569SOL     OW34339   2.213   0.560   7.110  0.1163  0.1682 -0.5884
 7569SOL    HW134340   2.250   0.613   7.181 -1.4650  0.5671 -0.0672
 7569SOL    HW234341   2.170   0.629   7.059  0.6089  1.2361  0.4333
 7570SOL     OW34342   3.816   2.311   3.878  0.1954  0.4261 -0.0507
 7570SOL    HW134343   3.775   2.388   3.839  1.7535  1.6145  0.6830
 7570SOL    HW234344   3.823   2.337   3.969 -0.4339  1.0111 -0.1670
 7571SOL     OW34345   1.139   2.814   6.588 -0.0631  0.0114 -0.3687
 7571SOL    HW134346   1.159   2.823   6.681 -0.8567  2.1872 -0.4140
 7571SOL    HW234347   1.056   2.765   6.584  0.1170 -0.4110  1.1444
 7572SOL     OW34348   3.095   2.905   2.816 -0.2520 -0.8483 -0.0480
 7572SOL    HW134349   3.081   2.816   2.847 -0.3185 -1.1116 -0.8246
 7572SOL    HW234350   3.116   2.891   2.723 -0.2656 -2.6100  0.2221
 7573SOL     OW34351   1.010   0.504  16.513  0.2225  0.1027  0.3578
 7573SOL    HW134352   0.968   0.528  16.430 -1.3469 -3.6046  0.0969
 7573SOL    HW234353   1.099   0.529  16.490 -0.1697 -0.5367 -1.8800
 7574SOL     OW34354   0.989   1.175   0.856 -0.2539  0.0304 -0.5253
 7574SOL    HW134355   0.943   1.106   0.808 -2.4609  1.2058 -0.0965
 7574SOL    HW234356   0.918   1.238   0.849  0.0657  0.2419 -1.9018
 7575SOL     OW34357   1.193   1.745   6.193 -0.0563  0.1557  0.0698
 7575SOL    HW134358   1.165   1.668   6.242  2.2223 -0.8201 -0.1576
 7575SOL    HW234359   1.233   1.795   6.264 -0.1631 -0.7508  0.7704
 7576SOL     OW34360   2.313   4.328   1.754 -0.6409  0.2965  0.5317
 7576SOL    HW134361   2.378   4.292   1.694 -0.9991 -0.2149  0.4559
 7576SOL    HW234362   2.253   4.255   1.767  1.7660 -1.7369  0.2222
 7577SOL     OW34363   3.998   0.072   8.230 -0.4978  0.4873  0.2858
 7577SOL    HW134364   3.963   0.066   8.141 -1.7137  0.5671  0.7563
 7577SOL    HW234365   4.088   0.071   8.196 -0.3497 -0.0844  0.6915
 7578SOL     OW34366   3.388   0.258   2.464  0.2378 -0.0099 -0.1404
 7578SOL    HW134367   3.432   0.174   2.475 -0.8968 -0.7895 -1.4845
 7578SOL    HW234368   3.399   0.305   2.546 -1.4169 -0.6916  0.4627
 7579SOL     OW34369   3.544   1.438  15.859 -0.4032 -0.1468 -0.3233
 7579SOL    HW134370   3.553   1.420  15.953 -2.2179 -1.3857 -0.3996
 7579SOL    HW234371   3.609   1.384  15.814 -1.3216  0.2409 -2.1198
 7580SOL     OW34372   4.101   1.266   5.842 -0.0724 -0.2469  0.4767
 7580SOL    HW134373   4.122   1.178   5.811 -0.7065 -0.0176 -0.6193
 7580SOL    HW234374   4.021   1.254   5.893  0.8484  1.5499  2.3685
 7581SOL     OW34375   1.716   3.842   3.599  0.3070  0.5861  0.4992
 7581SOL    HW134376   1.688   3.927   3.632  0.1768 -0.3084  2.6948
 7581SOL    HW234377   1.792   3.866   3.546 -0.6944 -0.0952 -1.2626
 7582SOL     OW34378   0.164   3.808   6.155  0.4978 -0.2887  0.2273
 7582SOL    HW134379   0.157   3.773   6.066  1.7286  0.1495 -0.0368
 7582SOL    HW234380   0.111   3.741   6.198  0.2832  0.5340  1.2491
 7583SOL     OW34381   4.408   1.567   6.704  0.0535  0.4310  0.4040
 7583SOL    HW134382   4.414   1.498   6.770  0.3231 -0.9797 -1.1068
 7583SOL    HW234383   4.451   1.633   6.759  1.2195  0.0708 -0.0776
 7584SOL     OW34384   3.727   1.905   5.654  0.4434  0.5594 -0.1048
 7584SOL    HW134385   3.656   1.952   5.609  0.3210  2.1718  1.7746
 7584SOL    HW234386   3.700   1.817   5.628  0.6445  0.7061 -0.8082
 7585SOL     OW34387   1.226   0.333  17.452 -0.2055  0.0420  0.0863
 7585SOL    HW134388   1.155   0.271  17.432 -0.7575  0.7809 -0.2201
 7585SOL    HW234389   1.226   0.324  17.547  0.2392  0.4000  0.1187
 7586SOL     OW34390   1.357   1.332   3.504  0.2421  0.1270  0.1919
 7586SOL    HW134391   1.341   1.424   3.524 -0.9593  0.0433 -0.3716
 7586SOL    HW234392   1.278   1.310   3.456 -1.0759  4.5568  0.3796
 7587SOL     OW34393   4.388   0.537   7.313 -0.0920  0.4693 -0.2121
 7587SOL    HW134394   4.444   0.532   7.391 -1.9764  1.0369  1.1925
 7587SOL    HW234395   4.334   0.608   7.347 -0.8873  0.7698 -2.1316
 7588SOL     OW34396   1.351   0.126   4.429  0.0865 -0.3897  0.2963
 7588SOL    HW134397   1.385   0.068   4.497 -1.8558 -0.9457  0.8055
 7588SOL    HW234398   1.402   0.102   4.352  0.4965  3.2645 -0.5506
 7589SOL     OW34399   3.580   2.235   4.016  0.0627 -0.7078 -0.4921
 7589SOL    HW134400   3.615   2.162   4.068 -0.6679  0.1516  1.1853
 7589SOL    HW234401   3.650   2.244   3.951 -0.5184 -1.0859 -1.1631
 7590SOL     OW34402   3.915   3.124  15.134 -0.0573  0.0757  0.3670
 7590SOL    HW134403   3.865   3.051  15.097  0.5673 -0.0994 -0.1276
 7590SOL    HW234404   3.939   3.187  15.066  1.7523  0.8093  1.6903
 7591SOL     OW34405   3.333   0.740   9.345 -0.1349  0.0260 -0.2340
 7591SOL    HW134406   3.373   0.683   9.280  0.6648  0.0829  0.2092
 7591SOL    HW234407   3.411   0.792   9.366  1.6956 -1.5787 -3.0932
 7592SOL     OW34408   0.026   3.365   4.742  0.5777 -0.2776 -0.6180
 7592SOL    HW134409   0.101   3.345   4.799 -0.3446  0.2931  0.7930
 7592SOL    HW234410   0.058   3.329   4.659  0.4946 -0.7534 -0.4429
 7593SOL     OW34411   4.488   1.742   3.275  0.0946 -0.1667  0.4246
 7593SOL    HW134412   4.453   1.691   3.348  2.0958 -2.0278  0.0977
 7593SOL    HW234413   4.427   1.719   3.205 -2.1178  3.1579  1.2991
 7594SOL     OW34414   0.322   0.604   5.316  0.2664 -0.2507  0.6188
 7594SOL    HW134415   0.337   0.629   5.225 -0.7988 -2.0775 -0.0540
 7594SOL    HW234416   0.230   0.631   5.318  1.3956  3.8117 -0.8250
 7595SOL     OW34417   1.139   4.233   9.340 -0.1329 -0.3504  0.3080
 7595SOL    HW134418   1.106   4.150   9.375 -0.3969 -0.6429 -0.6555
 7595SOL    HW234419   1.218   4.200   9.296 -1.5285 -0.0106 -2.3980
 7596SOL     OW34420   2.385   2.722   5.727 -0.1551 -0.3679 -0.2923
 7596SOL    HW134421   2.360   2.665   5.799 -0.7745 -0.0837 -0.2868
 7596SOL    HW234422   2.320   2.698   5.662 -2.1065  0.6362  1.3053
 7597SOL     OW34423   1.981   4.460   6.442 -0.2521 -0.2180 -0.5152
 7597SOL    HW134424   2.011   4.373   6.417 -0.5811 -0.7824  1.0521
 7597SOL    HW234425   2.050   4.484   6.503  0.0975 -1.9978 -0.2017
 7598SOL     OW34426   1.091   2.449  13.239  0.4214 -0.2819 -0.2082
 7598SOL    HW134427   1.055   2.392  13.307 -2.6447  2.0029  0.0803
 7598SOL    HW234428   1.173   2.472  13.284  0.2690  0.6481 -0.3898
 7599SOL     OW34429   1.668   2.575  13.387 -0.2961  0.6487 -0.3416
 7599SOL    HW134430   1.688   2.520  13.312 -3.2903  1.3124 -1.6026
 7599SOL    HW234431   1.734   2.645  13.386  0.8655 -0.4258  0.4968
 7600SOL     OW34432   4.643   1.928   5.306  0.3359  0.0100 -0.2523
 7600SOL    HW134433   4.608   1.876   5.233  0.0465 -0.3202  0.1172
 7600SOL    HW234434   4.564   1.963   5.347  1.7524  1.6043  1.0795
 7601SOL     OW34435   0.779   0.054  17.233  0.2741  0.6644  0.3578
 7601SOL    HW134436   0.809   0.083  17.146 -0.8006 -0.1811 -0.2997
 7601SOL    HW234437   0.699   0.105  17.239 -0.2310  0.0224 -0.7426
 7602SOL     OW34438   1.071   0.031   4.143 -0.0690  0.0376  0.4947
 7602SOL    HW134439   1.129   4.696   4.167  0.0748 -0.4091 -1.2236
 7602SOL    HW234440   1.016   4.733   4.073  0.6723  0.9898 -0.5539
 7603SOL     OW34441   0.368   3.673   3.109 -0.4125 -0.2098  0.0822
 7603SOL    HW134442   0.363   3.674   3.013  1.4008  0.6274 -0.0163
 7603SOL    HW234443   0.345   3.765   3.122 -2.0690 -0.5821 -0.2184
 7604SOL     OW34444   2.048   3.482   2.120  0.3560  0.2066  0.5508
 7604SOL    HW134445   2.012   3.460   2.033  1.8562  3.0460 -0.7772
 7604SOL    HW234446   2.071   3.393   2.146  0.8962 -0.5017 -2.3804
 7605SOL     OW34447   1.238   1.983   1.713  0.3017  0.0440  0.0270
 7605SOL    HW134448   1.329   1.997   1.738  0.2548  0.3044  0.0444
 7605SOL    HW234449   1.215   1.891   1.726  0.0272  0.1956  0.6359
 7606SOL     OW34450   4.572   1.757  15.263 -0.1307 -0.0718 -0.7451
 7606SOL    HW134451   4.664   1.782  15.253 -0.2902  0.6662 -0.4083
 7606SOL    HW234452   4.577   1.666  15.293  1.7824  0.9081  1.8452
 7607SOL     OW34453   3.542   0.700   2.255 -0.1531  0.2867 -0.0056
 7607SOL    HW134454   3.594   0.620   2.263 -0.2793  0.1748 -0.3008
 7607SOL    HW234455   3.569   0.732   2.169  1.5329 -1.0340  0.0320
 7608SOL     OW34456   2.979   2.222   3.617  0.4864  0.5619 -0.0549
 7608SOL    HW134457   2.915   2.209   3.547  1.3806 -1.6433 -0.4614
 7608SOL    HW234458   3.010   2.312   3.605  1.3264  0.5442  1.9562
 7609SOL     OW34459   3.495   3.026   3.043  0.6792  0.2718 -0.2417
 7609SOL    HW134460   3.470   3.040   2.952 -0.2147  1.1143  0.1342
 7609SOL    HW234461   3.587   3.045   3.022  0.2326  1.6792 -0.8885
 7610SOL     OW34462   1.022   1.910   6.544  0.4792 -0.7315  0.4340
 7610SOL    HW134463   0.998   1.902   6.452  2.3052 -0.8544 -0.0306
 7610SOL    HW234464   0.976   1.991   6.567 -0.8687 -1.4559  0.2911
 7611SOL     OW34465   1.486   2.577   4.158 -0.0618 -0.0479  0.3161
 7611SOL    HW134466   1.468   2.669   4.172  0.8473 -0.1715  2.2682
 7611SOL    HW234467   1.550   2.570   4.229  0.4441 -0.7402 -0.1964
 7612SOL     OW34468   3.011   1.556   5.012  0.1661  0.0475  0.4471
 7612SOL    HW134469   3.035   1.630   4.958  1.2351 -1.5608 -1.2742
 7612SOL    HW234470   2.918   1.573   5.027  0.3253  2.0652 -0.9860
 7613SOL     OW34471   3.626   3.220  11.398 -0.1153 -0.0357 -0.1481
 7613SOL    HW134472   3.636   3.303  11.445 -0.3042 -0.0890 -0.0138
 7613SOL    HW234473   3.536   3.206  11.427  0.0845 -0.3601  0.3173
 7614SOL     OW34474   3.494   4.504  16.519  0.6216  0.1000 -0.2696
 7614SOL    HW134475   3.477   4.511  16.425  1.2029 -1.5830 -0.5028
 7614SOL    HW234476   3.461   4.591  16.542 -0.1068 -0.5804  1.2409
 7615SOL     OW34477   3.119   3.352  11.671 -0.7397 -0.8219 -0.5315
 7615SOL    HW134478   3.138   3.446  11.671  0.0302 -0.9770 -0.1478
 7615SOL    HW234479   3.070   3.351  11.589 -2.4703 -0.8973  0.5000
 7616SOL     OW34480   2.847   1.163   2.198  0.0080  0.2093 -0.0721
 7616SOL    HW134481   2.856   1.124   2.111  1.5252 -1.2074  0.7081
 7616SOL    HW234482   2.931   1.209   2.202 -1.7841  3.4050  0.7057
 7617SOL     OW34483   0.720   0.662   2.134 -0.3832 -0.2176  0.4320
 7617SOL    HW134484   0.653   0.696   2.074  1.6389  0.6669 -1.3261
 7617SOL    HW234485   0.668   0.663   2.214  0.8475  2.9256  1.1705
 7618SOL     OW34486   1.245   0.610  16.560 -0.4623 -0.1209  0.3835
 7618SOL    HW134487   1.291   0.632  16.641  0.3248 -1.9400  0.4386
 7618SOL    HW234488   1.243   0.514  16.552 -1.7308 -0.3052  2.9383
 7619SOL     OW34489   2.810   1.865   2.330 -0.6058  0.3663 -0.5642
 7619SOL    HW134490   2.733   1.845   2.275 -1.6445  1.3682  0.5261
 7619SOL    HW234491   2.821   1.954   2.298  0.3251  0.5859  0.3828
 7620SOL     OW34492   4.499   3.938   4.254  0.1076 -0.0011 -0.3146
 7620SOL    HW134493   4.567   3.892   4.204  1.6167  2.6529 -0.6756
 7620SOL    HW234494   4.564   3.989   4.302  0.1786  0.1297 -0.5503
 7621SOL     OW34495   2.179   1.856   6.174  0.2968 -0.3138 -0.1321
 7621SOL    HW134496   2.150   1.930   6.121 -1.2043  1.1335  2.7416
 7621SOL    HW234497   2.196   1.791   6.105 -0.4856  0.2519 -0.8604
 7622SOL     OW34498   1.595   3.051   6.479  0.4963 -0.0914  0.1318
 7622SOL    HW134499   1.503   3.055   6.506  0.6228 -1.9933  0.8171
 7622SOL    HW234500   1.644   3.122   6.521 -0.7319  2.6350 -3.1131
 7623SOL     OW34501   2.600   1.806   2.181 -0.1813 -0.2271  0.9270
 7623SOL    HW134502   2.544   1.880   2.203 -0.4240 -0.5665  1.4539
 7623SOL    HW234503   2.602   1.797   2.086  0.5351 -0.7596  0.9932
 7624SOL     OW34504   3.484   2.312   9.940  0.1179  0.4300  0.5804
 7624SOL    HW134505   3.557   2.250   9.939  1.2506  1.7956 -1.8304
 7624SOL    HW234506   3.520   2.374   9.876 -0.0542 -0.2048 -0.1343
 7625SOL     OW34507   0.124   0.503   4.313 -0.0493  0.4302 -0.1936
 7625SOL    HW134508   0.068   0.477   4.240 -1.1849 -1.4763  1.3809
 7625SOL    HW234509   0.126   0.599   4.311  1.2066  0.4731  2.1562
 7626SOL     OW34510   0.317   2.075   2.228  0.2324  0.5864  0.3152
 7626SOL    HW134511   0.273   1.990   2.222  0.5031  0.4061  0.9145
 7626SOL    HW234512   0.245   2.128   2.261  0.3381 -0.6417  2.5285
 7627SOL     OW34513   3.061   0.195   3.347  0.4196 -0.1734  0.3055
 7627SOL    HW134514   3.003   0.189   3.424  0.8624  0.7559  0.7112
 7627SOL    HW234515   3.055   0.105   3.315  2.6999  0.9789 -3.3326
 7628SOL     OW34516   0.755   4.029   7.781  0.1655 -0.7355  0.1153
 7628SOL    HW134517   0.771   4.097   7.716  0.9716 -2.4201 -1.4211
 7628SOL    HW234518   0.838   4.035   7.828  1.0318 -0.8208 -1.4066
 7629SOL     OW34519   0.959   1.885   5.746 -0.0734  0.1514 -0.1221
 7629SOL    HW134520   0.955   1.845   5.658  0.5196 -3.8531  1.6651
 7629SOL    HW234521   0.990   1.818   5.807 -0.6608  0.1030  0.1282
 7630SOL     OW34522   4.118   0.141  15.448 -0.0835 -0.0635 -0.5844
 7630SOL    HW134523   4.127   0.053  15.412  1.4629 -0.4209  0.6805
 7630SOL    HW234524   4.086   0.187  15.371 -1.8400 -0.2808  0.0116
 7631SOL     OW34525   4.621   0.080  13.014  0.1964  0.0893  0.1053
 7631SOL    HW134526   4.696   0.139  13.004  1.2330 -1.0464  1.1956
 7631SOL    HW234527   4.640   0.015  12.947 -0.9310  1.0773 -1.1677
 7632SOL     OW34528   4.091   4.387   4.859 -0.0136 -0.2945 -0.0878
 7632SOL    HW134529   4.142   4.462   4.887  0.6671 -0.4900 -0.7985
 7632SOL    HW234530   4.121   4.380   4.768 -0.6503  0.1335 -0.3299
 7633SOL     OW34531   2.510   1.925   7.820  0.0649  0.3152  0.0337
 7633SOL    HW134532   2.466   1.871   7.754  0.8756 -2.9677  2.1221
 7633SOL    HW234533   2.523   2.012   7.784  2.2214 -0.7338 -1.7046
 7634SOL     OW34534   2.630   4.010   4.031 -0.0999  0.1825 -0.1182
 7634SOL    HW134535   2.584   4.083   4.073 -0.7706 -0.0083 -0.5219
 7634SOL    HW234536   2.659   3.964   4.110  0.9538 -0.3143 -0.7862
 7635SOL     OW34537   0.128   1.153   5.176 -0.4125 -1.4399  0.4171
 7635SOL    HW134538   0.108   1.097   5.251 -0.4963  2.0426  3.0114
 7635SOL    HW234539   0.214   1.185   5.204 -1.8803  0.4802  2.7582
 7636SOL     OW34540   4.609   0.136   2.707  0.6158  0.1719  0.1262
 7636SOL    HW134541   4.647   0.151   2.621  0.9402  1.8082  0.5511
 7636SOL    HW234542   4.535   0.197   2.710 -1.2262 -2.0084 -1.1881
 7637SOL     OW34543   3.798   1.793   8.582  0.3502  0.5239  0.7902
 7637SOL    HW134544   3.817   1.737   8.658 -0.7033 -2.5352 -1.1868
 7637SOL    HW234545   3.717   1.839   8.602  0.0003  0.2767 -0.0935
 7638SOL     OW34546   4.512   1.098  14.120  0.3217 -0.0427 -0.1815
 7638SOL    HW134547   4.432   1.075  14.074 -0.8955 -1.5299  2.6701
 7638SOL    HW234548   4.510   1.190  14.092  0.9846  0.2641  0.7771
 7639SOL     OW34549   3.634   3.126   3.798  0.1644  0.5418 -0.4774
 7639SOL    HW134550   3.729   3.132   3.800  0.2050  0.2028 -1.7739
 7639SOL    HW234551   3.621   3.100   3.707  0.9261 -0.2478 -0.3615
 7640SOL     OW34552   2.228   1.382   4.090  0.2235  0.2766 -0.2905
 7640SOL    HW134553   2.189   1.337   4.015  1.8769 -0.1504 -0.8863
 7640SOL    HW234554   2.265   1.304   4.133  0.6081 -0.1354 -1.3803
 7641SOL     OW34555   4.227   2.433   3.780 -0.1295  0.2184 -0.2364
 7641SOL    HW134556   4.232   2.338   3.769 -0.0575  0.2161 -0.1782
 7641SOL    HW234557   4.156   2.462   3.723 -1.1470 -0.0430  0.9073
 7642SOL     OW34558   2.306   4.282   2.669 -0.1181  0.4596 -0.3894
 7642SOL    HW134559   2.397   4.278   2.639 -0.2683 -1.3006 -0.6126
 7642SOL    HW234560   2.254   4.291   2.589 -2.2196  1.4090  1.0891
 7643SOL     OW34561   4.112   0.733  14.261  0.1372 -0.3938 -0.2839
 7643SOL    HW134562   4.059   0.685  14.325  2.5798  0.2635  2.2329
 7643SOL    HW234563   4.045   0.764  14.200 -1.3630 -2.0228  0.5534
 7644SOL     OW34564   0.282   3.603   1.386  0.1877 -0.4482 -0.0714
 7644SOL    HW134565   0.246   3.579   1.471 -3.1029 -0.2128 -1.4111
 7644SOL    HW234566   0.316   3.691   1.404 -0.8764 -0.0621  0.0523
 7645SOL     OW34567   1.669   4.149   5.487  0.7586 -0.2173  0.2439
 7645SOL    HW134568   1.575   4.133   5.488  0.5612  0.9745  0.3550
 7645SOL    HW234569   1.698   4.058   5.497  0.0644 -0.8077 -3.2270
 7646SOL     OW34570   0.161   2.961  10.155 -0.0541 -0.3799 -0.2270
 7646SOL    HW134571   0.248   3.002  10.148  0.1579 -0.2945  2.8692
 7646SOL    HW234572   0.175   2.911  10.236  0.9580 -1.2234 -0.9251
 7647SOL     OW34573   1.622   0.638  12.154  0.2193  0.2673  0.2162
 7647SOL    HW134574   1.606   0.633  12.249 -1.3501 -0.2877 -0.0831
 7647SOL    HW234575   1.688   0.568  12.155  1.5441  1.5290  0.5941
 7648SOL     OW34576   4.476   3.570   9.188 -0.3114  0.0702  0.3117
 7648SOL    HW134577   4.529   3.649   9.183 -2.3047  1.4831  1.5812
 7648SOL    HW234578   4.462   3.556   9.094  3.8074  2.2084 -0.6141
 7649SOL     OW34579   2.356   1.793   5.769 -0.4993 -0.2763 -0.2347
 7649SOL    HW134580   2.265   1.802   5.740 -0.1062 -1.4005 -1.8046
 7649SOL    HW234581   2.341   1.760   5.857  1.0233  1.6207  0.7635
 7650SOL     OW34582   0.200   1.653   4.938 -0.0717 -0.1850  0.1610
 7650SOL    HW134583   0.139   1.605   4.994 -1.1981  0.1198 -0.8111
 7650SOL    HW234584   0.266   1.682   5.001 -1.8177 -0.8382  2.2629
 7651SOL     OW34585   4.020   2.533   7.433  0.5367 -0.6085  0.4716
 7651SOL    HW134586   4.103   2.507   7.394 -0.1681  0.8737 -2.0298
 7651SOL    HW234587   4.056   2.614   7.469  0.6063 -0.3484 -0.1758
 7652SOL     OW34588   1.323   1.650   2.702 -0.6187 -0.0970 -0.1539
 7652SOL    HW134589   1.244   1.682   2.657 -1.4087 -0.4301  1.0126
 7652SOL    HW234590   1.288   1.600   2.776  1.6034  0.8370  1.5074
 7653SOL     OW34591   1.711   4.728   4.961  0.2088 -0.2166  0.0744
 7653SOL    HW134592   1.792   4.699   4.920 -0.2663 -0.6998 -0.5223
 7653SOL    HW234593   1.707   4.682   5.045 -0.0070 -2.1537 -1.0091
 7654SOL     OW34594   4.708   2.615   3.531  0.3184  0.9624  0.4688
 7654SOL    HW134595   4.637   2.656   3.581 -1.6781 -1.5774 -0.2968
 7654SOL    HW234596   4.731   2.536   3.580  0.0144  0.1981 -0.6274
 7655SOL     OW34597   3.099   0.999   2.803 -0.6582  0.2838  0.2673
 7655SOL    HW134598   3.014   0.993   2.848 -0.8727 -1.9477 -0.4775
 7655SOL    HW234599   3.084   1.063   2.733  1.2646 -1.9106 -2.1271
 7656SOL     OW34600   0.553   3.444   4.679  0.0885  0.8378 -0.2808
 7656SOL    HW134601   0.491   3.436   4.606  1.1939  5.3610 -1.7525
 7656SOL    HW234602   0.629   3.415   4.629  0.2555  0.0680  0.4287
 7657SOL     OW34603   3.171   3.798   3.508 -0.2840 -0.0685  0.0323
 7657SOL    HW134604   3.192   3.794   3.601 -4.6266 -0.8307  0.9594
 7657SOL    HW234605   3.220   3.873   3.474 -1.7332  1.2599  0.8887
 7658SOL     OW34606   0.068   4.614   4.495 -0.1685 -0.3680 -0.6357
 7658SOL    HW134607   0.029   4.545   4.442 -2.0745 -0.5940  1.0827
 7658SOL    HW234608   4.737   4.680   4.497  0.0158 -0.2531  1.9899
 7659SOL     OW34609   2.497   2.496   7.337  0.4247  0.5383  0.2196
 7659SOL    HW134610   2.474   2.498   7.244 -1.2552  0.6003  0.6369
 7659SOL    HW234611   2.418   2.531   7.377  0.6434 -0.3608  1.4328
 7660SOL     OW34612   1.886   2.335   2.295 -0.1390  0.4846 -0.0333
 7660SOL    HW134613   1.934   2.336   2.378 -0.5948 -1.8705  0.2520
 7660SOL    HW234614   1.828   2.410   2.310 -1.1007 -0.3703  0.4994
 7661SOL     OW34615   3.894   3.452   4.257  0.4510  0.2008 -0.5403
 7661SOL    HW134616   3.921   3.524   4.315  0.7633  0.7304 -1.3331
 7661SOL    HW234617   3.978   3.450   4.212  0.7045  0.3389 -0.0708
 7662SOL     OW34618   4.315   3.365  14.999 -0.4256  0.0298 -0.2159
 7662SOL    HW134619   4.337   3.412  14.918 -0.1715 -1.4049 -0.9698
 7662SOL    HW234620   4.386   3.395  15.055 -0.7534 -1.3210  0.9326
 7663SOL     OW34621   4.690   2.044   5.731 -0.0694 -0.7131  0.3167
 7663SOL    HW134622   0.007   1.971   5.702 -0.5108 -1.5472  1.5954
 7663SOL    HW234623   4.624   1.992   5.777  0.8168 -1.2273  0.9887
 7664SOL     OW34624   1.149   0.460   3.753 -0.0184 -0.5073  0.3237
 7664SOL    HW134625   1.151   0.555   3.764  0.5740 -0.5562  0.6350
 7664SOL    HW234626   1.182   0.429   3.838 -0.5379  1.4651  1.2505
 7665SOL     OW34627   4.574   4.221   8.420  0.4264  0.2223  0.2084
 7665SOL    HW134628   4.502   4.240   8.359  0.2668 -3.8025 -0.8543
 7665SOL    HW234629   4.527   4.232   8.502  0.4685  1.5742  0.0412
 7666SOL     OW34630   1.538   4.515   7.014  0.2844  0.3168 -0.0887
 7666SOL    HW134631   1.518   4.432   6.971 -1.1997  0.1876  0.8557
 7666SOL    HW234632   1.634   4.514   7.016  0.2482 -0.2570  1.4111
 7667SOL     OW34633   4.714   1.791   2.890 -0.1543  0.6456  0.5726
 7667SOL    HW134634   0.061   1.747   2.888  0.1082  1.2415 -2.3033
 7667SOL    HW234635   0.015   1.875   2.863 -0.6551  1.1015  1.2721
 7668SOL     OW34636   2.925   1.538   8.613 -0.0101  0.0991 -0.1853
 7668SOL    HW134637   2.969   1.511   8.533 -2.4687 -1.0650 -1.1582
 7668SOL    HW234638   2.842   1.577   8.587 -0.3244 -0.6897 -0.3857
 7669SOL     OW34639   4.276   4.600   2.760 -0.1025  0.4524  0.8344
 7669SOL    HW134640   4.282   4.669   2.693  0.0747 -0.1610  0.2212
 7669SOL    HW234641   4.183   4.577   2.755  0.4896 -1.1389 -2.7400
 7670SOL     OW34642   2.233   4.226   0.174 -0.0946  0.5101 -0.1736
 7670SOL    HW134643   2.194   4.313   0.166 -0.7596  0.0373 -2.1217
 7670SOL    HW234644   2.289   4.213   0.098  0.7393 -1.9238  0.8723
 7671SOL     OW34645   3.595   0.767   2.935 -0.2669 -0.1063  0.5570
 7671SOL    HW134646   3.513   0.723   2.956 -0.9990  1.6476  1.3805
 7671SOL    HW234647   3.598   0.820   3.015 -0.2063 -1.2461  1.3126
 7672SOL     OW34648   4.674   3.807  10.239 -0.0560 -0.7403  0.1727
 7672SOL    HW134649   4.619   3.752  10.183  0.8952 -0.8069 -0.6869
 7672SOL    HW234650   4.650   3.896  10.215  0.1140 -0.8063 -0.2450
 7673SOL     OW34651   0.510   2.779  16.149  0.5449 -0.1448  0.1615
 7673SOL    HW134652   0.540   2.692  16.123  0.1281 -0.0358 -0.6683
 7673SOL    HW234653   0.423   2.775  16.111 -0.0664  1.3822  1.3880
 7674SOL     OW34654   0.480   1.125   1.364 -0.0729 -0.6930  0.5505
 7674SOL    HW134655   0.400   1.077   1.387 -1.0357  0.2275 -0.8818
 7674SOL    HW234656   0.527   1.054   1.320 -1.3379 -1.2647  0.1104
 7675SOL     OW34657   2.577   1.758  10.150 -0.4779 -0.1825  0.5406
 7675SOL    HW134658   2.497   1.719  10.115 -0.0973 -0.9446  0.5173
 7675SOL    HW234659   2.621   1.676  10.173  0.6908  0.5684  0.9904
 7676SOL     OW34660   3.582   1.426  12.676  0.0979 -0.5257  0.2698
 7676SOL    HW134661   3.576   1.376  12.758  0.2341 -1.9738 -0.5970
 7676SOL    HW234662   3.676   1.441  12.666 -0.3315  0.7641 -1.7106
 7677SOL     OW34663   2.709   2.792   5.257 -0.2114  0.4706  1.2778
 7677SOL    HW134664   2.683   2.742   5.180  0.5415 -1.2766  2.1680
 7677SOL    HW234665   2.803   2.774   5.266 -0.4683 -0.9233  1.1935
 7678SOL     OW34666   3.658   1.609   3.438  0.0387 -0.4708  0.0177
 7678SOL    HW134667   3.600   1.533   3.432 -0.0588 -0.2318 -2.2197
 7678SOL    HW234668   3.740   1.578   3.401 -0.8730 -1.7169 -0.9421
 7679SOL     OW34669   2.423   2.093  14.998 -0.3754 -0.4467  0.1068
 7679SOL    HW134670   2.428   2.095  15.093  2.2442 -1.1358  0.0056
 7679SOL    HW234671   2.423   2.181  14.960  0.0466 -0.6950 -0.4835
 7680SOL     OW34672   0.730   4.137   5.602  0.0590 -0.0211 -0.5116
 7680SOL    HW134673   0.671   4.183   5.661  0.0249  0.0687 -0.6168
 7680SOL    HW234674   0.664   4.081   5.561  0.3446 -1.2841  0.7095
 7681SOL     OW34675   0.689   3.509  12.266  0.9352  0.0270 -0.0135
 7681SOL    HW134676   0.710   3.523  12.173 -0.9872  0.8083 -0.3240
 7681SOL    HW234677   0.719   3.418  12.273 -0.0988 -0.0214  3.8412
 7682SOL     OW34678   0.410   1.840   4.113  0.4519  0.0264  1.0364
 7682SOL    HW134679   0.400   1.745   4.109  0.9947  0.0400 -0.9482
 7682SOL    HW234680   0.501   1.834   4.084 -0.7804  1.0510 -3.0637
 7683SOL     OW34681   3.703   3.405   5.488  0.6605  0.3570 -0.0739
 7683SOL    HW134682   3.796   3.407   5.465  0.4607 -1.5056 -1.0122
 7683SOL    HW234683   3.680   3.321   5.450  0.5508  0.0754  0.6113
 7684SOL     OW34684   1.763   1.109  10.795 -0.3097  0.3476  0.4124
 7684SOL    HW134685   1.696   1.157  10.844 -2.4499 -1.0700 -1.1163
 7684SOL    HW234686   1.828   1.087  10.862 -0.5782  0.2543  0.6456
 7685SOL     OW34687   1.924   4.049   9.430 -0.2217 -0.1535  0.1723
 7685SOL    HW134688   1.955   3.964   9.399  1.9259  0.0969  1.5766
 7685SOL    HW234689   1.843   4.054   9.380  0.2640 -2.3944 -0.8403
 7686SOL     OW34690   2.508   3.065   9.451 -0.2284 -0.0151  0.0876
 7686SOL    HW134691   2.505   3.131   9.382 -0.6605  0.8521  0.9398
 7686SOL    HW234692   2.422   3.027   9.432 -0.3710 -0.9674  2.5676
 7687SOL     OW34693   1.519   0.790   9.827 -0.2459 -0.4361  0.1991
 7687SOL    HW134694   1.612   0.782   9.847 -0.3946 -0.1339  1.0427
 7687SOL    HW234695   1.521   0.834   9.743 -0.6259  0.6956  0.7860
 7688SOL     OW34696   2.873   0.376   3.170  0.1376 -0.2063  0.3776
 7688SOL    HW134697   2.904   0.286   3.161 -1.4749 -0.8949  1.7903
 7688SOL    HW234698   2.958   0.406   3.203  0.1341 -1.4961  1.5920
 7689SOL     OW34699   3.541   2.693   8.729 -0.5117  0.5684  0.1351
 7689SOL    HW134700   3.607   2.741   8.779 -1.5957  1.1902  0.9594
 7689SOL    HW234701   3.587   2.694   8.645  0.7955 -0.1550  0.8297
 7690SOL     OW34702   0.916   0.303   3.787  0.6220 -0.6459  0.2767
 7690SOL    HW134703   0.997   0.333   3.745  0.6474  1.4212  1.8339
 7690SOL    HW234704   0.898   0.366   3.855  2.7797 -0.0587  0.3225
 7691SOL     OW34705   0.213   2.671   2.213  0.4343  0.1104 -0.5895
 7691SOL    HW134706   0.145   2.629   2.161  0.7340 -0.7664 -0.2722
 7691SOL    HW234707   0.223   2.756   2.170 -1.6980  0.7653  0.2281
 7692SOL     OW34708   2.497   0.204   4.763  0.0066 -0.8954  0.3138
 7692SOL    HW134709   2.517   0.145   4.835  0.8374 -2.4792 -1.2316
 7692SOL    HW234710   2.427   0.157   4.717 -0.7045  1.7780 -1.3834
 7693SOL     OW34711   2.826   0.659   8.301 -0.0556 -0.1439 -0.0654
 7693SOL    HW134712   2.912   0.700   8.311 -0.3117  0.1144  1.1882
 7693SOL    HW234713   2.795   0.684   8.389 -1.1393 -1.9370  0.0564
 7694SOL     OW34714   1.151   1.725   1.415 -0.0942 -0.3811 -0.4356
 7694SOL    HW134715   1.205   1.801   1.393 -0.6909 -0.2325 -1.3954
 7694SOL    HW234716   1.097   1.731   1.337 -1.0719 -0.8071  0.2124
 7695SOL     OW34717   2.855   4.114   4.952 -0.0034  0.2331  0.5642
 7695SOL    HW134718   2.902   4.193   4.924 -1.3109  0.6515 -0.4364
 7695SOL    HW234719   2.898   4.093   5.035  1.8420 -2.0864 -0.9455
 7696SOL     OW34720   2.116   4.081  14.952  0.3270 -0.2302  0.1352
 7696SOL    HW134721   2.146   4.150  14.892  0.2991 -1.8195 -1.7352
 7696SOL    HW234722   2.135   4.131  15.031 -0.6618  1.9530 -0.9950
 7697SOL     OW34723   2.464   4.099  17.074 -0.3317  0.4422 -0.0314
 7697SOL    HW134724   2.477   4.015  17.031 -3.5048 -0.0893  0.0126
 7697SOL    HW234725   2.543   4.117  17.125  0.1478 -0.3989 -0.4868
 7698SOL     OW34726   4.002   4.206   2.019  0.4404 -0.3948  0.4233
 7698SOL    HW134727   3.977   4.182   1.929  0.9860 -1.4048  0.5501
 7698SOL    HW234728   4.049   4.287   1.997 -0.6169  0.5923  1.8122
 7699SOL     OW34729   4.103   4.353  10.616  0.4920  0.2790  0.4010
 7699SOL    HW134730   4.050   4.386  10.544  2.0254 -1.4409 -1.5095
 7699SOL    HW234731   4.149   4.432  10.645  1.5758  0.3283 -1.4714
 7700SOL     OW34732   0.373   4.074  15.345 -0.3190  0.7192  0.0598
 7700SOL    HW134733   0.279   4.089  15.338 -0.0118  1.6968 -1.8839
 7700SOL    HW234734   0.391   4.044  15.434  0.9425  1.4069  0.0383
 7701SOL     OW34735   1.217   2.614   3.739 -0.0606 -0.4017  0.4567
 7701SOL    HW134736   1.285   2.635   3.802  1.2646  2.3952 -1.9009
 7701SOL    HW234737   1.191   2.522   3.750  0.0057 -0.6591 -1.5999
 7702SOL     OW34738   3.894   1.475   6.090  0.1391  0.1304 -0.0362
 7702SOL    HW134739   3.823   1.434   6.140  0.0362 -1.2315 -1.2887
 7702SOL    HW234740   3.848   1.511   6.014  2.8833 -1.0993 -2.2704
 7703SOL     OW34741   2.263   0.587  17.197  0.1195 -0.0145  0.0552
 7703SOL    HW134742   2.258   0.626  17.284  0.1425  1.6253 -0.6733
 7703SOL    HW234743   2.258   0.497  17.231  0.3106  0.1798  0.5964
 7704SOL     OW34744   0.068   1.918  16.495 -0.0753 -0.0396 -0.2446
 7704SOL    HW134745   4.718   1.907  16.534  0.6110  1.1222  1.6620
 7704SOL    HW234746   0.102   1.997  16.538  2.5373 -1.1955 -0.1999
 7705SOL     OW34747   2.810   4.172  16.706 -0.9513  0.4067 -0.2271
 7705SOL    HW134748   2.765   4.110  16.649  0.3478 -1.7717  1.1196
 7705SOL    HW234749   2.826   4.247  16.648 -0.0759  0.0488 -0.4498
 7706SOL     OW34750   0.592   0.777  11.937 -0.3101 -0.0375  1.0348
 7706SOL    HW134751   0.562   0.767  11.846  0.0393  3.4041  0.5561
 7706SOL    HW234752   0.679   0.739  11.923 -0.2680  0.4895 -0.1840
 7707SOL     OW34753   3.378   1.990   3.994  0.0309 -0.0624  0.1018
 7707SOL    HW134754   3.336   2.027   3.916  1.3744  2.1430  0.4553
 7707SOL    HW234755   3.470   1.987   3.969  0.0186  1.4608 -0.0807
 7708SOL     OW34756   2.728   2.474   8.787  0.1006  0.4889  0.8598
 7708SOL    HW134757   2.692   2.423   8.860 -1.0023  0.8217  0.5387
 7708SOL    HW234758   2.815   2.435   8.779 -0.5044 -0.6656 -0.0715
 7709SOL     OW34759   0.682   3.748   5.592 -0.2159 -0.0701 -0.1223
 7709SOL    HW134760   0.643   3.833   5.573  1.1365  0.7532  0.8227
 7709SOL    HW234761   0.740   3.725   5.519 -1.3003 -2.2544 -0.3076
 7710SOL     OW34762   2.068   2.587   2.173  0.4520 -0.1370  0.3344
 7710SOL    HW134763   2.146   2.538   2.198 -0.0277 -1.1693 -0.2178
 7710SOL    HW234764   2.014   2.513   2.145  1.8723 -1.0765  0.0665
 7711SOL     OW34765   0.250   3.131   4.683 -0.5781  0.0259  0.0100
 7711SOL    HW134766   0.172   3.095   4.725 -0.5072 -1.2030 -0.9161
 7711SOL    HW234767   0.322   3.074   4.709 -1.0382  0.1785  1.6085
 7712SOL     OW34768   4.102   2.880  11.576  0.0817 -0.0018  0.2004
 7712SOL    HW134769   4.091   2.905  11.484 -2.0927  0.8316  0.7000
 7712SOL    HW234770   4.094   2.962  11.624  1.7673  0.4469 -0.2671
 7713SOL     OW34771   4.696   3.173  10.749  0.0013  0.4654 -0.3952
 7713SOL    HW134772   4.685   3.142  10.659 -3.2046 -1.2647  0.5673
 7713SOL    HW234773   0.034   3.118  10.770 -0.6353  0.9981  3.2825
 7714SOL     OW34774   2.049   0.893   3.304 -0.0846 -0.1214  0.3306
 7714SOL    HW134775   2.077   0.965   3.361  1.8442 -2.1749  1.9700
 7714SOL    HW234776   2.099   0.910   3.224 -1.6932 -2.0417 -1.0981
 7715SOL     OW34777   3.644   2.091  14.411 -1.0547 -0.4362 -0.1693
 7715SOL    HW134778   3.578   2.059  14.472  0.8511 -0.4544  1.8683
 7715SOL    HW234779   3.711   2.109  14.477 -1.6048 -1.9846  0.7982
 7716SOL     OW34780   2.517   3.453   8.334  0.0103 -1.0179  0.4146
 7716SOL    HW134781   2.431   3.451   8.291  0.0592 -0.8543  0.3123
 7716SOL    HW234782   2.554   3.377   8.289  0.7991 -1.5825  2.0189
 7717SOL     OW34783   2.800   0.214   7.506 -0.1414  0.8271  0.8094
 7717SOL    HW134784   2.761   0.254   7.428 -0.9864 -0.3651  0.6251
 7717SOL    HW234785   2.880   0.177   7.468 -0.6336 -0.9168  1.4977
 7718SOL     OW34786   2.920   4.038  12.213 -0.4870  0.2073 -0.3827
 7718SOL    HW134787   2.955   3.990  12.288  0.2273 -0.8179 -1.3734
 7718SOL    HW234788   2.855   3.972  12.188  0.5198 -0.5832 -0.9163
 7719SOL     OW34789   0.636   3.723   6.472 -0.3445 -0.2705 -0.1951
 7719SOL    HW134790   0.582   3.741   6.395 -0.9236 -0.9009  0.0581
 7719SOL    HW234791   0.727   3.709   6.446 -0.8236 -1.0083 -1.5022
 7720SOL     OW34792   4.527   1.781   6.823  0.0140 -0.1674  0.1921
 7720SOL    HW134793   4.534   1.868   6.784  1.5408 -0.7227 -0.7525
 7720SOL    HW234794   4.478   1.795   6.904 -1.1540 -1.7612 -0.2239
 7721SOL     OW34795   3.727   2.749   6.643  0.0403 -0.3405  0.1806
 7721SOL    HW134796   3.690   2.787   6.563 -1.4061  0.0487  1.0318
 7721SOL    HW234797   3.735   2.831   6.691  0.8721 -0.4830  0.2857
 7722SOL     OW34798   2.991   0.907   3.702  0.8487 -0.1151  0.0018
 7722SOL    HW134799   2.978   0.831   3.646  2.1425 -1.4373  1.4832
 7722SOL    HW234800   3.087   0.906   3.703  0.8224 -1.5257  1.4865
 7723SOL     OW34801   2.399   3.348   6.086  0.2935  0.2963 -0.0306
 7723SOL    HW134802   2.363   3.262   6.107 -2.0098  1.7512  2.0185
 7723SOL    HW234803   2.449   3.314   6.011  0.8744  1.1613 -0.0415
 7724SOL     OW34804   2.195   1.862   2.089  0.5425  0.0487 -0.3699
 7724SOL    HW134805   2.197   1.957   2.103  2.9787 -0.2312  1.0434
 7724SOL    HW234806   2.225   1.844   2.178  2.6874 -0.6272 -1.2222
 7725SOL     OW34807   2.920   0.194   6.403 -0.2189 -0.0754 -0.3042
 7725SOL    HW134808   2.967   0.112   6.390  1.9910  0.7611  2.4018
 7725SOL    HW234809   2.852   0.171   6.467  0.7357  0.7845  1.0062
 7726SOL     OW34810   2.012   2.287   3.997 -0.3512 -0.1036  0.3367
 7726SOL    HW134811   2.078   2.267   4.063 -0.9687 -1.5909  0.4874
 7726SOL    HW234812   1.980   2.370   4.032 -0.4464  0.1915 -0.4498
 7727SOL     OW34813   1.245   2.845   7.547 -0.6081  0.1111  0.3078
 7727SOL    HW134814   1.160   2.889   7.543  1.0497  3.3424  0.3779
 7727SOL    HW234815   1.255   2.824   7.640 -0.6867  0.1691  0.3294
 7728SOL     OW34816   1.788   0.484   4.023 -0.0616  0.0716  0.3008
 7728SOL    HW134817   1.781   0.452   3.934  0.7221 -0.7073  0.5233
 7728SOL    HW234818   1.743   0.569   4.023  0.2401  0.2300  0.7346
 7729SOL     OW34819   4.725   3.425   7.812 -0.3694 -0.8463  0.1301
 7729SOL    HW134820   4.694   3.335   7.801 -1.0223 -0.6496  0.3362
 7729SOL    HW234821   4.654   3.468   7.860 -1.4004 -1.5001 -0.8209
 7730SOL     OW34822   4.244   0.578   6.613  0.2931  0.4154 -0.2978
 7730SOL    HW134823   4.274   0.581   6.704  2.0093 -0.7787 -0.8224
 7730SOL    HW234824   4.258   0.484   6.599  0.7917  0.4820 -0.2387
 7731SOL     OW34825   2.316   1.930   4.851  0.1683 -0.1106  0.2089
 7731SOL    HW134826   2.287   1.925   4.760  0.3033  0.7336  0.1157
 7731SOL    HW234827   2.405   1.895   4.839  0.4300  0.6169  0.0139
 7732SOL     OW34828   0.737   1.469  11.374  0.1024  0.0086 -0.3989
 7732SOL    HW134829   0.648   1.486  11.407  0.9169  0.0488  1.7821
 7732SOL    HW234830   0.786   1.516  11.442  0.4154 -2.2882  0.9507
 7733SOL     OW34831   1.017   3.455   6.928  0.3357  0.0327  0.3901
 7733SOL    HW134832   0.964   3.483   6.854  1.4816  1.9523  0.2788
 7733SOL    HW234833   1.096   3.508   6.914  0.1702  0.1147 -0.2391
 7734SOL     OW34834   2.066   1.452   3.060 -0.3166 -0.1945  0.3179
 7734SOL    HW134835   2.160   1.454   3.077 -0.4506  1.2612  0.8815
 7734SOL    HW234836   2.039   1.373   3.107 -4.3671 -0.1127 -1.8794
 7735SOL     OW34837   3.111   1.801  13.561  0.4275 -0.3989 -0.4281
 7735SOL    HW134838   3.045   1.800  13.490  0.8438  0.2359 -0.8249
 7735SOL    HW234839   3.160   1.721  13.544  1.1066  0.2066 -1.3215
 7736SOL     OW34840   2.919   4.274   9.010  0.2015 -1.0979 -0.3609
 7736SOL    HW134841   2.944   4.338   8.944  0.4896 -1.9822 -1.1065
 7736SOL    HW234842   2.824   4.269   8.998  0.3274 -0.8130 -1.3939
 7737SOL     OW34843   2.664   2.372   2.983 -0.1661 -0.1593 -0.4310
 7737SOL    HW134844   2.751   2.383   2.943  0.8404 -0.4277  1.6711
 7737SOL    HW234845   2.681   2.311   3.054 -0.0898 -1.3330 -1.4566
 7738SOL     OW34846   3.044   1.466   6.049  0.0830  0.7798  0.1758
 7738SOL    HW134847   3.068   1.443   6.139 -0.2924 -0.1905  0.0364
 7738SOL    HW234848   3.019   1.375   6.030 -1.8803  0.9785  1.7855
 7739SOL     OW34849   4.385   1.756  16.924  0.4845 -0.1515  1.0722
 7739SOL    HW134850   4.438   1.717  16.994 -0.7302 -3.8304 -0.0388
 7739SOL    HW234851   4.448   1.795  16.863  0.2479  0.7242  1.3892
 7740SOL     OW34852   0.541   4.623   9.259 -0.0624  0.3115  0.7815
 7740SOL    HW134853   0.460   4.669   9.282  0.9265  2.3775  0.1688
 7740SOL    HW234854   0.537   4.621   9.164 -0.5273  1.5682  0.7739
 7741SOL     OW34855   1.433   3.765   3.964 -0.3905  0.4392  0.0987
 7741SOL    HW134856   1.515   3.717   3.962 -1.3856 -1.3246  1.5335
 7741SOL    HW234857   1.464   3.842   4.012 -0.2331 -0.0388  0.7678
 7742SOL     OW34858   2.421   4.254   5.407  0.2615 -0.1348 -0.3362
 7742SOL    HW134859   2.423   4.264   5.502 -3.8965 -0.8024 -0.1875
 7742SOL    HW234860   2.375   4.332   5.378 -1.4656 -0.3575  1.8900
 7743SOL     OW34861   4.497   2.333   4.523 -0.1186  0.0591  0.1857
 7743SOL    HW134862   4.530   2.422   4.525 -1.3089  0.5018 -0.0049
 7743SOL    HW234863   4.406   2.353   4.501  0.7567  2.3358 -1.2305
 7744SOL     OW34864   3.010   1.986   7.661  0.5099 -0.5342  0.4443
 7744SOL    HW134865   3.092   2.019   7.698  0.2678  0.7323 -0.1505
 7744SOL    HW234866   2.947   2.025   7.722 -0.0664 -1.2362  0.2966
 7745SOL     OW34867   0.231   0.108   6.874  0.4373  0.0591 -0.1909
 7745SOL    HW134868   0.209   0.127   6.965 -1.1108  2.3117 -1.0423
 7745SOL    HW234869   0.221   0.013   6.873 -1.8492  0.3332 -1.3402
 7746SOL     OW34870   4.019   2.466   6.618  0.1072  0.1371 -0.3343
 7746SOL    HW134871   3.932   2.484   6.656  0.3608  2.0963 -0.7016
 7746SOL    HW234872   4.032   2.397   6.683 -1.4768 -0.2348 -0.3918
 7747SOL     OW34873   1.246   3.855   0.662 -0.2309  0.4243  0.0449
 7747SOL    HW134874   1.283   3.907   0.734 -0.6494 -1.4629  1.6550
 7747SOL    HW234875   1.260   3.921   0.595  1.8664 -0.3037 -0.2438
 7748SOL     OW34876   4.505   2.350   7.561 -0.5942  0.6897 -0.3106
 7748SOL    HW134877   4.590   2.394   7.558  0.4078 -1.2225  0.0131
 7748SOL    HW234878   4.519   2.269   7.611  2.1394  1.0432 -0.5137
 7749SOL     OW34879   4.170   2.683   6.453 -0.0871 -0.6647  0.2750
 7749SOL    HW134880   4.151   2.594   6.483 -1.4038 -0.4279  0.1495
 7749SOL    HW234881   4.233   2.674   6.382  0.4789 -2.7513  1.0207
 7750SOL     OW34882   2.575   1.188   6.367  0.2474 -0.0695 -0.5961
 7750SOL    HW134883   2.512   1.149   6.427 -0.3413  0.8031 -0.6502
 7750SOL    HW234884   2.623   1.109   6.342  1.7156  1.3267 -2.2912
 7751SOL     OW34885   4.256   0.525  14.157 -0.1430  0.2963  0.2809
 7751SOL    HW134886   4.216   0.587  14.217 -0.1287  0.9961 -0.4351
 7751SOL    HW234887   4.214   0.531  14.071 -0.1417 -0.5485  0.2200
 7752SOL     OW34888   2.609   0.365   3.214 -0.2440  0.3632  0.0351
 7752SOL    HW134889   2.562   0.447   3.231 -0.8813  0.4023 -1.9726
 7752SOL    HW234890   2.702   0.386   3.204  0.3879 -1.4692  2.1223
 7753SOL     OW34891   1.545   4.025   7.758  0.1224  0.7315  0.4398
 7753SOL    HW134892   1.494   3.951   7.794 -1.2879  1.9119  0.8935
 7753SOL    HW234893   1.616   4.008   7.819  0.9719  1.7251 -0.2819
 7754SOL     OW34894   4.478   0.777   2.923 -0.6695 -0.5732  0.2239
 7754SOL    HW134895   4.413   0.844   2.902 -0.6183 -0.4119  0.5839
 7754SOL    HW234896   4.452   0.738   3.006 -0.1620 -0.6964  0.3258
 7755SOL     OW34897   3.421   3.962   5.592 -0.3115 -0.3560  0.1979
 7755SOL    HW134898   3.339   3.965   5.641 -0.0980  0.0907  0.5252
 7755SOL    HW234899   3.421   3.867   5.580  3.1239 -0.1641 -1.3874
 7756SOL     OW34900   0.118   1.639   8.496 -0.1141 -0.2276 -0.3181
 7756SOL    HW134901   0.084   1.678   8.577  0.3606 -0.6333  0.0800
 7756SOL    HW234902   0.212   1.648   8.514 -0.2095 -3.6407  1.8761
 7757SOL     OW34903   1.179   4.005  17.460 -0.6015 -0.3040  0.6853
 7757SOL    HW134904   1.163   3.940  17.392  1.1292 -0.5342  0.5009
 7757SOL    HW234905   1.171   3.941  17.530  1.7112 -1.3471 -0.0206
 7758SOL     OW34906   0.766   4.084   2.190 -0.0679  0.1168  0.3249
 7758SOL    HW134907   0.704   4.156   2.182  0.2956  0.4496  0.4952
 7758SOL    HW234908   0.726   4.024   2.252  2.0309  0.2933  1.8710
 7759SOL     OW34909   0.229   0.882   2.010 -0.8296 -0.6268  0.1693
 7759SOL    HW134910   0.239   0.862   1.917  0.1429  1.6474 -0.2172
 7759SOL    HW234911   0.237   0.797   2.053 -0.0721 -0.1713  0.9171
 7760SOL     OW34912   0.096   2.743  15.476  0.1100  0.5973  0.6193
 7760SOL    HW134913   0.054   2.657  15.471  0.9737  0.3144 -1.7205
 7760SOL    HW234914   0.176   2.714  15.520  0.6758  1.5674  0.2328
 7761SOL     OW34915   4.239   0.420   7.581 -0.4526 -0.0734 -0.5573
 7761SOL    HW134916   4.217   0.410   7.673  1.2002  1.9000  0.0620
 7761SOL    HW234917   4.199   0.503   7.556  0.4621  1.4340  3.0543
 7762SOL     OW34918   3.089   0.486   3.327  0.0357 -0.6662  0.4462
 7762SOL    HW134919   3.146   0.521   3.258  1.6291  0.0494  2.1179
 7762SOL    HW234920   3.135   0.403   3.337  1.6607 -0.0940 -2.3013
 7763SOL     OW34921   0.212   2.209   5.045  0.2338 -0.1534 -0.5857
 7763SOL    HW134922   0.234   2.258   5.125  0.2959 -0.3192 -0.5004
 7763SOL    HW234923   0.296   2.212   5.000  0.7876  2.1074  0.5942
 7764SOL     OW34924   0.264   4.371   5.481  0.0720  0.6064 -0.7020
 7764SOL    HW134925   0.248   4.385   5.388 -1.8408  1.2366 -0.2865
 7764SOL    HW234926   0.356   4.345   5.488  0.5689  2.1225 -1.8295
 7765SOL     OW34927   1.241   4.626   0.753 -0.1879 -0.5992  0.2892
 7765SOL    HW134928   1.193   4.638   0.834 -1.0971  0.2117 -0.3764
 7765SOL    HW234929   1.330   4.627   0.788 -0.3111 -0.6817  0.6030
 7766SOL     OW34930   2.385   0.383  16.696  0.5803  0.5478  0.1114
 7766SOL    HW134931   2.451   0.443  16.729  0.4071  0.2655  0.9752
 7766SOL    HW234932   2.358   0.426  16.614  1.1624  0.2489 -0.2344
 7767SOL     OW34933   0.594   4.687   3.320  0.2071  0.1979  0.6391
 7767SOL    HW134934   0.660   0.012   3.351 -0.2618 -0.1309  2.2953
 7767SOL    HW234935   0.544   0.003   3.258 -1.0127 -0.8351  0.7459
 7768SOL     OW34936   3.315   3.275   8.900  0.3478 -0.5225 -0.6407
 7768SOL    HW134937   3.276   3.335   8.836  5.3676  0.3080 -2.9156
 7768SOL    HW234938   3.399   3.313   8.926  0.6364 -0.1983 -2.0412
 7769SOL     OW34939   3.885   0.869   1.518  0.4927  0.1827  0.1386
 7769SOL    HW134940   3.963   0.883   1.570 -0.1074  1.6529  0.6472
 7769SOL    HW234941   3.893   0.779   1.486 -0.4720 -0.1325  0.7905
 7770SOL     OW34942   4.055   0.656   7.654  0.2975  0.3987 -0.2118
 7770SOL    HW134943   4.060   0.672   7.748 -0.5988 -0.1556 -0.0694
 7770SOL    HW234944   3.962   0.631   7.650  0.5245 -0.5736  0.5907
 7771SOL     OW34945   1.143   1.233   1.536 -0.7867 -0.5364 -0.2561
 7771SOL    HW134946   1.166   1.315   1.493 -1.0123 -0.4906 -0.2902
 7771SOL    HW234947   1.212   1.233   1.602 -0.8197 -0.8548 -0.2199
 7772SOL     OW34948   2.492   1.236   8.026  0.4945  0.3489 -0.1184
 7772SOL    HW134949   2.426   1.270   7.966 -2.5514 -4.1867  0.5969
 7772SOL    HW234950   2.569   1.288   8.006  0.5309 -0.0407 -0.9814
 7773SOL     OW34951   1.966   4.346  17.328 -0.0198 -0.2314 -0.1007
 7773SOL    HW134952   1.979   4.282  17.398 -0.8798  0.1955  0.4593
 7773SOL    HW234953   2.008   4.308  17.251 -1.3986  1.4948 -1.7390
 7774SOL     OW34954   2.043   0.475   1.906  0.8573  0.3441 -0.6066
 7774SOL    HW134955   2.056   0.458   1.999  0.9881  1.8401 -0.3613
 7774SOL    HW234956   2.051   0.570   1.901 -1.3296  0.6690  2.3714
 7775SOL     OW34957   3.352   2.728   5.494  0.6247 -0.0955 -0.3432
 7775SOL    HW134958   3.394   2.741   5.580 -0.8381 -0.2511  0.4011
 7775SOL    HW234959   3.268   2.691   5.522 -0.9332  2.0967 -2.1640
 7776SOL     OW34960   3.769   2.943   7.044  0.4311  0.1280 -0.6960
 7776SOL    HW134961   3.844   2.998   7.022 -1.4804  2.3824 -1.6100
 7776SOL    HW234962   3.806   2.861   7.011  0.1803 -1.6974  3.5314
 7777SOL     OW34963   1.675   3.419   6.135  0.2164  0.0339 -0.6265
 7777SOL    HW134964   1.759   3.377   6.114  0.6582 -0.2179  1.6566
 7777SOL    HW234965   1.658   3.473   6.058 -0.2238  1.3060  0.3711
 7778SOL     OW34966   0.310   0.929  14.869 -0.6649  0.1812 -0.3702
 7778SOL    HW134967   0.271   0.943  14.783 -2.4173  2.6476  0.8379
 7778SOL    HW234968   0.359   0.847  14.858  0.2699  0.6163  0.5395
 7779SOL     OW34969   4.341   1.583   3.543  0.4204  0.1911 -0.2680
 7779SOL    HW134970   4.364   1.644   3.613 -2.0600 -0.1604  0.8464
 7779SOL    HW234971   4.422   1.534   3.527  0.1591  0.0789 -1.2424
 7780SOL     OW34972   1.665   2.201   2.578 -0.1493 -0.6162 -0.2441
 7780SOL    HW134973   1.714   2.219   2.498 -3.4999 -0.4360 -2.2214
 7780SOL    HW234974   1.590   2.260   2.579 -1.4861 -2.3091 -2.4378
 7781SOL     OW34975   2.083   1.776   5.682  0.3126 -0.1948  0.4554
 7781SOL    HW134976   2.022   1.718   5.728 -1.4770  0.0149 -1.6832
 7781SOL    HW234977   2.067   1.741   5.595  0.8469  0.5845  0.0422
 7782SOL     OW34978   1.600   3.270   3.330  0.8072 -0.4407 -0.1280
 7782SOL    HW134979   1.552   3.345   3.295 -1.3020 -1.4906  0.4936
 7782SOL    HW234980   1.593   3.286   3.424  0.7313  1.1439 -0.4013
 7783SOL     OW34981   1.252   4.647   1.581  0.2015 -0.4784 -0.0861
 7783SOL    HW134982   1.213   4.560   1.580  0.8691 -0.7565 -2.7628
 7783SOL    HW234983   1.276   4.663   1.490  3.5926  2.2637  1.2998
 7784SOL     OW34984   3.920   3.384   1.819  0.3619  0.3353 -0.0597
 7784SOL    HW134985   3.919   3.429   1.904 -1.7974 -1.7038  0.9882
 7784SOL    HW234986   4.002   3.335   1.822  1.0299  1.4088 -0.5292
 7785SOL     OW34987   1.780   2.518   0.278 -0.0196 -0.6131  0.2039
 7785SOL    HW134988   1.717   2.462   0.232 -1.6214  2.5251 -1.3724
 7785SOL    HW234989   1.845   2.456   0.312  0.4848  0.1090  0.5418
 7786SOL     OW34990   3.403   1.521   4.778 -0.3334  0.6240  0.5725
 7786SOL    HW134991   3.382   1.487   4.865  0.7906 -3.1318 -0.6598
 7786SOL    HW234992   3.316   1.548   4.748  0.4168  0.3780 -1.8348
 7787SOL     OW34993   2.013   4.247   2.065 -0.1561 -0.3779 -0.2384
 7787SOL    HW134994   2.048   4.252   1.976 -2.8319  1.3820 -1.2014
 7787SOL    HW234995   2.036   4.332   2.103 -1.1117 -0.6092  0.8471
 7788SOL     OW34996   0.034   4.582   2.396  0.1400 -0.4225  0.5701
 7788SOL    HW134997   0.106   4.644   2.387 -1.3209  1.4124  1.3213
 7788SOL    HW234998   0.041   4.558   2.488  1.8589  0.1212  0.5792
 7789SOL     OW34999   3.416   3.682   9.692  0.2030  0.2233 -0.1980
 7789SOL    HW135000   3.421   3.642   9.605 -0.6794  0.8113 -0.5241
 7789SOL    HW235001   3.425   3.610   9.754  1.1698  1.3684  1.0001
 7790SOL     OW35002   4.372   3.734   5.460  0.0319  0.0234 -0.1551
 7790SOL    HW135003   4.418   3.701   5.384  1.4095 -0.3396  0.8432
 7790SOL    HW235004   4.287   3.689   5.456 -0.6350  1.3846 -1.0865
 7791SOL     OW35005   0.826   4.675   9.132 -0.9187  0.2833 -0.5422
 7791SOL    HW135006   0.888   4.725   9.079  0.0610 -0.0969  0.2477
 7791SOL    HW235007   0.873   4.592   9.124  0.5664  0.9551  1.1669
 7792SOL     OW35008   3.164   3.140   4.294  0.4007 -0.2296  0.3525
 7792SOL    HW135009   3.092   3.118   4.234 -0.0198  0.5872  0.5584
 7792SOL    HW235010   3.210   3.206   4.243  0.2774  0.4799  1.1576
 7793SOL     OW35011   0.985   0.470   4.652  0.2020 -0.1286 -0.1430
 7793SOL    HW135012   0.980   0.436   4.741  1.1384 -1.3760 -0.5736
 7793SOL    HW235013   1.074   0.452   4.621  0.8501  1.0940  1.0251
 7794SOL     OW35014   0.792   2.147   3.355 -0.9651  0.0595 -0.3816
 7794SOL    HW135015   0.778   2.199   3.277  0.1922  1.5340  0.3961
 7794SOL    HW235016   0.855   2.082   3.324  1.2816  1.1933  1.7702
 7795SOL     OW35017   2.077   3.826   8.849  0.4169  0.2214 -0.4974
 7795SOL    HW135018   2.139   3.774   8.901 -1.3131 -0.6108  0.7442
 7795SOL    HW235019   2.119   3.912   8.854 -1.1225  0.8718  1.3330
 7796SOL     OW35020   3.681   3.056   8.697  0.3875  0.5968  0.5944
 7796SOL    HW135021   3.639   3.083   8.778  2.1274  3.0837  0.6397
 7796SOL    HW235022   3.676   2.962   8.717 -0.8652  0.8016  1.2769
 7797SOL     OW35023   2.467   0.754   2.044 -0.0719  0.5851  0.3394
 7797SOL    HW135024   2.526   0.712   2.106 -1.7872 -0.2143  1.4097
 7797SOL    HW235025   2.514   0.836   2.026  0.9382  0.0675  0.6488
 7798SOL     OW35026   0.549   1.410   3.303 -0.0773 -0.5402  0.2364
 7798SOL    HW135027   0.511   1.483   3.254  0.8148 -0.8706 -0.9598
 7798SOL    HW235028   0.513   1.338   3.252  2.0017 -0.2780 -1.6309
 7799SOL     OW35029   4.181   4.635   7.722 -0.2143 -0.5451 -0.0478
 7799SOL    HW135030   4.171   4.727   7.745  1.9188 -0.2128 -0.4841
 7799SOL    HW235031   4.171   4.637   7.627  0.8877 -1.6284 -0.1911
 7800SOL     OW35032   2.984   3.001   6.087  0.4815 -0.7540  1.0980
 7800SOL    HW135033   3.010   2.975   5.998 -0.1848  0.8515  0.4531
 7800SOL    HW235034   2.892   3.022   6.076  0.5400 -0.3218  1.4736
 7801SOL     OW35035   3.216   1.341   9.712 -0.5524 -0.6796 -0.4478
 7801SOL    HW135036   3.176   1.383   9.636 -3.0476 -0.4902  0.9758
 7801SOL    HW235037   3.261   1.414   9.753 -1.9930  0.5114 -1.0144
 7802SOL     OW35038   4.439   3.904   5.152  0.5991  0.2739 -0.3748
 7802SOL    HW135039   4.493   3.910   5.231  1.0419 -0.2614 -0.6359
 7802SOL    HW235040   4.499   3.843   5.108  0.1528  0.9994 -1.9777
 7803SOL     OW35041   3.388   4.599  16.020 -0.2520  0.0853  0.3120
 7803SOL    HW135042   3.468   4.650  16.005  0.2514 -0.9804 -0.6266
 7803SOL    HW235043   3.328   4.668  16.049 -3.1313 -1.0521 -2.9031
 7804SOL     OW35044   1.928   3.442   0.044 -0.0213  0.1233  0.4392
 7804SOL    HW135045   2.009   3.483   0.011  0.6295 -1.3812  0.1684
 7804SOL    HW235046   1.934   3.353   0.010 -1.1526  0.6003 -1.0167
 7805SOL     OW35047   4.087   0.058   2.890 -0.1893  0.3719 -0.3437
 7805SOL    HW135048   4.077   0.140   2.842  1.6376  0.0953 -1.1643
 7805SOL    HW235049   4.148   0.011   2.833 -0.9697 -0.3891 -0.5617
 7806SOL     OW35050   4.552   1.251   4.799 -0.0175 -0.4936  0.5916
 7806SOL    HW135051   4.533   1.331   4.847  1.2742  1.5139 -2.2657
 7806SOL    HW235052   4.544   1.286   4.710 -0.5530 -0.1454  0.7749
 7807SOL     OW35053   4.514   3.790   3.118  0.4948 -0.5230  0.7602
 7807SOL    HW135054   4.517   3.747   3.033 -2.3892  0.0314  0.3846
 7807SOL    HW235055   4.490   3.713   3.170  1.8879 -1.4196  0.1078
 7808SOL     OW35056   0.964   0.369   2.083 -0.1625  0.3898 -0.1154
 7808SOL    HW135057   0.968   0.336   2.173 -0.3062  0.7553  0.0231
 7808SOL    HW235058   0.877   0.343   2.055 -0.0066 -0.2349 -0.0315
 7809SOL     OW35059   2.876   4.518   7.071  0.6535  0.4165  0.0241
 7809SOL    HW135060   2.838   4.466   7.141  0.0315  0.1066 -0.5392
 7809SOL    HW235061   2.970   4.506   7.085  0.2714 -0.5168  1.7477
 7810SOL     OW35062   4.174   0.988   3.725  0.4036 -0.1106 -0.6415
 7810SOL    HW135063   4.258   1.033   3.728  0.0853  0.4227  0.3720
 7810SOL    HW235064   4.104   1.046   3.696 -0.2722 -0.2776  0.6714
 7811SOL     OW35065   1.755   3.883   5.531 -0.3587 -0.0500 -0.4049
 7811SOL    HW135066   1.790   3.830   5.459 -2.4902  1.9463 -2.9090
 7811SOL    HW235067   1.840   3.901   5.572 -0.1141 -1.3039 -0.3636
 7812SOL     OW35068   4.599   4.304   7.607  0.2690  0.4709  0.4379
 7812SOL    HW135069   4.640   4.262   7.682  0.1762 -1.1045 -0.3835
 7812SOL    HW235070   4.525   4.357   7.634 -1.4084 -1.8452  0.4515
 7813SOL     OW35071   2.719   0.550   5.356  0.7309  0.3909  0.1456
 7813SOL    HW135072   2.715   0.591   5.269 -1.4834  1.0513  0.5516
 7813SOL    HW235073   2.681   0.463   5.346  0.1463  0.3489  2.7610
 7814SOL     OW35074   0.893   0.598   6.370 -0.5219 -0.4911 -0.1896
 7814SOL    HW135075   0.836   0.604   6.294  1.2261  1.8935 -1.2920
 7814SOL    HW235076   0.974   0.570   6.326 -0.0478 -0.2809  0.5533
 7815SOL     OW35077   3.452   3.936   4.517 -0.4163 -0.6793  1.0079
 7815SOL    HW135078   3.460   3.852   4.563  3.9853  0.1749  1.7835
 7815SOL    HW235079   3.448   3.911   4.424 -1.3186 -0.8730  1.1024
 7816SOL     OW35080   0.955   4.527  11.497 -0.6538  0.3246 -0.1901
 7816SOL    HW135081   1.036   4.517  11.547 -0.7509 -1.1550 -0.3126
 7816SOL    HW235082   0.883   4.552  11.554 -0.7640 -2.5116  0.9420
 7817SOL     OW35083   0.686   0.848   8.479 -0.0068  0.8921 -0.3232
 7817SOL    HW135084   0.763   0.900   8.501  0.8553 -0.8531  0.7778
 7817SOL    HW235085   0.617   0.912   8.500 -1.3175 -1.0873  1.4465
 7818SOL     OW35086   4.492   0.255  17.500  0.4765  0.1748 -0.0795
 7818SOL    HW135087   4.544   0.318  17.550  0.0855  1.3801 -1.1836
 7818SOL    HW235088   4.443   0.304  17.434  1.9805  1.8794  0.0720
 7819SOL     OW35089   1.436   3.500   9.329 -0.0573 -0.0986 -0.2364
 7819SOL    HW135090   1.380   3.459   9.394  0.7718 -0.1655  0.4357
 7819SOL    HW235091   1.524   3.500   9.367  0.9019  0.5040 -2.4201
 7820SOL     OW35092   0.550   0.576   5.834  0.4921  0.5669 -0.7786
 7820SOL    HW135093   0.630   0.524   5.827  2.2780  3.1412  0.4302
 7820SOL    HW235094   0.588   0.660   5.858 -0.9789  0.7069  1.1502
 7821SOL     OW35095   0.279   0.151   6.611  0.1449 -0.4422  0.0233
 7821SOL    HW135096   0.280   0.057   6.591  2.4633 -0.3755 -0.1099
 7821SOL    HW235097   0.279   0.143   6.707  0.1334 -0.3476  0.0313
 7822SOL     OW35098   4.515   2.377  12.848  0.2359 -0.2492 -0.6497
 7822SOL    HW135099   4.492   2.443  12.914 -0.6177 -1.2477  0.0341
 7822SOL    HW235100   4.564   2.424  12.780  1.1162  3.0584  2.2920
 7823SOL     OW35101   3.553   1.692  11.205 -0.0428 -0.2011  0.0744
 7823SOL    HW135102   3.472   1.742  11.203  0.3988  0.4680 -1.0172
 7823SOL    HW235103   3.592   1.710  11.290 -0.3299  0.6247  0.0230
 7824SOL     OW35104   0.914   2.945   0.310 -0.0705 -0.2714  0.2107
 7824SOL    HW135105   0.935   2.866   0.361  0.2443  0.2519  0.9022
 7824SOL    HW235106   0.880   2.997   0.383  1.0019 -1.0627  1.2942
 7825SOL     OW35107   2.672   0.666  14.574  0.1210  0.5405 -0.1845
 7825SOL    HW135108   2.755   0.702  14.606  1.2194 -1.5660 -0.7254
 7825SOL    HW235109   2.699   0.576  14.557  0.2908  0.6173 -0.3290
 7826SOL     OW35110   1.117   4.423   9.517  0.0720  0.0094 -0.2373
 7826SOL    HW135111   1.122   4.362   9.444 -1.1477  1.5329 -1.6031
 7826SOL    HW235112   1.209   4.449   9.502  0.2853 -0.8281 -0.3697
 7827SOL     OW35113   1.111   2.514   8.969 -0.7575  0.0143 -0.0207
 7827SOL    HW135114   1.110   2.422   8.998  0.1117 -0.1727 -0.5940
 7827SOL    HW235115   1.094   2.559   9.051 -1.7410  2.0511 -1.3549
 7828SOL     OW35116   0.949   1.630   4.376 -0.1254 -0.0211 -0.0817
 7828SOL    HW135117   0.951   1.535   4.383  4.0601  0.2428  2.3503
 7828SOL    HW235118   1.014   1.654   4.310 -0.0790 -0.2787 -0.1288
 7829SOL     OW35119   2.836   3.974   5.710  1.0000  0.2882  0.3880
 7829SOL    HW135120   2.813   3.890   5.672  1.6704 -0.4828  1.6734
 7829SOL    HW235121   2.920   3.987   5.667  0.0787  1.6943 -0.9890
 7830SOL     OW35122   2.597   3.853   4.750 -0.5509 -0.1285  0.1827
 7830SOL    HW135123   2.527   3.795   4.777  1.5291 -1.3756  2.9488
 7830SOL    HW235124   2.599   3.821   4.660  2.1766 -1.3985  0.6960
 7831SOL     OW35125   0.896   3.924   6.816  0.3448  0.4308  0.7031
 7831SOL    HW135126   0.962   3.919   6.747  1.3461  1.4599  1.5880
 7831SOL    HW235127   0.822   3.899   6.760 -0.0875  0.9004  1.0647
 7832SOL     OW35128   3.113   3.220   7.964 -0.2275 -0.5414 -0.1564
 7832SOL    HW135129   3.188   3.174   8.000  0.3237 -0.1963 -0.8815
 7832SOL    HW235130   3.157   3.259   7.889  1.1213 -0.3731  0.7331
 7833SOL     OW35131   1.095   2.650   2.683 -0.1177 -0.1622  0.0804
 7833SOL    HW135132   1.036   2.724   2.677  0.6731  0.5112  0.5925
 7833SOL    HW235133   1.178   2.697   2.675  0.5998 -1.5809 -0.9992
 7834SOL     OW35134   2.160   0.332   1.699  0.0053  0.3860  0.0040
 7834SOL    HW135135   2.121   0.397   1.757 -0.4566  0.4691 -0.4009
 7834SOL    HW235136   2.219   0.294   1.764 -1.0968  0.8185  1.2533
 7835SOL     OW35137   3.748   3.438   2.762  0.2440 -0.3420 -0.0290
 7835SOL    HW135138   3.672   3.463   2.815 -0.1390  0.3125 -0.8772
 7835SOL    HW235139   3.698   3.378   2.706 -2.6276 -0.1597  2.3157
 7836SOL     OW35140   2.604   2.001  16.538  0.4165 -0.1444 -0.3046
 7836SOL    HW135141   2.596   2.096  16.548  1.6769  0.1473 -1.9897
 7836SOL    HW235142   2.581   1.984  16.447 -0.2512  1.9014 -0.5181
 7837SOL     OW35143   0.304   3.735   3.958  0.0489  0.9128  0.1307
 7837SOL    HW135144   0.261   3.651   3.949 -2.2785  2.1150  0.1504
 7837SOL    HW235145   0.228   3.788   3.935 -1.3056 -0.8462  0.6062
 7838SOL     OW35146   1.423   2.682   5.406  0.1053 -0.2568 -0.6146
 7838SOL    HW135147   1.368   2.606   5.427 -0.2785  0.4586  0.9610
 7838SOL    HW235148   1.368   2.753   5.438 -0.8017 -0.0045 -2.7225
 7839SOL     OW35149   0.178   2.865   0.944 -0.3781 -0.7953 -0.2644
 7839SOL    HW135150   0.249   2.848   1.007  0.6881  1.8891 -0.7827
 7839SOL    HW235151   0.126   2.784   0.948  0.6736 -1.4669 -0.0069
 7840SOL     OW35152   4.548   0.434   3.261  0.0220  0.2774  0.6614
 7840SOL    HW135153   4.455   0.415   3.266  0.4816 -1.6144  2.1776
 7840SOL    HW235154   4.568   0.474   3.346  1.4926  1.8158 -0.4098
 7841SOL     OW35155   1.866   1.317   2.374  0.5580  0.2573 -0.6551
 7841SOL    HW135156   1.890   1.382   2.308  2.2781  1.4268  1.0813
 7841SOL    HW235157   1.922   1.334   2.451 -0.0676  2.6262 -0.7011
 7842SOL     OW35158   4.102   3.536  17.451 -0.2546 -0.1094 -0.0462
 7842SOL    HW135159   4.158   3.614  17.459 -1.2597  0.4192  1.8379
 7842SOL    HW235160   4.153   3.491  17.383 -1.0145 -1.2529  0.1506
 7843SOL     OW35161   4.521   1.777   9.433  0.4616  0.5540 -0.7214
 7843SOL    HW135162   4.526   1.872   9.444  3.3740 -0.0433  3.3291
 7843SOL    HW235163   4.580   1.760   9.506  0.8203  0.6740 -0.9817
 7844SOL     OW35164   1.701   0.020   7.965 -0.0340  0.2554 -0.3415
 7844SOL    HW135165   1.793   0.016   7.940 -0.0205  0.9510 -0.4094
 7844SOL    HW235166   1.676   4.666   7.952  1.5600 -0.4241  1.4708
 7845SOL     OW35167   0.637   1.208   4.057  1.0187  0.6303  0.0848
 7845SOL    HW135168   0.575   1.166   3.998  1.8794 -0.2017 -0.2354
 7845SOL    HW235169   0.581   1.255   4.119  0.8041 -0.6206  0.8352
 7846SOL     OW35170   2.324   3.026   7.046 -0.2028  0.3836 -0.2454
 7846SOL    HW135171   2.317   3.071   6.962  2.1754 -0.3400 -0.8628
 7846SOL    HW235172   2.300   3.089   7.113  0.8500 -0.9932  1.4424
 7847SOL     OW35173   1.428   4.676   5.594 -0.0372  0.5481 -0.2850
 7847SOL    HW135174   1.443   4.614   5.666 -3.0113  0.4522  0.2494
 7847SOL    HW235175   1.346   4.648   5.555  0.1110 -1.9591  1.2071
 7848SOL     OW35176   2.245   0.041   8.244 -0.0595 -0.0089  0.6673
 7848SOL    HW135177   2.216   0.125   8.208  0.8530 -0.4770 -1.1351
 7848SOL    HW235178   2.298   0.009   8.171 -0.4734  0.5581  0.1200
 7849SOL     OW35179   4.454   4.629  11.185  0.4566 -0.2270 -0.0334
 7849SOL    HW135180   4.513   4.704  11.177 -0.1785  0.3950  1.0762
 7849SOL    HW235181   4.458   4.589  11.098  0.3271 -0.4695  0.0710
 7850SOL     OW35182   0.700   2.421   0.847 -0.4145  0.6551  0.1001
 7850SOL    HW135183   0.638   2.415   0.775 -0.1570 -0.6631 -0.0006
 7850SOL    HW235184   0.776   2.386   0.802  0.4249  0.7204  1.4678
 7851SOL     OW35185   0.349   1.581  16.459  0.0556  0.0122  0.4177
 7851SOL    HW135186   0.293   1.564  16.534  0.0231  1.3698  0.6973
 7851SOL    HW235187   0.378   1.493  16.435 -0.6197  0.1099 -0.7854
 7852SOL     OW35188   4.015   0.772   4.761  0.4195  0.4928  0.2489
 7852SOL    HW135189   4.095   0.818   4.734  1.3784 -0.9136  0.6766
 7852SOL    HW235190   3.949   0.839   4.780 -0.9029 -0.5492 -0.7021
 7853SOL     OW35191   1.590   0.531   8.062  0.2225  0.4339  0.4643
 7853SOL    HW135192   1.518   0.479   8.026 -0.2817  0.1257  1.9073
 7853SOL    HW235193   1.652   0.537   7.990  2.3104 -2.9692  1.9909
 7854SOL     OW35194   3.902   2.471   1.219  0.2456 -0.2359 -0.2846
 7854SOL    HW135195   3.808   2.470   1.201  0.5146 -1.6557 -1.6267
 7854SOL    HW235196   3.912   2.548   1.274  1.0730  0.6598 -1.6794
 7855SOL     OW35197   3.727   0.758   3.320 -0.1187 -0.3205  0.1581
 7855SOL    HW135198   3.659   0.825   3.319  1.6765  1.5222  1.7583
 7855SOL    HW235199   3.701   0.707   3.397  1.4267  0.5967  1.2702
 7856SOL     OW35200   0.469   2.590   6.588 -0.0827  0.2613 -0.2191
 7856SOL    HW135201   0.504   2.502   6.584 -0.1945  0.2361 -0.6932
 7856SOL    HW235202   0.550   2.641   6.584 -1.1030  1.8295 -1.1680
 7857SOL     OW35203   2.490   0.945   9.110  0.0817 -0.4069 -0.1688
 7857SOL    HW135204   2.491   0.862   9.062 -1.1523 -0.8981  0.6587
 7857SOL    HW235205   2.487   0.898   9.193  2.9398  2.2407  1.4034
 7858SOL     OW35206   1.253   2.374   9.738  0.1663  0.1799 -0.7693
 7858SOL    HW135207   1.221   2.326   9.662 -1.3522  2.1484 -1.3681
 7858SOL    HW235208   1.319   2.309   9.761 -0.0037 -0.3926 -1.9026
 7859SOL     OW35209   1.410   3.656  17.574 -0.5546  0.1289 -0.6396
 7859SOL    HW135210   1.415   3.613  17.488 -1.9701 -2.4348  0.5432
 7859SOL    HW235211   1.403   3.746  17.541 -0.2970  0.7460  1.0166
 7860SOL     OW35212   3.737   4.402   7.922  0.1047 -0.5928  0.0203
 7860SOL    HW135213   3.766   4.417   8.012  2.2985 -2.0919 -0.4292
 7860SOL    HW235214   3.787   4.473   7.881  1.0695 -1.8396 -0.9555
 7861SOL     OW35215   0.384   0.448   7.227  0.0449  0.0567  0.1114
 7861SOL    HW135216   0.438   0.500   7.167  1.8648 -0.1463  1.5870
 7861SOL    HW235217   0.301   0.482   7.192 -0.6216 -0.7417  0.9134
 7862SOL     OW35218   2.440   0.551  12.892 -0.3118 -0.1883 -0.1724
 7862SOL    HW135219   2.431   0.616  12.822 -1.0356  0.8926  0.9257
 7862SOL    HW235220   2.376   0.584  12.955 -0.0352  0.9158 -0.4587
 7863SOL     OW35221   1.038   1.656   5.909  0.2766 -0.1434 -0.0467
 7863SOL    HW135222   1.129   1.655   5.878 -0.0144 -0.0691 -0.9013
 7863SOL    HW235223   1.020   1.563   5.925 -0.8262 -0.2078 -1.6217
 7864SOL     OW35224   2.097   1.021  11.233  0.1741  0.3362 -0.2487
 7864SOL    HW135225   2.069   1.028  11.324  2.4149  0.3392  0.4556
 7864SOL    HW235226   2.094   0.927  11.215 -1.5540  0.0493  1.5645
 7865SOL     OW35227   4.272   4.454   4.056 -0.3990  0.0438 -0.4808
 7865SOL    HW135228   4.200   4.516   4.050 -1.3742 -0.9675  0.8418
 7865SOL    HW235229   4.310   4.468   3.969 -2.9679  0.7034 -1.4932
 7866SOL     OW35230   2.689   4.115   6.998  0.0817 -0.3847 -0.4367
 7866SOL    HW135231   2.683   4.201   7.040  2.4231 -0.6064  0.3234
 7866SOL    HW235232   2.628   4.125   6.925  1.0203  2.4337 -0.8167
 7867SOL     OW35233   0.176   1.836  13.856 -0.1487 -0.4929  0.2818
 7867SOL    HW135234   0.174   1.835  13.951  1.2931  1.6958  0.3459
 7867SOL    HW235235   0.133   1.754  13.834 -0.6851 -0.5536  1.5687
 7868SOL     OW35236   4.553   1.338   2.520  0.0054 -0.1320  0.1009
 7868SOL    HW135237   4.626   1.314   2.577 -1.4214 -2.9295  0.7348
 7868SOL    HW235238   4.571   1.432   2.507 -1.8083  0.3027  0.8611
 7869SOL     OW35239   1.502   3.225   4.694 -0.2963 -0.2383 -0.1530
 7869SOL    HW135240   1.528   3.316   4.678 -0.8926 -0.1177 -0.4319
 7869SOL    HW235241   1.570   3.196   4.755  1.1947  1.1654 -1.1316
 7870SOL     OW35242   3.423   4.387  15.136  0.4340  0.4943 -0.5520
 7870SOL    HW135243   3.347   4.331  15.153  0.6298  0.3814 -0.0362
 7870SOL    HW235244   3.388   4.468  15.173  1.8729  1.4457 -1.2441
 7871SOL     OW35245   0.729   4.101   8.353  0.0814 -0.1641  0.0232
 7871SOL    HW135246   0.820   4.130   8.353 -0.3180  1.0478 -2.1937
 7871SOL    HW235247   0.721   4.016   8.396  1.6612 -0.2677  0.1024
 7872SOL     OW35248   3.701   3.268   4.273 -0.0160  0.0969  0.2708
 7872SOL    HW135249   3.773   3.331   4.277  0.6685 -0.6663 -0.2508
 7872SOL    HW235250   3.678   3.277   4.365 -1.1497  0.6077 -0.0543
 7873SOL     OW35251   1.345   0.688   8.952 -0.5180 -0.0389  0.5081
 7873SOL    HW135252   1.300   0.621   9.003 -1.9065  0.3884 -0.1583
 7873SOL    HW235253   1.428   0.680   8.997 -0.5511  1.1451  0.7926
 7874SOL     OW35254   4.733   0.522   3.087  0.1061 -0.1597 -0.1932
 7874SOL    HW135255   4.733   0.598   3.146  0.3776  0.0584 -0.4719
 7874SOL    HW235256   4.677   0.469   3.144  1.6404 -0.7755  0.7591
 7875SOL     OW35257   1.941   4.327   2.555 -0.6090 -0.2739  0.1774
 7875SOL    HW135258   1.944   4.232   2.567  0.3164 -0.4363 -1.4472
 7875SOL    HW235259   1.933   4.350   2.648  0.3836  0.1214  0.1653
 7876SOL     OW35260   3.019   0.636  14.848 -0.2724 -0.6154  0.0154
 7876SOL    HW135261   2.985   0.662  14.763  1.7035  0.6067 -0.3975
 7876SOL    HW235262   3.039   0.722  14.885 -3.3466  0.3205 -0.5193
 7877SOL     OW35263   0.190   1.147   3.819  0.1151 -0.1988 -0.0261
 7877SOL    HW135264   0.109   1.106   3.850 -0.9651  1.6685 -0.3433
 7877SOL    HW235265   0.168   1.191   3.737  0.7552  0.4680  0.1587
 7878SOL     OW35266   3.682   4.285   4.810  0.2308 -0.0257  0.3714
 7878SOL    HW135267   3.636   4.203   4.826 -1.5888  1.0987  0.8644
 7878SOL    HW235268   3.694   4.260   4.718  0.1265  0.3666  0.2520
 7879SOL     OW35269   3.610   0.779   8.264 -0.0876 -0.6183  0.1804
 7879SOL    HW135270   3.642   0.696   8.228 -1.0771 -0.9975  0.1760
 7879SOL    HW235271   3.594   0.756   8.356 -3.8591  1.5316  0.0388
 7880SOL     OW35272   3.615   0.372   3.535  0.0465 -0.1877  0.1471
 7880SOL    HW135273   3.600   0.291   3.487 -2.6046 -0.3491  1.2351
 7880SOL    HW235274   3.699   0.362   3.578  0.5992  0.6163 -0.7227
 7881SOL     OW35275   0.772   1.048   9.477  0.5355  0.1395  0.5819
 7881SOL    HW135276   0.715   0.971   9.488 -0.0514  0.3698 -0.7716
 7881SOL    HW235277   0.854   1.008   9.505 -0.8879 -2.1678  1.4931
 7882SOL     OW35278   3.441   4.588   4.939 -0.2411 -0.0669  0.5655
 7882SOL    HW135279   3.499   4.611   4.867 -0.2570  2.2550  1.3064
 7882SOL    HW235280   3.432   4.493   4.928 -1.6235  0.2342 -0.8275
 7883SOL     OW35281   3.155   0.548   3.723  0.1389 -0.4349  0.3079
 7883SOL    HW135282   3.227   0.509   3.673 -0.3819  0.3071 -1.0050
 7883SOL    HW235283   3.090   0.552   3.654  0.0052  1.5229  0.5577
 7884SOL     OW35284   4.604   0.568  12.939  0.6865 -0.2256  0.3379
 7884SOL    HW135285   4.605   0.562  13.034  0.1747  0.0639  0.3614
 7884SOL    HW235286   4.644   0.654  12.927  0.4303 -0.3569 -1.4419
 7885SOL     OW35287   4.217   2.552   4.524 -0.7389  0.3662 -0.0101
 7885SOL    HW135288   4.140   2.581   4.573 -0.4654  0.2409  0.4931
 7885SOL    HW235289   4.195   2.583   4.437  0.2895 -0.6963 -0.6548
 7886SOL     OW35290   1.401   2.094   6.688  0.4969 -0.2398 -0.2447
 7886SOL    HW135291   1.439   2.128   6.608 -1.9554  0.1628 -1.2184
 7886SOL    HW235292   1.466   2.122   6.753  0.6059 -0.9607 -0.0323
 7887SOL     OW35293   4.727   4.033   2.755  0.4345  0.0175 -0.8215
 7887SOL    HW135294   4.668   4.103   2.726  1.3092  0.6232 -1.1316
 7887SOL    HW235295   4.669   3.992   2.819  1.3058  1.9403  1.1711
 7888SOL     OW35296   0.646   0.389   2.149 -0.5089  0.1924 -0.3797
 7888SOL    HW135297   0.667   0.479   2.172 -0.6801 -0.0791  0.8340
 7888SOL    HW235298   0.653   0.356   2.239  0.3499  1.5091  0.0328
 7889SOL     OW35299   0.806   3.192  10.988 -0.2527  0.0854  0.4316
 7889SOL    HW135300   0.856   3.273  10.999 -0.2536  0.2923 -1.0646
 7889SOL    HW235301   0.727   3.236  10.955  1.2601  2.9049  0.5922
 7890SOL     OW35302   1.902   2.199   3.164 -0.6403  0.3910 -0.0339
 7890SOL    HW135303   1.908   2.294   3.167  1.9347  0.2417 -0.6352
 7890SOL    HW235304   1.924   2.180   3.256  1.5647  1.3923 -0.3571
 7891SOL     OW35305   1.657   4.507   8.633  0.0223 -0.3049 -0.7069
 7891SOL    HW135306   1.590   4.560   8.677 -0.1239 -1.2583  0.2062
 7891SOL    HW235307   1.736   4.529   8.681 -1.5052  3.0309  0.3364
 7892SOL     OW35308   0.805   1.486   4.717 -0.5285 -0.3390 -0.0390
 7892SOL    HW135309   0.759   1.521   4.641 -0.5416 -0.1022  0.0780
 7892SOL    HW235310   0.843   1.409   4.675  1.8193  1.4251 -1.1728
 7893SOL     OW35311   0.625   0.304   6.839  0.2351  0.4467  0.3530
 7893SOL    HW135312   0.718   0.295   6.861  0.2345  0.1972  0.2493
 7893SOL    HW235313   0.587   0.221   6.866  1.0876 -0.4607 -1.2650
 7894SOL     OW35314   1.795   4.396  12.894 -0.4998 -0.1073  0.4636
 7894SOL    HW135315   1.806   4.409  12.799  0.6487 -1.0484  0.4772
 7894SOL    HW235316   1.869   4.448  12.923 -1.2215 -0.3852  2.7744
 7895SOL     OW35317   3.637   3.742  11.028  0.6049 -0.5397  0.5151
 7895SOL    HW135318   3.601   3.794  10.956  1.3104 -1.0883 -0.2329
 7895SOL    HW235319   3.700   3.813  11.045  1.4508 -1.0077 -0.6449
 7896SOL     OW35320   0.544   1.252   8.878 -0.2484  0.1426  0.2883
 7896SOL    HW135321   0.515   1.310   8.949 -1.7500  0.8244 -0.8781
 7896SOL    HW235322   0.521   1.165   8.910  0.5855  0.0765  0.7088
 7897SOL     OW35323   2.579   0.429   2.771  0.2266 -0.4303  0.1349
 7897SOL    HW135324   2.538   0.495   2.827 -0.7767  0.1942 -1.3114
 7897SOL    HW235325   2.646   0.388   2.825 -0.5673 -1.6704  0.1630
 7898SOL     OW35326   3.918   4.257  14.053  0.6877 -0.4438 -0.0957
 7898SOL    HW135327   3.930   4.167  14.024 -2.4389 -0.9955  0.3834
 7898SOL    HW235328   3.854   4.288  13.988  0.6726 -2.9863 -1.2878
 7899SOL     OW35329   2.288   3.554  11.125  0.1037  0.0782 -0.0488
 7899SOL    HW135330   2.200   3.570  11.158  0.5019 -0.5269  1.3325
 7899SOL    HW235331   2.314   3.643  11.102 -2.2264  0.5601 -0.8156
 7900SOL     OW35332   2.215   4.260   5.157  0.4365  0.3239  0.6209
 7900SOL    HW135333   2.288   4.197   5.159 -0.0940 -0.2321  2.9846
 7900SOL    HW235334   2.207   4.293   5.247 -2.0560 -0.0208  0.5179
 7901SOL     OW35335   3.820   3.317   8.723  0.1661 -0.5201 -0.0511
 7901SOL    HW135336   3.792   3.234   8.684  2.6088 -1.1985 -0.3530
 7901SOL    HW235337   3.847   3.364   8.644  2.1040 -0.5848  0.5700
 7902SOL     OW35338   2.177   0.402  14.215 -0.1379  0.1994  0.1627
 7902SOL    HW135339   2.126   0.332  14.173 -0.6112  0.5156  0.2089
 7902SOL    HW235340   2.115   0.466  14.250 -2.8962 -1.5814 -1.4392
 7903SOL     OW35341   1.220   4.390  10.144 -0.2099  0.4584 -0.4361
 7903SOL    HW135342   1.142   4.340  10.166 -0.3143 -0.3425 -2.5837
 7903SOL    HW235343   1.243   4.423  10.231  1.5584 -0.8529 -0.3857
 7904SOL     OW35344   3.800   2.803   2.073 -0.4125 -0.1755 -0.4414
 7904SOL    HW135345   3.864   2.865   2.107 -0.7361  0.4778 -1.0332
 7904SOL    HW235346   3.789   2.858   1.996 -0.3120  0.2052 -0.1837
 7905SOL     OW35347   1.780   3.025   9.329 -0.1805  0.2286  0.5762
 7905SOL    HW135348   1.719   3.099   9.324  0.8886  0.9043 -2.0821
 7905SOL    HW235349   1.742   2.991   9.410 -0.2846  0.9978  0.8481
 7906SOL     OW35350   4.125   1.788  16.308 -0.2680  0.4458 -0.0956
 7906SOL    HW135351   4.203   1.771  16.255 -1.0472 -0.1874 -1.0454
 7906SOL    HW235352   4.078   1.705  16.315  0.3642 -0.0297 -1.4288
 7907SOL     OW35353   2.832   3.062   1.358 -0.0947 -0.3383 -0.2458
 7907SOL    HW135354   2.818   3.007   1.281 -1.3263 -1.3301  0.6931
 7907SOL    HW235355   2.795   3.147   1.334  0.8531 -0.3995 -1.9153
 7908SOL     OW35356   4.382   0.390   2.474  0.2733 -0.3984 -0.2716
 7908SOL    HW135357   4.311   0.379   2.411  1.1949 -3.7598 -0.7158
 7908SOL    HW235358   4.431   0.467   2.446 -1.0148  0.0524 -1.2484
 7909SOL     OW35359   3.607   2.323   6.218  0.0640 -0.2984  0.2501
 7909SOL    HW135360   3.652   2.283   6.292 -1.2931 -1.4900  0.4211
 7909SOL    HW235361   3.676   2.339   6.153  0.9516 -2.9415  0.5461
 7910SOL     OW35362   1.289   2.999   7.077 -0.3906  0.3223  0.2891
 7910SOL    HW135363   1.368   3.000   7.131 -0.2179  1.5910  0.0115
 7910SOL    HW235364   1.231   3.009   7.151 -0.5736  1.1858  0.0287
 7911SOL     OW35365   2.484   2.746   6.356  0.1793  0.2141  0.4441
 7911SOL    HW135366   2.573   2.732   6.326  0.1517 -0.4309  0.6695
 7911SOL    HW235367   2.480   2.708   6.444  2.2825 -0.9471  0.0253
 7912SOL     OW35368   3.670   2.214   5.905  0.2584 -0.0802 -0.1198
 7912SOL    HW135369   3.750   2.239   5.950  0.5233  0.2600 -0.7829
 7912SOL    HW235370   3.682   2.119   5.905 -1.0399 -0.2436  1.9030
 7913SOL     OW35371   2.556   3.573   3.080  0.1304 -0.2837 -0.0586
 7913SOL    HW135372   2.579   3.642   3.143  2.3843 -2.1942  1.2349
 7913SOL    HW235373   2.600   3.605   3.002 -1.6094  2.0669 -0.0657
 7914SOL     OW35374   3.087   2.277  17.172 -0.2909 -0.0158 -0.2578
 7914SOL    HW135375   3.105   2.206  17.109  0.1138 -0.5626  0.4740
 7914SOL    HW235376   3.030   2.235  17.237 -1.2506  0.8962 -0.5086
 7915SOL     OW35377   4.043   3.517   9.172  0.0029  0.0308 -0.4026
 7915SOL    HW135378   3.948   3.508   9.174  0.1435 -1.0921  2.3807
 7915SOL    HW235379   4.067   3.497   9.082 -1.6140  2.5090 -1.3804
 7916SOL     OW35380   0.554   1.741   7.964  0.0404  0.1857 -0.0965
 7916SOL    HW135381   0.524   1.654   7.937  0.6404  0.3233 -1.2493
 7916SOL    HW235382   0.514   1.758   8.049  0.4074  0.6289 -0.0094
 7917SOL     OW35383   3.016   0.903   2.403 -0.1369  0.1496 -0.5096
 7917SOL    HW135384   2.931   0.886   2.444 -0.0077 -0.6827 -0.5934
 7917SOL    HW235385   2.989   0.902   2.311 -0.8180 -2.2214 -0.2729
 7918SOL     OW35386   3.915   4.466   6.729 -0.0430 -0.5145  0.3393
 7918SOL    HW135387   3.985   4.461   6.665 -0.2868  3.1545 -0.1795
 7918SOL    HW235388   3.973   4.502   6.796  0.3112  2.6311 -1.7078
 7919SOL     OW35389   4.178   2.012   8.775 -0.0969  0.1703 -0.1553
 7919SOL    HW135390   4.198   1.925   8.741  0.7461  0.2650  0.0872
 7919SOL    HW235391   4.084   2.010   8.756 -0.2962 -0.0647  0.8966
 7920SOL     OW35392   1.803   2.829   2.360 -0.1528  0.3810  0.1078
 7920SOL    HW135393   1.872   2.827   2.426  0.3768  0.5474 -0.4371
 7920SOL    HW235394   1.845   2.857   2.278 -1.6968  2.8590  0.1533
 7921SOL     OW35395   4.349   4.313  12.421  0.5842  0.4470 -0.1046
 7921SOL    HW135396   4.264   4.319  12.377 -0.0454 -1.5499  0.8451
 7921SOL    HW235397   4.324   4.331  12.511  2.2791 -0.1237  0.4769
 7922SOL     OW35398   0.430   3.745   8.944 -0.1034 -0.0900  0.0832
 7922SOL    HW135399   0.395   3.774   8.860  1.6133  0.5125 -0.4285
 7922SOL    HW235400   0.356   3.767   9.000 -0.7170 -3.5366  0.5776
 7923SOL     OW35401   3.351   0.362  16.651  0.3324 -0.3406  0.3689
 7923SOL    HW135402   3.318   0.289  16.598  0.4278 -1.7756  2.2754
 7923SOL    HW235403   3.411   0.413  16.597  0.5760 -1.1043 -0.0830
 7924SOL     OW35404   3.627   1.776   7.995  0.4724  0.3778 -0.0634
 7924SOL    HW135405   3.647   1.730   7.914  1.2306 -0.6246  0.6929
 7924SOL    HW235406   3.605   1.716   8.066 -2.4765  2.3286  0.6782
 7925SOL     OW35407   0.355   1.853  16.528 -0.3841 -0.4652 -0.3061
 7925SOL    HW135408   0.357   1.757  16.524  0.7302 -0.4478 -0.0527
 7925SOL    HW235409   0.260   1.856  16.519 -0.4991 -0.0415  1.0665
 7926SOL     OW35410   1.607   3.629   7.126 -0.1543 -0.0052  0.1244
 7926SOL    HW135411   1.641   3.603   7.041 -0.6258  2.0886 -0.7039
 7926SOL    HW235412   1.551   3.701   7.095  0.4863 -0.0591 -1.1731
 7927SOL     OW35413   3.553   3.655   4.626  0.1910 -0.0529 -0.1390
 7927SOL    HW135414   3.623   3.598   4.594 -1.5120 -1.8765 -0.5891
 7927SOL    HW235415   3.531   3.623   4.714 -1.6558  1.1931 -0.1381
 7928SOL     OW35416   3.552   1.730   2.122 -0.2718  0.0665 -0.5458
 7928SOL    HW135417   3.546   1.773   2.037  3.3645  1.9329  0.1461
 7928SOL    HW235418   3.647   1.716   2.129 -0.5193 -1.4111  0.0235
 7929SOL     OW35419   4.709   3.385  11.263 -0.0242 -0.6275  0.9183
 7929SOL    HW135420   0.065   3.406  11.267 -0.2193  0.9952 -2.4864
 7929SOL    HW235421   4.675   3.446  11.328 -0.5737  0.1572 -0.1134
 7930SOL     OW35422   2.740   2.638   1.177  0.1578 -0.1949 -0.1723
 7930SOL    HW135423   2.831   2.652   1.203  1.0456 -4.9216 -0.7141
 7930SOL    HW235424   2.746   2.662   1.085  0.7662  0.4454  0.0448
 7931SOL     OW35425   0.278   3.102   4.184 -0.5333 -0.2267  0.4924
 7931SOL    HW135426   0.268   3.164   4.112 -1.0669 -0.5393  0.2985
 7931SOL    HW235427   0.209   3.143   4.235 -0.6131  1.8610 -1.3053
 7932SOL     OW35428   4.653   3.872   2.304 -0.0040  0.5945 -0.2729
 7932SOL    HW135429   4.623   3.955   2.341 -0.5387  0.8150 -1.1951
 7932SOL    HW235430   0.008   3.876   2.328 -0.0279  0.5068 -0.1691
 7933SOL     OW35431   0.626   0.625   7.684 -0.9300 -0.5870  0.4296
 7933SOL    HW135432   0.718   0.649   7.683 -1.1523  0.2778  0.6327
 7933SOL    HW235433   0.614   0.637   7.590  0.4579 -3.2896 -0.0845
 7934SOL     OW35434   4.479   3.078  15.808 -0.2202 -0.1626 -0.2734
 7934SOL    HW135435   4.510   3.134  15.736 -0.6586 -2.4220 -2.1969
 7934SOL    HW235436   4.418   3.028  15.755  0.4360 -1.3854  0.1346
 7935SOL     OW35437   1.881   3.940  12.283  0.1996  0.3286 -0.4970
 7935SOL    HW135438   1.972   3.920  12.260  0.1285  1.6909 -1.9837
 7935SOL    HW235439   1.840   3.930  12.197 -0.6967  0.0381 -0.0286
 7936SOL     OW35440   4.104   2.501   9.764 -0.0192  0.0175  0.2655
 7936SOL    HW135441   4.123   2.580   9.815 -0.4066 -0.5777  1.3593
 7936SOL    HW235442   4.008   2.509   9.770  0.0036  0.9420 -0.6279
 7937SOL     OW35443   4.461   4.054   7.517  0.1874  0.2487 -0.1256
 7937SOL    HW135444   4.505   4.139   7.525  1.7235 -0.5721  0.1554
 7937SOL    HW235445   4.403   4.074   7.443  1.8446 -0.0408 -1.4887
 7938SOL     OW35446   1.758   1.908   3.103 -0.4164 -0.0531 -0.2987
 7938SOL    HW135447   1.723   1.850   3.170  0.2346 -0.5982 -0.4192
 7938SOL    HW235448   1.681   1.948   3.063 -0.3855  0.2513 -0.0469
 7939SOL     OW35449   3.437   3.510  16.903  0.0269 -0.0996  1.0094
 7939SOL    HW135450   3.478   3.587  16.865 -0.2675 -0.2395  0.3967
 7939SOL    HW235451   3.436   3.453  16.826 -2.2067  0.6209  0.4899
 7940SOL     OW35452   2.074   2.350   6.139 -0.3560  0.1642 -0.2809
 7940SOL    HW135453   2.024   2.384   6.065 -1.2282  0.6949  0.5377
 7940SOL    HW235454   2.091   2.431   6.187 -0.6734 -0.6134  1.1547
 7941SOL     OW35455   1.833   0.106   6.057  0.4399  0.4251 -0.2122
 7941SOL    HW135456   1.846   0.105   6.152 -0.6246 -0.7164 -0.0820
 7941SOL    HW235457   1.740   0.131   6.058  0.3165 -0.0349 -0.2377
 7942SOL     OW35458   4.615   0.555   2.816 -0.1628 -0.2284  0.0386
 7942SOL    HW135459   4.668   0.539   2.894  0.8895  0.2211 -0.5853
 7942SOL    HW235460   4.549   0.612   2.856  0.7688  1.6871 -1.1317
 7943SOL     OW35461   1.352   1.793   6.428 -0.5110 -0.6535 -0.0993
 7943SOL    HW135462   1.327   1.837   6.509 -1.8098 -0.8684 -0.3868
 7943SOL    HW235463   1.392   1.711   6.456  1.8243 -0.3176 -2.4553
 7944SOL     OW35464   2.681   1.526  17.394  0.1956 -0.2398 -0.8404
 7944SOL    HW135465   2.640   1.578  17.325  0.2944 -0.3149 -0.9552
 7944SOL    HW235466   2.749   1.479  17.346  1.6695 -0.3431  1.3253
 7945SOL     OW35467   3.715   1.890   7.287 -0.1987 -0.1839 -0.7330
 7945SOL    HW135468   3.670   1.814   7.325  0.1785  0.6869  1.4476
 7945SOL    HW235469   3.664   1.963   7.323  0.1462  0.4927 -1.6176
 7946SOL     OW35470   4.604   4.726   6.429 -0.3441 -0.5949 -0.1016
 7946SOL    HW135471   4.524   0.040   6.440  0.6711  1.3021 -1.6878
 7946SOL    HW235472   4.637   4.710   6.518  0.8501  0.6954 -0.3311
 7947SOL     OW35473   4.485   3.154  12.516  0.0631  0.1818 -0.1205
 7947SOL    HW135474   4.415   3.202  12.561 -0.9338 -1.3593 -0.0222
 7947SOL    HW235475   4.539   3.227  12.485  0.5690 -0.1284  0.0408
 7948SOL     OW35476   2.778   4.516   4.605  0.1523 -0.0545  0.4203
 7948SOL    HW135477   2.856   4.556   4.568  1.2230 -1.0047  1.6558
 7948SOL    HW235478   2.798   4.422   4.604  1.5423  0.2480  0.6462
 7949SOL     OW35479   0.989   4.410   6.962  0.0765 -0.2404  0.3378
 7949SOL    HW135480   0.945   4.415   7.047 -0.9486 -1.0451 -0.1381
 7949SOL    HW235481   0.992   4.494   6.915 -1.6197 -0.3814 -0.0355
 7950SOL     OW35482   1.544   4.400   3.582 -0.1173 -0.5951 -0.1942
 7950SOL    HW135483   1.636   4.424   3.575  0.5463 -3.2013 -0.6204
 7950SOL    HW235484   1.549   4.317   3.534  0.3342 -1.9416  2.1839
 7951SOL     OW35485   1.197   3.670   7.974  0.5618 -0.3785 -0.2543
 7951SOL    HW135486   1.285   3.645   7.947 -0.3351 -2.1333 -1.5588
 7951SOL    HW235487   1.218   3.763   7.973 -1.8768  0.1470 -2.4428
 7952SOL     OW35488   1.923   1.035  11.021  0.5254 -0.1979 -0.2906
 7952SOL    HW135489   1.949   1.086  11.098 -0.2552 -0.6812  0.2936
 7952SOL    HW235490   1.874   0.963  11.060  0.1799  1.5060  2.4319
 7953SOL     OW35491   1.888   4.203   6.143  0.1399  0.4201 -0.0365
 7953SOL    HW135492   1.960   4.191   6.205 -0.6601  0.2833  0.8698
 7953SOL    HW235493   1.815   4.226   6.201  1.7766  0.5927  1.9713
 7954SOL     OW35494   2.634   1.854   1.916  0.4800  0.4654 -0.6638
 7954SOL    HW135495   2.698   1.924   1.931 -0.2152  0.6865  1.2951
 7954SOL    HW235496   2.676   1.828   1.834 -0.3903 -0.5614 -0.7892
 7955SOL     OW35497   0.628   3.196   7.856 -0.4274  0.0757  0.2395
 7955SOL    HW135498   0.655   3.256   7.925  2.4062  0.3504 -1.1203
 7955SOL    HW235499   0.553   3.152   7.896 -0.8188  1.9194  1.5310
 7956SOL     OW35500   4.022   4.520   7.263  0.4838  0.1473 -0.0550
 7956SOL    HW135501   4.006   4.519   7.169  1.1399 -1.0135 -0.1559
 7956SOL    HW235502   4.062   4.433   7.272 -1.9495 -0.9547  0.0637
 7957SOL     OW35503   0.881   0.166  14.280  0.2226  0.0227  0.9691
 7957SOL    HW135504   0.977   0.159  14.278  0.1387 -1.0600  0.8666
 7957SOL    HW235505   0.857   0.080  14.312  0.2607 -0.0085  0.9148
 7958SOL     OW35506   4.582   1.517   4.305 -0.1012  0.5261 -0.1278
 7958SOL    HW135507   4.642   1.450   4.271  0.2390  0.3065  0.9089
 7958SOL    HW235508   4.639   1.586   4.339  0.7382  0.4754 -1.3929
 7959SOL     OW35509   0.545   0.867   9.757  0.0340 -0.3900 -0.3979
 7959SOL    HW135510   0.575   0.910   9.837 -0.8534 -1.9689  0.7817
 7959SOL    HW235511   0.481   0.801   9.782 -1.0637  0.5949 -0.6104
 7960SOL     OW35512   2.721   2.152   3.482 -0.1885 -0.1050 -0.0861
 7960SOL    HW135513   2.666   2.193   3.549  0.5343 -0.6240  0.8164
 7960SOL    HW235514   2.739   2.063   3.513 -0.5468 -0.9467 -2.2746
 7961SOL     OW35515   2.306   4.017   4.254  0.0332  0.4957 -0.3889
 7961SOL    HW135516   2.338   3.936   4.294  2.1168  1.7452  0.5244
 7961SOL    HW235517   2.358   4.078   4.307  1.6835 -1.1522 -0.1048
 7962SOL     OW35518   1.895   0.044   7.396 -0.4436  0.0383  0.0782
 7962SOL    HW135519   1.929   0.038   7.485 -0.3812  2.1837  0.1855
 7962SOL    HW235520   1.836   0.119   7.395 -2.1960 -1.3538 -0.3707
 7963SOL     OW35521   3.621   3.130   5.349 -0.0255 -0.0564  0.8545
 7963SOL    HW135522   3.535   3.104   5.317  0.5237 -1.7952  0.7975
 7963SOL    HW235523   3.649   3.068   5.417  0.8213 -1.3181 -0.6417
 7964SOL     OW35524   0.193   2.976   0.223 -0.0226  0.1843 -0.4675
 7964SOL    HW135525   0.244   2.944   0.297  0.3629  1.8209 -0.0327
 7964SOL    HW235526   0.147   3.056   0.247 -0.6020 -0.6489  1.1932
 7965SOL     OW35527   2.665   4.358   5.608  0.5027 -0.0854 -0.1855
 7965SOL    HW135528   2.685   4.398   5.693 -0.0900  0.0467 -0.1091
 7965SOL    HW235529   2.573   4.333   5.610  0.2513  0.9500  1.4073
 7966SOL     OW35530   1.203   2.568  10.971  0.1176 -0.5912  0.3376
 7966SOL    HW135531   1.252   2.642  10.937 -0.9170 -0.0601  0.0060
 7966SOL    HW235532   1.273   2.526  11.021  0.2434 -1.8356 -0.8797
 7967SOL     OW35533   3.743   3.720   6.137 -0.2497  0.1913  0.0404
 7967SOL    HW135534   3.670   3.722   6.199 -2.1046  1.6569 -2.1773
 7967SOL    HW235535   3.703   3.775   6.069 -1.7881 -0.4001  0.4784
 7968SOL     OW35536   2.371   0.654  14.285 -0.3482 -0.6791  0.0932
 7968SOL    HW135537   2.317   0.718  14.333  0.5259  0.4379 -0.4265
 7968SOL    HW235538   2.426   0.703  14.224  0.9328 -2.5361 -0.2119
 7969SOL     OW35539   2.088   2.242   0.101  0.0214 -0.2050  0.2786
 7969SOL    HW135540   2.149   2.168   0.105 -0.3575 -0.5502 -0.3099
 7969SOL    HW235541   2.007   2.199   0.129  0.1546  0.5209  1.7576
 7970SOL     OW35542   3.663   4.307   5.377 -0.3555 -0.0517  0.3096
 7970SOL    HW135543   3.719   4.380   5.403 -0.0443  1.1003 -3.6595
 7970SOL    HW235544   3.728   4.238   5.362  0.0002  0.3092  0.1955
 7971SOL     OW35545   3.247   1.969   7.865  0.0089  0.1227 -0.1229
 7971SOL    HW135546   3.209   1.881   7.873  0.8526 -0.3919 -1.7522
 7971SOL    HW235547   3.320   1.963   7.927 -0.0002 -0.8367 -0.2037
 7972SOL     OW35548   0.439   1.980   5.942 -0.3241  0.5640  0.0116
 7972SOL    HW135549   0.452   1.925   6.019  1.5975  1.2145  0.1598
 7972SOL    HW235550   0.348   2.004   5.958 -0.5590  1.2840 -2.4808
 7973SOL     OW35551   1.527   4.386  10.393  0.1885  0.0654 -0.1825
 7973SOL    HW135552   1.441   4.414  10.424  0.4215  1.6820 -0.9645
 7973SOL    HW235553   1.583   4.438  10.451  1.7523 -1.3069 -0.4632
 7974SOL     OW35554   0.522   1.130  15.366 -0.2195 -0.6117 -0.4823
 7974SOL    HW135555   0.614   1.130  15.338 -0.0726  1.1600 -0.0483
 7974SOL    HW235556   0.512   1.206  15.309  0.1317 -0.8194 -0.8148
 7975SOL     OW35557   3.444   3.307   8.321  0.6557 -0.5659 -0.2296
 7975SOL    HW135558   3.368   3.360   8.342  0.9767 -0.3281  0.3260
 7975SOL    HW235559   3.421   3.222   8.359  1.3867 -0.0567  1.3671
 7976SOL     OW35560   2.330   1.646  12.140  0.2408 -0.0470 -0.6568
 7976SOL    HW135561   2.398   1.685  12.084  1.9812 -2.1985 -0.0478
 7976SOL    HW235562   2.271   1.721  12.140 -0.6620 -0.7701 -1.1942
 7977SOL     OW35563   1.415   4.046   3.622  0.1948  0.3999 -0.2552
 7977SOL    HW135564   1.496   4.095   3.614  1.5498 -1.4383  1.9577
 7977SOL    HW235565   1.380   4.085   3.702  1.1270 -0.2819  0.4877
 7978SOL     OW35566   3.031   0.050   2.820  0.2326  0.5098  0.0365
 7978SOL    HW135567   2.991   0.131   2.787 -0.2644  0.1514 -0.2260
 7978SOL    HW235568   2.955   4.730   2.818  0.0987  0.8006 -2.2954
 7979SOL     OW35569   4.713   0.918   6.049  0.0633 -0.1785 -0.0935
 7979SOL    HW135570   4.651   0.866   5.998 -0.7882  1.0117 -0.2608
 7979SOL    HW235571   0.051   0.859   6.045  0.1272 -0.0131 -1.1657
 7980SOL     OW35572   0.462   1.579   8.743  0.0660  0.4998  0.2763
 7980SOL    HW135573   0.380   1.619   8.773 -1.6586 -1.2659 -2.0513
 7980SOL    HW235574   0.519   1.611   8.812  0.3149 -1.5344  1.0176
 7981SOL     OW35575   2.749   0.708  15.422 -0.3931 -0.5180  0.6445
 7981SOL    HW135576   2.674   0.661  15.385 -2.2043  2.6372  0.3283
 7981SOL    HW235577   2.788   0.742  15.342 -2.3413  0.6563  0.1757
 7982SOL     OW35578   4.082   0.292   7.136 -0.3234  0.3105 -0.2940
 7982SOL    HW135579   4.132   0.263   7.061 -1.2446 -0.7423 -0.4949
 7982SOL    HW235580   4.136   0.260   7.209 -2.0342 -1.0888  0.3457
 7983SOL     OW35581   2.601   1.111   3.848  0.2381  0.4580  0.4652
 7983SOL    HW135582   2.519   1.084   3.889  1.1034  0.4886  2.2629
 7983SOL    HW235583   2.643   1.160   3.919 -3.3090  3.6354  0.3983
 7984SOL     OW35584   1.070   0.484   5.510 -0.1414  0.1483 -0.2994
 7984SOL    HW135585   1.063   0.541   5.586 -2.0829  0.1769 -0.4901
 7984SOL    HW235586   1.163   0.490   5.490  0.4215 -1.1483  1.8672
 7985SOL     OW35587   1.360   1.817   6.722 -0.5543 -0.1544  0.4162
 7985SOL    HW135588   1.444   1.807   6.765 -1.0915  1.6488  1.8950
 7985SOL    HW235589   1.360   1.913   6.725 -1.3016 -0.2271  2.4073
 7986SOL     OW35590   3.644   3.119  13.366 -0.6740 -0.2121 -0.3782
 7986SOL    HW135591   3.735   3.115  13.336 -0.7668  0.5217 -0.7385
 7986SOL    HW235592   3.629   3.213  13.361 -2.0073 -0.2565  2.5671
 7987SOL     OW35593   2.558   1.941   6.857 -0.0540  0.4798 -0.4353
 7987SOL    HW135594   2.547   1.871   6.793  2.2867 -0.8601  0.6527
 7987SOL    HW235595   2.485   1.997   6.830 -0.1569  0.2249 -0.6826
 7988SOL     OW35596   3.189   1.468   3.388 -0.3416  0.0290 -0.1580
 7988SOL    HW135597   3.204   1.489   3.296  1.4920  0.4714  0.2457
 7988SOL    HW235598   3.094   1.461   3.379 -0.0174 -2.8523 -1.3676
 7989SOL     OW35599   4.080   4.217   2.824  0.2131  0.0029  0.4860
 7989SOL    HW135600   4.099   4.144   2.883  0.2322 -0.3988 -0.0202
 7989SOL    HW235601   4.059   4.188   2.735 -2.0762  0.7629  0.7598
 7990SOL     OW35602   3.015   4.277   5.240  0.8592  0.1339  0.0498
 7990SOL    HW135603   3.027   4.182   5.237 -0.1880 -0.0041  0.3191
 7990SOL    HW235604   2.961   4.289   5.318 -0.8379  2.1009 -1.4326
 7991SOL     OW35605   3.917   0.836   8.600  0.2281 -0.4619 -0.1048
 7991SOL    HW135606   3.876   0.750   8.601 -1.6818  0.4755  0.7339
 7991SOL    HW235607   3.945   0.837   8.509 -0.4112 -0.6366 -0.3009
 7992SOL     OW35608   3.638   4.119   3.368  0.1811 -0.1879 -0.4832
 7992SOL    HW135609   3.720   4.147   3.328 -1.1624  1.7582 -1.8557
 7992SOL    HW235610   3.602   4.199   3.408 -1.8649 -1.1605 -0.3691
 7993SOL     OW35611   2.660   3.694   2.862 -0.2904 -0.0261  0.3493
 7993SOL    HW135612   2.744   3.727   2.831 -0.8532  0.7208 -0.3583
 7993SOL    HW235613   2.603   3.747   2.806  0.3757 -0.9781 -1.2454
 7994SOL     OW35614   2.566   4.296  16.311 -0.0568  0.1842  0.0260
 7994SOL    HW135615   2.568   4.389  16.333 -0.4035  0.4481 -1.1015
 7994SOL    HW235616   2.494   4.264  16.365 -0.6700 -0.8181 -1.4063
 7995SOL     OW35617   3.161   3.849   9.196 -0.2007  0.0992  0.1477
 7995SOL    HW135618   3.252   3.867   9.174  0.1666 -2.6689 -0.5603
 7995SOL    HW235619   3.125   3.937   9.183  2.1969  0.9705 -0.6525
 7996SOL     OW35620   4.672   0.107   1.898  0.4430 -0.8413 -0.2513
 7996SOL    HW135621   0.014   0.160   1.889 -0.5391  0.6929  0.1317
 7996SOL    HW235622   4.639   0.147   1.978  0.3403  0.6269 -1.0171
 7997SOL     OW35623   0.325   2.203   7.895  0.3487 -0.2911 -0.5682
 7997SOL    HW135624   0.354   2.112   7.886 -2.0039 -1.4550  3.7613
 7997SOL    HW235625   0.278   2.223   7.814  1.0543 -1.2327 -1.2231
 7998SOL     OW35626   3.597   1.389   0.251 -0.2879  0.4337  0.3745
 7998SOL    HW135627   3.634   1.464   0.298 -1.3290  0.6124  0.9201
 7998SOL    HW235628   3.568   1.423   0.166 -0.8184 -1.5800 -0.2381
 7999SOL     OW35629   2.762   2.942   1.135  0.3765 -0.1136 -0.6858
 7999SOL    HW135630   2.796   2.874   1.077  1.2765  1.0752 -1.5535
 7999SOL    HW235631   2.704   2.983   1.072 -0.2472 -0.3814 -0.2908
 8000SOL     OW35632   3.106   3.067  16.017 -0.1637 -0.7798 -0.0870
 8000SOL    HW135633   3.090   3.126  15.943 -1.2925  0.2458  0.9727
 8000SOL    HW235634   3.021   3.024  16.029  0.5904 -2.3357 -0.2858
 8001SOL     OW35635   0.446   3.415   7.684 -0.0655  0.4386 -0.4788
 8001SOL    HW135636   0.392   3.442   7.610  2.1191 -1.0844 -2.6423
 8001SOL    HW235637   0.378   3.389   7.745 -0.3282 -1.2434 -1.4945
 8002SOL     OW35638   0.602   2.395   7.803  0.3284 -0.4345 -0.3621
 8002SOL    HW135639   0.631   2.468   7.748 -2.1432  0.2878 -0.7041
 8002SOL    HW235640   0.544   2.344   7.746 -0.3286 -0.1554  0.0580
 8003SOL     OW35641   4.042   1.873   6.935 -0.0342 -0.0869  0.7311
 8003SOL    HW135642   4.073   1.808   6.998 -1.1776 -0.7499  0.6059
 8003SOL    HW235643   3.955   1.878   6.972  0.5800  1.3246  1.9504
 8004SOL     OW35644   1.042   0.664   5.252 -0.5851 -0.0537  0.5755
 8004SOL    HW135645   1.083   0.632   5.171 -3.0506 -2.2206  0.1791
 8004SOL    HW235646   0.960   0.700   5.220  1.2471  2.8977 -0.7784
 8005SOL     OW35647   0.474   0.743   4.807 -0.2379  0.3106  0.3999
 8005SOL    HW135648   0.548   0.684   4.795 -1.2248 -0.4950 -1.6469
 8005SOL    HW235649   0.507   0.828   4.837 -1.9434  1.3469 -0.6448
 8006SOL     OW35650   0.987   0.773   6.812  0.3009  0.0680 -0.2690
 8006SOL    HW135651   0.954   0.725   6.736  0.9266  2.1492 -1.8621
 8006SOL    HW235652   0.924   0.740   6.877 -0.1278  0.9871 -0.2159
 8007SOL     OW35653   3.522   1.161  10.282 -0.4062 -0.0069 -0.0639
 8007SOL    HW135654   3.530   1.231  10.217 -1.6065 -0.7511 -1.0046
 8007SOL    HW235655   3.578   1.198  10.350  1.2959 -2.3702 -0.1671
 8008SOL     OW35656   1.893   3.728  10.078 -0.6350 -0.2559  0.6098
 8008SOL    HW135657   1.850   3.701   9.997  0.3965  4.6387 -1.5567
 8008SOL    HW235658   1.867   3.818  10.094  0.8092  0.4067 -0.7511
 8009SOL     OW35659   3.598   4.520   9.637 -0.4690 -0.0722  0.1729
 8009SOL    HW135660   3.502   4.525   9.635 -0.4096  0.9575 -0.2952
 8009SOL    HW235661   3.609   4.448   9.575  0.7751 -0.1578  0.5055
 8010SOL     OW35662   3.455   0.899   3.645  0.0120 -0.1405 -0.3457
 8010SOL    HW135663   3.398   0.842   3.697 -0.3322  2.4168  2.1022
 8010SOL    HW235664   3.481   0.849   3.568 -0.7921 -1.4803  0.2509
 8011SOL     OW35665   1.851   0.757   7.820  0.6479 -0.1962  0.2357
 8011SOL    HW135666   1.896   0.727   7.898  1.4685 -1.4899 -0.7310
 8011SOL    HW235667   1.761   0.763   7.852  1.1600  0.7880  1.4854
 8012SOL     OW35668   1.911   4.714   3.255  0.4990  0.1340 -0.3545
 8012SOL    HW135669   1.984   0.035   3.235  0.1706  0.8099  0.4401
 8012SOL    HW235670   1.852   0.042   3.293 -0.5253 -1.4602  0.7603
 8013SOL     OW35671   0.751   4.370  13.679 -0.7536 -0.1882 -0.1458
 8013SOL    HW135672   0.708   4.316  13.613  1.4981  0.8849 -2.4976
 8013SOL    HW235673   0.749   4.313  13.756 -1.3293  0.2438  0.1633
 8014SOL     OW35674   0.999   0.167  16.147  0.6308 -0.9560 -0.2102
 8014SOL    HW135675   0.939   0.237  16.173  0.0378 -1.3669 -0.4707
 8014SOL    HW235676   0.935   0.109  16.106 -1.2650 -0.3560  1.9149
 8015SOL     OW35677   2.920   0.375   8.179 -0.1450  0.2629  0.8498
 8015SOL    HW135678   2.839   0.393   8.131 -0.0105  2.2372  1.3648
 8015SOL    HW235679   2.906   0.285   8.207  2.6994 -0.7090 -0.8561
 8016SOL     OW35680   3.635   4.467   4.291  0.0417  0.6044  0.0892
 8016SOL    HW135681   3.579   4.524   4.238 -0.8043  0.2750  0.6244
 8016SOL    HW235682   3.686   4.427   4.221 -0.1729 -0.3108  0.4559
 8017SOL     OW35683   3.248   4.577   5.934 -0.2510 -0.4310 -0.8025
 8017SOL    HW135684   3.207   4.662   5.948  0.0132 -0.2527 -1.1178
 8017SOL    HW235685   3.280   4.558   6.023  1.8553 -1.1968 -1.7375
 8018SOL     OW35686   4.115   0.742   5.334  0.0864  0.0217  0.4942
 8018SOL    HW135687   4.201   0.700   5.341  0.7311  1.1387 -0.7210
 8018SOL    HW235688   4.097   0.753   5.240 -1.1190 -1.2703  0.5732
 8019SOL     OW35689   1.984   2.520  17.327  0.3296 -0.0834 -0.1811
 8019SOL    HW135690   2.041   2.535  17.252  2.5077 -0.0811  1.4767
 8019SOL    HW235691   2.045   2.522  17.401  2.8450 -0.4744 -2.2467
 8020SOL     OW35692   1.081   3.023   2.730  0.1016 -0.2631 -0.4121
 8020SOL    HW135693   1.091   3.055   2.819  2.6876 -1.1245 -0.3663
 8020SOL    HW235694   0.988   3.040   2.716 -0.3070 -2.2547 -0.0899
 8021SOL     OW35695   2.328   1.781  14.748  0.3275 -0.4758  0.5308
 8021SOL    HW135696   2.379   1.856  14.719  1.1380  0.1190  3.5091
 8021SOL    HW235697   2.368   1.718  14.689  1.1347 -0.2906  0.8728
 8022SOL     OW35698   0.424   1.367  11.865  0.0192 -0.4478  0.5994
 8022SOL    HW135699   0.344   1.385  11.817  1.1209 -0.5416 -1.2547
 8022SOL    HW235700   0.428   1.452  11.909  0.5641  0.5302 -1.3416
 8023SOL     OW35701   0.319   0.990   6.151 -0.4168  0.0933  0.0961
 8023SOL    HW135702   0.367   0.916   6.188 -0.0182  0.6345  0.6688
 8023SOL    HW235703   0.302   0.956   6.063  0.1876 -1.4161  0.5626
 8024SOL     OW35704   0.635   2.875   2.832 -0.7011 -0.4142  0.5433
 8024SOL    HW135705   0.594   2.791   2.810 -1.6353  0.1206  0.2479
 8024SOL    HW235706   0.562   2.934   2.813  1.1791  2.6317  2.8582
 8025SOL     OW35707   1.100   2.515  12.358 -0.3905  0.8313 -0.3672
 8025SOL    HW135708   1.076   2.453  12.428  2.6632 -0.4216 -0.4311
 8025SOL    HW235709   1.067   2.595  12.399  2.5515  1.9557 -0.2061
 8026SOL     OW35710   2.684   1.824   7.433  0.3782 -0.1200 -0.5856
 8026SOL    HW135711   2.640   1.839   7.349 -0.4888 -3.0991 -0.6709
 8026SOL    HW235712   2.603   1.789   7.469 -0.5239  1.2371 -1.3186
 8027SOL     OW35713   4.287   3.503   9.355  0.3114  0.6127  0.1491
 8027SOL    HW135714   4.357   3.528   9.295 -1.5990 -0.7294 -2.6788
 8027SOL    HW235715   4.215   3.532   9.298 -1.9755 -1.3621  2.0187
 8028SOL     OW35716   0.012   3.355   6.420 -0.1398  0.1697  0.0812
 8028SOL    HW135717   0.004   3.304   6.339 -0.4065 -0.2495  0.3731
 8028SOL    HW235718   0.058   3.287   6.469  1.6829  0.9386 -0.5553
 8029SOL     OW35719   2.461   3.952  14.634  0.2004 -0.1389 -0.1067
 8029SOL    HW135720   2.488   3.890  14.566 -0.2163 -2.0955  1.5243
 8029SOL    HW235721   2.388   3.995  14.589  0.2881  0.0995 -0.0208
 8030SOL     OW35722   0.892   4.328   8.738 -0.0518 -0.0859  0.0526
 8030SOL    HW135723   0.914   4.421   8.738 -0.9521  0.1194 -0.8456
 8030SOL    HW235724   0.916   4.306   8.829  0.6900 -1.1522 -0.4016
 8031SOL     OW35725   0.671   3.508  14.064  0.3778 -0.7748 -0.4948
 8031SOL    HW135726   0.633   3.534  14.148  0.2993  1.7886 -1.3351
 8031SOL    HW235727   0.590   3.476  14.024 -0.1121 -1.2669  0.8840
 8032SOL     OW35728   4.456   2.494   9.421  0.1809 -0.6151  0.4780
 8032SOL    HW135729   4.500   2.412   9.445 -0.3727 -1.0860 -0.1319
 8032SOL    HW235730   4.502   2.555   9.479 -1.7597  1.4579 -0.1557
 8033SOL     OW35731   0.756   3.162   0.940  0.1269 -0.1268 -0.3285
 8033SOL    HW135732   0.691   3.160   1.011 -0.6841 -1.0552 -1.0974
 8033SOL    HW235733   0.703   3.167   0.861 -1.3576  2.2490  0.8143
 8034SOL     OW35734   0.770   1.541   5.866 -0.2664  0.1843 -0.4162
 8034SOL    HW135735   0.841   1.589   5.823 -2.4898  0.9850 -3.1667
 8034SOL    HW235736   0.750   1.579   5.951  2.9480  2.1513 -0.5131
 8035SOL     OW35737   2.084   2.939   5.595 -0.9594 -0.3653  0.3059
 8035SOL    HW135738   2.011   2.918   5.537 -2.2315 -0.8086  2.0517
 8035SOL    HW235739   2.151   2.883   5.555  2.0831  2.6755  1.2631
 8036SOL     OW35740   1.065   4.045   4.590  0.0540 -0.2063 -0.5834
 8036SOL    HW135741   0.998   3.984   4.620 -1.1655  0.8838 -1.0594
 8036SOL    HW235742   1.134   3.980   4.580  0.8214  0.3235  1.3647
 8037SOL     OW35743   2.187   1.658   7.653 -0.4785  0.3745  0.2495
 8037SOL    HW135744   2.178   1.639   7.746 -2.8037  3.4938  0.6583
 8037SOL    HW235745   2.096   1.665   7.625  0.0589  3.2707 -0.7454
 8038SOL     OW35746   2.645   2.704   9.655 -0.2734 -0.3511 -0.8008
 8038SOL    HW135747   2.631   2.797   9.633  0.8374  0.2125  0.8542
 8038SOL    HW235748   2.563   2.657   9.645  0.2616 -1.5759  0.6768
 8039SOL     OW35749   0.132   3.110   6.926 -0.0823 -0.3356 -0.1593
 8039SOL    HW135750   0.191   3.185   6.932 -0.8522  0.1764  1.0203
 8039SOL    HW235751   0.050   3.132   6.971  1.0915  0.0292  1.7898
 8040SOL     OW35752   2.455   4.222   5.942  0.2460  0.5982  0.6747
 8040SOL    HW135753   2.455   4.173   6.025  1.3700 -2.0615 -0.8671
 8040SOL    HW235754   2.525   4.283   5.966  2.0270 -1.0017 -0.4526
 8041SOL     OW35755   4.429   4.104   2.918 -0.1171  0.1598 -0.1097
 8041SOL    HW135756   4.388   4.190   2.907 -0.8554  0.1092  2.2627
 8041SOL    HW235757   4.504   4.126   2.972  1.5052 -0.7496 -1.9931
 8042SOL     OW35758   0.474   2.249   7.609  0.2405 -0.1871  0.1028
 8042SOL    HW135759   0.477   2.157   7.637  1.2727 -0.1764  0.0109
 8042SOL    HW235760   0.381   2.263   7.591  0.7126  2.8769 -0.0193
 8043SOL     OW35761   3.995   2.074   6.558  0.5947 -0.9890 -0.9589
 8043SOL    HW135762   3.945   2.016   6.501 -0.6591 -1.0668  0.2223
 8043SOL    HW235763   3.930   2.100   6.623  0.3382 -1.6908 -0.9330
 8044SOL     OW35764   0.319   2.723   2.452 -0.5063 -0.3544 -0.1518
 8044SOL    HW135765   0.252   2.784   2.483 -0.1833 -0.2946  0.4348
 8044SOL    HW235766   0.286   2.707   2.364 -0.9883 -0.1537 -0.0067
 8045SOL     OW35767   2.597   2.214  10.374  1.0303  0.2269 -0.7210
 8045SOL    HW135768   2.599   2.139  10.314  1.1853 -0.7925  0.5516
 8045SOL    HW235769   2.510   2.209  10.415  0.7739  0.2252 -1.2743
 8046SOL     OW35770   2.340   2.054   7.169 -0.1268  0.0345  0.1732
 8046SOL    HW135771   2.431   2.053   7.137  0.2316  2.2654  1.1271
 8046SOL    HW235772   2.299   2.005   7.097 -0.2712 -0.7228  0.7754
 8047SOL     OW35773   4.463   2.267   2.071 -0.3224  0.6432  0.4654
 8047SOL    HW135774   4.470   2.357   2.104  1.7141  0.8942 -0.6653
 8047SOL    HW235775   4.372   2.269   2.043 -0.3314  0.2298  0.4731
 8048SOL     OW35776   2.632   0.235   4.345 -0.1275 -0.2149 -0.1981
 8048SOL    HW135777   2.672   0.148   4.343 -1.4938 -0.8508  0.1362
 8048SOL    HW235778   2.638   0.270   4.433 -0.1032 -1.7794  0.4156
 8049SOL     OW35779   0.925   0.007   2.111  0.2133 -0.1896  0.6094
 8049SOL    HW135780   0.906   4.687   2.036 -1.3830  0.8238  0.2473
 8049SOL    HW235781   0.972   4.683   2.168  0.2804 -1.0477 -0.3605
 8050SOL     OW35782   0.549   2.250   6.931 -0.2926 -0.5226  0.3731
 8050SOL    HW135783   0.609   2.321   6.906 -0.5550 -0.3844  0.1456
 8050SOL    HW235784   0.612   2.183   6.957  1.9494  1.4362  0.0683
 8051SOL     OW35785   2.132   3.443   6.116  0.0374 -0.5312 -0.5841
 8051SOL    HW135786   2.225   3.429   6.098 -0.3302  0.8184 -3.4190
 8051SOL    HW235787   2.138   3.514   6.180 -2.1984 -2.2919  1.5800
 8052SOL     OW35788   1.002   2.667   4.539  0.4736  0.3951  0.0653
 8052SOL    HW135789   1.018   2.621   4.457  1.2860 -0.2526  0.5825
 8052SOL    HW235790   0.952   2.595   4.577 -1.0002  1.3008 -0.1589
 8053SOL     OW35791   4.439   0.753   4.456 -0.3453 -0.3102  0.5026
 8053SOL    HW135792   4.435   0.666   4.415 -0.7373  0.4091 -0.9964
 8053SOL    HW235793   4.468   0.728   4.543 -1.1572 -0.1553  0.8103
 8054SOL     OW35794   1.488   2.308  15.130  0.3079  0.2888  0.4471
 8054SOL    HW135795   1.498   2.289  15.223 -0.0671 -1.6042  0.0971
 8054SOL    HW235796   1.440   2.231  15.099  2.5672 -0.7224 -0.5633
 8055SOL     OW35797   3.732   0.408   4.213 -0.9375 -0.1576  0.7740
 8055SOL    HW135798   3.677   0.485   4.229  0.7769  0.5704  3.1856
 8055SOL    HW235799   3.671   0.337   4.192 -1.0046 -0.1482  0.9316
 8056SOL     OW35800   1.328   4.661  15.122 -0.2894 -0.4749  0.6610
 8056SOL    HW135801   1.297   4.731  15.181  1.6045  1.4316 -0.6196
 8056SOL    HW235802   1.360   4.710  15.047  0.6093 -0.8144  0.8253
 8057SOL     OW35803   2.898   1.575  14.403 -0.4715  0.3795  0.1128
 8057SOL    HW135804   2.838   1.629  14.454  1.2727  2.8260 -0.4195
 8057SOL    HW235805   2.839   1.523  14.349 -0.9620  1.7327 -0.6536
 8058SOL     OW35806   2.085   2.629   2.695 -0.3948 -0.4866  0.2935
 8058SOL    HW135807   2.083   2.571   2.770 -1.5187 -1.2165 -0.3088
 8058SOL    HW235808   2.165   2.592   2.656 -0.3963 -1.3215  1.0993
 8059SOL     OW35809   0.274   4.131   5.643 -0.3904 -0.1701 -0.1457
 8059SOL    HW135810   0.230   4.142   5.727 -0.2506  1.9376 -0.3687
 8059SOL    HW235811   0.239   4.205   5.595 -1.0935 -0.8933 -0.7468
 8060SOL     OW35812   0.451   4.139   5.273 -0.2884 -0.5642 -0.2780
 8060SOL    HW135813   0.441   4.044   5.286  0.5115 -0.5952  0.1777
 8060SOL    HW235814   0.364   4.150   5.235 -0.5840  0.6877  0.7709
 8061SOL     OW35815   0.466   3.203   3.677  0.0224  0.6178  0.2204
 8061SOL    HW135816   0.389   3.147   3.687  1.2185 -0.8834  1.1001
 8061SOL    HW235817   0.443   3.258   3.602  0.0608  0.5905  0.1882
 8062SOL     OW35818   3.569   4.515  13.002  0.6951  0.1738 -0.1333
 8062SOL    HW135819   3.593   4.425  12.981 -0.3294 -0.0540 -0.3219
 8062SOL    HW235820   3.638   4.561  12.956 -0.0766  0.6063 -0.8571
 8063SOL     OW35821   2.343   1.499   3.119 -0.2318  0.4846 -0.6284
 8063SOL    HW135822   2.366   1.584   3.158 -1.6313  1.5211 -2.0623
 8063SOL    HW235823   2.380   1.443   3.187  0.8577  2.7417  0.6259
 8064SOL     OW35824   1.003   1.258  14.346 -0.3441  0.0815 -0.1623
 8064SOL    HW135825   0.935   1.216  14.295  1.1543 -1.5374 -0.8482
 8064SOL    HW235826   0.991   1.211  14.429 -1.9705  1.1699  0.2160
 8065SOL     OW35827   2.529   3.738   7.144 -0.0481 -0.3797 -0.0683
 8065SOL    HW135828   2.587   3.811   7.164  0.7357 -1.4193  1.4672
 8065SOL    HW235829   2.541   3.671   7.212 -0.4566  0.7740  1.1357
 8066SOL     OW35830   4.367   3.338   7.379  0.2252  0.1288 -0.0663
 8066SOL    HW135831   4.364   3.409   7.442  1.9683 -0.5538  0.7616
 8066SOL    HW235832   4.454   3.362   7.347 -0.2111  2.7616  0.7016
 8067SOL     OW35833   0.444   4.345   8.326  0.0335 -0.0314 -0.2673
 8067SOL    HW135834   0.496   4.306   8.256  2.1868  1.3263  0.5663
 8067SOL    HW235835   0.366   4.289   8.322  0.3412 -0.3797 -1.2171
 8068SOL     OW35836   2.371   4.582   2.345 -0.1950 -0.0315  0.1413
 8068SOL    HW135837   2.362   4.559   2.252  3.1853 -0.1472 -0.1730
 8068SOL    HW235838   2.299   4.643   2.358  0.2899  0.5226  0.2533
 8069SOL     OW35839   4.073   3.398   8.874 -0.6306  0.1203  0.4548
 8069SOL    HW135840   4.150   3.343   8.891  0.5953  1.9374  0.7886
 8069SOL    HW235841   4.040   3.359   8.793  0.4616 -1.8540  0.9520
 8070SOL     OW35842   2.306   2.309   6.890  0.0486 -0.1649 -0.5610
 8070SOL    HW135843   2.312   2.365   6.812 -0.9046  0.9377  0.1560
 8070SOL    HW235844   2.288   2.373   6.959  1.9660 -2.2320  1.8382
 8071SOL     OW35845   1.278   0.251   7.235  0.3419 -0.3457 -0.1860
 8071SOL    HW135846   1.308   0.243   7.326 -0.6419  1.8617  0.3358
 8071SOL    HW235847   1.342   0.191   7.196  1.3706  0.2642  0.5494
 8072SOL     OW35848   1.100   3.771   9.012  0.1065  0.1103  0.1853
 8072SOL    HW135849   1.060   3.821   8.941  4.3300  0.4652 -1.9360
 8072SOL    HW235850   1.031   3.706   9.026  1.1494 -0.4376  2.7943
 8073SOL     OW35851   2.147   4.515   4.465 -0.9287  0.3862 -0.6260
 8073SOL    HW135852   2.198   4.561   4.531 -1.3256 -0.9377  0.6062
 8073SOL    HW235853   2.074   4.576   4.452 -1.2406  0.5739  2.0527
 8074SOL     OW35854   2.544   4.470   4.009  0.1055  0.1913 -0.0133
 8074SOL    HW135855   2.512   4.444   4.095 -2.3869 -1.2607 -1.3855
 8074SOL    HW235856   2.624   4.418   4.003 -0.1328 -0.4666  2.9792
 8075SOL     OW35857   0.098   0.515   0.090  0.2443 -0.0012  0.2993
 8075SOL    HW135858   0.143   0.449   0.038  2.0345  1.0621  0.4974
 8075SOL    HW235859   0.134   0.485   0.174 -0.5621  0.6960  0.9009
 8076SOL     OW35860   0.047   4.655  16.007 -0.4010  0.0134 -0.3219
 8076SOL    HW135861   0.019   4.737  16.047 -1.1431 -0.4110  0.0293
 8076SOL    HW235862   0.142   4.668  16.015 -0.3081 -1.3254  0.8561
 8077SOL     OW35863   0.512   1.458   7.631  0.3389  0.1621 -0.0947
 8077SOL    HW135864   0.545   1.548   7.637 -0.0283  0.2894 -0.0418
 8077SOL    HW235865   0.582   1.406   7.673 -0.4398  0.9906  2.2516
 8078SOL     OW35866   3.598   2.833   6.423  0.0067 -0.1384  0.4105
 8078SOL    HW135867   3.577   2.914   6.376 -2.7394  0.1981  2.2488
 8078SOL    HW235868   3.542   2.777   6.369  0.9738 -1.5560  0.8945
 8079SOL     OW35869   1.472   2.128   2.227 -0.0497  0.0528 -0.2565
 8079SOL    HW135870   1.430   2.107   2.310 -0.6960  0.4472 -0.4904
 8079SOL    HW235871   1.565   2.115   2.248 -0.4160 -0.9753  0.7122
 8080SOL     OW35872   1.207   1.018   5.590  0.0391  0.2111 -0.4983
 8080SOL    HW135873   1.168   0.941   5.548  2.1052 -2.0183  1.6485
 8080SOL    HW235874   1.180   1.076   5.519  0.2299 -0.0494 -0.7877
 8081SOL     OW35875   2.986   2.989   6.478  0.1315  0.0321 -0.4281
 8081SOL    HW135876   3.039   3.062   6.445 -0.3900 -0.1872 -1.7526
 8081SOL    HW235877   2.916   2.992   6.412 -0.5934  1.0548  0.3886
 8082SOL     OW35878   3.614   2.218   8.966 -0.2777  0.5379  0.2173
 8082SOL    HW135879   3.568   2.270   8.899 -1.4314 -0.4416  0.2420
 8082SOL    HW235880   3.553   2.144   8.962  0.7255 -0.2939  0.4112
 8083SOL     OW35881   2.424   1.738   6.711  0.0564 -0.2690  0.1543
 8083SOL    HW135882   2.346   1.782   6.680  1.2805 -0.4179 -3.1828
 8083SOL    HW235883   2.410   1.645   6.691 -4.0045  0.3658  0.0683
 8084SOL     OW35884   0.403   3.131   8.866  0.4128 -0.2894 -0.1655
 8084SOL    HW135885   0.454   3.124   8.946  2.5299 -2.1970 -1.6723
 8084SOL    HW235886   0.456   3.199   8.823 -1.9923  1.7395  0.0403
 8085SOL     OW35887   3.094   3.359  14.452  0.2793 -0.1516  0.0268
 8085SOL    HW135888   3.017   3.379  14.505 -0.5237  0.3862 -1.3566
 8085SOL    HW235889   3.148   3.317  14.519  1.5032  0.6596 -0.4318
 8086SOL     OW35890   4.700   1.428   3.761 -0.2076 -0.1067  0.6143
 8086SOL    HW135891   0.020   1.365   3.718 -1.0648 -1.2866  1.1805
 8086SOL    HW235892   0.030   1.483   3.799 -0.3386  0.1696  0.4453
 8087SOL     OW35893   0.714   2.828   8.441  0.4584 -0.3145  0.6553
 8087SOL    HW135894   0.668   2.860   8.363  1.6850  2.7114  1.1645
 8087SOL    HW235895   0.693   2.894   8.507  1.0695 -0.5949  1.1309
 8088SOL     OW35896   0.608   1.786   5.030  0.5667 -0.1774  0.0623
 8088SOL    HW135897   0.518   1.816   5.014  0.4992 -0.7473 -0.6428
 8088SOL    HW235898   0.588   1.704   5.074  2.2096 -2.1136 -2.7802
 8089SOL     OW35899   3.882   1.504   0.698 -0.4660 -1.3482  0.9346
 8089SOL    HW135900   3.812   1.563   0.673  0.1167 -1.2016 -0.3189
 8089SOL    HW235901   3.836   1.468   0.774 -1.4624  0.4590  1.1791
 8090SOL     OW35902   0.149   3.671   7.700 -0.5426  0.0588  0.2357
 8090SOL    HW135903   0.086   3.621   7.751  0.4267 -1.8552 -0.4209
 8090SOL    HW235904   0.099   3.749   7.676  2.3586  1.4505 -1.2902
 8091SOL     OW35905   2.487   1.009  17.199 -0.4195  0.1739 -0.0965
 8091SOL    HW135906   2.493   1.049  17.112 -1.1480  1.7431  0.5675
 8091SOL    HW235907   2.392   1.015  17.202 -0.4077 -0.0450  0.6855
 8092SOL     OW35908   3.898   2.015   6.177  0.3876 -0.9914 -0.6624
 8092SOL    HW135909   3.966   1.948   6.172  2.2999  0.7297  2.1509
 8092SOL    HW235910   3.884   2.033   6.084  4.1007  1.5014 -0.7114
 8093SOL     OW35911   3.102   0.956   5.807 -0.3136  0.3471 -0.4500
 8093SOL    HW135912   3.154   0.878   5.786 -1.8313 -0.8777  0.3392
 8093SOL    HW235913   3.020   0.938   5.762  0.0525  0.1860 -1.0561
 8094SOL     OW35914   2.823   3.811   1.021 -0.5920 -0.1613  0.1106
 8094SOL    HW135915   2.878   3.837   0.947 -0.3036 -3.2786 -0.7537
 8094SOL    HW235916   2.880   3.844   1.090 -0.2153  1.4462 -0.9834
 8095SOL     OW35917   2.620   1.310   8.579 -0.2613  0.1028 -0.1272
 8095SOL    HW135918   2.706   1.270   8.591 -0.9438 -0.8380  1.7426
 8095SOL    HW235919   2.577   1.249   8.519 -1.7677  0.0112  1.0407
 8096SOL     OW35920   2.178   2.810   4.362  0.0267  0.4785 -0.5232
 8096SOL    HW135921   2.149   2.901   4.362  0.6416  0.6781  0.4413
 8096SOL    HW235922   2.114   2.768   4.420 -1.8301  0.3633 -2.6621
 8097SOL     OW35923   1.404   1.497   9.325 -0.3415  0.2833 -0.6042
 8097SOL    HW135924   1.433   1.420   9.374 -1.2449  1.1485  1.2541
 8097SOL    HW235925   1.389   1.562   9.393  0.8195 -0.0271 -0.0633
 8098SOL     OW35926   3.528   0.123  16.289 -0.1334 -0.3862  0.3775
 8098SOL    HW135927   3.500   0.080  16.370 -0.7904  0.6188  0.6737
 8098SOL    HW235928   3.458   0.093  16.231 -0.8976 -1.5317  1.8765
 8099SOL     OW35929   2.259   2.216   4.198  0.2944 -0.2693 -0.4251
 8099SOL    HW135930   2.205   2.139   4.219 -1.7095  1.8643  2.2607
 8099SOL    HW235931   2.327   2.185   4.138  0.3391 -1.2648  0.1336
 8100SOL     OW35932   1.564   1.908   3.739 -0.2094 -0.3014  0.8748
 8100SOL    HW135933   1.581   1.882   3.649  2.1878 -1.8531  1.7881
 8100SOL    HW235934   1.601   1.826   3.772 -1.1330 -0.7275  0.8643
 8101SOL     OW35935   1.565   3.800   4.705 -0.1059  0.0451  0.1244
 8101SOL    HW135936   1.619   3.845   4.770  0.2518  0.1953 -0.2734
 8101SOL    HW235937   1.498   3.761   4.760 -0.3892 -0.4668 -0.5750
 8102SOL     OW35938   2.816   1.537  15.889 -0.3223 -0.4681  0.2510
 8102SOL    HW135939   2.749   1.591  15.847 -0.6673  1.1637  2.8816
 8102SOL    HW235940   2.799   1.448  15.859  2.2874 -0.2052 -2.0273
 8103SOL     OW35941   1.222   2.041   1.014 -0.0945  0.0958  0.0060
 8103SOL    HW135942   1.258   1.984   0.947  0.7228 -1.7660  2.0152
 8103SOL    HW235943   1.256   2.124   0.981 -0.3357  0.0280 -0.4150
 8104SOL     OW35944   1.512   2.047   6.047 -0.8721 -0.7399 -0.4052
 8104SOL    HW135945   1.524   1.974   6.109 -0.7909  0.1749  0.6681
 8104SOL    HW235946   1.445   2.017   5.986  0.3413 -1.2225 -1.4988
 8105SOL     OW35947   0.779   0.174   3.347 -0.5688 -0.4020 -0.4288
 8105SOL    HW135948   0.839   0.151   3.275 -0.3959 -2.5633  0.4163
 8105SOL    HW235949   0.838   0.160   3.422 -1.4009 -0.0425  0.2885
 8106SOL     OW35950   3.883   0.238   7.529 -0.0581  0.0573  0.2463
 8106SOL    HW135951   3.792   0.219   7.553  0.9500 -3.1144  1.6775
 8106SOL    HW235952   3.876   0.273   7.441 -0.5481  0.2676  0.3697
 8107SOL     OW35953   2.770   3.362   1.676  0.3925  0.5820 -0.2500
 8107SOL    HW135954   2.841   3.424   1.691  2.1009 -1.6654  0.8712
 8107SOL    HW235955   2.697   3.425   1.673  0.4757  0.6264 -1.5148
 8108SOL     OW35956   1.347   2.565   6.508  0.5443 -0.6269 -0.1127
 8108SOL    HW135957   1.284   2.638   6.502  0.7123 -0.7733 -3.1359
 8108SOL    HW235958   1.428   2.587   6.462  0.2587  0.7145  0.0205
 8109SOL     OW35959   2.271   3.977   7.437 -0.1911  0.2159 -1.2314
 8109SOL    HW135960   2.291   4.070   7.447 -3.9594  1.0792 -1.5182
 8109SOL    HW235961   2.177   3.969   7.453 -0.1570 -1.3165 -1.8341
 8110SOL     OW35962   0.597   1.197  15.627 -0.1265 -0.3576  0.2009
 8110SOL    HW135963   0.596   1.264  15.559  1.7389 -0.9954 -0.4560
 8110SOL    HW235964   0.538   1.138  15.579 -0.3735  1.8926 -2.2995
 8111SOL     OW35965   1.983   1.427   5.558  0.2622  0.1640 -0.2876
 8111SOL    HW135966   2.004   1.362   5.491 -0.2392 -0.1542 -0.1344
 8111SOL    HW235967   1.991   1.501   5.497  1.9805  1.5862  1.6572
 8112SOL     OW35968   0.602   4.213  15.329  0.2967 -0.4361 -0.3593
 8112SOL    HW135969   0.515   4.173  15.335  0.5054 -0.9108 -0.5410
 8112SOL    HW235970   0.659   4.138  15.316  0.9250  0.1904 -1.2280
 8113SOL     OW35971   1.579   1.809   4.053 -0.4468  0.1627  0.5186
 8113SOL    HW135972   1.528   1.782   4.129 -1.3846 -0.8443 -0.4581
 8113SOL    HW235973   1.600   1.899   4.076 -0.3690  0.6207 -1.3320
 8114SOL     OW35974   2.640   2.433   6.905  0.1962  0.3389 -0.3882
 8114SOL    HW135975   2.705   2.409   6.839 -0.2878 -0.5286 -0.5571
 8114SOL    HW235976   2.686   2.470   6.980 -0.2008 -1.2574  0.6498
 8115SOL     OW35977   4.104   1.930   3.365  0.3677  0.0465  0.4511
 8115SOL    HW135978   4.082   2.009   3.414  1.3989  1.0177 -0.6374
 8115SOL    HW235979   4.158   1.958   3.291  0.5475  1.8119  1.2475
 8116SOL     OW35980   0.274   4.510   7.447 -0.0778  0.2353  0.3770
 8116SOL    HW135981   0.333   4.536   7.518  0.2744 -0.7211  0.4326
 8116SOL    HW235982   0.344   4.479   7.388 -0.1604  0.7834 -0.0091
 8117SOL     OW35983   1.824   0.402  12.149 -0.0178 -0.0752 -0.9170
 8117SOL    HW135984   1.766   0.341  12.103 -1.3894  1.0851 -0.7456
 8117SOL    HW235985   1.896   0.420  12.089  0.6788  1.1576  0.2955
 8118SOL     OW35986   3.011   3.877  11.785  0.1599  0.5926 -0.0361
 8118SOL    HW135987   2.945   3.858  11.852 -0.4166  0.9121 -0.5178
 8118SOL    HW235988   2.981   3.968  11.779 -1.1602  0.2417  1.2834
 8119SOL     OW35989   1.005   1.172  13.591 -0.4029  0.6215 -0.2686
 8119SOL    HW135990   0.921   1.147  13.630  0.0077  2.2192  1.6422
 8119SOL    HW235991   0.981   1.248  13.537 -0.2835 -0.7385 -2.2357
 8120SOL     OW35992   2.803   2.519   6.038 -0.0319  0.5556 -0.3170
 8120SOL    HW135993   2.766   2.476   6.115 -1.8555 -0.1291 -1.5809
 8120SOL    HW235994   2.756   2.602   6.040 -0.8683  0.0862 -0.5824
 8121SOL     OW35995   3.364   3.355   5.309  0.1293  0.0110  0.2846
 8121SOL    HW135996   3.365   3.259   5.316 -1.2847  0.1314  2.0764
 8121SOL    HW235997   3.323   3.361   5.222 -0.5596 -1.9713  0.4733
 8122SOL     OW35998   0.935   1.137   6.570 -0.1878  0.5458 -0.2997
 8122SOL    HW135999   0.880   1.062   6.593  3.3614 -1.7086  0.8440
 8122SOL    HW236000   0.892   1.177   6.495 -0.4968  1.2534  0.2606
 8123SOL     OW36001   3.410   4.229   7.697 -0.5415  0.2619  0.1623
 8123SOL    HW136002   3.435   4.285   7.771 -2.1418  1.2242 -0.0158
 8123SOL    HW236003   3.360   4.159   7.738  0.2483 -0.7889 -0.6819
 8124SOL     OW36004   4.329   3.429   3.781  0.5816 -0.0164  0.6514
 8124SOL    HW136005   4.387   3.354   3.763  0.4299 -0.2621  1.1855
 8124SOL    HW236006   4.371   3.469   3.857  1.9603 -0.7685  0.2943
 8125SOL     OW36007   4.379   4.316   4.254 -0.5717  0.3751 -0.3277
 8125SOL    HW136008   4.353   4.371   4.181  0.5594  0.4324 -0.6781
 8125SOL    HW236009   4.454   4.264   4.224 -1.0787 -0.5270 -0.0548
 8126SOL     OW36010   2.398   1.391   4.479  0.2842 -0.1363  0.2563
 8126SOL    HW136011   2.351   1.457   4.428  0.1967 -1.5502 -1.4832
 8126SOL    HW236012   2.485   1.402   4.439  0.1239  0.9979  0.2180
 8127SOL     OW36013   2.017   3.376   6.477 -0.2819  0.1434  0.0187
 8127SOL    HW136014   1.953   3.433   6.434 -2.5603 -2.2698  0.2473
 8127SOL    HW236015   2.012   3.299   6.421  0.1307  0.3486 -0.2997
 8128SOL     OW36016   4.194   2.550   9.517  0.1705  0.3076  0.1904
 8128SOL    HW136017   4.156   2.540   9.604 -1.5908 -0.4431 -0.6661
 8128SOL    HW236018   4.277   2.503   9.526  0.6482  1.0173 -0.4121
 8129SOL     OW36019   2.592   1.222   7.070  0.0815  0.1850 -0.4074
 8129SOL    HW136020   2.684   1.225   7.044  0.3072 -2.9739 -0.0229
 8129SOL    HW236021   2.572   1.295   7.129 -0.0235 -1.0085  1.0235
 8130SOL     OW36022   1.086   3.300   5.693 -0.4074  0.3980  0.0632
 8130SOL    HW136023   1.043   3.363   5.634 -2.2785 -0.7497  0.1915
 8130SOL    HW236024   1.020   3.302   5.763 -0.0510  2.0625  0.3500
 8131SOL     OW36025   2.001   4.263   4.484 -0.0425  0.4984  0.4413
 8131SOL    HW136026   2.044   4.324   4.424  0.0530 -0.6436 -0.6549
 8131SOL    HW236027   1.927   4.319   4.510  0.3074  1.7508 -1.2566
 8132SOL     OW36028   3.179   4.172   4.178  0.4967  0.2111 -0.7299
 8132SOL    HW136029   3.115   4.136   4.116 -1.3911 -1.5117  2.2316
 8132SOL    HW236030   3.119   4.219   4.236 -0.1893  0.0307 -1.2874
 8133SOL     OW36031   3.691   3.664   8.115 -0.1146 -0.3537  0.2113
 8133SOL    HW136032   3.746   3.621   8.050 -0.0672 -0.3127  0.2247
 8133SOL    HW236033   3.712   3.756   8.101  0.0766 -0.4215  0.0543
 8134SOL     OW36034   0.225   0.852  14.034 -0.2406  0.0186  0.2084
 8134SOL    HW136035   0.308   0.839  14.079 -1.3189 -4.0499  1.0549
 8134SOL    HW236036   0.159   0.812  14.091 -0.7672  0.5206 -0.0556
 8135SOL     OW36037   0.240   2.574   3.430 -0.1122  0.8542 -0.1859
 8135SOL    HW136038   0.286   2.541   3.507  0.7755  1.6887 -0.3529
 8135SOL    HW236039   0.190   2.645   3.469 -1.1090 -0.4229  0.8504
 8136SOL     OW36040   3.493   2.977   2.755 -0.1541  0.1895 -0.1790
 8136SOL    HW136041   3.542   3.014   2.681  0.9465 -0.5065  0.2058
 8136SOL    HW236042   3.404   3.014   2.748 -0.7303 -1.1378  0.1587
 8137SOL     OW36043   4.263   2.402   8.796  0.5712  0.7128 -0.5983
 8137SOL    HW136044   4.329   2.471   8.797 -2.4153  3.5833 -1.7613
 8137SOL    HW236045   4.292   2.346   8.724 -0.7209  0.5600 -1.0058
 8138SOL     OW36046   2.853   3.774   8.316 -0.2032 -0.2110  0.5177
 8138SOL    HW136047   2.804   3.698   8.283 -2.3998  0.5487  2.0066
 8138SOL    HW236048   2.936   3.762   8.269 -1.0125 -0.3719 -0.8804
 8139SOL     OW36049   2.425   2.655   3.493 -0.0546  0.4901  0.0521
 8139SOL    HW136050   2.482   2.692   3.425  1.4846 -2.4579 -0.2376
 8139SOL    HW236051   2.489   2.609   3.547 -0.4752  0.0860  0.1987
 8140SOL     OW36052   2.304   1.947   7.457 -0.0783 -0.3102 -0.2430
 8140SOL    HW136053   2.352   2.029   7.440  1.0610 -1.0576 -0.6391
 8140SOL    HW236054   2.218   1.972   7.424 -0.9681 -0.0732  2.2360
 8141SOL     OW36055   3.392   3.832  14.356  0.2303 -0.0659  0.2875
 8141SOL    HW136056   3.392   3.836  14.260 -2.4022  0.7529  0.3169
 8141SOL    HW236057   3.325   3.896  14.381  1.5722  1.8186 -0.9039
 8142SOL     OW36058   1.180   0.603  14.456  0.7269  0.2913 -0.0727
 8142SOL    HW136059   1.160   0.610  14.363 -2.5991  1.5147  0.7509
 8142SOL    HW236060   1.138   0.685  14.482  0.8225  0.9049 -1.8901
 8143SOL     OW36061   3.196   3.293   2.204  0.2184 -0.1921 -0.6757
 8143SOL    HW136062   3.127   3.358   2.213 -0.6643 -1.5012  2.2541
 8143SOL    HW236063   3.281   3.335   2.221  1.8344 -3.3805 -0.7908
 8144SOL     OW36064   3.734   3.977   1.975  0.6097 -0.3395 -0.4611
 8144SOL    HW136065   3.775   3.965   1.889  1.5369 -0.0680 -0.0652
 8144SOL    HW236066   3.648   4.013   1.953  0.0888 -2.3906 -1.6972
 8145SOL     OW36067   2.715   0.103   8.938 -0.0595  0.2042  0.2172
 8145SOL    HW136068   2.806   0.113   8.965 -0.0683  0.0583  0.3014
 8145SOL    HW236069   2.751   0.054   8.864  0.2288  2.5647 -1.1975
 8146SOL     OW36070   0.626   3.623   7.718  0.5337 -0.2857  0.2889
 8146SOL    HW136071   0.559   3.555   7.711  1.6254 -1.3212 -0.2824
 8146SOL    HW236072   0.577   3.703   7.702  2.7283  1.2418  1.2555
 8147SOL     OW36073   2.062   1.779  15.934  0.4193 -0.0533 -0.3274
 8147SOL    HW136074   2.009   1.703  15.910  1.1607 -1.1003  1.3493
 8147SOL    HW236075   2.051   1.770  16.029  0.6901 -0.6189 -0.3486
 8148SOL     OW36076   1.209   0.715   2.944  0.7190  0.4170  0.2939
 8148SOL    HW136077   1.199   0.703   3.038 -0.5147  0.5534  0.1788
 8148SOL    HW236078   1.118   0.727   2.916  0.4968 -0.7335  0.5543
 8149SOL     OW36079   1.412   1.305   5.510 -0.7893 -0.7013 -0.4278
 8149SOL    HW136080   1.419   1.243   5.438  2.0405 -0.2199 -0.5447
 8149SOL    HW236081   1.397   1.385   5.459  0.9791  0.1374  0.3664
 8150SOL     OW36082   3.097   2.612   5.584 -0.9285  0.3676  0.1797
 8150SOL    HW136083   3.019   2.555   5.586  0.5435 -1.5526  2.6899
 8150SOL    HW236084   3.072   2.690   5.632  0.7241  0.1831  1.3287
 8151SOL     OW36085   2.969   2.927   0.014  0.6142 -0.0503  0.1480
 8151SOL    HW136086   2.953   2.885  17.678  1.3254  1.2670 -0.6494
 8151SOL    HW236087   3.041   2.988  17.744  0.9105 -0.0910  1.2043
 8152SOL     OW36088   3.288   1.096   3.541  0.4985 -0.2642 -0.1658
 8152SOL    HW136089   3.354   1.035   3.574 -0.8191 -0.7297  1.5992
 8152SOL    HW236090   3.288   1.163   3.609 -0.3948  0.4018 -0.8293
 8153SOL     OW36091   2.439   3.079   7.300 -0.0672 -0.2068  0.0542
 8153SOL    HW136092   2.410   3.169   7.288 -1.6546 -0.3417  2.7278
 8153SOL    HW236093   2.477   3.070   7.213 -0.6620  2.7297 -0.4969
 8154SOL     OW36094   2.382   0.957   3.914  0.0506  0.0233 -0.4260
 8154SOL    HW136095   2.292   0.973   3.944 -0.2586 -0.6799 -0.9824
 8154SOL    HW236096   2.365   0.869   3.880  2.0161  0.9577 -3.8232
 8155SOL     OW36097   0.283   0.759   4.375 -0.2162 -0.3815 -0.5231
 8155SOL    HW136098   0.328   0.839   4.402 -3.6731  1.5079 -0.3501
 8155SOL    HW236099   0.290   0.707   4.455  0.1275 -1.3523 -1.1816
 8156SOL     OW36100   2.326   3.495   3.552 -0.5096  0.3215 -0.5570
 8156SOL    HW136101   2.265   3.430   3.586 -1.0161  1.9330  1.6288
 8156SOL    HW236102   2.376   3.433   3.498  0.7308 -0.0927  1.0657
 8157SOL     OW36103   0.902   2.207   0.500 -0.5566 -0.2226 -0.7622
 8157SOL    HW136104   0.947   2.128   0.530 -0.3170 -0.5412 -1.9187
 8157SOL    HW236105   0.865   2.189   0.413 -2.7982  0.5880  0.0350
 8158SOL     OW36106   0.598   3.191   0.719  0.8408  0.4079 -0.0130
 8158SOL    HW136107   0.521   3.219   0.767  1.2040 -0.4731  1.0678
 8158SOL    HW236108   0.554   3.183   0.634 -0.5978 -0.3124  0.8037
 8159SOL     OW36109   4.468   2.645  15.537  0.4304 -0.0055  0.3731
 8159SOL    HW136110   4.509   2.626  15.622 -1.4055 -0.6517  1.0999
 8159SOL    HW236111   4.446   2.738  15.546  1.9388  0.2945  1.0261
 8160SOL     OW36112   2.412   3.816  11.132  0.1792 -0.1891  0.7806
 8160SOL    HW136113   2.421   3.909  11.154  1.3093 -0.3457  0.9929
 8160SOL    HW236114   2.471   3.817  11.057 -1.8249  0.1739 -0.8065
 8161SOL     OW36115   2.598   2.285   6.504 -0.0495  0.3532  0.4264
 8161SOL    HW136116   2.677   2.287   6.558  1.1639  0.4744 -1.3298
 8161SOL    HW236117   2.646   2.283   6.421  0.9051  1.8501  0.9543
 8162SOL     OW36118   4.347   4.405   7.731 -0.0992  0.3460  0.0732
 8162SOL    HW136119   4.322   4.497   7.745 -0.2043  0.5562 -1.5787
 8162SOL    HW236120   4.267   4.386   7.683 -0.3624 -1.1040  1.0966
 8163SOL     OW36121   3.083   0.787   8.323  0.1960 -0.3579 -0.4686
 8163SOL    HW136122   3.163   0.835   8.299  1.5802 -1.7288  1.3995
 8163SOL    HW236123   3.083   0.778   8.418  0.7390 -0.1049 -0.4460
 8164SOL     OW36124   2.820   4.039  17.170 -0.3606 -0.8859  0.0591
 8164SOL    HW136125   2.828   4.132  17.150  1.5293 -1.0446  0.1080
 8164SOL    HW236126   2.893   4.013  17.226  1.0102 -1.2213 -1.8826
 8165SOL     OW36127   0.357   0.317  15.195 -0.1746 -0.0772  0.0255
 8165SOL    HW136128   0.452   0.323  15.211 -0.7071 -1.1251  3.6617
 8165SOL    HW236129   0.322   0.350  15.278 -2.8227  1.7023 -1.8299
 8166SOL     OW36130   1.727   1.254   8.068 -0.1536  0.0132  0.3783
 8166SOL    HW136131   1.707   1.161   8.077  0.8370 -0.1949  0.4227
 8166SOL    HW236132   1.741   1.276   8.160 -3.5351 -0.2155  0.9416
 8167SOL     OW36133   2.088   1.594  16.444 -0.3063 -0.3660 -0.2218
 8167SOL    HW136134   2.093   1.522  16.382 -1.8493  0.8518 -1.7812
 8167SOL    HW236135   2.142   1.566  16.518  0.9901 -0.4025 -1.1755
 8168SOL     OW36136   0.472   4.440   6.497  0.1046  0.2632  0.2253
 8168SOL    HW136137   0.517   4.356   6.510 -1.2340 -0.1504  2.3080
 8168SOL    HW236138   0.527   4.479   6.565  2.0583 -0.5384 -0.8986
 8169SOL     OW36139   2.312   2.686   5.220  0.1931  0.3552  0.0526
 8169SOL    HW136140   2.386   2.646   5.174  1.7742  2.4219  0.8017
 8169SOL    HW236141   2.363   2.711   5.297 -0.4386 -0.8482  0.8744
 8170SOL     OW36142   3.627   1.595   4.634 -0.1396 -0.2188  0.1469
 8170SOL    HW136143   3.553   1.566   4.687  1.1650 -1.2993  1.3629
 8170SOL    HW236144   3.690   1.524   4.643  1.0469  0.7201 -0.7869
 8171SOL     OW36145   2.443   3.040   1.712 -0.0041 -0.3998  0.1622
 8171SOL    HW136146   2.361   3.001   1.680  0.7239 -2.0626  0.3296
 8171SOL    HW236147   2.476   3.102   1.647 -0.5077  1.6464  1.8241
 8172SOL     OW36148   1.219   3.225   0.445 -0.3223  0.5301 -0.1425
 8172SOL    HW136149   1.172   3.267   0.517 -1.4257  0.4927 -0.8420
 8172SOL    HW236150   1.146   3.180   0.401 -0.6345  0.6866  0.2096
 8173SOL     OW36151   0.458   2.123  10.874 -0.4541  0.3688 -0.1800
 8173SOL    HW136152   0.538   2.081  10.907 -1.2225 -1.1423 -0.3002
 8173SOL    HW236153   0.499   2.198  10.829 -0.0387  1.2050  1.5694
 8174SOL     OW36154   1.855   3.148   7.956 -0.3603  0.1226 -0.6157
 8174SOL    HW136155   1.831   3.124   8.046 -0.6926  0.3807 -0.6356
 8174SOL    HW236156   1.908   3.226   7.971  0.3631 -0.3530 -0.7099
 8175SOL     OW36157   4.148   4.239   5.937  0.2529 -0.5289  0.3075
 8175SOL    HW136158   4.059   4.216   5.909 -0.5051  2.1858  0.5183
 8175SOL    HW236159   4.136   4.327   5.973 -0.3316 -0.4055 -0.1962
 8176SOL     OW36160   0.138   3.093   9.070 -0.3846 -0.0382  0.5072
 8176SOL    HW136161   0.074   3.040   9.117 -0.2511 -0.1256  0.5929
 8176SOL    HW236162   0.104   3.095   8.981  0.8382  1.0450  0.0552
 8177SOL     OW36163   1.179   4.294   5.387 -0.5407 -0.4619  0.9513
 8177SOL    HW136164   1.161   4.292   5.293 -0.7167 -0.2368  0.9820
 8177SOL    HW236165   1.111   4.239   5.426  0.3811 -1.9093  0.5348
 8178SOL     OW36166   0.654   1.492   5.562 -0.0940 -0.2421 -0.1447
 8178SOL    HW136167   0.656   1.587   5.567  2.7616 -0.3414  0.6554
 8178SOL    HW236168   0.592   1.470   5.631 -1.6307  3.0842 -0.4491
 8179SOL     OW36169   1.584   1.937   7.438 -0.5530  0.1042 -0.1814
 8179SOL    HW136170   1.539   1.860   7.404  0.3663 -0.0988 -0.9431
 8179SOL    HW236171   1.658   1.886   7.472 -1.3613 -0.6062  0.4984
 8180SOL     OW36172   2.058   1.260   4.431  0.3463 -0.4199 -0.0270
 8180SOL    HW136173   1.969   1.227   4.437 -1.1228  3.5012 -0.5498
 8180SOL    HW236174   2.046   1.342   4.383  0.5477 -1.4043 -1.7366
 8181SOL     OW36175   1.330   2.669  13.993 -0.8196 -0.4362  0.3851
 8181SOL    HW136176   1.238   2.693  14.000 -0.8148 -0.0434 -0.8892
 8181SOL    HW236177   1.369   2.743  13.946  0.5664 -1.2216  0.2830
 8182SOL     OW36178   3.354   0.669   8.001 -0.0322  0.0753  0.1218
 8182SOL    HW136179   3.438   0.656   7.957 -0.6136  0.9571 -1.2452
 8182SOL    HW236180   3.357   0.759   8.034  0.7336  0.6758 -1.5669
 8183SOL     OW36181   2.373   2.384   6.629 -0.4287 -0.1621  0.0566
 8183SOL    HW136182   2.445   2.341   6.584 -0.0827  1.9615 -1.3604
 8183SOL    HW236183   2.294   2.385   6.575  1.3835 -1.1376 -2.6007
 8184SOL     OW36184   3.667   3.723   9.070 -0.4477 -0.1441 -0.3091
 8184SOL    HW136185   3.742   3.781   9.084 -1.2889  0.2901  2.4024
 8184SOL    HW236186   3.679   3.687   8.982 -1.5212 -0.3263 -0.3773
 8185SOL     OW36187   3.909   2.077  10.631  0.2109 -0.4402 -0.8445
 8185SOL    HW136188   3.979   2.031  10.678 -1.0353 -2.2728 -0.7529
 8185SOL    HW236189   3.948   2.163  10.616  0.8852 -0.0512  3.2510
 8186SOL     OW36190   0.682   3.730  15.287 -0.0490  0.1112  0.5778
 8186SOL    HW136191   0.674   3.821  15.256  1.2937 -0.0445 -0.2298
 8186SOL    HW236192   0.743   3.744  15.360 -0.9768 -0.2823  1.4202
 8187SOL     OW36193   3.290   2.981  17.171  0.0441  0.6630  0.2221
 8187SOL    HW136194   3.356   2.913  17.160 -2.2079 -1.3219 -1.1117
 8187SOL    HW236195   3.204   2.944  17.151  0.6309 -1.6926  2.1060
 8188SOL     OW36196   3.296   4.255   3.605 -0.0225 -0.6356 -0.0495
 8188SOL    HW136197   3.274   4.300   3.524  0.4622  1.1363  0.8028
 8188SOL    HW236198   3.269   4.324   3.667 -1.1659 -1.4494  0.3681
 8189SOL     OW36199   2.017   0.695  10.835  0.1948 -0.5178 -1.1334
 8189SOL    HW136200   2.109   0.669  10.840  0.3163  0.3783  0.9202
 8189SOL    HW236201   1.992   0.685  10.926  2.8857 -0.8351 -0.4164
 8190SOL     OW36202   3.379   4.032   8.708  0.5502  0.0597 -0.1362
 8190SOL    HW136203   3.455   4.006   8.656  1.1629  1.3790  0.1031
 8190SOL    HW236204   3.381   3.971   8.782  0.0326  0.0848 -0.0965
 8191SOL     OW36205   4.358   0.910   7.122 -0.5106 -0.3783 -0.6260
 8191SOL    HW136206   4.407   0.980   7.165 -2.3791 -0.6549  1.9680
 8191SOL    HW236207   4.390   0.918   7.032  1.2094 -0.4259 -0.0063
 8192SOL     OW36208   4.313   2.887  13.405 -0.0138 -0.1518 -0.4352
 8192SOL    HW136209   4.368   2.833  13.349 -0.4560  0.2428 -1.2452
 8192SOL    HW236210   4.236   2.900  13.350  0.1383 -1.4263 -0.9465
 8193SOL     OW36211   3.743   2.406   8.287  0.4957 -0.5544  0.5296
 8193SOL    HW136212   3.749   2.405   8.192  0.0009 -1.5143  0.5061
 8193SOL    HW236213   3.766   2.317   8.314  1.4302  0.0718  1.8304
 8194SOL     OW36214   4.672   3.819   7.538 -1.1449  0.2493  0.7191
 8194SOL    HW136215   4.646   3.907   7.566  0.2182  0.4590  1.3087
 8194SOL    HW236216   4.651   3.822   7.445 -0.1280  1.6083  0.5323
 8195SOL     OW36217   2.680   3.032   6.355  0.0123  0.2635 -0.4082
 8195SOL    HW136218   2.608   3.043   6.417  1.5960 -2.6427  1.9720
 8195SOL    HW236219   2.698   2.938   6.348  1.8075  0.6864 -1.3994
 8196SOL     OW36220   2.073   1.065   5.570  0.2141  0.6043  0.1585
 8196SOL    HW136221   2.079   0.979   5.610 -0.6979  0.7702  0.6435
 8196SOL    HW236222   2.157   1.100   5.600  0.3462  1.5089 -1.2723
 8197SOL     OW36223   3.993   2.624   2.544  1.1975 -0.5309 -0.4333
 8197SOL    HW136224   3.967   2.576   2.465 -0.3057  0.6033 -0.6172
 8197SOL    HW236225   4.062   2.671   2.496  0.6957  1.3201  0.6864
 8198SOL     OW36226   1.434   1.558   1.963 -0.1179  0.1643 -0.3486
 8198SOL    HW136227   1.473   1.574   1.877 -1.0392  0.1916 -0.7549
 8198SOL    HW236228   1.394   1.643   1.984 -2.0312 -0.6741 -0.6264
 8199SOL     OW36229   2.607   1.871   4.854 -0.4683  0.4404 -0.4136
 8199SOL    HW136230   2.675   1.825   4.805 -1.6471 -2.7954  0.9872
 8199SOL    HW236231   2.626   1.965   4.846  2.3064 -0.1550 -1.0062
 8200SOL     OW36232   3.655   1.328  15.413 -0.3555 -0.2509  0.0759
 8200SOL    HW136233   3.685   1.237  15.401  3.1202  0.7609  1.1167
 8200SOL    HW236234   3.700   1.344  15.496  1.4960  2.8457 -1.5296
 8201SOL     OW36235   3.350   3.505   7.515  0.5562  0.4809  0.1789
 8201SOL    HW136236   3.431   3.489   7.467 -1.0009 -0.7466 -2.0545
 8201SOL    HW236237   3.285   3.481   7.449 -0.4626  1.1550  0.9179
 8202SOL     OW36238   1.511   3.055  15.793  0.0307  0.6673  0.3096
 8202SOL    HW136239   1.438   2.998  15.818  1.5259 -0.4509  2.1299
 8202SOL    HW236240   1.547   3.066  15.880  0.4165  0.9783  0.1094
 8203SOL     OW36241   4.026   3.184   3.332  0.0427  0.2105 -0.4750
 8203SOL    HW136242   3.937   3.161   3.358 -0.1524  3.2493  1.4432
 8203SOL    HW236243   4.043   3.105   3.279  1.1050  0.0845  0.0590
 8204SOL     OW36244   0.819   0.771   9.763  0.4869 -0.2873  0.3541
 8204SOL    HW136245   0.824   0.858   9.801 -1.7019 -0.7944  1.7568
 8204SOL    HW236246   0.735   0.776   9.718  1.2716  1.3950 -0.9193
 8205SOL     OW36247   1.328   1.665   0.379 -0.1429 -0.1617 -0.3457
 8205SOL    HW136248   1.334   1.684   0.285  4.1170 -0.8798 -0.2397
 8205SOL    HW236249   1.237   1.638   0.376  0.8257 -3.4711  1.2116
 8206SOL     OW36250   3.682   1.810  14.022  0.1292  0.3371 -0.0173
 8206SOL    HW136251   3.647   1.899  14.016 -1.7065 -0.3759  0.0797
 8206SOL    HW236252   3.630   1.766  13.954  1.4258 -1.6161  0.2407
 8207SOL     OW36253   4.241   1.750   6.338 -0.3772  0.9358 -0.0133
 8207SOL    HW136254   4.172   1.751   6.272 -3.0371  2.1659  2.8056
 8207SOL    HW236255   4.204   1.692   6.404 -1.9752  2.2779  0.2782
 8208SOL     OW36256   2.452   3.125   3.788  0.4794 -0.0161  0.6291
 8208SOL    HW136257   2.456   3.029   3.788 -0.1923 -0.0392  0.6998
 8208SOL    HW236258   2.425   3.128   3.696 -0.9138  0.8117  1.0605
 8209SOL     OW36259   1.811   4.649  17.411  0.2887  0.4807  0.1196
 8209SOL    HW136260   1.773   4.712  17.472 -1.9221  0.2318 -0.9712
 8209SOL    HW236261   1.795   4.568  17.460 -1.0060  2.1189  2.3996
 8210SOL     OW36262   0.747   2.979   2.054 -0.2630 -0.1874 -0.3953
 8210SOL    HW136263   0.771   2.948   1.966  1.8037 -0.1875  0.1643
 8210SOL    HW236264   0.768   2.902   2.107 -1.0495 -0.4679 -0.5034
 8211SOL     OW36265   4.497   1.566   3.869  0.3459 -0.4179  0.4982
 8211SOL    HW136266   4.558   1.640   3.873  2.5021 -2.2576  1.8034
 8211SOL    HW236267   4.558   1.507   3.826 -0.4457 -0.0240 -1.1617
 8212SOL     OW36268   3.104   4.164  13.988  0.2484 -0.4538  0.3724
 8212SOL    HW136269   3.161   4.193  14.059  1.4649  0.0891 -0.8257
 8212SOL    HW236270   3.017   4.172  14.026  0.1500  1.0721 -0.1781
 8213SOL     OW36271   3.752   1.358   8.559 -0.2516  0.5446 -0.2907
 8213SOL    HW136272   3.743   1.430   8.497  0.1093 -1.4839 -2.6887
 8213SOL    HW236273   3.673   1.306   8.549  0.3326 -0.3412 -0.2686
 8214SOL     OW36274   3.368   1.444   7.463  0.5571  0.6864 -0.7437
 8214SOL    HW136275   3.337   1.386   7.533  0.3951 -0.6752 -1.9492
 8214SOL    HW236276   3.435   1.389   7.423  1.4358  1.6286 -0.5598
 8215SOL     OW36277   0.396   0.664  17.089  0.7109 -0.7326  0.2615
 8215SOL    HW136278   0.323   0.619  17.049  0.6287  0.3251 -0.7652
 8215SOL    HW236279   0.362   0.751  17.109 -1.5355 -1.6071  0.1711
 8216SOL     OW36280   2.336   0.129   6.931  0.3865  0.6831  0.0765
 8216SOL    HW136281   2.304   0.172   7.011  0.3994  3.1755 -1.2335
 8216SOL    HW236282   2.428   0.154   6.928  0.3781  0.9195  1.4420
 8217SOL     OW36283   3.861   3.554   3.162 -0.0209 -0.1335 -0.5416
 8217SOL    HW136284   3.909   3.486   3.115  0.4881  1.3220 -2.1000
 8217SOL    HW236285   3.861   3.523   3.253 -0.7221 -1.6697 -1.0693
 8218SOL     OW36286   1.118   0.812   6.391 -0.0384  0.1514 -1.0666
 8218SOL    HW136287   1.115   0.887   6.332  0.1944  2.4754  1.8944
 8218SOL    HW236288   1.043   0.757   6.366 -0.4899  0.5137 -0.5235
 8219SOL     OW36289   3.379   0.906   4.812  0.9915 -0.3088  0.0291
 8219SOL    HW136290   3.415   0.943   4.892  0.9937  0.5358 -0.3656
 8219SOL    HW236291   3.420   0.819   4.809  0.6089 -0.4424 -1.7043
 8220SOL     OW36292   4.219   2.499   6.087  0.5865  0.0477 -0.1819
 8220SOL    HW136293   4.184   2.502   5.998 -0.9963 -0.0505  0.4223
 8220SOL    HW236294   4.167   2.428   6.125  0.2806  0.7242  0.6953
 8221SOL     OW36295   3.455   0.428  12.338  0.0444  0.7793  0.1340
 8221SOL    HW136296   3.398   0.435  12.415  0.8817  1.0193  0.7288
 8221SOL    HW236297   3.410   0.362  12.285 -0.4825  0.3157  1.1578
 8222SOL     OW36298   2.122   3.226   5.627 -0.2591  0.2880 -0.4137
 8222SOL    HW136299   2.046   3.170   5.612 -0.0374 -0.5034  1.3810
 8222SOL    HW236300   2.194   3.167   5.650 -0.2834  0.9793  1.4407
 8223SOL     OW36301   0.482   3.321   3.928 -0.3664  0.2994  0.1540
 8223SOL    HW136302   0.562   3.288   3.969 -0.7330  1.7523  2.0142
 8223SOL    HW236303   0.486   3.283   3.840  0.0246  2.5764 -0.8200
 8224SOL     OW36304   1.627   2.097  16.352  0.7926 -0.3806  0.3310
 8224SOL    HW136305   1.666   2.183  16.367  0.4458  0.2594 -2.2904
 8224SOL    HW236306   1.567   2.081  16.425 -1.9363  0.1165 -1.7803
 8225SOL     OW36307   0.210   1.791  15.035 -0.5116  1.0145  0.9724
 8225SOL    HW136308   0.206   1.886  15.023  1.2293  0.9996  0.1421
 8225SOL    HW236309   0.126   1.762  14.999  0.1613 -0.1428  0.3482
 8226SOL     OW36310   1.141   0.265   9.457 -0.0188 -0.0093  0.2666
 8226SOL    HW136311   1.108   0.273   9.546  2.0009  0.1895  1.0020
 8226SOL    HW236312   1.158   0.356   9.432  0.2277  0.0028  0.4823
 8227SOL     OW36313   1.285   0.959   5.068  0.0030 -0.1757  0.3385
 8227SOL    HW136314   1.379   0.942   5.071  0.1889  0.8388  0.3754
 8227SOL    HW236315   1.251   0.887   5.015 -0.3966  1.4793 -1.6743
 8228SOL     OW36316   0.051   2.657   4.775 -0.3780  0.0366 -0.6430
 8228SOL    HW136317   0.060   2.562   4.789  0.0679  0.1326 -0.2704
 8228SOL    HW236318   0.110   2.700   4.837  1.0301 -2.0267 -0.5441
 8229SOL     OW36319   0.205   4.659  12.877 -0.0964  0.5391 -0.4501
 8229SOL    HW136320   0.174   0.012  12.874 -0.8230  0.3150  0.4140
 8229SOL    HW236321   0.117   4.621  12.873 -0.1386  0.3928  2.1384
 8230SOL     OW36322   0.929   0.349   4.896 -0.2888  0.0348 -0.3793
 8230SOL    HW136323   0.927   0.254   4.911 -1.9570 -0.1817 -1.9578
 8230SOL    HW236324   0.917   0.376   4.987 -1.4807 -0.2095 -0.4606
 8231SOL     OW36325   3.499   0.330  11.986 -0.4275  0.4327  0.5131
 8231SOL    HW136326   3.431   0.359  11.925 -0.1878  2.2424  1.0794
 8231SOL    HW236327   3.442   0.317  12.061 -1.2900 -1.9197 -0.5787
 8232SOL     OW36328   3.165   3.147   3.808  0.5324  0.4724 -0.6547
 8232SOL    HW136329   3.207   3.213   3.752 -0.8451  0.5535 -1.6004
 8232SOL    HW236330   3.243   3.134   3.862  2.0819  1.9506 -2.5303
 8233SOL     OW36331   1.681   4.568   3.264 -0.3945  0.1915  0.1935
 8233SOL    HW136332   1.761   4.617   3.243  1.9239 -3.2869  0.9467
 8233SOL    HW236333   1.618   4.602   3.201  0.7025  1.3311 -0.2909
 8234SOL     OW36334   3.498   3.515   2.901  0.2734 -0.1752 -0.5385
 8234SOL    HW136335   3.444   3.451   2.948  0.2217 -0.4227 -0.9325
 8234SOL    HW236336   3.436   3.580   2.869 -0.0200 -0.0076  0.3711
 8235SOL     OW36337   4.205   2.993   4.895 -0.2591  0.3585  0.2661
 8235SOL    HW136338   4.145   3.066   4.909 -0.6764 -0.2784  1.7858
 8235SOL    HW236339   4.139   2.925   4.888 -1.5288  1.5464  0.6554
 8236SOL     OW36340   3.983   1.368   5.474  0.0891 -0.2891  0.0654
 8236SOL    HW136341   4.036   1.311   5.529  0.2332 -0.1403  0.0794
 8236SOL    HW236342   3.988   1.326   5.388 -1.6325 -1.4704  0.5419
 8237SOL     OW36343   1.251   1.918   7.727 -0.9279  0.0839 -0.0658
 8237SOL    HW136344   1.320   1.963   7.776  0.2440 -2.3270  0.5319
 8237SOL    HW236345   1.187   1.911   7.798 -0.2655 -0.8948  0.4365
 8238SOL     OW36346   4.688   0.987   7.770 -0.4969  0.8830 -0.7116
 8238SOL    HW136347   4.641   1.009   7.851  2.0098  1.0261  0.6782
 8238SOL    HW236348   4.647   0.906   7.739  1.0376  0.0110 -0.4477
 8239SOL     OW36349   0.796   3.060   0.551 -0.3222 -0.4070 -0.5440
 8239SOL    HW136350   0.725   3.085   0.610  0.4818 -1.2770  0.8234
 8239SOL    HW236351   0.869   3.112   0.586  0.5430 -0.3462 -2.4707
 8240SOL     OW36352   3.396   2.072  11.392 -0.0729  0.1265  0.4262
 8240SOL    HW136353   3.311   2.103  11.423 -0.5170  0.6809 -1.3334
 8240SOL    HW236354   3.385   2.052  11.299  0.3397 -0.6314  0.5382
 8241SOL     OW36355   2.000   1.162  10.515  0.5155  0.5909  0.0819
 8241SOL    HW136356   2.027   1.080  10.555  0.1119  0.1183 -0.6248
 8241SOL    HW236357   2.040   1.162  10.428  1.9246  0.4091  0.7319
 8242SOL     OW36358   2.045   1.057   8.248  0.8819  0.2097  0.4540
 8242SOL    HW136359   1.983   1.037   8.178  2.8693  1.8625 -1.7901
 8242SOL    HW236360   1.989   1.033   8.322  1.0751 -0.7560  0.2838
 8243SOL     OW36361   0.006   0.097   1.602 -0.3758  0.4376  0.5162
 8243SOL    HW136362   4.693   0.032   1.554 -1.8733  2.6361 -0.9097
 8243SOL    HW236363   0.014   0.053   1.686  1.2330 -0.9432 -0.3549
 8244SOL     OW36364   3.524   1.431   9.148 -1.2789 -0.0266 -0.2850
 8244SOL    HW136365   3.543   1.506   9.092  0.5516  1.1140  1.8202
 8244SOL    HW236366   3.491   1.475   9.226 -2.0122  1.0583 -1.2286
 8245SOL     OW36367   3.977   1.662   4.578 -0.2062  0.3281 -0.4945
 8245SOL    HW136368   4.066   1.640   4.606 -0.4676 -0.2780 -0.1385
 8245SOL    HW236369   3.920   1.589   4.601  1.7531 -0.7152  0.9584
 8246SOL     OW36370   4.420   0.999   0.497 -0.1374  0.3158  0.5065
 8246SOL    HW136371   4.381   0.968   0.578 -0.2544  0.0621  0.3545
 8246SOL    HW236372   4.483   0.929   0.481  0.2836  1.2864 -2.2491
 8247SOL     OW36373   1.621   3.327   3.601  0.0357  0.6116  0.2447
 8247SOL    HW136374   1.699   3.272   3.589 -1.7397 -1.2267 -2.7788
 8247SOL    HW236375   1.649   3.391   3.667  1.2971  2.4211 -2.0822
 8248SOL     OW36376   1.906   3.239   2.625  0.0895 -0.1335  0.1208
 8248SOL    HW136377   1.903   3.232   2.720 -1.0440 -1.1335 -0.0014
 8248SOL    HW236378   2.000   3.234   2.604 -0.3395 -1.3670 -1.4388
 8249SOL     OW36379   2.975   4.475   7.788  0.1122  0.0322 -0.1228
 8249SOL    HW136380   3.008   4.393   7.753  1.8273  0.3450  0.8210
 8249SOL    HW236381   3.057   4.512   7.820  0.9512 -1.2332 -0.8243
 8250SOL     OW36382   2.945   1.874   2.839  0.1752  0.2299  0.0623
 8250SOL    HW136383   2.960   1.818   2.762  0.1142  0.3286 -0.0216
 8250SOL    HW236384   2.929   1.804   2.903  1.7582  2.5411  2.9535
 8251SOL     OW36385   4.236   4.548   2.485  0.2683  0.3144 -0.1937
 8251SOL    HW136386   4.150   4.564   2.523 -0.0714 -1.3836 -0.2617
 8251SOL    HW236387   4.202   4.515   2.403 -3.4116  1.4065  0.9195
 8252SOL     OW36388   0.244   1.939   3.794  0.0359 -0.0841  0.0106
 8252SOL    HW136389   0.167   1.896   3.756 -0.0806  0.3986 -0.2962
 8252SOL    HW236390   0.212   1.944   3.884  1.7822  2.6116  0.4802
 8253SOL     OW36391   0.610   0.234   5.270 -0.6224  0.0894 -0.7427
 8253SOL    HW136392   0.664   0.306   5.303  0.0162  0.8207 -3.3807
 8253SOL    HW236393   0.654   0.150   5.286  0.4606  0.7909 -0.0272
 8254SOL     OW36394   0.068   3.728   2.830 -0.1759  0.2685 -0.2214
 8254SOL    HW136395   0.048   3.792   2.899 -3.6672  1.3203 -2.2119
 8254SOL    HW236396   4.724   3.727   2.780  0.3638  0.9076 -1.1241
 8255SOL     OW36397   4.397   3.248   5.776  0.0964  0.1553  0.1993
 8255SOL    HW136398   4.467   3.311   5.758  0.7570 -0.9287 -0.9812
 8255SOL    HW236399   4.370   3.221   5.689  0.4983  2.3850 -0.6115
 8256SOL     OW36400   1.941   4.251   3.761 -0.4422 -0.0997  0.0280
 8256SOL    HW136401   1.995   4.324   3.731 -2.0650  0.8411 -0.5788
 8256SOL    HW236402   1.983   4.169   3.733  0.7262 -0.1889  2.0555
 8257SOL     OW36403   2.078   3.793   2.369  0.1524 -0.1028 -0.1273
 8257SOL    HW136404   2.147   3.803   2.304 -1.2183  2.6389 -1.1730
 8257SOL    HW236405   2.060   3.887   2.366 -1.4461 -0.4574 -1.7448
 8258SOL     OW36406   4.453   0.139   5.591  0.2874  0.6271  0.2585
 8258SOL    HW136407   4.413   0.054   5.609  1.1549  0.1212 -0.1561
 8258SOL    HW236408   4.530   0.111   5.541  0.2173 -1.2085  1.1896
 8259SOL     OW36409   4.216   3.936   8.409 -0.3791  0.2416 -0.2347
 8259SOL    HW136410   4.203   3.855   8.360 -1.1937  1.3981 -1.9206
 8259SOL    HW236411   4.306   3.945   8.438 -0.5459  0.1157  0.3263
 8260SOL     OW36412   1.930   2.605  14.535  0.2100 -0.1653 -0.0075
 8260SOL    HW136413   1.870   2.639  14.601 -0.3149  1.4584 -1.3127
 8260SOL    HW236414   1.902   2.515  14.519  0.6826 -0.5207  1.2006
 8261SOL     OW36415   2.801   3.926  11.121  1.0411 -0.6443  0.1528
 8261SOL    HW136416   2.880   3.894  11.164  0.0861 -0.3254  2.1268
 8261SOL    HW236417   2.837   3.955  11.037  3.5218 -0.6035  1.2368
 8262SOL     OW36418   1.136   1.541   8.696  0.1106  0.3176  0.0247
 8262SOL    HW136419   1.213   1.486   8.682  0.0104  0.7735 -2.3721
 8262SOL    HW236420   1.086   1.477   8.747 -0.0012  1.9869  2.0030
 8263SOL     OW36421   4.587   1.449  14.276  0.4230 -0.7011  0.2340
 8263SOL    HW136422   4.655   1.513  14.296 -0.0754 -0.1683  0.2392
 8263SOL    HW236423   4.575   1.399  14.357  1.1354 -1.7008 -0.2727
 8264SOL     OW36424   3.485   4.079   8.017  0.0837 -0.8437  0.2694
 8264SOL    HW136425   3.577   4.103   8.009  0.4772 -2.4647 -0.1544
 8264SOL    HW236426   3.486   3.994   7.973 -0.4879 -1.5337  1.5752
 8265SOL     OW36427   0.679   3.047   6.718  0.8175  0.3710 -0.1047
 8265SOL    HW136428   0.758   3.098   6.737  2.9498 -2.5482 -1.0521
 8265SOL    HW236429   0.714   2.965   6.682  1.1036  0.6589 -0.4761
 8266SOL     OW36430   4.112   3.412  12.686 -0.3037 -0.0002  0.0040
 8266SOL    HW136431   4.018   3.432  12.692  0.3533  2.4570  2.1899
 8266SOL    HW236432   4.143   3.467  12.758  1.1660 -0.9725  0.0867
 8267SOL     OW36433   0.287   4.666   3.017 -0.0557 -0.0527  0.3588
 8267SOL    HW136434   0.192   4.674   3.011  0.0796 -1.6133 -4.3404
 8267SOL    HW236435   0.310   0.019   3.036  1.2403 -0.5302  1.0497
 8268SOL     OW36436   0.314   3.300   9.201 -0.5944 -0.7312  0.2804
 8268SOL    HW136437   0.275   3.218   9.171 -0.6118 -0.2163 -1.1372
 8268SOL    HW236438   0.329   3.299   9.295 -0.9723 -1.5515  0.3311
 8269SOL     OW36439   3.223   1.787   6.822  0.3049  0.3868  0.0149
 8269SOL    HW136440   3.147   1.836   6.854 -0.7343 -0.1940 -1.5688
 8269SOL    HW236441   3.246   1.843   6.748  3.1870 -0.8598 -0.0408
 8270SOL     OW36442   3.540   3.354   9.503 -0.2158  0.0184  0.3352
 8270SOL    HW136443   3.627   3.389   9.523 -0.3397  0.4698  0.0630
 8270SOL    HW236444   3.524   3.420   9.436  1.2005 -2.0618 -2.0571
 8271SOL     OW36445   1.683   4.540  14.829  0.2424  0.6776  0.0308
 8271SOL    HW136446   1.616   4.558  14.763  0.2154 -0.7692 -0.3439
 8271SOL    HW236447   1.756   4.521  14.769  0.8831 -0.1902  1.0803
 8272SOL     OW36448   4.465   1.380   2.127 -0.1731 -0.1282  0.0019
 8272SOL    HW136449   4.428   1.314   2.068  2.7892 -0.6651 -1.2570
 8272SOL    HW236450   4.391   1.394   2.186 -0.1901 -1.6500  0.3447
 8273SOL     OW36451   0.971   4.010   0.555 -0.0557  0.0121  0.0120
 8273SOL    HW136452   1.010   3.945   0.614  0.3293  2.6779  2.6929
 8273SOL    HW236453   1.022   3.994   0.475 -1.2536 -0.7874 -0.5987
 8274SOL     OW36454   2.886   4.496   3.523 -0.5272 -0.2284  0.1429
 8274SOL    HW136455   2.923   4.476   3.609  0.0546 -1.6786 -0.4427
 8274SOL    HW236456   2.834   4.417   3.516 -0.1644 -0.7338  3.2845
 8275SOL     OW36457   0.743   1.501   7.420  0.0214  0.4211 -0.1337
 8275SOL    HW136458   0.814   1.548   7.377  1.5217 -1.1710  0.6401
 8275SOL    HW236459   0.692   1.569   7.465  4.2202  2.1376  1.9762
 8276SOL     OW36460   1.288   1.486  13.798  0.2392  0.4207  0.1013
 8276SOL    HW136461   1.301   1.480  13.893 -1.1881  2.1515  0.4002
 8276SOL    HW236462   1.280   1.397  13.763 -1.4947  1.0036 -0.9583
 8277SOL     OW36463   4.322   1.423   4.275  0.0713  0.0746 -0.2742
 8277SOL    HW136464   4.413   1.451   4.282  0.8074 -2.3197 -0.2557
 8277SOL    HW236465   4.331   1.328   4.286  0.9503  0.1610 -0.2224
 8278SOL     OW36466   1.342   2.071   7.953 -0.2438 -0.6354 -0.0473
 8278SOL    HW136467   1.295   2.151   7.930  0.0124 -0.7423 -0.9214
 8278SOL    HW236468   1.288   2.032   8.022 -0.4961  0.4615  0.3703
 8279SOL     OW36469   0.749   3.204   8.998 -0.5407 -0.2873  0.1200
 8279SOL    HW136470   0.685   3.271   9.023  1.6635  1.7218  0.2994
 8279SOL    HW236471   0.803   3.256   8.939 -2.5231  1.5320 -0.1320
 8280SOL     OW36472   0.941   4.371   7.299 -0.3473  0.1406 -0.2855
 8280SOL    HW136473   0.904   4.320   7.371 -1.3983 -1.7277 -2.1408
 8280SOL    HW236474   1.019   4.318   7.283 -0.2900  0.2323 -0.3124
 8281SOL     OW36475   4.709   1.685   3.517 -0.2420  0.2407 -0.1588
 8281SOL    HW136476   0.055   1.665   3.476 -0.4629  2.7388 -1.8094
 8281SOL    HW236477   4.652   1.612   3.491  0.8052  0.1256 -2.0986
 8282SOL     OW36478   1.488   3.692   2.044  0.0047 -0.3921 -0.3061
 8282SOL    HW136479   1.492   3.620   1.981 -0.5774 -0.9278  0.2664
 8282SOL    HW236480   1.434   3.755   1.995 -1.3313 -1.9078 -0.7816
 8283SOL     OW36481   2.080   2.323   4.952 -0.0585 -0.3099  0.3607
 8283SOL    HW136482   2.176   2.330   4.951 -0.2002  1.7387  2.1983
 8283SOL    HW236483   2.049   2.412   4.964  0.1730  0.3036 -3.6335
 8284SOL     OW36484   0.528   2.011   5.704  0.1757 -0.4420  0.5032
 8284SOL    HW136485   0.442   2.031   5.666  0.6872 -1.3738 -1.1565
 8284SOL    HW236486   0.494   1.995   5.792  0.3112  0.0108  0.6379
 8285SOL     OW36487   1.119   0.673   7.689  0.3278 -0.5923 -0.3439
 8285SOL    HW136488   1.209   0.682   7.657  0.7839 -0.6810  0.8942
 8285SOL    HW236489   1.108   0.582   7.717 -0.8280 -0.4085 -0.2030
 8286SOL     OW36490   4.051   0.767   6.583  0.4179 -0.6657  0.4389
 8286SOL    HW136491   4.121   0.704   6.605  1.2327 -0.0685 -0.4833
 8286SOL    HW236492   4.083   0.851   6.614 -0.5668 -1.1046  2.6624
 8287SOL     OW36493   1.538   2.626   0.863 -0.0718 -0.8118 -1.0747
 8287SOL    HW136494   1.450   2.618   0.900 -0.5157  2.9048 -1.3464
 8287SOL    HW236495   1.588   2.602   0.941 -1.5172  0.5606  0.2921
 8288SOL     OW36496   2.788   0.225   1.896  0.1947  0.4580 -0.1632
 8288SOL    HW136497   2.783   0.315   1.863 -0.0945  0.0267 -1.2955
 8288SOL    HW236498   2.882   0.210   1.905 -0.0775 -0.8437  0.4925
 8289SOL     OW36499   0.363   3.288   5.139  0.4939  0.9327  0.0417
 8289SOL    HW136500   0.276   3.321   5.163  1.4242  0.4837  4.0288
 8289SOL    HW236501   0.405   3.295   5.225  0.7990 -2.0462  0.1344
 8290SOL     OW36502   0.560   1.731   1.070  0.1517  0.0983 -0.1871
 8290SOL    HW136503   0.531   1.809   1.023  2.1169  1.5283  0.9598
 8290SOL    HW236504   0.584   1.775   1.151 -0.3425  0.5292 -0.2798
 8291SOL     OW36505   0.320   2.227  15.213  0.3808 -0.4978 -0.1195
 8291SOL    HW136506   0.378   2.181  15.273 -0.8732  0.7628  2.0958
 8291SOL    HW236507   0.369   2.213  15.132  1.1104  0.1291  0.2141
 8292SOL     OW36508   1.327   0.548   5.481 -0.0785  0.3858 -0.1261
 8292SOL    HW136509   1.375   0.471   5.450 -2.7737 -1.1862 -0.3584
 8292SOL    HW236510   1.390   0.589   5.541 -0.0946 -0.5970  0.5619
 8293SOL     OW36511   4.525   4.617   4.627 -0.3919  0.0628 -0.0106
 8293SOL    HW136512   4.437   4.586   4.650 -0.4130  0.3679  0.3396
 8293SOL    HW236513   4.531   4.574   4.542 -2.4685 -0.0357 -0.1179
 8294SOL     OW36514   4.544   3.498  15.162  0.2339 -0.2085  0.2288
 8294SOL    HW136515   4.629   3.523  15.197 -1.2100  0.9372  2.9452
 8294SOL    HW236516   4.526   3.567  15.099  1.7171  0.0863  0.1306
 8295SOL     OW36517   3.067   1.773   0.571  0.0178  0.0775 -0.3810
 8295SOL    HW136518   3.144   1.829   0.559  0.7350 -1.2160 -1.7907
 8295SOL    HW236519   3.091   1.741   0.658  0.3799  0.8020 -0.2137
 8296SOL     OW36520   3.956   1.387   3.586  0.8967 -0.4506 -0.0015
 8296SOL    HW136521   3.883   1.414   3.642  0.0953 -0.2370 -1.1391
 8296SOL    HW236522   3.995   1.468   3.552  1.6576 -1.9523 -2.6297
 8297SOL     OW36523   2.575   3.684   1.868 -0.4137  0.2945 -0.1573
 8297SOL    HW136524   2.586   3.664   1.775 -1.1478 -0.5040 -0.0734
 8297SOL    HW236525   2.664   3.668   1.899 -0.0388  2.0422 -0.2984
 8298SOL     OW36526   3.473   4.321   3.134  0.1431  0.5173 -0.0186
 8298SOL    HW136527   3.423   4.242   3.156 -1.3847  1.3927 -0.3043
 8298SOL    HW236528   3.471   4.307   3.040 -0.7065  1.4566 -0.1355
 8299SOL     OW36529   4.350   0.214  15.323  0.2553  0.1145  0.1124
 8299SOL    HW136530   4.284   0.190  15.389 -1.8739  2.1754 -1.2749
 8299SOL    HW236531   4.431   0.176  15.357  0.8999  0.9870 -0.4828
 8300SOL     OW36532   3.742   2.182   8.078  0.3148  0.7140 -0.0944
 8300SOL    HW136533   3.760   2.102   8.028  0.1277  1.1567 -0.8803
 8300SOL    HW236534   3.741   2.145   8.166  1.4841  1.3395  0.1806
 8301SOL     OW36535   0.091   2.982  17.714  0.1581 -0.0202 -0.4065
 8301SOL    HW136536   0.120   2.945   0.049  1.4726  3.4117  0.6580
 8301SOL    HW236537   0.072   3.073  17.734  2.5432 -0.0888  2.2602
 8302SOL     OW36538   3.156   3.386   6.700  0.1473  0.3271  0.0262
 8302SOL    HW136539   3.216   3.425   6.636 -0.2971 -0.9227 -1.1484
 8302SOL    HW236540   3.074   3.365   6.656  0.0578  0.4446  0.1367
 8303SOL     OW36541   4.384   2.274   6.020  0.1872 -0.1362 -0.4752
 8303SOL    HW136542   4.338   2.343   6.067 -0.7105  1.4542 -3.7145
 8303SOL    HW236543   4.316   2.238   5.963  1.2932 -2.8225 -0.1115
 8304SOL     OW36544   3.984   1.836   3.582 -1.1341  0.2251  0.2172
 8304SOL    HW136545   4.025   1.895   3.519 -2.0662  1.1308  0.4538
 8304SOL    HW236546   3.947   1.768   3.526 -0.6524 -0.1791  0.3900
 8305SOL     OW36547   3.763   0.444   5.249  0.2614 -0.5158  0.8441
 8305SOL    HW136548   3.842   0.436   5.302  2.0440 -1.0270 -1.8725
 8305SOL    HW236549   3.735   0.353   5.258 -1.1292 -0.2469 -0.7676
 8306SOL     OW36550   1.719   1.148  11.775 -0.0490  0.4005 -0.9336
 8306SOL    HW136551   1.711   1.242  11.756 -1.0218  0.2357 -1.2934
 8306SOL    HW236552   1.668   1.111  11.703 -0.8186 -0.0129 -0.1669
 8307SOL     OW36553   2.006   0.218  14.098 -0.0730 -0.7292 -0.1985
 8307SOL    HW136554   1.930   0.256  14.053  0.4429  2.0525  1.2852
 8307SOL    HW236555   2.004   0.129  14.063 -2.7526 -0.7217 -0.1415
 8308SOL     OW36556   4.230   2.376   3.176 -0.0239  0.1934  0.6827
 8308SOL    HW136557   4.141   2.376   3.210 -0.2548  4.8302  0.0275
 8308SOL    HW236558   4.290   2.426   3.232  0.3103  0.1768  0.3437
 8309SOL     OW36559   0.821   2.677  16.001 -0.0890  0.2188 -0.2195
 8309SOL    HW136560   0.791   2.613  16.064  1.2023  0.9666  1.1635
 8309SOL    HW236561   0.786   2.635  15.922 -1.7215 -2.3084  1.8799
 8310SOL     OW36562   0.312   1.897   8.081 -0.5410  0.0408  0.2248
 8310SOL    HW136563   0.376   1.968   8.089 -0.4804  0.1455 -1.3349
 8310SOL    HW236564   0.336   1.828   8.143  3.6875  0.6820 -0.7370
 8311SOL     OW36565   4.250   0.875   7.750  0.6169  0.8166 -0.6657
 8311SOL    HW136566   4.155   0.884   7.752  0.6853  1.7242 -1.2556
 8311SOL    HW236567   4.276   0.949   7.695 -0.0572  2.0559  0.7010
 8312SOL     OW36568   2.005   1.571   7.136  0.1401  0.2827  0.0783
 8312SOL    HW136569   2.044   1.647   7.181  1.4838 -0.9233  0.9638
 8312SOL    HW236570   2.083   1.526   7.106  0.0870 -0.7537  1.4782
 8313SOL     OW36571   0.481   2.701   4.449  0.2763  0.0539  0.4541
 8313SOL    HW136572   0.534   2.758   4.505 -1.2107 -0.8526  2.7800
 8313SOL    HW236573   0.476   2.761   4.374 -0.4686  0.6093  0.9493
 8314SOL     OW36574   1.460   1.482   2.555 -0.0057  0.3311  0.1719
 8314SOL    HW136575   1.549   1.496   2.588  0.0321  0.5072 -0.0052
 8314SOL    HW236576   1.420   1.546   2.614  0.8564  1.0329 -0.0168
 8315SOL     OW36577   2.192   3.165   7.859 -0.3842 -0.2637  0.2968
 8315SOL    HW136578   2.115   3.210   7.895  1.4636  1.1743  2.4764
 8315SOL    HW236579   2.254   3.233   7.832 -1.3022  1.4336  2.5286
 8316SOL     OW36580   1.750   2.949   9.046  0.5875 -0.6059  0.3779
 8316SOL    HW136581   1.769   2.943   9.140 -0.5549 -1.4166  0.5498
 8316SOL    HW236582   1.812   2.885   9.011  1.8584  2.0480 -2.2451
 8317SOL     OW36583   1.554   2.987   5.596 -0.6269  0.4051 -0.1293
 8317SOL    HW136584   1.611   3.034   5.535 -1.1339  2.0040  0.6510
 8317SOL    HW236585   1.621   2.972   5.662 -1.0857 -1.1534 -0.0050
 8318SOL     OW36586   3.950   3.277   2.500  0.3782  0.1964  0.1648
 8318SOL    HW136587   3.929   3.183   2.496  2.3173 -0.1008 -2.5654
 8318SOL    HW236588   4.040   3.267   2.470  0.4526  1.5326 -0.0244
 8319SOL     OW36589   1.206   2.140   4.861  0.0041  0.0515 -0.1453
 8319SOL    HW136590   1.200   2.044   4.865 -3.1433  0.2072 -1.1695
 8319SOL    HW236591   1.300   2.154   4.865 -0.0747  0.8959 -1.3348
 8320SOL     OW36592   2.207   4.668   3.040 -0.1098  0.1821 -0.0182
 8320SOL    HW136593   2.249   4.653   2.956  0.0913  1.7194 -0.1842
 8320SOL    HW236594   2.243   4.595   3.091 -1.7058 -2.9909 -3.4341
 8321SOL     OW36595   2.034   2.005   7.406  0.2705  0.3016  0.0242
 8321SOL    HW136596   2.018   1.954   7.326 -1.0178 -3.0572  2.4131
 8321SOL    HW236597   1.950   2.031   7.441  0.7090  1.5583  0.1400
 8322SOL     OW36598   0.550   0.080  11.870 -0.0302 -0.4618  0.3349
 8322SOL    HW136599   0.474   0.105  11.923 -0.2004 -3.0572  1.2869
 8322SOL    HW236600   0.528   4.731  11.838  0.1146  0.6034 -2.6523
 8323SOL     OW36601   2.940   0.891   7.283 -0.6270  0.0215 -0.6351
 8323SOL    HW136602   2.939   0.977   7.326  0.0588  0.3071 -1.1964
 8323SOL    HW236603   2.846   0.877   7.277 -0.1100 -1.8284 -4.1064
 8324SOL     OW36604   1.000   0.233   7.256  0.3452  0.5406  0.4534
 8324SOL    HW136605   0.989   0.151   7.207 -1.2419  2.2604 -2.0964
 8324SOL    HW236606   1.094   0.246   7.242  0.9092 -0.6818  3.1466
 8325SOL     OW36607   3.562   3.548  10.731 -0.0831 -0.5840 -0.8193
 8325SOL    HW136608   3.491   3.514  10.786 -1.9464 -0.9304 -3.4454
 8325SOL    HW236609   3.632   3.536  10.795  0.1320  1.7034 -0.6063
 8326SOL     OW36610   4.175   2.594  16.958  0.3625  0.5157  0.7971
 8326SOL    HW136611   4.168   2.502  16.932  0.2168  0.3655  1.3718
 8326SOL    HW236612   4.186   2.642  16.876 -0.1503  0.6764  0.8211
 8327SOL     OW36613   1.313   0.220   2.307 -0.4448 -0.7050 -0.3700
 8327SOL    HW136614   1.245   0.209   2.374  0.9748 -0.6228  1.0778
 8327SOL    HW236615   1.324   0.315   2.301  0.9035 -0.8891 -0.7834
 8328SOL     OW36616   4.235   3.966  16.191  0.9483 -0.4293 -0.0684
 8328SOL    HW136617   4.310   3.931  16.142  0.8643  0.4384 -0.8045
 8328SOL    HW236618   4.235   3.910  16.269 -1.6680  1.0942  1.0072
 8329SOL     OW36619   4.050   0.441   5.381 -0.1499  0.1489 -0.4084
 8329SOL    HW136620   4.041   0.418   5.474  1.3551 -1.2355 -0.6061
 8329SOL    HW236621   4.104   0.520   5.388  1.7629 -1.2081  0.1940
 8330SOL     OW36622   0.877   1.959   2.278 -0.0332  0.3408 -0.3278
 8330SOL    HW136623   0.857   2.045   2.314 -2.5500  0.2399 -1.5076
 8330SOL    HW236624   0.793   1.913   2.279  0.3681 -0.3793 -0.0076
 8331SOL     OW36625   2.466   1.438   6.650 -0.6383  0.3017 -0.4413
 8331SOL    HW136626   2.413   1.381   6.593 -1.1837  1.0702 -0.6974
 8331SOL    HW236627   2.412   1.453   6.727  3.1272  0.3933  2.1774
 8332SOL     OW36628   0.561   0.194   7.491  0.4073  0.0133  0.4014
 8332SOL    HW136629   0.476   0.232   7.510 -0.2362  0.5376 -3.5527
 8332SOL    HW236630   0.612   0.247   7.552  0.0488  1.9317 -0.9788
 8333SOL     OW36631   3.456   0.620   4.025 -0.5604 -0.2123 -0.3482
 8333SOL    HW136632   3.429   0.709   4.002 -0.4464  0.3287  1.6139
 8333SOL    HW236633   3.484   0.634   4.115  0.6921  0.4700 -0.8479
 8334SOL     OW36634   3.053   3.674   7.416 -0.2178 -0.1650 -0.1429
 8334SOL    HW136635   2.998   3.694   7.340  1.0954 -0.3666 -1.1596
 8334SOL    HW236636   3.002   3.725   7.478 -1.1614 -1.4083  0.1221
 8335SOL     OW36637   2.182   0.787   5.380  0.8054  0.2710  0.1194
 8335SOL    HW136638   2.156   0.722   5.314 -0.1607  0.5299  0.2444
 8335SOL    HW236639   2.112   0.852   5.375 -0.0890 -0.6170  1.1066
 8336SOL     OW36640   4.001   2.455   2.772 -0.9118  1.0207 -0.3267
 8336SOL    HW136641   3.947   2.471   2.694  0.1661  0.1048 -1.2702
 8336SOL    HW236642   4.077   2.413   2.733  0.0176  0.6005  1.9865
 8337SOL     OW36643   2.585   0.856   0.845 -0.5614 -0.0634 -0.4968
 8337SOL    HW136644   2.632   0.939   0.836 -0.0777 -0.3961 -1.0329
 8337SOL    HW236645   2.593   0.836   0.938 -0.1182  0.9793 -0.3049
 8338SOL     OW36646   0.527   1.846   3.770  0.2958 -0.1798  0.2442
 8338SOL    HW136647   0.445   1.887   3.798 -0.7068 -1.5328 -0.7491
 8338SOL    HW236648   0.573   1.909   3.713 -0.2091  0.9856  1.1178
 8339SOL     OW36649   2.565   0.638   2.523 -0.5403  0.0021  0.3307
 8339SOL    HW136650   2.652   0.676   2.513 -0.4012 -0.5849 -0.6850
 8339SOL    HW236651   2.557   0.656   2.616 -0.9846  2.4612 -0.1791
 8340SOL     OW36652   0.054   2.121   3.612 -0.4846  0.3555 -0.5266
 8340SOL    HW136653   0.143   2.086   3.601  0.0296  1.0484  1.3790
 8340SOL    HW236654   0.007   2.039   3.597  0.5361 -0.1367 -1.0845
 8341SOL     OW36655   3.583   1.397   9.819  0.0290  0.0065  0.4326
 8341SOL    HW136656   3.503   1.449   9.820 -0.0707 -0.1485  0.4935
 8341SOL    HW236657   3.609   1.396   9.911  0.2392 -2.6672  0.3451
 8342SOL     OW36658   0.115   1.154  11.669  0.2345  0.1641  0.2493
 8342SOL    HW136659   0.048   1.173  11.604 -1.0067 -0.7622  1.2427
 8342SOL    HW236660   0.163   1.080  11.632  2.5901  1.3421  0.9507
 8343SOL     OW36661   2.808   3.512   1.101 -0.1160  0.3837 -0.6328
 8343SOL    HW136662   2.777   3.489   1.013 -0.4333  2.2520 -1.0189
 8343SOL    HW236663   2.788   3.604   1.085 -3.3973 -0.4728 -1.4105
 8344SOL     OW36664   0.318   0.275   8.636 -0.0657 -0.2568  0.0429
 8344SOL    HW136665   0.233   0.241   8.606 -0.8797 -0.1652  2.2598
 8344SOL    HW236666   0.296   0.351   8.689  0.6474 -0.4446  0.5970
 8345SOL     OW36667   1.436   2.099   1.408  0.3142  0.6052 -0.2614
 8345SOL    HW136668   1.528   2.075   1.423  0.2244  0.3950 -0.0414
 8345SOL    HW236669   1.399   2.014   1.385 -0.1034  0.2783  1.6550
 8346SOL     OW36670   2.347   4.086   0.746  0.3191  0.1672 -0.0498
 8346SOL    HW136671   2.331   4.051   0.833 -1.2621 -1.8542 -1.1608
 8346SOL    HW236672   2.287   4.160   0.746  1.5788  1.1882  0.1401
 8347SOL     OW36673   2.728   3.322   0.639 -0.2186 -0.0570 -0.0290
 8347SOL    HW136674   2.648   3.313   0.588 -0.2854  0.0517  0.0574
 8347SOL    HW236675   2.785   3.366   0.576  1.3234 -0.3464  1.1607
 8348SOL     OW36676   0.580   2.739   7.822  0.1899  0.0096  0.0429
 8348SOL    HW136677   0.647   2.808   7.818 -2.0227  2.0010 -3.0282
 8348SOL    HW236678   0.537   2.744   7.737 -1.2098 -0.2631  0.7526
 8349SOL     OW36679   3.044   1.272   7.522  0.3265 -0.5329 -0.1723
 8349SOL    HW136680   3.020   1.363   7.505 -2.1126 -1.5844 -2.3871
 8349SOL    HW236681   2.972   1.266   7.586  2.0907  1.2594  1.9991
 8350SOL     OW36682   3.649   0.131   7.904  0.1578 -0.1140 -0.5752
 8350SOL    HW136683   3.664   0.072   7.978  0.6821 -1.2641 -1.5771
 8350SOL    HW236684   3.608   0.070   7.842  1.7159  1.1838 -2.8714
 8351SOL     OW36685   0.002   1.906  12.442 -0.1915 -0.0343 -0.3348
 8351SOL    HW136686   4.715   1.817  12.416  0.0748  0.5642 -2.7120
 8351SOL    HW236687   0.093   1.894  12.468  0.2671  2.0966 -0.9010
 8352SOL     OW36688   3.085   1.330   7.125  1.0462 -0.0016  0.2274
 8352SOL    HW136689   3.065   1.424   7.120 -0.3294 -0.2743  0.6035
 8352SOL    HW236690   3.178   1.324   7.103  1.1685 -0.5693  0.8911
 8353SOL     OW36691   3.908   2.757   6.930 -0.2115  0.0970  0.7649
 8353SOL    HW136692   3.921   2.666   6.958  2.6319  0.5534  0.9296
 8353SOL    HW236693   3.996   2.773   6.897 -0.9640 -0.4053 -1.4258
 8354SOL     OW36694   4.165   3.336  12.439 -0.0253  0.1259  0.2774
 8354SOL    HW136695   4.111   3.409  12.409 -2.5257 -1.1611  1.6821
 8354SOL    HW236696   4.152   3.347  12.534  3.0711  4.5670  0.1682
 8355SOL     OW36697   3.399   0.751  13.117 -0.5253 -0.4930 -0.5078
 8355SOL    HW136698   3.477   0.806  13.108 -1.0433  0.0597 -1.6588
 8355SOL    HW236699   3.327   0.807  13.146 -2.5012 -0.7885 -4.8200
 8356SOL     OW36700   2.453   2.333  14.831 -0.0015  0.0668  0.3668
 8356SOL    HW136701   2.467   2.428  14.823 -1.2042  0.4206  2.3613
 8356SOL    HW236702   2.361   2.320  14.805  0.4957 -0.4648 -1.1008
 8357SOL     OW36703   1.905   0.982  11.505  0.3998 -0.2989  0.3437
 8357SOL    HW136704   1.877   1.071  11.528 -0.2620 -0.6003  0.7014
 8357SOL    HW236705   1.993   0.983  11.544  0.9404  1.0012 -0.9286
 8358SOL     OW36706   3.244   1.998   5.564  0.0407 -0.0700  0.2714
 8358SOL    HW136707   3.240   1.941   5.487 -1.9620  0.9454 -0.3602
 8358SOL    HW236708   3.295   1.936   5.616 -1.7996 -3.4771 -1.9828
 8359SOL     OW36709   1.932   4.495   4.798 -0.0903 -0.2811 -0.3140
 8359SOL    HW136710   1.992   4.421   4.813 -0.2084 -0.4923 -0.8860
 8359SOL    HW236711   1.980   4.564   4.844 -1.3857  1.0785 -1.0151
 8360SOL     OW36712   0.664   1.229  10.960  0.6049  0.0054  0.2087
 8360SOL    HW136713   0.697   1.169  11.027 -1.6118  0.4815  1.7129
 8360SOL    HW236714   0.651   1.308  11.012  1.3240  0.1703  0.1405
 8361SOL     OW36715   0.997   1.230   1.852 -0.9687 -0.1895  0.5112
 8361SOL    HW136716   1.083   1.187   1.850 -1.6438 -1.5718  1.0124
 8361SOL    HW236717   0.955   1.180   1.922 -2.7100 -1.4857 -1.4649
 8362SOL     OW36718   1.838   0.189  11.464  1.0040  0.1044 -0.7759
 8362SOL    HW136719   1.749   0.188  11.499  1.5220  0.2600  0.5409
 8362SOL    HW236720   1.892   0.141  11.527  0.3212  0.8896  0.4070
 8363SOL     OW36721   3.787   2.798  11.735 -0.1676  0.4810 -0.1174
 8363SOL    HW136722   3.813   2.709  11.758 -0.7603 -0.6319 -3.7868
 8363SOL    HW236723   3.873   2.834  11.713 -0.7837  1.7295 -0.4895
 8364SOL     OW36724   4.714   2.939   8.639  0.1062 -0.2341  1.1461
 8364SOL    HW136725   0.036   2.880   8.685  1.1945 -0.3247 -0.3800
 8364SOL    HW236726   4.635   2.885   8.636  0.5790 -0.8861  0.3148
 8365SOL     OW36727   1.699   3.643   9.899 -0.2007 -0.0698  0.1383
 8365SOL    HW136728   1.741   3.588   9.832  1.0027  0.0598  0.7803
 8365SOL    HW236729   1.700   3.728   9.856 -0.0850  0.1502  0.5792
 8366SOL     OW36730   3.284   0.836  14.543 -0.1744 -0.6006 -0.1903
 8366SOL    HW136731   3.295   0.747  14.577 -1.7451 -0.9590 -0.6133
 8366SOL    HW236732   3.346   0.852  14.472  1.8699 -0.1215  1.7057
 8367SOL     OW36733   2.784   1.329   4.309 -0.0799 -0.2910  0.5494
 8367SOL    HW136734   2.765   1.329   4.402  2.7725  0.1412  1.1458
 8367SOL    HW236735   2.880   1.328   4.310 -0.1108 -0.8269  1.8083
 8368SOL     OW36736   3.643   4.155   2.610  0.3016  0.3545  0.2435
 8368SOL    HW136737   3.683   4.081   2.566  1.9194  0.0005  2.3063
 8368SOL    HW236738   3.553   4.156   2.578  0.1220  0.0690  0.7347
 8369SOL     OW36739   1.466   0.798   6.887  0.4321  0.0285 -0.2673
 8369SOL    HW136740   1.448   0.860   6.816 -0.1463 -0.8448 -0.8913
 8369SOL    HW236741   1.414   0.828   6.962  1.1939 -0.2252  0.3623
 8370SOL     OW36742   3.277   1.063   5.153 -0.1370  0.5084  0.1214
 8370SOL    HW136743   3.235   1.087   5.235 -1.8903 -0.3293 -0.5217
 8370SOL    HW236744   3.365   1.097   5.167  0.5276 -1.0113 -0.3821
 8371SOL     OW36745   4.376   4.348   5.775 -0.5744  0.0962 -0.2556
 8371SOL    HW136746   4.437   4.276   5.760  0.7024  1.0759  0.2156
 8371SOL    HW236747   4.296   4.300   5.791 -2.2695  2.9097 -0.2722
 8372SOL     OW36748   0.285   3.381   4.880  0.5138  0.0205 -0.2148
 8372SOL    HW136749   0.299   3.333   4.962  1.8171  0.2435 -0.2977
 8372SOL    HW236750   0.312   3.310   4.821  1.1171 -1.1984  1.5010
 8373SOL     OW36751   0.531   2.346   6.492  0.2249  0.4124  0.4242
 8373SOL    HW136752   0.454   2.289   6.489  1.7813 -1.5675 -2.0901
 8373SOL    HW236753   0.596   2.290   6.533 -1.9281 -1.6615  1.0546
 8374SOL     OW36754   4.555   2.851   9.452  0.1965 -0.1924 -0.7581
 8374SOL    HW136755   4.569   2.798   9.530  0.5392  0.7723 -0.1634
 8374SOL    HW236756   4.608   2.799   9.392  2.2424  1.2890 -0.2546
 8375SOL     OW36757   3.461   4.536   3.510  0.0976 -0.3900  0.1253
 8375SOL    HW136758   3.427   4.533   3.420  1.6400 -0.4415 -0.4458
 8375SOL    HW236759   3.381   4.503   3.552 -0.6642  1.4430  0.0928
 8376SOL     OW36760   3.434   3.682   8.344  0.1228 -0.7380 -0.2979
 8376SOL    HW136761   3.347   3.646   8.331 -0.1697  0.3747 -1.3068
 8376SOL    HW236762   3.471   3.658   8.259  1.7597  0.9362 -0.0717
 8377SOL     OW36763   1.689   1.857   6.589 -0.9560  0.7893  0.5884
 8377SOL    HW136764   1.769   1.805   6.584 -2.4630 -1.2241 -2.7528
 8377SOL    HW236765   1.670   1.857   6.683  0.7824  0.2364  0.9360
 8378SOL     OW36766   2.180   4.555   6.630 -0.0263 -0.0409  0.0385
 8378SOL    HW136767   2.218   4.617   6.568 -1.1056 -1.9935 -2.5528
 8378SOL    HW236768   2.128   4.620   6.678 -0.4524 -0.9827  0.8452
 8379SOL     OW36769   2.172   1.879   8.349  0.1719 -0.0241 -0.3668
 8379SOL    HW136770   2.176   1.819   8.424 -1.6171 -0.1050 -0.3430
 8379SOL    HW236771   2.166   1.965   8.391 -2.3993 -0.0327 -0.7217
 8380SOL     OW36772   0.756   3.596   1.615 -0.3328 -0.0716  0.3247
 8380SOL    HW136773   0.711   3.677   1.639 -1.9979 -0.9480  0.2113
 8380SOL    HW236774   0.840   3.620   1.578 -0.8621  2.1689  0.5787
 8381SOL     OW36775   0.458   2.144  14.993 -0.1570  0.1147  0.1836
 8381SOL    HW136776   0.526   2.086  14.957 -1.6296 -1.0757 -0.6706
 8381SOL    HW236777   0.389   2.124  14.929  0.2406  2.5920 -0.9934
 8382SOL     OW36778   1.989   3.621  10.946  0.4096  0.2208  0.1931
 8382SOL    HW136779   1.999   3.639  11.039  1.2525 -1.0105  0.3426
 8382SOL    HW236780   2.077   3.640  10.913  0.3127  1.3725  0.5876
 8383SOL     OW36781   3.539   0.890   2.470 -0.2631  0.2377 -0.5486
 8383SOL    HW136782   3.488   0.841   2.406 -2.2492  1.2071  0.2734
 8383SOL    HW236783   3.469   0.907   2.534  0.4760  1.3903 -0.0460
 8384SOL     OW36784   3.388   2.597   1.148 -0.0479  0.0334 -0.4697
 8384SOL    HW136785   3.450   2.579   1.219  0.1918  2.2732 -0.1128
 8384SOL    HW236786   3.432   2.604   1.063  2.6721 -4.2482  0.5815
 8385SOL     OW36787   2.367   3.282   6.893  0.2344  0.4475 -0.1836
 8385SOL    HW136788   2.404   3.310   6.977 -0.1335  1.6938 -0.4420
 8385SOL    HW236789   2.442   3.238   6.853 -0.0188  0.6822 -0.9140
 8386SOL     OW36790   0.943   3.152   6.472  0.4608  0.3539  0.1186
 8386SOL    HW136791   0.884   3.092   6.426  0.9082  1.2316 -1.5981
 8386SOL    HW236792   0.922   3.233   6.426  2.3373 -0.9810 -3.1020
 8387SOL     OW36793   3.934   1.261   7.054  0.2492 -0.2269  0.3836
 8387SOL    HW136794   4.008   1.221   7.099  0.2275 -2.5571 -1.6781
 8387SOL    HW236795   3.911   1.338   7.107  1.6897 -0.4839  1.3880
 8388SOL     OW36796   1.476   1.608   7.898  0.4641  0.4927  0.4192
 8388SOL    HW136797   1.510   1.636   7.983  3.0496 -0.9058 -0.1833
 8388SOL    HW236798   1.544   1.644   7.841  0.5408  0.6607  0.6159
 8389SOL     OW36799   2.901   1.956   8.317  0.1966  0.2804  0.2536
 8389SOL    HW136800   2.993   1.932   8.303  0.0373 -0.0691 -0.1993
 8389SOL    HW236801   2.892   2.043   8.279  3.0262  0.7996  0.7669
 8390SOL     OW36802   0.058   1.142  17.711 -1.1281 -0.3304 -0.3818
 8390SOL    HW136803   0.153   1.134  17.707 -1.0237  0.6956  0.0107
 8390SOL    HW236804   0.052   1.235  17.733  0.7670 -0.2769 -0.0949
 8391SOL     OW36805   1.094   0.212   4.366  0.2752  0.0221 -0.6354
 8391SOL    HW136806   1.179   0.185   4.400  0.6416 -1.0768 -2.4196
 8391SOL    HW236807   1.097   0.154   4.289 -2.6752 -0.0077 -0.7241
 8392SOL     OW36808   4.101   0.227  17.236 -0.1646  0.0373 -0.5561
 8392SOL    HW136809   4.052   0.309  17.236 -2.0817 -1.1098  0.1413
 8392SOL    HW236810   4.103   0.212  17.142 -2.1998 -0.9928 -0.4359
 8393SOL     OW36811   2.739   2.778   6.302  0.5371  0.0603  0.0889
 8393SOL    HW136812   2.769   2.694   6.334 -1.1391 -0.9700 -1.0255
 8393SOL    HW236813   2.750   2.771   6.207 -1.5121  1.7392 -0.2973
 8394SOL     OW36814   1.143   1.597  16.876 -0.2498  0.0714  0.2071
 8394SOL    HW136815   1.103   1.598  16.963  2.0143 -1.1039  1.2596
 8394SOL    HW236816   1.113   1.678  16.834  3.0363  0.6272 -1.0802
 8395SOL     OW36817   1.605   0.539  10.013 -0.8466 -0.0442  0.2978
 8395SOL    HW136818   1.616   0.543  10.108  0.5461  2.3450  0.0372
 8395SOL    HW236819   1.643   0.621   9.980 -3.0056  1.1585  0.7282
 8396SOL     OW36820   0.956   0.048  10.743 -0.4966 -0.1581  0.2008
 8396SOL    HW136821   0.865   0.071  10.721  0.8585  1.9920 -3.2267
 8396SOL    HW236822   1.012   0.092  10.680 -1.1716 -0.4838 -0.6349
 8397SOL     OW36823   1.522   4.030   8.179 -0.1332  0.6582  0.3819
 8397SOL    HW136824   1.493   4.119   8.161  1.4316  1.1028  0.0862
 8397SOL    HW236825   1.439   3.983   8.184 -0.2675  0.9476  0.8549
 8398SOL     OW36826   2.053   4.052   0.338  0.8833  0.6421 -0.7780
 8398SOL    HW136827   2.036   4.109   0.263 -0.1509  1.4302  0.0714
 8398SOL    HW236828   2.041   4.120   0.404  0.6287  0.6004 -0.7827
 8399SOL     OW36829   1.546   1.217   0.647 -0.0714 -0.0224  0.3626
 8399SOL    HW136830   1.517   1.211   0.738 -0.3242 -0.4287  0.2577
 8399SOL    HW236831   1.469   1.171   0.613  0.7005 -1.8805  1.1570
 8400SOL     OW36832   1.975   2.839   6.989  0.3882 -0.2702  0.0194
 8400SOL    HW136833   2.020   2.795   6.917  0.0902 -0.8468  0.1900
 8400SOL    HW236834   2.034   2.839   7.064  0.0279  2.4288  0.3132
 8401SOL     OW36835   0.442   1.592   3.742  0.2883 -0.5305  0.2270
 8401SOL    HW136836   0.472   1.681   3.727  0.5420 -0.3128  2.0125
 8401SOL    HW236837   0.520   1.565   3.789  1.4132  0.7233 -0.9339
 8402SOL     OW36838   2.812   1.943   4.638  0.2851 -0.5450  0.9741
 8402SOL    HW136839   2.771   2.019   4.597  0.0151 -1.6166 -0.7448
 8402SOL    HW236840   2.904   1.966   4.642 -0.4067  2.2412  0.6914
 8403SOL     OW36841   3.096   1.449   4.716  0.4269  0.4606  0.1227
 8403SOL    HW136842   3.131   1.360   4.721  0.2043  0.4411  1.3165
 8403SOL    HW236843   3.053   1.450   4.801 -1.7348 -1.3324 -0.9571
 8404SOL     OW36844   3.990   1.779  17.066  0.1257  0.8799 -0.3820
 8404SOL    HW136845   4.079   1.745  17.080  1.4999  5.0933  1.1302
 8404SOL    HW236846   3.946   1.733  17.138  0.9024 -2.4112 -2.0071
 8405SOL     OW36847   1.840   3.726  11.797 -0.1857  0.4563 -0.2022
 8405SOL    HW136848   1.795   3.649  11.831  1.1875 -0.4331 -0.4020
 8405SOL    HW236849   1.769   3.757  11.740  1.3294  0.7692 -1.8926
 8406SOL     OW36850   2.407   3.995   2.358 -0.1352  0.2362 -0.3193
 8406SOL    HW136851   2.337   3.995   2.423 -1.6881  0.8771 -1.9828
 8406SOL    HW236852   2.416   3.903   2.336 -1.2647  0.2716 -0.9120
 8407SOL     OW36853   0.928   3.057   9.711  0.4014 -0.8062 -0.2391
 8407SOL    HW136854   0.871   3.061   9.788 -1.2145 -2.8273 -1.3145
 8407SOL    HW236855   1.003   2.999   9.727  0.8518 -0.2187 -0.2437
 8408SOL     OW36856   0.583   3.116   7.550 -0.2499  0.5864 -0.0593
 8408SOL    HW136857   0.581   3.113   7.646 -1.4905  0.2878 -0.0965
 8408SOL    HW236858   0.606   3.207   7.532 -0.2181  0.4949 -0.4655
 8409SOL     OW36859   0.870   1.980  12.601 -0.1903  0.0755  0.3520
 8409SOL    HW136860   0.915   2.005  12.521 -3.0166 -0.5408 -1.4012
 8409SOL    HW236861   0.938   1.998  12.667  1.3032 -0.3779 -1.0762
 8410SOL     OW36862   1.950   2.370   0.414  0.5706  0.2050  0.0254
 8410SOL    HW136863   1.999   2.310   0.359 -0.0819  0.7985 -1.1924
 8410SOL    HW236864   1.943   2.315   0.492 -1.9973  1.2069  0.5329
 8411SOL     OW36865   0.548   0.878   9.424  0.0086  0.5109 -0.1028
 8411SOL    HW136866   0.480   0.818   9.394 -0.0313  0.7210 -0.4317
 8411SOL    HW236867   0.530   0.884   9.518 -2.1173 -0.0928 -0.4715
 8412SOL     OW36868   3.791   3.783  13.679 -0.0298  0.0480  0.4654
 8412SOL    HW136869   3.700   3.756  13.684  0.2164 -0.4888  2.2779
 8412SOL    HW236870   3.785   3.879  13.681  2.2699  0.1975  0.5050
 8413SOL     OW36871   3.535   3.261  17.578  0.1023  0.1573  0.1764
 8413SOL    HW136872   3.538   3.217  17.493 -1.7889  0.2890  0.0591
 8413SOL    HW236873   3.625   3.293  17.581 -0.1800  0.8400  1.5057
 8414SOL     OW36874   2.539   3.073   6.783 -0.4500 -0.2955 -0.5793
 8414SOL    HW136875   2.561   3.126   6.706 -3.3444  1.5663 -0.1100
 8414SOL    HW236876   2.473   3.015   6.743 -1.7572  0.1088  1.0235
 8415SOL     OW36877   3.338   1.764   5.685 -0.0432 -0.2015 -0.2012
 8415SOL    HW136878   3.254   1.720   5.694  0.2202 -0.5936  0.3567
 8415SOL    HW236879   3.396   1.695   5.653  0.0702 -0.2241  0.0501
 8416SOL     OW36880   4.628   3.026  13.791 -0.0981 -0.1492 -0.3193
 8416SOL    HW136881   4.702   2.974  13.761 -0.3279  2.3028 -5.2087
 8416SOL    HW236882   4.594   3.058  13.708 -0.3308  1.2902  0.3280
 8417SOL     OW36883   3.986   3.384  16.213 -0.4445 -0.1248 -0.0385
 8417SOL    HW136884   4.064   3.373  16.267  0.6049  1.5579 -1.2208
 8417SOL    HW236885   4.017   3.341  16.133  1.1254 -0.7418  0.9061
 8418SOL     OW36886   3.085   3.655   9.837  0.5849 -0.6936 -0.2064
 8418SOL    HW136887   3.088   3.616   9.749  0.8763 -1.4906  0.1666
 8418SOL    HW236888   3.174   3.648   9.872  0.6747 -0.4928 -0.3907
 8419SOL     OW36889   2.562   1.488   7.632  0.2449 -1.3243 -0.2566
 8419SOL    HW136890   2.525   1.564   7.586 -2.0336 -0.9364  2.2615
 8419SOL    HW236891   2.574   1.537   7.713 -0.4136  2.1707 -2.2385
 8420SOL     OW36892   3.258   0.903  11.143 -0.5364  0.3772 -0.0038
 8420SOL    HW136893   3.223   0.953  11.217 -1.8622  0.6562 -0.8242
 8420SOL    HW236894   3.325   0.967  11.118 -1.6809  1.8461  0.6639
 8421SOL     OW36895   3.852   4.449  16.327 -0.4206 -0.1309 -0.2790
 8421SOL    HW136896   3.914   4.514  16.293 -0.4853 -0.1082 -0.3527
 8421SOL    HW236897   3.891   4.446  16.415 -1.7428  0.3268  0.3154
 8422SOL     OW36898   2.448   0.324   3.513  0.0509 -0.1516 -0.0323
 8422SOL    HW136899   2.460   0.406   3.465 -0.3283  0.0328  0.1961
 8422SOL    HW236900   2.442   0.363   3.600 -0.7343 -0.3215 -0.0112
 8423SOL     OW36901   1.208   0.720  14.877 -0.4931 -0.0657  0.7131
 8423SOL    HW136902   1.169   0.634  14.888 -1.3477  0.5007  2.1310
 8423SOL    HW236903   1.175   0.748  14.792  4.0587  1.2853 -0.6402
 8424SOL     OW36904   2.827   2.622  10.221 -0.0312 -0.0921  0.4267
 8424SOL    HW136905   2.732   2.613  10.228 -0.2468  1.2206 -0.8337
 8424SOL    HW236906   2.852   2.565  10.294  1.5228  2.5530  1.9635
 8425SOL     OW36907   3.932   2.818   8.509  0.4540  0.2116  0.6714
 8425SOL    HW136908   4.021   2.825   8.474  0.4883 -1.6129  0.3527
 8425SOL    HW236909   3.948   2.801   8.602 -0.4758 -0.0883  0.7715
 8426SOL     OW36910   4.157   4.649   7.454 -0.4658  0.0430 -0.0411
 8426SOL    HW136911   4.108   4.605   7.384 -0.5209 -0.0575  0.0612
 8426SOL    HW236912   4.165   0.004   7.430  0.4757  0.0700  0.4112
 8427SOL     OW36913   1.921   2.886   7.434  0.7044  0.1427  0.1107
 8427SOL    HW136914   1.942   2.800   7.472  1.5445  0.7477  1.0185
 8427SOL    HW236915   1.929   2.944   7.510 -0.9203  3.8313 -2.5455
 8428SOL     OW36916   1.277   1.412   7.080  0.0816  0.2199 -0.1921
 8428SOL    HW136917   1.189   1.450   7.067  0.2079  0.1049 -1.4165
 8428SOL    HW236918   1.279   1.355   7.003 -2.3258 -0.8899  0.5681
 8429SOL     OW36919   3.848   0.482   4.469  0.0790 -0.8441  0.0602
 8429SOL    HW136920   3.774   0.469   4.528 -1.6026 -0.9591 -2.0937
 8429SOL    HW236921   3.814   0.445   4.388 -0.5691  0.2278 -0.1554
 8430SOL     OW36922   2.244   0.266   6.041  0.3023 -0.1342 -0.5502
 8430SOL    HW136923   2.322   0.210   6.047  1.0349  0.8187 -1.2297
 8430SOL    HW236924   2.186   0.220   5.980 -0.7560  1.2620 -0.5859
 8431SOL     OW36925   4.350   2.622   6.794  0.3119 -0.3683 -0.2816
 8431SOL    HW136926   4.366   2.562   6.721 -0.4468 -1.6368  0.5899
 8431SOL    HW236927   4.438   2.614   6.830  0.6138  1.0876 -0.6892
 8432SOL     OW36928   0.221   1.074  15.090  0.0535  0.1001  0.4667
 8432SOL    HW136929   0.129   1.050  15.078  0.6292 -0.7302 -2.3008
 8432SOL    HW236930   0.270   1.038  15.016  0.6548  1.3617  0.2493
 8433SOL     OW36931   0.558   0.395  11.752 -0.5086  0.2647 -0.8376
 8433SOL    HW136932   0.592   0.306  11.754 -1.3095 -0.0723 -2.2634
 8433SOL    HW236933   0.488   0.384  11.817  0.2085 -0.1444 -0.1283
 8434SOL     OW36934   1.745   1.233  10.552 -0.1948  0.1624 -0.1746
 8434SOL    HW136935   1.731   1.206  10.642 -0.1611  0.0752 -0.1954
 8434SOL    HW236936   1.829   1.190  10.536 -0.9448 -0.8721 -1.4291
 8435SOL     OW36937   3.687   1.370   3.993 -0.1493 -0.2530 -0.1531
 8435SOL    HW136938   3.635   1.447   3.969 -0.6843 -0.4734  0.3150
 8435SOL    HW236939   3.756   1.369   3.927 -0.2083  1.0125 -0.2343
 8436SOL     OW36940   3.721   3.361  16.571 -0.0920 -0.1045  0.3340
 8436SOL    HW136941   3.722   3.421  16.497 -3.8020 -1.5889 -0.9470
 8436SOL    HW236942   3.740   3.421  16.643  0.1539  0.5678 -0.2943
 8437SOL     OW36943   3.163   3.901   8.605 -0.4608  0.2277  0.0108
 8437SOL    HW136944   3.256   3.914   8.626 -0.0197 -0.4277 -1.5740
 8437SOL    HW236945   3.122   3.899   8.692  0.9045  2.3811  0.6945
 8438SOL     OW36946   2.634   0.464   4.742  0.1587  0.0646  0.0199
 8438SOL    HW136947   2.594   0.377   4.752 -1.6383  1.0596  1.5158
 8438SOL    HW236948   2.562   0.506   4.696 -0.4661  0.6063  1.4797
 8439SOL     OW36949   3.270   0.480  17.518 -0.3165  0.2097 -0.5225
 8439SOL    HW136950   3.283   0.386  17.507  0.9822  0.3452 -0.1462
 8439SOL    HW236951   3.243   0.514  17.432 -2.7730  0.0010  0.1860
 8440SOL     OW36952   3.000   2.312  13.706  0.4661 -0.5695  0.2023
 8440SOL    HW136953   3.017   2.245  13.771  0.0349  1.5986  2.5264
 8440SOL    HW236954   2.914   2.279  13.680  1.0493 -1.9389 -0.0074
 8441SOL     OW36955   3.638   2.223   3.171 -0.3393 -1.0032  0.5966
 8441SOL    HW136956   3.565   2.227   3.232 -0.1056  1.0952  0.7359
 8441SOL    HW236957   3.702   2.189   3.233  0.5939  1.1795  0.8480
 8442SOL     OW36958   0.818   0.012   8.372 -0.1349  0.3929 -0.7978
 8442SOL    HW136959   0.723   0.023   8.381 -0.1874 -0.5865 -0.2156
 8442SOL    HW236960   0.840   0.104   8.387 -0.3898 -0.0133  2.1630
 8443SOL     OW36961   1.675   1.718   7.772 -0.3098 -0.7349  0.0436
 8443SOL    HW136962   1.664   1.811   7.793 -0.2403 -0.5347 -0.8222
 8443SOL    HW236963   1.770   1.713   7.770 -0.2863 -0.6397  0.7827
 8444SOL     OW36964   3.398   1.350  13.834 -0.2690 -0.3710 -0.3399
 8444SOL    HW136965   3.368   1.301  13.911  0.8299  0.7278  0.8016
 8444SOL    HW236966   3.415   1.280  13.770  0.7487  0.2223 -0.7236
 8445SOL     OW36967   3.114   3.001   6.844 -0.5484  0.3889  0.4211
 8445SOL    HW136968   3.032   3.022   6.798  0.1618  2.4186  0.0726
 8445SOL    HW236969   3.143   3.090   6.864  1.6647 -0.3412  0.4468
 8446SOL     OW36970   4.249   4.104  13.383 -0.0516  0.0170 -0.5033
 8446SOL    HW136971   4.343   4.116  13.370  0.0110  0.0113 -0.0704
 8446SOL    HW236972   4.215   4.176  13.331 -1.0009 -1.1250 -1.4842
 8447SOL     OW36973   0.816   2.498   2.165  0.2114  0.5328 -0.1490
 8447SOL    HW136974   0.882   2.461   2.106  0.8909  2.8130 -0.8031
 8447SOL    HW236975   0.726   2.485   2.135  0.5698  0.2720 -1.1185
 8448SOL     OW36976   4.551   1.644   9.185  0.5283 -0.5012  0.2698
 8448SOL    HW136977   4.517   1.559   9.213  1.0579 -0.7445  0.1765
 8448SOL    HW236978   4.569   1.690   9.268  2.3285  0.9152 -0.8828
 8449SOL     OW36979   3.473   1.380   3.422 -0.6665 -0.0542 -0.2324
 8449SOL    HW136980   3.380   1.402   3.434 -0.2066  1.8598 -0.2827
 8449SOL    HW236981   3.462   1.368   3.328  0.3622 -3.6224  0.1114
 8450SOL     OW36982   3.352   2.159   3.740  0.2777 -0.1078 -0.4031
 8450SOL    HW136983   3.411   2.181   3.668  1.0045 -0.3428  0.1225
 8450SOL    HW236984   3.341   2.245   3.779  0.1861 -1.3006  2.2002
 8451SOL     OW36985   2.147   0.975   2.274 -0.0894 -0.4872 -0.1034
 8451SOL    HW136986   2.206   0.902   2.252  0.6315  0.5309 -1.5762
 8451SOL    HW236987   2.092   0.935   2.340 -0.9294 -1.6353 -1.4973
 8452SOL     OW36988   3.429   3.602   1.526 -1.2688 -0.1340 -0.7162
 8452SOL    HW136989   3.403   3.608   1.434 -0.1819  1.5524 -0.9112
 8452SOL    HW236990   3.424   3.507   1.532  1.4104 -0.4702 -3.7282
 8453SOL     OW36991   4.127   2.952   3.696 -0.3085 -0.4583 -0.6638
 8453SOL    HW136992   4.124   2.913   3.783  1.9512 -1.2153 -0.9277
 8453SOL    HW236993   4.202   2.912   3.652  0.5436 -1.1641  1.4479
 8454SOL     OW36994   1.626   3.168  13.028  0.0663  0.2307  0.3202
 8454SOL    HW136995   1.633   3.078  12.995  1.6067  0.6832 -0.5630
 8454SOL    HW236996   1.707   3.205  12.995  0.7209 -0.3692  1.2713
 8455SOL     OW36997   1.485   3.180  13.306 -0.0723  0.7445  0.0424
 8455SOL    HW136998   1.513   3.124  13.233  0.4558  0.8623  0.1509
 8455SOL    HW236999   1.427   3.121  13.353  2.1417 -1.1638  0.4230
 8456SOL     OW37000   2.800   2.143   4.136 -0.3000 -0.7605  0.2755
 8456SOL    HW137001   2.880   2.196   4.138 -0.7742  0.0271 -2.0139
 8456SOL    HW237002   2.801   2.123   4.043 -1.9906 -2.5661  0.6441
 8457SOL     OW37003   4.132   0.258   8.812  0.5825  0.6002  0.4059
 8457SOL    HW137004   4.039   0.255   8.791  0.7934  1.8219 -0.7542
 8457SOL    HW237005   4.175   0.252   8.726 -1.4598 -3.0729 -0.3558
 8458SOL     OW37006   4.005   2.351   3.343 -0.4122  0.5320  0.0997
 8458SOL    HW137007   3.917   2.345   3.305  0.4164 -3.9189 -1.2187
 8458SOL    HW237008   3.998   2.316   3.431 -1.0344  2.5854  0.8520
 8459SOL     OW37009   3.716   0.080   1.728  0.3197 -0.2951  0.3575
 8459SOL    HW137010   3.782   0.020   1.694 -0.3998 -1.2824  0.7021
 8459SOL    HW237011   3.710   0.046   1.817  0.0153  0.2988  0.5684
 8460SOL     OW37012   2.859   3.112   7.776  0.2751  0.1874 -0.5127
 8460SOL    HW137013   2.825   3.042   7.720 -0.8945  0.2837  0.0805
 8460SOL    HW237014   2.945   3.079   7.803  0.3293  0.4086 -0.4146
 8461SOL     OW37015   0.338   0.102   9.224 -0.4899 -0.3388  0.4816
 8461SOL    HW137016   0.292   0.132   9.145 -0.7096  2.2959  1.5966
 8461SOL    HW237017   0.420   0.152   9.225 -1.2154  0.7817  2.6032
 8462SOL     OW37018   4.723   4.386   3.537  0.1141 -0.4292  0.6886
 8462SOL    HW137019   0.026   4.456   3.588 -2.7638  2.1341 -0.5068
 8462SOL    HW237020   0.059   4.341   3.495 -1.6221  0.0938 -2.9295
 8463SOL     OW37021   3.369   0.177   5.701 -0.0884  0.1336  0.5211
 8463SOL    HW137022   3.407   0.150   5.785 -1.0976 -0.2512  0.8509
 8463SOL    HW237023   3.426   0.249   5.674 -1.5863  1.3279  0.6197
 8464SOL     OW37024   0.609   3.449   4.155 -0.3934  0.3342  0.1371
 8464SOL    HW137025   0.534   3.437   4.097 -0.5786  0.8254  0.2787
 8464SOL    HW237026   0.629   3.543   4.155  1.2689 -0.0209  1.5993
 8465SOL     OW37027   1.454   0.197   6.769  0.0588  0.0961  0.0749
 8465SOL    HW137028   1.365   0.191   6.734  0.1158 -0.9476  0.1047
 8465SOL    HW237029   1.480   0.107   6.749  2.9334  1.4229 -2.1557
 8466SOL     OW37030   4.411   0.938   5.005 -0.2038  0.1133 -0.3540
 8466SOL    HW137031   4.343   0.877   5.033  0.3676 -0.3731 -0.0192
 8466SOL    HW237032   4.440   0.969   5.091  0.2641  2.0167 -1.2055
 8467SOL     OW37033   1.601   0.029   2.640 -0.2779 -0.3847 -0.3673
 8467SOL    HW137034   1.620   0.090   2.569  1.3616 -1.1602 -0.5983
 8467SOL    HW237035   1.506   0.040   2.641 -0.2565 -0.2415 -0.0548
 8468SOL     OW37036   3.220   3.215  16.237  0.0557  0.1060  0.5070
 8468SOL    HW137037   3.170   3.168  16.171  2.5051 -0.6754 -0.7566
 8468SOL    HW237038   3.273   3.146  16.276 -0.2842 -0.1838  0.4596
 8469SOL     OW37039   2.441   3.587   9.636 -0.0069  0.3201 -0.1552
 8469SOL    HW137040   2.529   3.598   9.599  0.6172  0.9439  1.4859
 8469SOL    HW237041   2.436   3.492   9.636  0.2528  0.3055 -0.7477
 8470SOL     OW37042   2.220   2.368  15.047 -0.0251 -0.1436  0.1284
 8470SOL    HW137043   2.137   2.408  15.072 -0.2213 -0.9606  0.7946
 8470SOL    HW237044   2.197   2.337  14.959 -0.6042  1.7445 -0.3971
 8471SOL     OW37045   4.238   4.117   3.251  0.0960  0.0448 -0.4392
 8471SOL    HW137046   4.163   4.126   3.310 -0.9967 -2.2263 -1.4815
 8471SOL    HW237047   4.247   4.209   3.228  1.0565 -0.2099 -1.0877
 8472SOL     OW37048   2.852   0.419   6.272  0.0567  0.2791  0.1796
 8472SOL    HW137049   2.831   0.477   6.344  2.4600  1.3952 -0.0001
 8472SOL    HW237050   2.876   0.339   6.319 -1.4803 -1.7190 -2.4161
 8473SOL     OW37051   4.395   0.271   9.199  0.3236 -0.8806 -0.0186
 8473SOL    HW137052   4.406   0.268   9.104  0.6847  2.4072 -0.0606
 8473SOL    HW237053   4.338   0.194   9.204 -1.7011  0.5954 -0.4363
 8474SOL     OW37054   3.184   3.346   7.709 -0.3245 -0.0523 -0.0791
 8474SOL    HW137055   3.231   3.420   7.671 -0.5564  0.2585  0.2355
 8474SOL    HW237056   3.099   3.352   7.666  0.3943 -1.8608 -1.7170
 8475SOL     OW37057   0.677   3.503  15.662  0.9678  0.5374  0.2483
 8475SOL    HW137058   0.709   3.420  15.626 -0.2073  0.8725 -1.5537
 8475SOL    HW237059   0.753   3.558  15.645  0.6289 -0.0310 -3.2180
 8476SOL     OW37060   3.948   4.604   7.850 -0.3943 -0.2917 -0.4617
 8476SOL    HW137061   4.024   4.599   7.792 -1.8426  0.4943 -2.4265
 8476SOL    HW237062   3.983   4.569   7.932 -0.9964 -2.5726 -1.1874
 8477SOL     OW37063   1.814   2.876  13.774 -0.7871 -0.1895 -0.4732
 8477SOL    HW137064   1.891   2.923  13.741 -0.8819 -0.0313 -0.4709
 8477SOL    HW237065   1.783   2.939  13.839 -1.5821 -0.0245 -1.0182
 8478SOL     OW37066   1.471   0.800   2.169  0.0874  0.2995 -0.0497
 8478SOL    HW137067   1.404   0.784   2.102  1.3988 -2.8413 -0.6319
 8478SOL    HW237068   1.521   0.720   2.187  0.5418  0.3117 -1.2816
 8479SOL     OW37069   1.413   4.732   6.519  0.3454 -0.1426 -0.1993
 8479SOL    HW137070   1.402   0.072   6.464 -0.8936 -1.4336 -1.7926
 8479SOL    HW237071   1.493   4.688   6.490 -0.0606 -2.9879  2.9571
 8480SOL     OW37072   4.683   3.164  14.221  0.8375 -0.4385  0.5591
 8480SOL    HW137073   4.651   3.099  14.158 -0.3614  1.3526 -0.6765
 8480SOL    HW237074   4.621   3.234  14.201 -0.9173 -2.9249 -2.7818
 8481SOL     OW37075   0.308   0.644  12.872  0.3220  0.0822 -0.0223
 8481SOL    HW137076   0.309   0.729  12.916  0.7658 -0.3752  0.8543
 8481SOL    HW237077   0.402   0.625  12.868  0.8202  2.7758 -0.8795
 8482SOL     OW37078   2.097   2.603   4.975  0.5020 -0.2845  0.1335
 8482SOL    HW137079   2.158   2.602   4.901  1.1671 -0.0948  0.6864
 8482SOL    HW237080   2.068   2.692   4.952  1.6390  0.4792  1.6894
 8483SOL     OW37081   1.015   3.192   6.167 -0.1947  0.3455 -0.3472
 8483SOL    HW137082   1.090   3.223   6.218 -1.1257  0.8521  0.6970
 8483SOL    HW237083   0.954   3.241   6.222 -1.8516 -0.9460 -1.0231
 8484SOL     OW37084   1.246   2.808  17.495 -0.1775 -0.1709  0.3281
 8484SOL    HW137085   1.292   2.891  17.488 -0.4681 -0.1108 -0.8335
 8484SOL    HW237086   1.165   2.845  17.530  0.2533  0.0842  1.0526
 8485SOL     OW37087   2.876   0.532   3.579 -0.1443  0.0526 -0.8897
 8485SOL    HW137088   2.890   0.441   3.554  1.2040 -0.5431  2.0131
 8485SOL    HW237089   2.801   0.526   3.637 -0.3541  1.7939 -0.9684
 8486SOL     OW37090   2.132   4.327   7.920  0.1849  0.2906  0.7513
 8486SOL    HW137091   2.058   4.342   7.979 -0.0257 -2.0995  1.1152
 8486SOL    HW237092   2.087   4.341   7.837  3.1680 -0.9512 -1.0885
 8487SOL     OW37093   2.351   0.938  14.092 -0.5822 -0.1474  0.2776
 8487SOL    HW137094   2.322   0.860  14.045  3.2702 -1.6968  0.4962
 8487SOL    HW237095   2.271   0.970  14.134 -1.5003 -2.7798  0.5289
 8488SOL     OW37096   3.614   1.117   4.711 -0.0162 -0.0020 -0.2539
 8488SOL    HW137097   3.549   1.134   4.779  1.1748  0.1838  0.8418
 8488SOL    HW237098   3.556   1.135   4.637 -3.8182  0.9804  2.9914
 8489SOL     OW37099   1.470   4.139  12.965  0.3064 -0.0225 -0.3778
 8489SOL    HW137100   1.563   4.130  12.986  0.1842  1.4579  0.7703
 8489SOL    HW237101   1.435   4.075  13.027  0.7398  0.8435  0.7681
 8490SOL     OW37102   1.680   0.750   6.125  0.6405 -0.6592 -0.1165
 8490SOL    HW137103   1.673   0.806   6.047  3.4656 -2.0165 -1.3289
 8490SOL    HW237104   1.630   0.676   6.091  0.1816 -0.6321  0.5020
 8491SOL     OW37105   1.303   3.730   2.277  0.6509  0.0015 -0.7107
 8491SOL    HW137106   1.364   3.731   2.204  1.7613  0.9840  0.2331
 8491SOL    HW237107   1.220   3.727   2.229  0.6657 -2.0594 -0.5875
 8492SOL     OW37108   2.963   4.606   1.667  0.0741 -0.0961  0.0172
 8492SOL    HW137109   3.057   4.616   1.649  0.1924  0.0951  0.7224
 8492SOL    HW237110   2.931   4.695   1.683  0.7729  0.1918 -0.1862
 8493SOL     OW37111   0.165   3.997   7.822 -0.1212 -0.6456  0.5485
 8493SOL    HW137112   0.117   3.946   7.887 -2.5475 -1.7924 -2.1618
 8493SOL    HW237113   0.256   3.987   7.853 -0.2276  0.8655  1.3546
 8494SOL     OW37114   1.651   3.626   3.981 -0.6448  0.9670  0.0734
 8494SOL    HW137115   1.708   3.579   3.920 -0.3269 -0.0048  1.1212
 8494SOL    HW237116   1.714   3.634   4.053  0.2295 -0.6376 -0.5265
 8495SOL     OW37117   1.328   2.431   6.935  0.0160 -0.5053  0.2900
 8495SOL    HW137118   1.304   2.488   7.008 -0.4201 -1.0804  0.5850
 8495SOL    HW237119   1.313   2.350   6.982  0.9616 -0.1453  1.2203
 8496SOL     OW37120   1.474   2.997   8.773 -0.0007  0.6946  0.2428
 8496SOL    HW137121   1.450   2.941   8.847 -1.9422  0.5519 -0.5046
 8496SOL    HW237122   1.545   2.941   8.740 -1.2603 -1.1730  0.6994
 8497SOL     OW37123   0.330   3.391   9.478  0.6472  0.4471 -0.0724
 8497SOL    HW137124   0.422   3.414   9.484  0.8408 -0.5943  0.9696
 8497SOL    HW237125   0.293   3.477   9.499 -0.4963  0.1374 -0.7964
 8498SOL     OW37126   4.731   4.400  11.440 -0.0288 -0.0261  0.7032
 8498SOL    HW137127   4.670   4.336  11.403  2.1175 -1.1187 -0.9792
 8498SOL    HW237128   4.708   4.397  11.533  0.3042 -0.9842  0.7628
 8499SOL     OW37129   1.895   3.341   7.587  0.2438  0.2050  0.1905
 8499SOL    HW137130   1.821   3.324   7.529  1.1523  0.3685 -1.0226
 8499SOL    HW237131   1.951   3.264   7.581  1.1009  0.9898 -1.6614
 8500SOL     OW37132   3.430   1.286  15.562 -0.5700  0.0495  0.1306
 8500SOL    HW137133   3.509   1.291  15.507 -0.0971 -2.1853  0.6143
 8500SOL    HW237134   3.425   1.375  15.598  1.0936 -0.1333  0.8009
 8501SOL     OW37135   1.372   4.222   8.033 -0.2181  0.5594  0.2358
 8501SOL    HW137136   1.386   4.309   8.071 -1.0256  1.4834 -1.5836
 8501SOL    HW237137   1.277   4.225   8.047 -0.0701  1.8795  1.0261
 8502SOL     OW37138   4.227   0.048  14.504  0.0688 -0.5894  0.7173
 8502SOL    HW137139   4.319   0.072  14.515  0.6916 -1.7786 -2.0820
 8502SOL    HW237140   4.224   4.719  14.435 -0.7982 -0.0579  0.2387
 8503SOL     OW37141   0.655   0.783   6.449 -0.5715  0.1184  0.1024
 8503SOL    HW137142   0.718   0.725   6.492 -1.9564  1.7187  4.3886
 8503SOL    HW237143   0.710   0.848   6.407  1.6724 -2.7179 -1.3554
 8504SOL     OW37144   3.374   2.086   4.851 -0.0555  0.3774  0.6346
 8504SOL    HW137145   3.442   2.136   4.897 -0.3349  1.7741 -0.4622
 8504SOL    HW237146   3.304   2.150   4.844  0.4665  0.9550  0.6527
 8505SOL     OW37147   0.312   1.963   7.410  0.2717  0.0648 -0.1747
 8505SOL    HW137148   0.246   1.931   7.349 -0.2713  0.8824 -0.0176
 8505SOL    HW237149   0.393   1.959   7.359 -0.7406 -1.3611 -1.6473
 8506SOL     OW37150   2.693   1.332   2.772  0.3429  0.9589  0.4422
 8506SOL    HW137151   2.739   1.259   2.733  0.2076  0.1087  1.8909
 8506SOL    HW237152   2.634   1.354   2.699  0.4463  0.1240  0.1094
 8507SOL     OW37153   2.697   0.916   5.823 -1.3385 -0.2574  0.5713
 8507SOL    HW137154   2.676   0.921   5.916  4.8584  0.9566  1.9404
 8507SOL    HW237155   2.628   0.864   5.783  1.7032 -1.2641 -3.3783
 8508SOL     OW37156   4.072   3.647   4.984  0.2036 -0.6665  0.1515
 8508SOL    HW137157   4.045   3.561   5.016 -0.2554  0.6207  3.2586
 8508SOL    HW237158   4.001   3.707   5.007 -0.8104 -1.7711 -0.1110
 8509SOL     OW37159   0.714   1.726   6.761 -0.2585 -0.4940 -0.3987
 8509SOL    HW137160   0.722   1.758   6.671 -0.3015  2.6408  0.7073
 8509SOL    HW237161   0.625   1.743   6.793 -0.4469 -0.5862 -0.8837
 8510SOL     OW37162   1.840   0.453  13.065  0.3072  0.1880 -0.3187
 8510SOL    HW137163   1.840   0.515  13.138 -1.3492  0.7635 -0.8138
 8510SOL    HW237164   1.748   0.443  13.042 -0.1201  4.2575 -0.2584
 8511SOL     OW37165   2.241   4.657   8.507  0.2094  0.1673 -0.5147
 8511SOL    HW137166   2.172   4.722   8.491 -0.4937 -0.4281  0.0570
 8511SOL    HW237167   2.240   4.628   8.415 -0.8148  0.5256 -0.6260
 8512SOL     OW37168   0.016   2.665   9.351  0.0114  0.0027  0.4912
 8512SOL    HW137169   0.108   2.641   9.348 -0.7210 -2.8152  0.3067
 8512SOL    HW237170   4.712   2.590   9.394  1.0851 -0.7851  0.1504
 8513SOL     OW37171   4.327   3.901  15.773  0.0770  0.2261 -0.2909
 8513SOL    HW137172   4.316   3.993  15.750 -0.5186 -0.0997 -1.3156
 8513SOL    HW237173   4.272   3.863  15.704 -1.8895  0.1774  1.2900
 8514SOL     OW37174   0.487   1.376   5.749  0.8971  0.2032 -0.2714
 8514SOL    HW137175   0.549   1.313   5.785 -0.9321 -1.4648 -0.0313
 8514SOL    HW237176   0.474   1.442   5.817 -1.3817 -1.8001  1.2333
 8515SOL     OW37177   0.823   3.379  15.447  0.3042  0.3695 -0.1569
 8515SOL    HW137178   0.893   3.341  15.500  0.9559 -0.2988 -1.5035
 8515SOL    HW237179   0.865   3.393  15.363 -0.2531  0.6597 -0.3896
 8516SOL     OW37180   0.018   2.666   1.032 -0.0395  0.3613  0.6143
 8516SOL    HW137181   4.673   2.637   1.072  0.2855 -0.8385  0.3968
 8516SOL    HW237182   0.079   2.630   1.097 -0.2855  1.7364  1.6307
 8517SOL     OW37183   2.531   3.913   5.501  0.3034 -0.1537 -0.1178
 8517SOL    HW137184   2.440   3.887   5.511 -0.1635  0.6639 -2.2055
 8517SOL    HW237185   2.544   3.954   5.586  2.2269 -0.4561 -0.2518
 8518SOL     OW37186   2.312   2.494   0.511 -0.2325  0.0120  0.1958
 8518SOL    HW137187   2.383   2.430   0.504  0.3892  0.6016  1.0800
 8518SOL    HW237188   2.282   2.504   0.601  0.0828  0.2387  0.2767
 8519SOL     OW37189   3.539   4.132   5.982  0.0010 -0.0791  0.6454
 8519SOL    HW137190   3.490   4.212   5.964 -0.7249 -0.0428  2.7737
 8519SOL    HW237191   3.625   4.167   6.004  0.0106  0.9603 -1.0542
 8520SOL     OW37192   4.119   3.316  16.633  0.1702  0.0227  0.0438
 8520SOL    HW137193   4.081   3.346  16.716 -0.4505  1.1040 -0.6302
 8520SOL    HW237194   4.048   3.261  16.599  1.3430 -1.4404 -0.0281
 8521SOL     OW37195   0.115   1.783   4.698 -0.3842  0.8086  0.7174
 8521SOL    HW137196   0.168   1.772   4.777 -0.4249  0.5200  0.7017
 8521SOL    HW237197   0.146   1.873   4.687 -1.8508  1.1505 -0.5576
 8522SOL     OW37198   0.579   2.860   4.966  0.2782 -1.0393  0.3190
 8522SOL    HW137199   0.577   2.927   5.035 -0.5636  0.3940 -1.1023
 8522SOL    HW237200   0.663   2.879   4.925  0.7496  1.1747  2.3100
 8523SOL     OW37201   2.930   3.057  17.318  0.5789  0.5541  0.2343
 8523SOL    HW137202   2.954   3.036  17.228 -2.1313  2.3201 -0.8813
 8523SOL    HW237203   2.906   2.968  17.346 -0.3974  0.5743 -0.5490
 8524SOL     OW37204   3.791   2.766   8.139 -0.4905  0.0273 -0.1046
 8524SOL    HW137205   3.810   2.858   8.118 -0.4107  0.1561  0.5438
 8524SOL    HW237206   3.738   2.773   8.218  0.3790 -1.3824  0.5893
 8525SOL     OW37207   1.421   3.094   6.859 -0.7516 -0.4485 -0.3318
 8525SOL    HW137208   1.507   3.061   6.884  0.6741  0.9759 -3.4090
 8525SOL    HW237209   1.367   3.045   6.921 -0.1852  0.5941  0.9865
 8526SOL     OW37210   1.600   3.805  11.695  0.2204  0.7458 -0.0045
 8526SOL    HW137211   1.561   3.884  11.731 -0.5295  0.3484  0.0463
 8526SOL    HW237212   1.525   3.757  11.660  1.1229 -0.0396 -0.8425
 8527SOL     OW37213   2.591   2.239   7.342 -0.2726  0.8104 -0.2996
 8527SOL    HW137214   2.558   2.328   7.352  1.5888  1.4784 -0.1322
 8527SOL    HW237215   2.563   2.219   7.253  3.1814 -0.1687 -1.1522
 8528SOL     OW37216   4.538   2.688   3.760  0.0084 -0.2691  0.2968
 8528SOL    HW137217   4.556   2.598   3.787 -0.9335  0.3796  3.0897
 8528SOL    HW237218   4.605   2.728   3.815 -1.5286  2.5927  0.0702
 8529SOL     OW37219   1.160   1.147   9.263 -0.5767 -0.5794 -0.1911
 8529SOL    HW137220   1.120   1.075   9.215 -3.3819  0.7494  0.1305
 8529SOL    HW237221   1.192   1.097   9.338  0.9028  0.1122 -0.3776
 8530SOL     OW37222   2.709   3.467   0.857 -0.6975 -0.2273  0.0493
 8530SOL    HW137223   2.638   3.521   0.823  1.7654  2.5444 -0.7124
 8530SOL    HW237224   2.726   3.415   0.779  1.1510 -1.0769  1.0041
 8531SOL     OW37225   0.258   4.113   7.171 -0.3445 -0.1625 -0.7956
 8531SOL    HW137226   0.289   4.029   7.140 -1.1662 -1.3782  1.6840
 8531SOL    HW237227   0.296   4.126   7.257 -1.1191  1.2081 -0.6473
 8532SOL     OW37228   4.371   4.048   8.140 -0.2271 -0.8409  0.2578
 8532SOL    HW137229   4.327   4.130   8.119  1.6172  0.2039  0.4721
 8532SOL    HW237230   4.409   4.087   8.218  0.5864  0.7422 -0.9293
 8533SOL     OW37231   2.494   4.581  13.164  0.6487  0.2881 -0.8086
 8533SOL    HW137232   2.583   4.563  13.133 -0.0132 -0.6568 -2.1824
 8533SOL    HW237233   2.481   4.670  13.132 -2.0143  0.0730 -0.3137
 8534SOL     OW37234   4.601   1.288  14.531 -0.1129 -0.7869  0.1735
 8534SOL    HW137235   4.644   1.225  14.589 -1.7876 -0.0634  2.2284
 8534SOL    HW237236   4.519   1.286  14.581  0.3294 -0.8828  0.8959
 8535SOL     OW37237   2.461   2.352   9.441 -0.2044 -0.4449  0.2452
 8535SOL    HW137238   2.390   2.310   9.393  0.3378  1.2220 -2.0404
 8535SOL    HW237239   2.485   2.277   9.495  0.6536 -1.2727 -1.2913
 8536SOL     OW37240   2.975   4.271  13.734 -0.2983 -0.1795  0.0684
 8536SOL    HW137241   3.028   4.279  13.813 -0.2627 -0.4272  0.0703
 8536SOL    HW237242   3.033   4.323  13.678 -2.3312  0.3851 -1.5478
 8537SOL     OW37243   4.641   4.481   6.813 -0.2166  0.0145  0.6086
 8537SOL    HW137244   4.686   4.444   6.889  0.9833 -2.8995 -1.5635
 8537SOL    HW237245   4.620   4.572   6.834 -1.4779 -0.2605  0.5921
 8538SOL     OW37246   2.561   0.097   3.056 -0.4772  0.6467 -0.7141
 8538SOL    HW137247   2.622   0.024   3.047 -0.9230  0.1000  0.6230
 8538SOL    HW237248   2.511   0.065   3.131 -0.0796 -0.6845 -1.0251
 8539SOL     OW37249   3.674   1.057   8.357  0.7968 -0.1763  0.7768
 8539SOL    HW137250   3.590   1.079   8.397  1.2596  1.8725  0.6648
 8539SOL    HW237251   3.679   0.963   8.373  0.8482 -0.1099  1.1506
 8540SOL     OW37252   1.606   1.150  15.999 -0.4364 -0.7245  0.2321
 8540SOL    HW137253   1.512   1.147  16.018 -0.6204 -2.0696 -0.8497
 8540SOL    HW237254   1.599   1.195  15.915 -1.5719  0.5448  1.0180
 8541SOL     OW37255   3.060   1.725   6.432 -0.0731 -0.6065  0.6274
 8541SOL    HW137256   3.054   1.689   6.344 -1.4322 -1.3324  1.0143
 8541SOL    HW237257   2.969   1.712   6.457  0.1019 -0.1044  1.5292
 8542SOL     OW37258   3.865   2.553  11.776 -0.2962 -0.4858 -0.6801
 8542SOL    HW137259   3.855   2.559  11.871  0.2025 -0.6435 -0.6153
 8542SOL    HW237260   3.951   2.511  11.770 -0.0359  0.1877 -1.5637
 8543SOL     OW37261   0.530   1.170   8.354  0.1482  0.0626  0.1485
 8543SOL    HW137262   0.490   1.086   8.375  1.3255 -0.2022  1.3054
 8543SOL    HW237263   0.456   1.230   8.362  0.0838 -0.4345  3.2682
 8544SOL     OW37264   1.269   2.443   3.035  0.9900  0.0564 -0.1408
 8544SOL    HW137265   1.328   2.433   2.961  1.2715  0.1411  0.0755
 8544SOL    HW237266   1.227   2.527   3.015  0.9216 -0.1407 -0.8027
 8545SOL     OW37267   3.315   2.945   2.071  0.2464  0.2845 -0.2947
 8545SOL    HW137268   3.370   2.988   2.005 -0.3358  2.1732  0.4573
 8545SOL    HW237269   3.374   2.870   2.087  0.3228  0.8199  1.9088
 8546SOL     OW37270   1.368   3.861   2.949  0.6950 -0.0291  0.4794
 8546SOL    HW137271   1.323   3.797   2.895  0.9321 -0.2672  0.5667
 8546SOL    HW237272   1.298   3.873   3.013  0.9164  1.8961  0.3766
 8547SOL     OW37273   2.225   2.480   4.114 -0.3941  0.3227 -0.5377
 8547SOL    HW137274   2.252   2.398   4.154 -1.9757  0.0632 -0.0177
 8547SOL    HW237275   2.260   2.470   4.025  1.5679 -0.3798  0.3140
 8548SOL     OW37276   2.115   3.267   3.542 -0.8428 -0.1243 -0.0445
 8548SOL    HW137277   2.125   3.283   3.449 -1.4939 -0.5279 -0.1801
 8548SOL    HW237278   2.132   3.173   3.545  1.4718  0.1941 -3.7472
 8549SOL     OW37279   4.727   2.535   7.230 -0.5516  0.3836  0.3667
 8549SOL    HW137280   0.067   2.502   7.184 -0.2716  2.3562 -0.5419
 8549SOL    HW237281   4.735   2.628   7.210 -0.3197  0.3602  0.3441
 8550SOL     OW37282   1.607   0.262   3.079 -0.8665  0.7584 -0.1128
 8550SOL    HW137283   1.685   0.291   3.125 -1.0076 -1.6311  1.6156
 8550SOL    HW237284   1.641   0.177   3.049 -2.9460  0.5335 -1.8191
 8551SOL     OW37285   0.922   3.732   7.942 -0.1455  0.3521  0.5911
 8551SOL    HW137286   0.914   3.784   7.862 -1.3568  0.0132  0.4788
 8551SOL    HW237287   1.016   3.717   7.943 -0.6996 -3.2379 -1.3659
 8552SOL     OW37288   2.810   3.200   9.570 -0.2173  0.0290 -0.1886
 8552SOL    HW137289   2.829   3.262   9.500 -0.5657  0.5057  0.1385
 8552SOL    HW237290   2.751   3.242   9.634  1.2400  0.1765  1.0484
 8553SOL     OW37291   1.059   0.014   7.518  0.7151 -0.3739  0.0192
 8553SOL    HW137292   0.974   4.708   7.521  1.0350 -1.0547 -0.7623
 8553SOL    HW237293   1.077   4.723   7.428 -1.3332 -1.9215  0.0925
 8554SOL     OW37294   2.748   0.704   3.279  0.0432 -0.1602  0.5459
 8554SOL    HW137295   2.808   0.635   3.252 -0.8569 -0.0038 -1.7855
 8554SOL    HW237296   2.721   0.684   3.369 -0.5790 -0.8325  0.2020
 8555SOL     OW37297   2.623   0.577   0.879 -0.3263  0.6163  0.0456
 8555SOL    HW137298   2.712   0.546   0.898 -0.0059  0.1997 -2.1958
 8555SOL    HW237299   2.640   0.657   0.829  0.8270  1.1667  1.2938
 8556SOL     OW37300   0.942   3.426   7.527  0.1473  0.3570  0.0442
 8556SOL    HW137301   0.851   3.421   7.557 -0.0594 -0.3998 -0.7281
 8556SOL    HW237302   0.947   3.357   7.462  2.0714 -0.1612  0.7615
 8557SOL     OW37303   0.838   4.485   9.441  0.0622  0.4185 -0.1477
 8557SOL    HW137304   0.927   4.451   9.450 -0.6365 -0.8318  2.0640
 8557SOL    HW237305   0.778   4.411   9.429  2.1840 -1.0994 -1.4481
 8558SOL     OW37306   2.592   1.163  14.423  0.0096 -0.0018  0.2267
 8558SOL    HW137307   2.517   1.173  14.482  0.3458  1.6168  0.3846
 8558SOL    HW237308   2.608   1.069  14.429 -2.1395 -0.2808  1.2780
 8559SOL     OW37309   1.749   4.208   2.107 -0.4942  1.0388  0.1726
 8559SOL    HW137310   1.840   4.191   2.081 -0.8571 -1.0183  0.2260
 8559SOL    HW237311   1.742   4.301   2.087  0.3488  1.3604  1.3006
 8560SOL     OW37312   2.740   2.220  13.692 -0.4991  0.0014 -0.1507
 8560SOL    HW137313   2.646   2.234  13.702  0.0620  1.9252  2.2850
 8560SOL    HW237314   2.744   2.128  13.720 -3.2292 -0.3751 -0.9660
 8561SOL     OW37315   2.796   1.057  10.443 -0.7456 -0.2780 -0.0841
 8561SOL    HW137316   2.869   1.062  10.382  0.1875  0.0665  1.0659
 8561SOL    HW237317   2.841   0.994  10.499  2.9591  1.5269 -1.0165
 8562SOL     OW37318   1.952   1.282   3.221 -0.3101 -0.0183 -0.5343
 8562SOL    HW137319   1.892   1.208   3.238  1.4994 -0.7932  2.4740
 8562SOL    HW237320   1.961   1.326   3.306  0.4582  1.4346 -1.3727
 8563SOL     OW37321   4.546   0.897  14.777 -0.6384 -0.3380 -0.0609
 8563SOL    HW137322   4.606   0.964  14.745 -1.8341 -0.2788 -2.2087
 8563SOL    HW237323   4.599   0.840  14.832 -0.3967 -0.4469 -0.4079
 8564SOL     OW37324   2.243   3.617   0.320 -0.5386  0.1976 -0.4236
 8564SOL    HW137325   2.254   3.555   0.248 -2.1309 -1.9087  1.1210
 8564SOL    HW237326   2.328   3.659   0.335 -0.7440  1.0903 -1.7277
 8565SOL     OW37327   3.038   4.238   8.457  0.3301 -0.0098  0.1614
 8565SOL    HW137328   3.027   4.326   8.421  0.2496 -1.5399 -3.5029
 8565SOL    HW237329   2.982   4.246   8.534  0.0100  0.2301 -0.0983
 8566SOL     OW37330   1.869   3.457  17.362  0.0459 -0.3662 -0.1518
 8566SOL    HW137331   1.808   3.383  17.359 -0.1931 -0.1341 -0.9618
 8566SOL    HW237332   1.828   3.508  17.292  1.0916  1.2091  0.4071
 8567SOL     OW37333   1.260   3.535  11.838  0.6400 -0.2844  0.0130
 8567SOL    HW137334   1.325   3.573  11.780  1.3200  1.1623  1.7319
 8567SOL    HW237335   1.212   3.618  11.848 -1.2452 -1.2425 -0.9717
 8568SOL     OW37336   4.284   3.035   7.820 -0.7037 -0.4977 -0.2643
 8568SOL    HW137337   4.378   3.033   7.837 -0.4781  0.9460 -1.3896
 8568SOL    HW237338   4.257   3.106   7.878 -1.2672 -0.8561 -0.0854
 8569SOL     OW37339   3.286   3.687   3.788  0.2028 -0.7246 -0.4993
 8569SOL    HW137340   3.320   3.755   3.845 -3.5131 -0.0412  0.8977
 8569SOL    HW237341   3.361   3.628   3.788  0.5445 -0.2841 -0.0673
 8570SOL     OW37342   3.787   3.131   5.845  0.0745 -0.1370 -0.0926
 8570SOL    HW137343   3.723   3.200   5.829  1.5026  0.4096 -3.4042
 8570SOL    HW237344   3.843   3.180   5.905  0.2108  0.7619 -0.9490
 8571SOL     OW37345   1.864   0.010  17.154 -0.1822 -0.3235 -0.2757
 8571SOL    HW137346   1.886   0.102  17.168 -0.6673  0.0018 -1.6045
 8571SOL    HW237347   1.863   4.720  17.245  2.4397  2.5595  0.6113
 8572SOL     OW37348   2.619   4.345   6.386 -0.0221  0.1867  0.2229
 8572SOL    HW137349   2.638   4.318   6.476 -0.2001 -0.7832 -0.0261
 8572SOL    HW237350   2.663   4.279   6.333 -3.9074 -1.4885 -0.9066
 8573SOL     OW37351   3.004   2.109   2.437  0.0398  0.6321 -0.0836
 8573SOL    HW137352   2.920   2.072   2.461 -0.6779  1.7497 -0.8715
 8573SOL    HW237353   3.068   2.040   2.455 -0.9255 -0.5886 -1.3432
 8574SOL     OW37354   4.102   3.061   8.335  0.2417  0.3700  0.4440
 8574SOL    HW137355   4.127   3.109   8.414 -1.1708 -0.3642  1.3420
 8574SOL    HW237356   4.160   3.100   8.270 -0.5139  1.7123  0.5788
 8575SOL     OW37357   0.895   2.859   9.469 -0.2827 -0.4398 -0.3359
 8575SOL    HW137358   0.856   2.817   9.392 -2.0782 -0.7178  0.7174
 8575SOL    HW237359   0.819   2.904   9.506  1.1722  2.7514 -1.2267
 8576SOL     OW37360   0.730   2.652   4.717  0.5216  0.2972 -0.3372
 8576SOL    HW137361   0.710   2.714   4.647 -3.0692 -0.7715 -0.2721
 8576SOL    HW237362   0.727   2.707   4.795 -0.3273  1.6924 -1.3353
 8577SOL     OW37363   1.591   2.907  10.050 -0.1913 -0.3778 -0.1862
 8577SOL    HW137364   1.509   2.956  10.046  0.2637  0.2165 -2.0016
 8577SOL    HW237365   1.564   2.819  10.074 -0.6516 -1.3476 -4.2762
 8578SOL     OW37366   4.265   3.766  17.453 -0.0737 -0.5953 -0.3896
 8578SOL    HW137367   4.339   3.751  17.512  0.1982  1.7727 -0.1521
 8578SOL    HW237368   4.222   3.836  17.501  2.1972 -0.0068  0.7877
 8579SOL     OW37369   0.062   2.416   4.929  0.2840  0.1009 -0.3051
 8579SOL    HW137370   4.711   2.380   4.929 -0.0096  0.8657  2.7640
 8579SOL    HW237371   0.118   2.354   4.975  1.3771 -0.0207 -1.8027
 8580SOL     OW37372   3.771   0.467  16.775  0.1728  0.2121 -0.1316
 8580SOL    HW137373   3.709   0.401  16.805 -1.0169  1.1946 -0.4104
 8580SOL    HW237374   3.727   0.549  16.798 -1.1755 -0.6586  0.3862
 8581SOL     OW37375   3.136   3.437   7.327 -0.0400 -0.2763  0.3183
 8581SOL    HW137376   3.087   3.518   7.340  0.5664  0.6251 -2.8861
 8581SOL    HW237377   3.178   3.454   7.242 -2.1019  0.0432 -0.6443
 8582SOL     OW37378   2.616   1.189   9.365  0.5142 -0.0721  0.8486
 8582SOL    HW137379   2.592   1.181   9.458 -0.3924  1.3120  0.7357
 8582SOL    HW237380   2.689   1.127   9.363  1.4659  1.1045 -0.5448
 8583SOL     OW37381   2.206   2.886   0.370  0.8110 -0.1597 -0.6072
 8583SOL    HW137382   2.164   2.803   0.344 -0.1164 -0.3289  1.4401
 8583SOL    HW237383   2.297   2.858   0.358  0.8583 -0.2216 -0.0735
 8584SOL     OW37384   2.879   3.194   5.842 -0.0456  0.0340 -0.0332
 8584SOL    HW137385   2.824   3.123   5.810 -0.6841  0.7718 -0.5590
 8584SOL    HW237386   2.912   3.223   5.757 -0.4588 -0.5758 -0.3974
 8585SOL     OW37387   2.710   1.797   9.167 -0.0445  0.6454 -0.0267
 8585SOL    HW137388   2.771   1.759   9.230 -0.3300  1.8626  0.9906
 8585SOL    HW237389   2.764   1.870   9.137  1.0224 -0.7133 -1.4055
 8586SOL     OW37390   4.201   0.435   4.242 -0.3953 -0.2539 -0.1353
 8586SOL    HW137391   4.278   0.445   4.185 -0.7506 -0.9829 -0.7306
 8586SOL    HW237392   4.187   0.518   4.288 -2.6830  0.7758 -2.6884
 8587SOL     OW37393   4.335   1.220   6.720  0.1918 -0.6468 -0.8793
 8587SOL    HW137394   4.328   1.291   6.656 -0.2445  0.8601  0.8619
 8587SOL    HW237395   4.348   1.139   6.670 -1.2888 -0.9060 -0.8369
 8588SOL     OW37396   2.626   4.329   7.160  0.0407 -0.3994 -0.2642
 8588SOL    HW137397   2.689   4.343   7.231 -0.5668  0.0615  0.1829
 8588SOL    HW237398   2.550   4.375   7.195 -1.2739 -2.7706 -0.0159
 8589SOL     OW37399   2.305   0.835   6.640 -0.2588 -0.2587 -0.1251
 8589SOL    HW137400   2.338   0.846   6.729 -0.5218 -1.9620  0.1907
 8589SOL    HW237401   2.386   0.821   6.591  0.6921 -0.0065  1.3742
 8590SOL     OW37402   2.358   2.847   2.254  0.9033  0.2721 -0.3274
 8590SOL    HW137403   2.268   2.876   2.269  1.4421  1.7660 -0.0458
 8590SOL    HW237404   2.398   2.864   2.339  0.4281  0.4061 -0.1321
 8591SOL     OW37405   3.773   0.196   5.423  0.0133  0.2516  0.6516
 8591SOL    HW137406   3.722   0.115   5.429 -0.2601  0.5065  1.7904
 8591SOL    HW237407   3.863   0.165   5.436  0.5648  1.7470  0.3485
 8592SOL     OW37408   0.219   2.553   6.039  0.3942  0.0967  0.1816
 8592SOL    HW137409   0.289   2.491   6.059  1.0369  0.0614 -2.2071
 8592SOL    HW237410   0.137   2.505   6.025 -0.2569  0.5584  2.4992
 8593SOL     OW37411   3.437   4.319   9.225 -0.6124 -0.2333  0.2354
 8593SOL    HW137412   3.387   4.272   9.158 -0.3900 -2.5564  1.6911
 8593SOL    HW237413   3.370   4.323   9.293 -2.7363 -0.0650 -1.8849
 8594SOL     OW37414   0.727   0.166  10.641  0.1545 -0.3988 -0.6416
 8594SOL    HW137415   0.632   0.160  10.635  0.3751 -2.7772 -1.7464
 8594SOL    HW237416   0.737   0.261  10.641 -0.2136 -0.3522  1.3655
 8595SOL     OW37417   2.056   4.086   5.432  0.8165  0.2059 -0.1286
 8595SOL    HW137418   1.989   4.085   5.364  0.9841  0.2829 -0.2937
 8595SOL    HW237419   2.070   4.181   5.434  2.9363 -0.0333 -3.5178
 8596SOL     OW37420   4.677   0.798   8.599 -0.6268  0.0515  0.0969
 8596SOL    HW137421   4.659   0.832   8.686 -0.4081  0.6284 -0.0808
 8596SOL    HW237422   4.590   0.802   8.559 -0.0491 -2.3105 -1.3743
 8597SOL     OW37423   0.841   0.727   7.031  0.0049 -0.1254 -0.1339
 8597SOL    HW137424   0.813   0.658   7.091  0.5061  1.5303  2.0209
 8597SOL    HW237425   0.791   0.802   7.064  0.7534  0.1169  0.4444
 8598SOL     OW37426   4.701   3.262   6.103 -0.4610 -0.1024 -0.1153
 8598SOL    HW137427   4.643   3.312   6.046 -0.3686  0.1084 -0.0244
 8598SOL    HW237428   4.662   3.175   6.112 -0.9266 -0.2071 -3.2149
 8599SOL     OW37429   0.742   2.439  13.270 -0.5415  0.2483  0.1540
 8599SOL    HW137430   0.655   2.442  13.310  0.4188  0.2109  2.2345
 8599SOL    HW237431   0.726   2.363  13.214  0.7047 -2.4752  3.4777
 8600SOL     OW37432   2.391   1.009   2.768  0.1199 -0.5233  0.3974
 8600SOL    HW137433   2.423   1.054   2.846  2.5074 -0.0108 -0.8819
 8600SOL    HW237434   2.303   1.044   2.757  0.3089 -0.1972 -0.0880
 8601SOL     OW37435   3.145   1.663   0.796  0.3138  0.2890  0.0107
 8601SOL    HW137436   3.088   1.587   0.784  0.2850  0.4567 -0.8531
 8601SOL    HW237437   3.200   1.643   0.872  0.3801  1.9686  0.3975
 8602SOL     OW37438   2.926   3.705   9.252  0.2565  0.1120  0.3094
 8602SOL    HW137439   2.943   3.637   9.187  1.7736 -0.5254  1.3740
 8602SOL    HW237440   3.012   3.747   9.253  0.4237 -0.2296  0.1220
 8603SOL     OW37441   1.084   0.731   7.275 -0.2156  0.1984 -0.4343
 8603SOL    HW137442   1.145   0.658   7.259 -1.2656 -0.9912  0.9850
 8603SOL    HW237443   1.083   0.778   7.192 -0.7434  2.4486  0.8544
 8604SOL     OW37444   1.806   2.335   4.823 -0.3795 -0.2183  0.5886
 8604SOL    HW137445   1.898   2.329   4.848 -0.5522  1.4908  1.6538
 8604SOL    HW237446   1.771   2.328   4.912 -1.5936 -1.2158  0.0256
 8605SOL     OW37447   3.201   3.627  14.593  0.2772 -0.6832  0.6770
 8605SOL    HW137448   3.202   3.721  14.609  0.7086 -0.3991 -0.9915
 8605SOL    HW237449   3.209   3.633  14.498 -2.2763  0.8305  0.5727
 8606SOL     OW37450   0.578   4.174   2.606 -0.3645  0.1690  0.1913
 8606SOL    HW137451   0.541   4.261   2.621  0.0961  0.5198 -0.6608
 8606SOL    HW237452   0.664   4.194   2.569 -1.8084  1.0377 -2.6777
 8607SOL     OW37453   1.572   0.511  11.298  0.6984  0.2489  0.4199
 8607SOL    HW137454   1.486   0.485  11.265 -0.3334 -0.3206  3.5422
 8607SOL    HW237455   1.626   0.441  11.261  1.4315  1.5674 -1.0163
 8608SOL     OW37456   2.030   0.157   5.875 -0.1143  0.2505 -0.2466
 8608SOL    HW137457   1.960   0.135   5.937  2.6938 -3.0729  1.7313
 8608SOL    HW237458   1.984   0.149   5.791 -1.6963 -1.0445  0.7482
 8609SOL     OW37459   4.062   3.794  12.942  0.6121  0.0222  0.3276
 8609SOL    HW137460   4.066   3.703  12.972 -2.9091  0.2594  1.4805
 8609SOL    HW237461   4.042   3.843  13.022  1.0754  0.0476  0.4293
 8610SOL     OW37462   2.534   3.542   0.046 -0.1150 -0.3151  0.0761
 8610SOL    HW137463   2.578   3.488  17.729 -1.2575 -2.4031  1.0170
 8610SOL    HW237464   2.562   3.625   0.008  1.4023 -0.5632  0.6273
 8611SOL     OW37465   0.063   3.121  15.601  0.1741 -0.1950 -0.1428
 8611SOL    HW137466   0.036   3.046  15.654 -0.1470  0.4170  0.5425
 8611SOL    HW237467   4.727   3.180  15.614  0.3041 -0.3226  1.1234
 8612SOL     OW37468   1.773   2.343  15.331  0.2375 -0.5012  0.4061
 8612SOL    HW137469   1.685   2.337  15.368  1.0280  0.1236  2.4087
 8612SOL    HW237470   1.772   2.439  15.332 -2.3680 -0.5099 -0.4228
 8613SOL     OW37471   3.305   4.198  11.253  0.9642 -0.1221 -0.0853
 8613SOL    HW137472   3.301   4.273  11.314  2.1857  1.2697 -1.7161
 8613SOL    HW237473   3.296   4.124  11.313 -1.8407 -1.2089 -1.8704
 8614SOL     OW37474   4.638   3.612  13.469 -0.0250 -0.0326  0.2363
 8614SOL    HW137475   4.617   3.703  13.489 -0.7379  0.3319 -2.1836
 8614SOL    HW237476   4.725   3.594  13.505 -0.8886 -0.5063  2.0823
 8615SOL     OW37477   3.346   1.864   9.970 -1.1090 -0.3111  0.1105
 8615SOL    HW137478   3.398   1.843  10.048 -0.3725 -0.4132 -0.4049
 8615SOL    HW237479   3.283   1.925  10.008 -0.8674 -0.3171  0.5172
 8616SOL     OW37480   2.110   2.057  12.942  0.0868  0.0396  0.3802
 8616SOL    HW137481   2.165   2.125  12.982  2.1250 -0.9980 -0.6559
 8616SOL    HW237482   2.143   1.981  12.990  3.6686  1.0144 -0.5699
 8617SOL     OW37483   0.129   2.230   8.332  0.1489  0.1830  0.6538
 8617SOL    HW137484   0.118   2.135   8.322 -1.7868  0.3724  0.9062
 8617SOL    HW237485   0.129   2.258   8.241  2.3114  2.0524  1.2319
 8618SOL     OW37486   2.703   4.216  13.764  0.7446  0.0909  0.0294
 8618SOL    HW137487   2.797   4.221  13.781  0.9172 -0.2409 -0.8480
 8618SOL    HW237488   2.709   4.243  13.672  0.2398  1.7782  0.4934
 8619SOL     OW37489   3.657   4.683   1.978 -0.2452 -0.2643  0.6394
 8619SOL    HW137490   3.571   4.683   2.020 -0.9225  0.5998 -0.7635
 8619SOL    HW237491   3.670   4.589   1.970  0.6463 -0.0329 -0.6667
 8620SOL     OW37492   3.131   2.639   0.572  0.7028 -0.4456 -0.3312
 8620SOL    HW137493   3.053   2.583   0.575 -0.6722  1.5724  1.5047
 8620SOL    HW237494   3.113   2.693   0.495  0.2378 -0.7853 -0.4597
 8621SOL     OW37495   0.894   3.817  12.903  0.3193  0.4663 -0.1649
 8621SOL    HW137496   0.891   3.767  12.984  0.2125 -0.1075 -0.5214
 8621SOL    HW237497   0.979   3.791  12.868  0.0526  0.0110 -0.4774
 8622SOL     OW37498   0.189   0.807  15.759 -0.6575 -0.8744 -0.7444
 8622SOL    HW137499   0.179   0.788  15.852 -1.5387  1.6517 -0.3252
 8622SOL    HW237500   0.249   0.881  15.761 -1.3407 -0.3802  1.1123
 8623SOL     OW37501   3.109   3.768   2.141  0.1158 -0.4736  0.3249
 8623SOL    HW137502   3.189   3.783   2.192 -0.9138  2.6957  1.0087
 8623SOL    HW237503   3.122   3.815   2.058  0.2058  1.9592  1.7190
 8624SOL     OW37504   4.729   2.924   6.727  0.4091 -0.2362 -0.5607
 8624SOL    HW137505   4.707   3.007   6.685  1.3960 -0.2199 -1.0588
 8624SOL    HW237506   4.710   2.956   6.815 -0.8355 -0.3627 -0.7868
 8625SOL     OW37507   2.859   4.266   8.657 -0.4306 -0.3474  0.5865
 8625SOL    HW137508   2.793   4.249   8.590  0.5019 -0.6635 -0.2503
 8625SOL    HW237509   2.812   4.293   8.735 -0.9951  2.1207 -0.5875
 8626SOL     OW37510   2.300   4.490  14.219 -0.5956  0.2191 -0.0290
 8626SOL    HW137511   2.310   4.450  14.133  0.2109  0.9017 -0.2432
 8626SOL    HW237512   2.258   4.571  14.191 -2.6005 -0.9504 -0.4116
 8627SOL     OW37513   1.549   2.858   7.686  0.2861 -0.4295 -0.1303
 8627SOL    HW137514   1.616   2.874   7.754  0.5206  0.3832 -0.5494
 8627SOL    HW237515   1.555   2.763   7.693  0.5914 -0.4964 -1.3638
 8628SOL     OW37516   0.214   4.584   6.113 -0.3960  0.7324  0.0181
 8628SOL    HW137517   0.187   4.513   6.172  0.6413 -0.5133 -1.0265
 8628SOL    HW237518   0.166   4.662   6.139 -1.3747  0.5086 -1.1243
 8629SOL     OW37519   3.739   4.139   7.900  0.3301 -0.0800  0.2586
 8629SOL    HW137520   3.834   4.148   7.890  0.2746 -0.1263 -0.3159
 8629SOL    HW237521   3.726   4.232   7.920 -0.3260 -0.1051 -0.0675
 8630SOL     OW37522   4.317   0.213  12.796  0.2979  0.4398  0.9511
 8630SOL    HW137523   4.396   0.177  12.835  1.8550 -0.3708 -2.9918
 8630SOL    HW237524   4.353   0.282  12.740  1.9521 -0.9484  0.3219
 8631SOL     OW37525   2.715   1.705  14.582 -0.2074  0.3634  0.1752
 8631SOL    HW137526   2.652   1.665  14.642  0.1285 -0.4808 -0.0261
 8631SOL    HW237527   2.675   1.786  14.552 -0.0246  1.4660  2.9105
 8632SOL     OW37528   1.243   2.137  17.201 -0.1711  0.4447  0.7505
 8632SOL    HW137529   1.265   2.107  17.113 -1.6644  1.1475  0.1497
 8632SOL    HW237530   1.235   2.232  17.188 -0.3430  0.7189  2.8328
 8633SOL     OW37531   4.238   3.961  13.931  0.2583  0.1294 -0.9543
 8633SOL    HW137532   4.248   3.873  13.895 -2.2719 -0.0155 -1.3502
 8633SOL    HW237533   4.250   4.006  13.847  1.1576 -1.0044 -1.4246
 8634SOL     OW37534   2.387   0.035   6.559 -0.5213 -0.1702 -0.8514
 8634SOL    HW137535   2.376   0.053   6.466 -0.1573  0.8973 -0.6839
 8634SOL    HW237536   2.410   0.120   6.596 -0.4784 -1.3337  1.8532
 8635SOL     OW37537   0.320   4.621   8.642 -0.4610  0.0960  0.1692
 8635SOL    HW137538   0.346   4.538   8.682 -1.0261  0.0192  0.3860
 8635SOL    HW237539   0.235   4.582   8.619  0.6224 -1.4076 -1.2263
 8636SOL     OW37540   3.682   1.169  17.743  0.3782 -0.2811 -0.1966
 8636SOL    HW137541   3.762   1.116   0.000  0.6974  0.6464  3.4113
 8636SOL    HW237542   3.660   1.147  17.652  0.8004 -1.7796  0.0640
 8637SOL     OW37543   1.863   0.392   9.368  0.0856 -0.1886 -0.3771
 8637SOL    HW137544   1.805   0.368   9.296  0.2995  0.4628 -0.7640
 8637SOL    HW237545   1.794   0.384   9.434 -0.0767 -2.6019 -0.8377
 8638SOL     OW37546   1.784   0.705  12.835  0.4725 -0.0256  0.3668
 8638SOL    HW137547   1.711   0.664  12.788  0.6985 -2.5038  2.1749
 8638SOL    HW237548   1.859   0.648  12.822  0.9200  0.9252 -1.2950
 8639SOL     OW37549   1.349   1.283   7.890  0.4656 -0.1014 -0.3542
 8639SOL    HW137550   1.352   1.244   7.803  1.9572 -2.1577  0.6073
 8639SOL    HW237551   1.258   1.299   7.912  0.1254 -0.9557 -1.1491
 8640SOL     OW37552   3.318   2.303   4.043 -0.1497  0.0909 -0.1697
 8640SOL    HW137553   3.377   2.228   4.048  0.2280  0.4573  0.8796
 8640SOL    HW237554   3.372   2.359   3.988 -1.4737  1.5559  0.0167
 8641SOL     OW37555   2.946   3.903   1.228 -0.2601  0.1458 -0.6711
 8641SOL    HW137556   2.977   3.994   1.223  1.4702 -0.4096  0.0389
 8641SOL    HW237557   3.035   3.871   1.217 -0.7714 -2.8107  3.8966
 8642SOL     OW37558   4.083   2.144   4.719  0.2211 -0.2600  0.0177
 8642SOL    HW137559   4.143   2.218   4.710 -0.7438  0.5890  0.5767
 8642SOL    HW237560   4.138   2.069   4.693  0.5885  0.6784 -1.9485
 8643SOL     OW37561   2.940   2.752   4.195 -0.0068 -0.3809 -0.4636
 8643SOL    HW137562   2.906   2.663   4.201  1.0656 -0.9362 -2.7562
 8643SOL    HW237563   2.966   2.771   4.285  1.8459  2.1028 -1.5219
 8644SOL     OW37564   2.947   3.153   8.631  0.2012  0.1723 -0.1458
 8644SOL    HW137565   3.013   3.087   8.609  1.8810  1.4567  1.0355
 8644SOL    HW237566   2.896   3.108   8.698  0.5953 -1.6205 -1.0540
 8645SOL     OW37567   0.697   0.574   2.838 -0.1880  0.8335 -0.3352
 8645SOL    HW137568   0.606   0.546   2.834 -0.0556  0.3481  0.0739
 8645SOL    HW237569   0.731   0.508   2.777 -3.6295  1.5615 -3.0312
 8646SOL     OW37570   3.036   3.279  12.686  0.1657  0.1271 -0.4742
 8646SOL    HW137571   3.104   3.344  12.705 -1.2162  1.0898  1.1354
 8646SOL    HW237572   3.066   3.210  12.745 -4.1669 -1.7516 -0.4943
 8647SOL     OW37573   0.453   2.152  16.431 -0.2170 -0.0064  0.3517
 8647SOL    HW137574   0.452   2.077  16.490  1.8710 -0.0914  0.3049
 8647SOL    HW237575   0.378   2.200  16.466 -0.1343  0.5050 -0.1671
 8648SOL     OW37576   1.524   2.290   9.817 -0.2673 -0.0581 -0.0497
 8648SOL    HW137577   1.577   2.241   9.879 -1.5955 -0.9282  0.4098
 8648SOL    HW237578   1.470   2.340   9.879 -1.7552 -0.5912 -0.9199
 8649SOL     OW37579   0.238   3.942  11.190 -0.5156  0.0041  0.0548
 8649SOL    HW137580   0.169   3.884  11.220  1.3760 -2.5223 -0.5018
 8649SOL    HW237581   0.185   4.022  11.187  1.0474  1.0808  0.8657
 8650SOL     OW37582   2.767   4.608   3.033 -0.2816 -0.4092  0.1957
 8650SOL    HW137583   2.834   4.543   3.055  1.5314  0.9190 -1.4662
 8650SOL    HW237584   2.727   4.554   2.965 -0.6957  0.8118 -0.5177
 8651SOL     OW37585   1.303   0.375  13.759 -0.2321  0.7363  0.0771
 8651SOL    HW137586   1.272   0.324  13.684  0.0719 -1.6660  1.6005
 8651SOL    HW237587   1.383   0.415  13.725 -0.2879  1.5696  0.9116
 8652SOL     OW37588   2.060   2.564   5.930 -0.6981  0.6437 -0.2484
 8652SOL    HW137589   2.037   2.650   5.896 -0.8626  0.8308  0.3399
 8652SOL    HW237590   2.147   2.574   5.968 -1.4355 -0.8270  1.8030
 8653SOL     OW37591   3.851   0.343   5.966  0.1700 -0.0875  0.2869
 8653SOL    HW137592   3.804   0.324   5.884  0.6944 -0.0259 -0.0243
 8653SOL    HW237593   3.858   0.438   5.975  2.3468 -0.3134  0.7958
 8654SOL     OW37594   4.235   3.193   8.590 -0.3206 -0.3477 -0.6745
 8654SOL    HW137595   4.312   3.250   8.590  2.1283 -3.6240 -1.0917
 8654SOL    HW237596   4.250   3.138   8.667  0.3390  0.8649  0.0760
 8655SOL     OW37597   2.148   0.195   4.960  0.4873  1.0241 -0.2404
 8655SOL    HW137598   2.183   0.284   4.949  1.1285  0.9022  0.8042
 8655SOL    HW237599   2.227   0.142   4.956  0.3226  0.7034  1.0506
 8656SOL     OW37600   3.046   2.428   2.040  0.5326  0.5995 -0.0771
 8656SOL    HW137601   3.136   2.398   2.030 -0.0673 -1.3075  0.3621
 8656SOL    HW237602   3.076   2.512   2.075  2.7319  0.0036 -0.5353
 8657SOL     OW37603   1.946   0.188   2.202 -0.2969  0.4246  0.0997
 8657SOL    HW137604   1.983   0.223   2.283  0.5494  0.1053 -0.1460
 8657SOL    HW237605   1.885   0.253   2.169 -0.9962  1.0451  2.6657
 8658SOL     OW37606   0.989   2.174   6.590  0.0944  0.0766 -0.3480
 8658SOL    HW137607   1.008   2.267   6.578  0.7703 -0.1761 -1.2358
 8658SOL    HW237608   1.059   2.154   6.652  0.4459 -1.0789 -1.1093
 8659SOL     OW37609   4.038   2.807  14.688  0.3766 -0.1843  0.5274
 8659SOL    HW137610   4.007   2.863  14.617  0.3685 -0.9291 -0.0568
 8659SOL    HW237611   4.004   2.858  14.762  0.0813 -0.2047  0.4076
 8660SOL     OW37612   2.881   0.956   8.202 -0.3907 -0.4951 -0.1431
 8660SOL    HW137613   2.946   0.897   8.239 -1.9139 -2.2719 -0.3138
 8660SOL    HW237614   2.863   0.897   8.129  0.4069  1.4581 -1.9055
 8661SOL     OW37615   2.121   2.352   6.513 -0.0576  0.0341 -0.0094
 8661SOL    HW137616   2.048   2.413   6.501 -0.5236 -0.4854  0.1964
 8661SOL    HW237617   2.081   2.282   6.461  0.9527 -0.1676 -0.5155
 8662SOL     OW37618   0.109   3.198  14.451 -0.2800  0.0953  0.5528
 8662SOL    HW137619   0.079   3.128  14.510  0.2675  0.5545  1.3674
 8662SOL    HW237620   0.030   3.205  14.397  1.9209  1.2127 -2.4852
 8663SOL     OW37621   1.716   2.168   3.585  0.5176 -0.0309 -0.0774
 8663SOL    HW137622   1.660   2.144   3.659  2.2301 -0.2523  1.1414
 8663SOL    HW237623   1.671   2.128   3.510 -2.8900 -0.0265  1.9468
 8664SOL     OW37624   1.940   2.773   8.879  0.7174  0.2209  0.8346
 8664SOL    HW137625   1.925   2.678   8.878  0.1350  0.3376 -1.0773
 8664SOL    HW237626   2.003   2.774   8.807  1.0387  0.5569  1.1223
 8665SOL     OW37627   3.113   1.369   9.441 -0.5671  0.4137  0.5906
 8665SOL    HW137628   3.054   1.423   9.389  1.4018  0.4307 -1.6428
 8665SOL    HW237629   3.181   1.343   9.379 -2.0459  2.4385 -1.8742
 8666SOL     OW37630   4.634   3.811   3.496  0.0967 -0.3615 -0.4031
 8666SOL    HW137631   4.598   3.893   3.530 -0.1139  0.2465 -2.1189
 8666SOL    HW237632   4.569   3.749   3.529  2.1334 -3.0085 -1.3349
 8667SOL     OW37633   4.398   2.431   6.610 -0.1269 -0.4169  0.8060
 8667SOL    HW137634   4.467   2.393   6.664  1.4371  0.4177 -0.6060
 8667SOL    HW237635   4.353   2.359   6.566  0.8042 -0.6451  0.2447
 8668SOL     OW37636   0.245   1.229   2.588 -1.0244 -0.5284 -0.2976
 8668SOL    HW137637   0.167   1.175   2.575 -1.8090  0.2007  1.3719
 8668SOL    HW237638   0.281   1.186   2.666  2.4195 -0.1581 -1.6832
 8669SOL     OW37639   0.813   4.267   7.657 -0.5504 -0.2617 -0.0341
 8669SOL    HW137640   0.878   4.331   7.628  1.3052 -1.4610  1.4926
 8669SOL    HW237641   0.809   4.272   7.752  0.6472  1.5182 -0.0811
 8670SOL     OW37642   4.064   2.710   3.130 -0.1247 -0.0144  0.5649
 8670SOL    HW137643   4.083   2.689   3.221  1.1354 -0.8234  0.1144
 8670SOL    HW237644   4.023   2.625   3.112 -1.3002  1.0157 -1.6550
 8671SOL     OW37645   3.781   4.130   3.876  0.4139  0.5414 -0.3215
 8671SOL    HW137646   3.685   4.133   3.880  0.4621  1.1407  0.3738
 8671SOL    HW237647   3.811   4.215   3.905  0.8976 -0.3377  1.7129
 8672SOL     OW37648   3.811   4.669   7.625 -0.7325  0.3738  0.3570
 8672SOL    HW137649   3.797   4.579   7.596  0.6334  0.4297 -0.4638
 8672SOL    HW237650   3.862   4.647   7.703 -1.7552 -3.0028  0.1084
 8673SOL     OW37651   3.115   0.074  17.732  0.3839 -0.5836  0.2501
 8673SOL    HW137652   3.210   0.089  17.733  0.3534 -0.4591  0.7612
 8673SOL    HW237653   3.094   0.024   0.061  2.9198 -1.0440  0.6437
 8674SOL     OW37654   1.376   2.469   7.590  0.0833  0.3780 -0.8968
 8674SOL    HW137655   1.305   2.505   7.537 -0.7686  1.3800  0.9751
 8674SOL    HW237656   1.410   2.413   7.520  1.9544 -2.9867  2.7189
 8675SOL     OW37657   1.483   2.707   8.053  0.7364 -0.5034 -0.1263
 8675SOL    HW137658   1.419   2.637   8.068 -1.5883  2.3965  3.3149
 8675SOL    HW237659   1.422   2.776   8.028 -0.2667 -1.2414  0.3176
 8676SOL     OW37660   3.320   3.116   7.649  0.7250  0.0745 -0.1492
 8676SOL    HW137661   3.278   3.195   7.684  1.0558 -0.3396  1.1752
 8676SOL    HW237662   3.344   3.146   7.562 -0.7075 -2.5539 -1.4296
 8677SOL     OW37663   2.970   3.031   0.318  0.9139 -0.1513  0.3391
 8677SOL    HW137664   2.998   3.023   0.227 -1.4234 -3.8391 -0.0823
 8677SOL    HW237665   2.879   3.062   0.310  1.6263  1.6389 -0.6833
 8678SOL     OW37666   2.315   1.154   8.798 -0.2189  0.0986  0.4173
 8678SOL    HW137667   2.258   1.096   8.848 -0.6434  0.2186  0.0774
 8678SOL    HW237668   2.273   1.237   8.820  0.3736  0.8325 -1.1664
 8679SOL     OW37669   2.478   4.674   3.261 -0.3166 -0.0975  0.4226
 8679SOL    HW137670   2.540   4.730   3.309  0.7329  0.4775 -1.5744
 8679SOL    HW237671   2.486   4.582   3.286 -1.1265 -0.9499 -2.5079
 8680SOL     OW37672   0.392   2.224   3.168 -0.5294  0.1426 -0.1490
 8680SOL    HW137673   0.442   2.217   3.087  2.6639  2.3324  1.6333
 8680SOL    HW237674   0.453   2.260   3.233  2.4630 -0.9753 -2.3211
 8681SOL     OW37675   0.317   2.285  10.400 -0.2992  0.6542  0.4304
 8681SOL    HW137676   0.251   2.219  10.422 -0.0576 -0.4522 -2.1811
 8681SOL    HW237677   0.387   2.219  10.397 -0.7984  0.1224  0.4291
 8682SOL     OW37678   3.369   4.233   6.364 -0.7417 -0.0554 -0.0158
 8682SOL    HW137679   3.424   4.308   6.388 -0.9668 -0.0189  0.4004
 8682SOL    HW237680   3.321   4.239   6.447  0.6595 -0.1883  0.8158
 8683SOL     OW37681   2.049   0.087   3.603  0.1831  0.7139  0.3263
 8683SOL    HW137682   2.059   0.117   3.694 -0.2942  2.4556 -0.2016
 8683SOL    HW237683   2.094   0.003   3.597 -0.0994  0.5066  1.0984
 8684SOL     OW37684   2.669   2.146   4.906 -0.3644  0.1704 -0.3834
 8684SOL    HW137685   2.765   2.147   4.905 -0.3209 -0.7570  1.6014
 8684SOL    HW237686   2.646   2.173   4.995 -0.2420 -1.8152  0.2660
 8685SOL     OW37687   4.302   3.993   5.947  0.1566 -0.0039 -0.0330
 8685SOL    HW137688   4.264   3.964   6.030 -0.0259 -2.3366 -0.9284
 8685SOL    HW237689   4.255   4.075   5.932 -1.5556 -1.1398 -0.8708
 8686SOL     OW37690   0.543   0.350  14.724  0.8247  0.0388  0.6701
 8686SOL    HW137691   0.534   0.258  14.700  2.2325 -0.6027  2.5554
 8686SOL    HW237692   0.509   0.341  14.813  1.2701  2.7857  1.1302
 8687SOL     OW37693   0.764   2.937   7.835 -0.1971  0.1800 -0.3137
 8687SOL    HW137694   0.758   3.031   7.817  1.5895 -0.3225 -3.5236
 8687SOL    HW237695   0.847   2.943   7.881  0.2724  1.4179 -1.3057
 8688SOL     OW37696   1.404   2.366  10.076  0.1573  0.1048  0.9966
 8688SOL    HW137697   1.497   2.358  10.098 -0.1773 -2.2614  1.4829
 8688SOL    HW237698   1.381   2.456  10.099  0.4635  0.7183 -1.0433
 8689SOL     OW37699   4.592   3.284  15.624 -0.6237 -0.1456  0.3200
 8689SOL    HW137700   4.577   3.285  15.530  1.1938 -2.0332  0.0122
 8689SOL    HW237701   4.587   3.378  15.640 -1.0121 -0.0083 -0.6552
 8690SOL     OW37702   4.612   4.126   5.542  0.2557  0.7931  0.0322
 8690SOL    HW137703   4.633   4.147   5.633  0.1824 -1.1992  0.5085
 8690SOL    HW237704   4.611   4.218   5.514 -3.6078  1.3816  2.0790
 8691SOL     OW37705   4.416   0.651   9.849  0.3718  0.5384  0.1130
 8691SOL    HW137706   4.505   0.653   9.884  0.3497  1.0912  0.1488
 8691SOL    HW237707   4.412   0.560   9.821  0.6174 -0.6371  4.0434
 8692SOL     OW37708   3.206   3.933   2.670  0.1881  0.3427  0.4605
 8692SOL    HW137709   3.193   4.028   2.677  0.6414  0.4707 -0.4671
 8692SOL    HW237710   3.155   3.906   2.594  0.3296  0.6561  0.2539
 8693SOL     OW37711   1.664   4.592  10.578 -0.2534  0.5517  0.1640
 8693SOL    HW137712   1.725   4.617  10.648 -1.2167  0.9746  0.8636
 8693SOL    HW237713   1.710   4.619  10.499 -0.1537  0.7388  0.2870
 8694SOL     OW37714   3.288   3.081   1.070 -0.0004  0.0334 -0.0877
 8694SOL    HW137715   3.249   3.164   1.097  0.3054  0.3217 -0.5386
 8694SOL    HW237716   3.306   3.090   0.977  0.6842  1.2709  0.1610
 8695SOL     OW37717   1.411   0.904   8.767 -0.0190  0.7379 -0.3649
 8695SOL    HW137718   1.342   0.963   8.796 -0.7417 -0.8970  1.2174
 8695SOL    HW237719   1.411   0.841   8.839 -0.1811  0.7768 -0.3311
 8696SOL     OW37720   3.127   4.193   7.339  0.3065  0.3079 -0.0065
 8696SOL    HW137721   3.057   4.217   7.399  1.0006  1.2086  0.4562
 8696SOL    HW237722   3.107   4.100   7.328 -3.2309  0.7762  2.3808
 8697SOL     OW37723   2.134   2.380   4.605  0.4301 -0.0655 -0.1560
 8697SOL    HW137724   2.124   2.286   4.624  1.5052 -0.0015  0.7316
 8697SOL    HW237725   2.173   2.404   4.689  1.3290  3.8069 -1.7183
 8698SOL     OW37726   1.829   2.798   5.429  0.4828 -0.5743 -0.6447
 8698SOL    HW137727   1.774   2.736   5.382  0.9372 -0.5814 -1.1586
 8698SOL    HW237728   1.787   2.801   5.515  0.7689 -1.1009 -0.4846
 8699SOL     OW37729   2.265   1.040   8.074  0.5568 -1.1758  0.4318
 8699SOL    HW137730   2.240   1.057   8.164  1.2434 -2.3161  0.8324
 8699SOL    HW237731   2.346   1.090   8.068  0.5100 -0.9534  1.7764
 8700SOL     OW37732   2.141   1.580   8.251 -0.0744 -0.0798  0.6178
 8700SOL    HW137733   2.157   1.653   8.311  2.2621 -0.4254  0.4126
 8700SOL    HW237734   2.093   1.522   8.311 -0.6560  0.5028  0.7108
 8701SOL     OW37735   1.110   4.412   2.476 -0.1132 -0.3649  0.3625
 8701SOL    HW137736   1.165   4.334   2.479 -1.4640 -1.3340 -0.3607
 8701SOL    HW237737   1.169   4.480   2.508 -1.5460  0.1189  1.9700
 8702SOL     OW37738   0.528   1.022   4.892  0.3270  0.5574 -0.4269
 8702SOL    HW137739   0.442   1.057   4.917  0.5480  0.6127  0.2554
 8702SOL    HW237740   0.584   1.022   4.969 -1.8098  1.9978  1.1298
 8703SOL     OW37741   3.949   0.599  12.751 -0.0767  0.0178 -0.1658
 8703SOL    HW137742   3.893   0.676  12.760  1.6190  1.4544 -1.9429
 8703SOL    HW237743   3.939   0.583  12.657 -0.4114  0.6147 -0.2323
 8704SOL     OW37744   0.632   3.889   9.516 -0.3473 -0.1722  0.0865
 8704SOL    HW137745   0.639   3.984   9.510  1.4807 -0.2946  0.4202
 8704SOL    HW237746   0.723   3.862   9.508 -0.4202 -0.0657 -1.1759
 8705SOL     OW37747   0.528   4.716  10.154 -0.3064 -0.1050  0.2415
 8705SOL    HW137748   0.461   4.734  10.220  0.1964  0.7094  0.5291
 8705SOL    HW237749   0.492   0.031  10.082 -1.7194  0.8068  1.6124
 8706SOL     OW37750   1.063   1.169  16.536  0.4248  0.0453  0.1132
 8706SOL    HW137751   1.041   1.226  16.610 -0.6156 -1.2169  0.7709
 8706SOL    HW237752   1.068   1.232  16.464 -2.1073 -0.6408 -0.6541
 8707SOL     OW37753   1.685   4.565   4.302  0.1481  0.1073 -0.3445
 8707SOL    HW137754   1.770   4.569   4.259 -0.5586 -1.5901 -1.8886
 8707SOL    HW237755   1.705   4.503   4.371  0.0167  0.8335  0.3520
 8708SOL     OW37756   0.022   3.167   4.992  0.0585  0.0286  0.2620
 8708SOL    HW137757   4.673   3.202   5.015 -0.4274  0.2692 -1.9427
 8708SOL    HW237758   0.081   3.205   5.056 -0.7498 -0.0511  1.0567
 8709SOL     OW37759   0.571   0.712  11.404  0.1345  0.1482  0.1636
 8709SOL    HW137760   0.636   0.760  11.353  1.3111 -0.7241  0.8428
 8709SOL    HW237761   0.523   0.659  11.342 -1.5517 -0.5998  2.1126
 8710SOL     OW37762   2.883   0.447   3.967  0.0470  0.4307  0.2622
 8710SOL    HW137763   2.857   0.535   3.938  0.9951  0.1228 -1.4667
 8710SOL    HW237764   2.838   0.425   4.049  0.2549  2.3908  0.8974
 8711SOL     OW37765   0.937   2.740  13.281  0.0192  0.3938 -0.1983
 8711SOL    HW137766   1.030   2.731  13.302  0.1320  0.8474 -0.5145
 8711SOL    HW237767   0.900   2.710  13.364  2.3395  0.8063  0.9686
 8712SOL     OW37768   2.124   0.238   2.431  0.2520  0.3518 -0.6923
 8712SOL    HW137769   2.197   0.282   2.387  1.8801 -1.1710  0.4655
 8712SOL    HW237770   2.162   0.220   2.517 -0.3715  1.1812 -0.2435
 8713SOL     OW37771   0.402   2.399  16.287  0.3086  0.1596  0.0297
 8713SOL    HW137772   0.405   2.315  16.333 -1.5027 -0.3621 -0.7907
 8713SOL    HW237773   0.318   2.434  16.315  1.2972  0.3005  2.7974
 8714SOL     OW37774   3.222   0.724   5.755 -0.0926  0.4791 -0.3664
 8714SOL    HW137775   3.159   0.670   5.802  1.0007 -0.9180 -0.5292
 8714SOL    HW237776   3.221   0.695   5.664 -1.7144  3.2148 -1.2393
 8715SOL     OW37777   2.183   2.273  14.770 -0.0282 -0.4078  0.7008
 8715SOL    HW137778   2.106   2.319  14.735  0.7005 -2.4422 -3.5106
 8715SOL    HW237779   2.184   2.198  14.711  0.8858  1.5804 -1.8275
 8716SOL     OW37780   3.378   3.214  10.221 -0.3026 -0.6086 -0.1169
 8716SOL    HW137781   3.371   3.236  10.128 -0.6693  0.2172  0.1075
 8716SOL    HW237782   3.310   3.146  10.214 -0.9593  0.2002 -1.6608
 8717SOL     OW37783   2.754   4.458   8.827  0.1865  1.0249 -0.3539
 8717SOL    HW137784   2.688   4.476   8.894  0.5486  0.3227  0.1908
 8717SOL    HW237785   2.712   4.500   8.752  2.4315 -0.4904 -2.4135
 8718SOL     OW37786   1.720   4.204   4.791  0.5620 -0.0362  0.2717
 8718SOL    HW137787   1.671   4.160   4.861  0.2200  0.4684  0.3588
 8718SOL    HW237788   1.706   4.297   4.811  1.8216  0.2954 -0.4495
 8719SOL     OW37789   0.992   3.532   4.852  0.2341  0.0802 -0.5401
 8719SOL    HW137790   0.926   3.482   4.805  0.8068  0.1926 -1.4713
 8719SOL    HW237791   1.074   3.488   4.830 -0.0544 -0.3027 -0.8444
 8720SOL     OW37792   4.479   2.910   6.338 -0.9311  0.1442  0.0867
 8720SOL    HW137793   4.460   2.920   6.431 -1.1038 -1.0443  0.1880
 8720SOL    HW237794   4.466   2.817   6.317 -1.4969 -0.1546  1.8059
 8721SOL     OW37795   4.350   4.341   0.715 -0.0354  0.1361 -0.3278
 8721SOL    HW137796   4.303   4.424   0.706 -0.8832 -0.4313 -1.1143
 8721SOL    HW237797   4.437   4.374   0.692  0.4592 -1.8831 -1.3110
 8722SOL     OW37798   4.218   0.666   3.042 -0.1476  0.0673 -0.2428
 8722SOL    HW137799   4.202   0.634   2.954 -0.0586 -0.0493 -0.2183
 8722SOL    HW237800   4.201   0.759   3.032  1.3855  0.2498 -1.1083
 8723SOL     OW37801   3.577   0.445  11.617  0.1035 -0.2019 -0.3225
 8723SOL    HW137802   3.652   0.408  11.663 -0.7927 -2.0295 -0.3307
 8723SOL    HW237803   3.595   0.539  11.621 -1.0095 -0.0522  1.5081
 8724SOL     OW37804   4.220   2.725   9.893  0.2156 -0.3513 -0.0165
 8724SOL    HW137805   4.236   2.808   9.938 -0.0031 -0.9250  1.1101
 8724SOL    HW237806   4.257   2.745   9.807  1.6982 -1.7060  0.3028
 8725SOL     OW37807   3.666   3.210  10.544 -0.0465 -0.0634  0.3561
 8725SOL    HW137808   3.594   3.273  10.547 -2.3645 -2.6068 -1.7915
 8725SOL    HW237809   3.629   3.153  10.477  0.7014 -1.1726  0.8907
 8726SOL     OW37810   1.539   2.398  16.872  0.0518 -0.1393 -0.5105
 8726SOL    HW137811   1.504   2.325  16.923  3.1102  1.1373  3.3422
 8726SOL    HW237812   1.583   2.446  16.942  1.2629 -0.5491 -0.9938
 8727SOL     OW37813   2.544   2.840  14.443  0.2228 -0.1725 -0.1308
 8727SOL    HW137814   2.494   2.818  14.364 -1.3344 -1.2529  1.1686
 8727SOL    HW237815   2.633   2.859  14.415  0.5262 -0.5830  0.5769
 8728SOL     OW37816   3.588   1.232   2.562 -0.0026  0.1464  0.3256
 8728SOL    HW137817   3.662   1.208   2.507 -0.1046  0.1531  0.1851
 8728SOL    HW237818   3.519   1.203   2.502 -0.1063 -0.3923  0.6999
 8729SOL     OW37819   4.663   3.066   7.374 -0.2710  0.1822  0.1746
 8729SOL    HW137820   4.651   3.028   7.462 -1.3412 -0.0328 -0.0615
 8729SOL    HW237821   4.667   3.159   7.397 -0.2310  1.0681 -3.4213
 8730SOL     OW37822   4.716   3.864   8.006  0.2044  0.2333 -0.2476
 8730SOL    HW137823   4.676   3.912   8.078 -1.2172 -3.2598  1.2756
 8730SOL    HW237824   4.650   3.865   7.936  0.6480  1.8711 -0.6621
 8731SOL     OW37825   2.979   1.599   8.152 -0.4133 -0.5951 -0.1593
 8731SOL    HW137826   2.934   1.616   8.069 -2.3109  0.3873  1.0479
 8731SOL    HW237827   2.908   1.628   8.211  0.6263 -0.2939  0.9448
 8732SOL     OW37828   1.797   1.423   4.942 -0.1204 -0.2039 -0.2855
 8732SOL    HW137829   1.844   1.441   4.860 -2.4540 -1.7208 -1.9388
 8732SOL    HW237830   1.868   1.411   5.005 -0.2606 -0.6958 -0.2188
 8733SOL     OW37831   4.602   1.364   3.151 -0.6666  1.1390 -0.2857
 8733SOL    HW137832   4.564   1.286   3.110  0.1493 -0.6732  2.3850
 8733SOL    HW237833   4.530   1.407   3.196 -1.1761 -1.2198  1.1656
 8734SOL     OW37834   4.460   2.183   2.434  0.2116 -0.4751  0.3295
 8734SOL    HW137835   4.456   2.266   2.388 -0.7877 -0.6065  0.1814
 8734SOL    HW237836   4.385   2.139   2.393  0.2241  1.1585 -1.4136
 8735SOL     OW37837   4.638   0.287   2.105 -0.1289 -0.2315  0.1315
 8735SOL    HW137838   4.667   0.369   2.143 -1.5176  0.5109 -0.4259
 8735SOL    HW237839   4.583   0.239   2.168 -1.0048 -1.0226 -1.2227
 8736SOL     OW37840   0.159   2.257   3.312  0.0980  0.5562 -0.7917
 8736SOL    HW137841   0.171   2.191   3.380 -1.9978 -0.7309 -1.6842
 8736SOL    HW237842   0.238   2.247   3.258 -0.2577 -1.2736 -0.9573
 8737SOL     OW37843   3.385   2.752   6.642  0.1386  0.1327 -0.1397
 8737SOL    HW137844   3.372   2.798   6.725  0.0620 -1.3670  0.6901
 8737SOL    HW237845   3.471   2.782   6.614  0.4073  0.8746  1.4961
 8738SOL     OW37846   3.325   2.880  14.360 -0.2673  0.0170 -0.2889
 8738SOL    HW137847   3.328   2.868  14.265  0.1660  0.9119 -0.3871
 8738SOL    HW237848   3.362   2.967  14.373 -0.7424  0.0552  0.8123
 8739SOL     OW37849   3.430   3.541   9.926  0.1548 -0.4760  0.1446
 8739SOL    HW137850   3.351   3.494   9.951  0.1928 -0.5869  0.0548
 8739SOL    HW237851   3.440   3.598  10.003 -2.8601  0.9399 -0.5040
 8740SOL     OW37852   4.002   1.817  13.325 -0.0716  0.5773  0.0918
 8740SOL    HW137853   3.958   1.902  13.330 -2.8002 -0.7884 -0.9197
 8740SOL    HW237854   4.039   1.796  13.411 -0.9188  0.6418  0.4814
 8741SOL     OW37855   3.667   4.245   8.304  0.3415 -0.0429 -0.0421
 8741SOL    HW137856   3.727   4.225   8.376  1.3369 -0.2115 -0.8966
 8741SOL    HW237857   3.597   4.183   8.325  1.5574 -0.9957  1.2223
 8742SOL     OW37858   3.083   3.960   8.012  0.0691 -0.2641 -0.2738
 8742SOL    HW137859   3.168   4.001   8.028 -0.7070  0.7052  1.3777
 8742SOL    HW237860   3.029   4.023   8.060  0.2470  0.5296 -1.1276
 8743SOL     OW37861   2.970   1.057   4.770 -0.5096 -0.6746 -0.0683
 8743SOL    HW137862   2.972   1.026   4.861 -0.5906 -0.0086  0.1594
 8743SOL    HW237863   3.052   1.107   4.770  0.3721 -2.1158  0.4009
 8744SOL     OW37864   1.553   2.212   6.893 -0.2112 -0.0637 -0.1149
 8744SOL    HW137865   1.499   2.172   6.961  0.7886  1.5904  1.6766
 8744SOL    HW237866   1.601   2.274   6.948 -1.0269  0.6315 -0.1912
 8745SOL     OW37867   0.423   0.492   3.407  0.1897  0.4823 -0.6398
 8745SOL    HW137868   0.491   0.430   3.434 -0.4311  0.8490  1.7245
 8745SOL    HW237869   0.360   0.444   3.352  1.1768  0.5913 -1.8674
 8746SOL     OW37870   2.318   2.109  10.470 -0.5657 -0.0399  0.6220
 8746SOL    HW137871   2.313   2.019  10.501 -0.6966 -0.6254 -1.0699
 8746SOL    HW237872   2.264   2.105  10.391  1.9534 -0.9200 -1.0420
 8747SOL     OW37873   2.970   1.850   0.276 -0.3047  0.5932 -0.4405
 8747SOL    HW137874   2.989   1.832   0.369  1.2770  1.6753 -0.5488
 8747SOL    HW237875   2.979   1.767   0.229  0.8929  0.3744  0.1818
 8748SOL     OW37876   2.287   2.282  13.109 -0.8280  0.0444  0.2762
 8748SOL    HW137877   2.318   2.348  13.172  0.3679 -0.0800 -0.1719
 8748SOL    HW237878   2.297   2.331  13.027  0.4249  0.2391  0.5439
 8749SOL     OW37879   3.843   1.707   4.089 -0.3453  0.2756  0.1079
 8749SOL    HW137880   3.863   1.623   4.131  2.3576  0.9642  0.1684
 8749SOL    HW237881   3.856   1.771   4.159 -0.1466  1.9015 -1.4115
 8750SOL     OW37882   4.113   0.386  14.439  0.4434  0.4884  0.0115
 8750SOL    HW137883   4.071   0.470  14.455 -0.2099  0.6529 -2.6744
 8750SOL    HW237884   4.163   0.388  14.521 -0.9506  1.0129  0.8472
 8751SOL     OW37885   1.049   3.046   2.346 -0.6249  0.3112 -0.1494
 8751SOL    HW137886   1.030   2.955   2.369 -1.5976  0.7048  0.5889
 8751SOL    HW237887   1.132   3.057   2.392 -0.0524  0.8021 -1.2943
 8752SOL     OW37888   2.342   1.033   1.805 -0.0184  0.2369  0.1144
 8752SOL    HW137889   2.341   0.938   1.790 -2.0693  0.0809  1.1786
 8752SOL    HW237890   2.300   1.066   1.725 -0.4758  0.2565  0.3613
 8753SOL     OW37891   1.591   2.517   6.276  0.1965  0.1844  0.8496
 8753SOL    HW137892   1.585   2.438   6.330 -1.9401 -0.9907 -1.1301
 8753SOL    HW237893   1.678   2.510   6.237 -0.1245  0.1898  0.1298
 8754SOL     OW37894   3.447   1.108   5.376  0.3903  0.1752  0.4769
 8754SOL    HW137895   3.460   1.014   5.364 -1.5790 -0.1422  0.8392
 8754SOL    HW237896   3.428   1.112   5.470 -0.5889  0.9096  0.2391
 8755SOL     OW37897   2.053   0.186   6.533 -0.1517 -0.3046  0.2759
 8755SOL    HW137898   2.113   0.139   6.591  1.0544  1.8731  0.8056
 8755SOL    HW237899   1.979   0.200   6.593 -0.5193 -0.1645 -0.2086
 8756SOL     OW37900   3.832   4.641   3.353 -0.5167  0.3225  0.0193
 8756SOL    HW137901   3.899   4.629   3.286  1.1489  3.6022  1.0840
 8756SOL    HW237902   3.775   4.565   3.341 -2.7676  1.8067  1.2792
 8757SOL     OW37903   2.753   2.290   6.274 -0.0724 -0.0173  0.1163
 8757SOL    HW137904   2.840   2.252   6.266  0.2373  1.3111 -2.9242
 8757SOL    HW237905   2.710   2.243   6.202  0.2950  0.8918 -0.7025
 8758SOL     OW37906   2.196   2.594   8.294 -0.0849  0.7176 -0.2359
 8758SOL    HW137907   2.241   2.655   8.352 -0.7387  1.7460 -0.7960
 8758SOL    HW237908   2.158   2.538   8.362  0.2709  0.3242 -0.3584
 8759SOL     OW37909   0.014   4.004   8.321 -0.2182  0.0075  0.1872
 8759SOL    HW137910   4.676   3.993   8.379  0.2056  0.9204  0.8971
 8759SOL    HW237911   0.085   3.991   8.384 -0.8925 -0.6801  0.8105
 8760SOL     OW37912   3.805   2.562   3.380 -0.1589  0.4295 -0.0756
 8760SOL    HW137913   3.895   2.533   3.367  0.2986  1.1794  1.3704
 8760SOL    HW237914   3.822   2.655   3.398  0.6484  0.0409  1.1792
 8761SOL     OW37915   0.250   3.314   4.488 -0.6809  0.6765 -0.4447
 8761SOL    HW137916   0.259   3.252   4.560 -1.6299  0.4356 -0.5374
 8761SOL    HW237917   0.338   3.314   4.450 -0.6242  2.7494 -0.3215
 8762SOL     OW37918   2.866   2.005   7.299  0.3721  0.0451 -0.4381
 8762SOL    HW137919   2.835   2.095   7.282  0.8907  0.2704 -0.1820
 8762SOL    HW237920   2.821   1.978   7.379  1.4652  0.1267  0.2000
 8763SOL     OW37921   0.730   2.559   7.217  0.1481 -0.1485  0.3057
 8763SOL    HW137922   0.716   2.628   7.152 -1.0625  2.4404  3.2598
 8763SOL    HW237923   0.813   2.521   7.190 -0.6356 -0.9712 -0.9283
 8764SOL     OW37924   4.452   0.464   4.177 -0.5280  0.2270 -0.2511
 8764SOL    HW137925   4.533   0.413   4.174 -2.3219 -2.5696 -1.2005
 8764SOL    HW237926   4.464   0.470   4.271 -0.9462 -0.3760 -0.1610
 8765SOL     OW37927   3.972   2.470   3.677  0.3056  0.0745 -0.5954
 8765SOL    HW137928   3.885   2.506   3.691 -0.1117 -1.3372  0.4719
 8765SOL    HW237929   3.968   2.397   3.739  0.7117 -3.1065 -4.2401
 8766SOL     OW37930   1.997   4.578   9.020 -0.5057  0.8425 -0.0149
 8766SOL    HW137931   1.911   4.535   9.020  0.5464 -1.2467  2.4037
 8766SOL    HW237932   1.981   4.652   9.079 -1.9303  0.7490 -0.2887
 8767SOL     OW37933   0.305   3.011   8.415  0.1527 -0.2387 -0.4446
 8767SOL    HW137934   0.326   2.960   8.493  0.3221  0.9071  0.2650
 8767SOL    HW237935   0.211   3.022   8.429  0.8366  5.1504  0.0081
 8768SOL     OW37936   2.068   1.305  10.741  0.1076 -0.5262  0.1103
 8768SOL    HW137937   2.135   1.360  10.701  1.3438 -0.2085  2.6289
 8768SOL    HW237938   2.024   1.271  10.663 -1.9330 -0.8620  1.3995
 8769SOL     OW37939   0.565   1.907  12.628 -0.4318  0.4817 -0.3338
 8769SOL    HW137940   0.659   1.908  12.609 -0.3846  3.7526  0.0603
 8769SOL    HW237941   0.564   1.858  12.711 -0.5765  1.0301 -0.0086
 8770SOL     OW37942   4.552   4.546   2.103 -0.2132 -0.2177 -0.4672
 8770SOL    HW137943   4.647   4.557   2.094 -0.4392  1.9350 -0.3214
 8770SOL    HW237944   4.528   4.556   2.195 -1.4815  1.7063 -1.0151
 8771SOL     OW37945   1.952   1.641   8.070  0.2823  0.0332 -0.2942
 8771SOL    HW137946   2.021   1.609   8.128 -0.9822 -0.4679  0.9212
 8771SOL    HW237947   2.011   1.668   7.999  0.0480  0.2446 -0.4063
 8772SOL     OW37948   3.812   0.839  14.183 -0.2597 -0.5365 -0.2090
 8772SOL    HW137949   3.781   0.794  14.262 -1.1302 -0.1954 -0.3547
 8772SOL    HW237950   3.752   0.913  14.170  0.2104  0.2516  2.0531
 8773SOL     OW37951   3.628   2.516   1.304  0.1950  0.7667 -0.0996
 8773SOL    HW137952   3.607   2.430   1.342  0.1182  0.5196 -0.6918
 8773SOL    HW237953   3.610   2.575   1.376  0.2438  2.3025 -1.3522
 8774SOL     OW37954   2.163   4.210   3.373  0.1743  0.2430 -0.6010
 8774SOL    HW137955   2.249   4.237   3.339  0.6357  0.8554  1.0833
 8774SOL    HW237956   2.173   4.238   3.464  0.2304 -0.8941 -0.2632
 8775SOL     OW37957   0.950   1.526  13.681  0.0833  0.3500 -0.2572
 8775SOL    HW137958   1.014   1.577  13.632 -0.5887  0.1203 -1.3763
 8775SOL    HW237959   0.868   1.534  13.632  0.1256  1.5264 -0.1486
 8776SOL     OW37960   3.596   1.104   9.754 -0.0976 -0.0421 -0.3058
 8776SOL    HW137961   3.616   1.192   9.788 -1.6956  0.7270 -1.3265
 8776SOL    HW237962   3.587   1.054   9.835 -0.6524  0.3858 -0.0963
 8777SOL     OW37963   1.048   2.437   2.545  0.3483 -0.2774 -0.1780
 8777SOL    HW137964   1.068   2.504   2.611  0.8902 -2.2378  1.6558
 8777SOL    HW237965   1.128   2.432   2.494  0.0497  0.7710 -0.7418
 8778SOL     OW37966   1.237   0.919   8.512 -0.3086 -0.3016  0.6353
 8778SOL    HW137967   1.277   0.893   8.595  1.2390  0.8124  0.2565
 8778SOL    HW237968   1.304   0.902   8.446 -3.4168 -0.1557 -2.5215
 8779SOL     OW37969   1.322   2.897   7.944 -0.0856 -0.0518 -0.4575
 8779SOL    HW137970   1.297   2.831   7.879  0.1445  1.0827 -1.7139
 8779SOL    HW237971   1.339   2.967   7.881  1.7029 -0.6747 -0.6720
 8780SOL     OW37972   1.616   2.484  14.998 -0.4057  0.4613 -0.2854
 8780SOL    HW137973   1.593   2.407  15.050 -1.6369  1.3803  0.5404
 8780SOL    HW237974   1.541   2.496  14.941 -0.8172 -0.1528  0.1260
 8781SOL     OW37975   2.169   4.721   7.317  0.1834 -0.1221  0.2106
 8781SOL    HW137976   2.191   0.040   7.243  1.5125  2.2393  2.4299
 8781SOL    HW237977   2.091   0.025   7.354  0.5766  1.1784 -0.4075
 8782SOL     OW37978   2.954   4.516  12.949 -0.5583 -0.0095  0.3528
 8782SOL    HW137979   3.010   4.521  12.871 -0.1673 -2.7676  0.4562
 8782SOL    HW237980   2.978   4.432  12.988  1.8157 -0.9672 -3.1522
 8783SOL     OW37981   3.561   1.688   4.990 -0.1073  0.4944  0.0691
 8783SOL    HW137982   3.487   1.740   5.021 -1.1140 -0.2899 -1.0291
 8783SOL    HW237983   3.528   1.647   4.910 -2.7461 -0.6178  1.7247
 8784SOL     OW37984   0.440   1.166   3.186 -0.7100 -0.9751 -0.0530
 8784SOL    HW137985   0.424   1.150   3.093  2.5748 -0.0949 -0.7435
 8784SOL    HW237986   0.438   1.082   3.232 -0.5213 -0.6653  0.5238
 8785SOL     OW37987   1.868   4.678   6.567 -0.1987 -0.1748  0.0657
 8785SOL    HW137988   1.886   4.606   6.506  0.4432  2.8427 -3.2796
 8785SOL    HW237989   1.776   4.699   6.555 -0.2711 -0.3324  0.3497
 8786SOL     OW37990   0.776   0.961   6.682  0.3577  0.6378  0.3956
 8786SOL    HW137991   0.689   0.930   6.657  1.7584 -2.3809 -0.7265
 8786SOL    HW237992   0.802   0.889   6.739  0.4349 -1.7893 -2.6955
 8787SOL     OW37993   2.271   0.358   2.158 -0.1021 -0.1851  0.6065
 8787SOL    HW137994   2.335   0.428   2.177  0.1163 -0.3732  0.5640
 8787SOL    HW237995   2.193   0.413   2.165 -1.1877 -1.3250 -2.6701
 8788SOL     OW37996   0.489   0.985   2.084  0.0833 -0.1629 -0.1985
 8788SOL    HW137997   0.398   0.972   2.059  0.6321 -0.5345 -2.0454
 8788SOL    HW237998   0.532   0.981   1.998  1.5023 -1.4915  0.5657
 8789SOL     OW37999   0.412   0.563   5.058  0.8610  0.2120 -1.0070
 8789SOL    HW138000   0.490   0.506   5.054 -0.9991 -2.1573 -3.5876
 8789SOL    HW238001   0.430   0.611   4.977  0.7378  2.0138  0.0562
 8790SOL     OW38002   3.767   4.619   6.465 -0.3492 -0.1818 -0.0798
 8790SOL    HW138003   3.717   4.683   6.416  0.1869 -0.8604 -1.5082
 8790SOL    HW238004   3.834   4.605   6.399 -0.2821 -1.7119  0.2893
 8791SOL     OW38005   1.389   2.344   3.548 -0.0224  0.4417 -0.9967
 8791SOL    HW138006   1.302   2.316   3.575  1.2883 -1.5021  1.2169
 8791SOL    HW238007   1.363   2.403   3.478 -0.9795  1.1232 -0.0568
 8792SOL     OW38008   1.883   3.691  15.911 -0.1542  0.5311  0.1386
 8792SOL    HW138009   1.788   3.688  15.923 -0.2737  0.6335 -0.8179
 8792SOL    HW238010   1.873   3.731  15.825  0.7521 -1.1715 -0.7705
 8793SOL     OW38011   0.406   1.301   4.570 -0.2103 -0.3295 -0.0331
 8793SOL    HW138012   0.381   1.335   4.656  0.1113 -0.4448  0.1065
 8793SOL    HW238013   0.492   1.267   4.593 -1.3525 -1.4616  2.6175
 8794SOL     OW38014   2.582   1.123   3.187 -0.0509 -0.1974 -0.5080
 8794SOL    HW138015   2.648   1.163   3.130  0.6180 -0.8627 -0.1923
 8794SOL    HW238016   2.524   1.195   3.214  0.1534 -0.1707 -0.1323
 8795SOL     OW38017   2.860   1.600   5.788 -0.4908  0.1609  0.0547
 8795SOL    HW138018   2.880   1.592   5.881 -1.9136  0.6834  0.4032
 8795SOL    HW238019   2.769   1.627   5.792 -0.5281  0.5351 -3.2031
 8796SOL     OW38020   4.522   4.619   5.070  0.4142 -0.7225 -0.3459
 8796SOL    HW138021   4.528   4.583   5.158  0.7473 -1.2206 -0.5715
 8796SOL    HW238022   4.610   4.652   5.050  0.2699 -0.9424 -1.3200
 8797SOL     OW38023   0.562   2.845   5.794  0.3578 -0.2526 -0.1171
 8797SOL    HW138024   0.515   2.782   5.849 -0.9273  1.9305  1.2725
 8797SOL    HW238025   0.616   2.788   5.740  1.1403  0.9750 -0.6254
 8798SOL     OW38026   2.308   2.833   0.041 -0.0514 -0.0161  0.5700
 8798SOL    HW138027   2.363   2.842  17.712  0.3610  0.0102  0.8609
 8798SOL    HW238028   2.373   2.843   0.110  1.3124 -1.3139 -0.5096
 8799SOL     OW38029   1.228   2.593   0.657  0.4614 -0.2400 -0.2007
 8799SOL    HW138030   1.215   2.549   0.741  1.4634 -2.4149 -1.1708
 8799SOL    HW238031   1.195   2.531   0.591  0.4247 -0.6930  0.2434
 8800SOL     OW38032   1.918   2.957   4.080 -0.0282  0.3695  0.3124
 8800SOL    HW138033   1.866   2.988   4.006 -1.1228  0.3771  1.0695
 8800SOL    HW238034   1.850   2.951   4.148 -1.0267 -0.1104 -0.7218
 8801SOL     OW38035   1.395   0.826   7.603 -0.5856  0.5256  0.1743
 8801SOL    HW138036   1.345   0.890   7.554  1.0066  1.8846  0.3302
 8801SOL    HW238037   1.429   0.761   7.541  0.6282  2.7402 -1.4901
 8802SOL     OW38038   3.460   0.456   9.239 -0.3322  0.3619 -0.3265
 8802SOL    HW138039   3.523   0.398   9.195  0.3907  0.7374  0.2039
 8802SOL    HW238040   3.521   0.508   9.291 -0.2677 -0.8827  0.8321
 8803SOL     OW38041   0.537   1.072   9.206  0.2114 -0.5264 -0.3928
 8803SOL    HW138042   0.483   1.142   9.243  2.2154  0.9792 -0.3267
 8803SOL    HW238043   0.526   1.008   9.277 -0.1878 -0.2475 -0.2038
 8804SOL     OW38044   3.430   2.481   2.946  0.3672  0.4649 -0.3996
 8804SOL    HW138045   3.434   2.575   2.928  1.6499  0.7820  1.5565
 8804SOL    HW238046   3.525   2.468   2.954  0.4334  1.2888  0.1456
 8805SOL     OW38047   1.358   3.091   4.080  0.2324 -0.0483 -0.1348
 8805SOL    HW138048   1.286   3.056   4.027  0.1323 -3.8076  2.4864
 8805SOL    HW238049   1.407   3.149   4.022  0.2123  1.9580  1.8192
 8806SOL     OW38050   0.623   2.876   4.595  0.0781  0.2227 -0.5732
 8806SOL    HW138051   0.640   2.941   4.526  2.2035 -0.9698 -1.1776
 8806SOL    HW238052   0.548   2.920   4.635  1.6218  1.3590  1.0732
 8807SOL     OW38053   0.512   2.254   0.446 -0.5956 -0.2013  0.0445
 8807SOL    HW138054   0.525   2.325   0.383 -0.4632  1.0660  1.4878
 8807SOL    HW238055   0.529   2.308   0.523 -2.2816 -0.6093  0.7068
 8808SOL     OW38056   1.659   1.377   6.684  0.4685  0.0120  0.2044
 8808SOL    HW138057   1.628   1.356   6.772  0.0394 -2.3306 -0.5071
 8808SOL    HW238058   1.575   1.347   6.648  0.4822  0.0831  0.1123
 8809SOL     OW38059   4.513   2.473   7.032  0.8140  0.4468  0.4117
 8809SOL    HW138060   4.558   2.448   7.113  0.1644 -0.5489  0.4590
 8809SOL    HW238061   4.479   2.561   7.047  1.0166  0.6997 -0.6360
 8810SOL     OW38062   2.901   3.764   7.952  0.0868 -0.3657  0.4498
 8810SOL    HW138063   2.951   3.700   7.901 -1.3698  1.2573 -2.9864
 8810SOL    HW238064   2.971   3.822   7.981  0.1343 -0.1494 -0.0924
 8811SOL     OW38065   4.564   4.320   1.922  0.4044  0.0076 -0.0056
 8811SOL    HW138066   4.616   4.265   1.981  0.3334 -1.1885 -1.0564
 8811SOL    HW238067   4.563   4.398   1.978  0.0437 -0.1471  0.1999
 8812SOL     OW38068   1.105   1.840   7.302  0.2149  0.0697  0.3559
 8812SOL    HW138069   1.179   1.786   7.332  1.2299  0.7980 -0.8132
 8812SOL    HW238070   1.085   1.885   7.384 -0.0653 -0.1571  0.4095
 8813SOL     OW38071   2.333   0.248   1.914  0.3612  0.0275  0.8868
 8813SOL    HW138072   2.426   0.251   1.936  0.5795  0.5829 -0.0997
 8813SOL    HW238073   2.296   0.302   1.985 -0.1679  1.9475 -0.8532
 8814SOL     OW38074   0.707   2.412   8.081  0.0083 -0.2098  0.2388
 8814SOL    HW138075   0.721   2.350   8.009  0.2064 -2.6233  2.3714
 8814SOL    HW238076   0.612   2.404   8.087  0.0217 -0.5330  0.0609
 8815SOL     OW38077   2.874   3.937  15.271 -0.2323 -0.3381 -1.5492
 8815SOL    HW138078   2.930   3.902  15.340 -0.3623 -2.2157 -2.4143
 8815SOL    HW238079   2.911   3.900  15.191 -0.5225  0.5347 -2.0893
 8816SOL     OW38080   0.786   3.410   2.892 -0.5740 -0.2928  0.3601
 8816SOL    HW138081   0.764   3.503   2.898 -0.0423 -0.0976 -0.6873
 8816SOL    HW238082   0.697   3.375   2.892 -0.9152  0.5554  1.4188
 8817SOL     OW38083   3.082   3.491   9.523 -0.3011 -0.1608 -0.3665
 8817SOL    HW138084   2.987   3.485   9.518 -0.3122  0.6825 -1.3060
 8817SOL    HW238085   3.102   3.440   9.601 -0.3380  2.0343  1.0847
 8818SOL     OW38086   4.688   0.964   5.481  0.4751 -0.2240  0.3426
 8818SOL    HW138087   0.002   1.016   5.543 -0.8368 -0.7638  1.8869
 8818SOL    HW238088   4.640   0.909   5.542 -0.1279  1.2696  1.2344
 8819SOL     OW38089   3.560   4.409   6.458 -0.0459 -0.1815 -0.4842
 8819SOL    HW138090   3.633   4.354   6.431  0.3463 -1.1050  2.4823
 8819SOL    HW238091   3.601   4.487   6.495  0.4825 -0.1053 -1.2179
 8820SOL     OW38092   4.706   4.296   7.347 -0.2217  0.0926 -0.0759
 8820SOL    HW138093   0.032   4.287   7.418  1.1515 -0.8205 -1.4236
 8820SOL    HW238094   4.643   4.356   7.386  0.2877  0.3998  0.2695
 8821SOL     OW38095   0.623   0.509   9.173  0.0127 -0.2187  0.2773
 8821SOL    HW138096   0.653   0.551   9.092 -0.9763  0.8916  0.4846
 8821SOL    HW238097   0.634   0.579   9.237  2.0904 -0.5518  0.2807
 8822SOL     OW38098   1.228   4.201   2.856 -0.5101 -0.2875  0.0283
 8822SOL    HW138099   1.174   4.193   2.935 -1.3966 -0.1076 -0.5547
 8822SOL    HW238100   1.182   4.153   2.786 -1.5887 -0.2337  0.7009
 8823SOL     OW38101   3.311   3.067   5.346  0.0381 -0.5070  0.4639
 8823SOL    HW138102   3.290   3.061   5.440  2.0940  2.6761  1.1143
 8823SOL    HW238103   3.245   3.005   5.316 -1.2771  0.6307  0.9797
 8824SOL     OW38104   1.426   0.207   5.636 -0.4898  0.6803 -0.8254
 8824SOL    HW138105   1.450   0.242   5.551  1.6961 -0.7950 -0.8282
 8824SOL    HW238106   1.424   0.111   5.630  1.7001  0.5355  0.4859
 8825SOL     OW38107   2.730   2.959   9.531  0.2217 -0.2084  0.0665
 8825SOL    HW138108   2.647   2.980   9.488 -0.3738 -1.7402  0.4836
 8825SOL    HW238109   2.772   3.045   9.544  1.7399 -1.2320  1.9528
 8826SOL     OW38110   1.456   3.887   7.005 -0.2359  0.2899 -0.0339
 8826SOL    HW138111   1.546   3.882   6.972 -0.0215 -2.0934  0.9488
 8826SOL    HW238112   1.411   3.887   6.921  0.2419  0.4019 -0.2960
 8827SOL     OW38113   1.622   1.638   3.739 -0.0847  0.4169  0.3953
 8827SOL    HW138114   1.690   1.606   3.681 -0.5027 -0.2004  0.2382
 8827SOL    HW238115   1.637   1.580   3.814  2.6863  2.2414  1.2501
 8828SOL     OW38116   0.116   4.365   7.133  0.1512 -0.6177 -0.0666
 8828SOL    HW138117   0.167   4.285   7.144 -1.0241 -0.9380  2.8567
 8828SOL    HW238118   0.052   4.360   7.204 -1.3727  1.1972 -1.2792
 8829SOL     OW38119   3.572   3.586   3.806 -0.3224 -0.0244  0.0489
 8829SOL    HW138120   3.584   3.681   3.810  0.8197 -0.2709  2.6183
 8829SOL    HW238121   3.617   3.543   3.879  1.0379 -1.3006 -1.5217
 8830SOL     OW38122   0.165   1.588   3.856 -0.2350  0.3545  0.2092
 8830SOL    HW138123   0.259   1.602   3.845 -0.1278 -0.1368  0.5032
 8830SOL    HW238124   0.125   1.667   3.818 -2.9873 -0.6206  1.0877
 8831SOL     OW38125   0.833   0.600   8.705  0.1145  0.3450  0.2608
 8831SOL    HW138126   0.921   0.611   8.668  0.1118 -2.3131 -0.5599
 8831SOL    HW238127   0.777   0.638   8.637 -0.7739  0.3748  1.0088
 8832SOL     OW38128   4.181   0.723   4.339  0.8098  0.4366  0.0002
 8832SOL    HW138129   4.108   0.777   4.371  0.5438 -0.4059  0.7899
 8832SOL    HW238130   4.248   0.747   4.402 -0.2447  0.0193  1.2771
 8833SOL     OW38131   2.707   4.064  15.539  0.1573 -0.3145 -0.4706
 8833SOL    HW138132   2.660   4.144  15.564 -1.3261 -1.1497 -0.6036
 8833SOL    HW238133   2.801   4.080  15.549  0.1442  0.8149 -2.1437
 8834SOL     OW38134   1.396   3.599  11.593 -0.9141  0.3220  0.3599
 8834SOL    HW138135   1.470   3.631  11.543  0.4786 -1.7674  1.0865
 8834SOL    HW238136   1.331   3.575  11.527 -1.4097 -1.5389  1.5345
 8835SOL     OW38137   2.177   1.162   2.855 -0.4422  0.0879  0.8831
 8835SOL    HW138138   2.082   1.171   2.867 -1.0494 -2.2503 -2.1048
 8835SOL    HW238139   2.207   1.250   2.877  1.1536 -0.4992  1.0571
 8836SOL     OW38140   1.754   0.635  13.828  0.0656  0.3974 -0.4758
 8836SOL    HW138141   1.715   0.718  13.800  0.8662  0.9302 -0.0023
 8836SOL    HW238142   1.758   0.656  13.921  3.3736 -0.9848 -0.3022
 8837SOL     OW38143   1.723   0.481   5.716  0.0947 -0.0635  0.0135
 8837SOL    HW138144   1.779   0.501   5.791  0.2225 -0.7624  0.0997
 8837SOL    HW238145   1.674   0.410   5.756 -0.5249  0.7013  0.6173
 8838SOL     OW38146   3.560   0.089   6.055  0.2329 -0.5986 -0.2719
 8838SOL    HW138147   3.465   0.099   6.054  0.3176  0.3820  1.2624
 8838SOL    HW238148   3.570   0.081   5.960 -0.6378 -2.8327 -0.1577
 8839SOL     OW38149   1.877   0.401   3.013  0.2472 -0.0318 -0.1114
 8839SOL    HW138150   1.902   0.354   3.093  0.9382 -1.5427 -1.1989
 8839SOL    HW238151   1.962   0.432   2.981  1.1460 -1.2156  1.1298
 8840SOL     OW38152   2.289   1.854  10.318 -0.2581  0.2235  0.0281
 8840SOL    HW138153   2.251   1.884  10.401  0.2410  0.9195  0.0055
 8840SOL    HW238154   2.380   1.861  10.346 -0.3707 -0.4165  0.5615
 8841SOL     OW38155   2.812   3.507   6.971 -0.2130  0.2296 -1.2275
 8841SOL    HW138156   2.733   3.502   6.918 -0.8901 -1.6685 -0.0379
 8841SOL    HW238157   2.864   3.567   6.916 -2.4556  1.2460 -2.2473
 8842SOL     OW38158   1.288   2.696   7.332 -0.4347 -0.0498  0.1934
 8842SOL    HW138159   1.369   2.732   7.297  0.5601 -1.9537  0.5304
 8842SOL    HW238160   1.272   2.736   7.418 -0.0010 -0.6401  0.5537
 8843SOL     OW38161   1.241   0.112  16.244 -0.2763 -0.2343 -0.5297
 8843SOL    HW138162   1.215   0.126  16.335  1.9795  1.2121 -0.1143
 8843SOL    HW238163   1.156   0.134  16.205 -1.1479 -0.5389  1.1775
 8844SOL     OW38164   4.259   3.766   2.881  0.8976 -0.2050 -0.7587
 8844SOL    HW138165   4.218   3.852   2.869  0.0330 -0.4271  0.6858
 8844SOL    HW238166   4.247   3.754   2.975 -1.0798 -1.9000 -1.2317
 8845SOL     OW38167   0.868   2.814  14.979 -0.3834 -0.5125 -0.1845
 8845SOL    HW138168   0.883   2.770  14.896 -0.0048 -2.3261  0.8387
 8845SOL    HW238169   0.893   2.750  15.046 -0.2205 -0.7441 -0.4712
 8846SOL     OW38170   1.861   1.978   7.020 -0.1105 -0.1951 -0.0271
 8846SOL    HW138171   1.896   1.902   6.972  0.3642 -0.8199  1.2996
 8846SOL    HW238172   1.888   2.053   6.968 -1.6670  0.0504 -0.4615
 8847SOL     OW38173   0.666   3.028   4.363 -0.5200 -0.4739 -0.4655
 8847SOL    HW138174   0.681   3.106   4.309  2.3129 -0.3071  0.5631
 8847SOL    HW238175   0.754   2.996   4.379 -0.1043  3.6502  5.1861
 8848SOL     OW38176   4.436   4.387  12.164 -0.8435 -0.2883  0.3178
 8848SOL    HW138177   4.397   4.367  12.249  0.0082  0.0621  0.7909
 8848SOL    HW238178   4.383   4.338  12.102  0.2839 -3.1297  1.5739
 8849SOL     OW38179   4.632   0.064   7.112  0.1884  0.1553  0.7870
 8849SOL    HW138180   4.654   0.129   7.045 -1.0834 -0.1363  0.0934
 8849SOL    HW238181   4.717   0.039   7.148 -0.0703 -2.1430 -0.1827
 8850SOL     OW38182   4.541   4.394   8.015 -0.2241 -0.2002 -0.1023
 8850SOL    HW138183   4.602   4.327   8.046 -0.5239 -1.2020 -1.6650
 8850SOL    HW238184   4.515   4.349   7.935  0.8603 -0.9345 -0.0438
 8851SOL     OW38185   2.661   4.596  12.591  0.8043 -0.0957 -0.8429
 8851SOL    HW138186   2.680   4.685  12.623 -1.8208 -0.3310  1.3497
 8851SOL    HW238187   2.741   4.546  12.609  1.5963  1.1426 -0.8674
 8852SOL     OW38188   4.605   1.459   7.169  0.3882 -0.5657  0.4243
 8852SOL    HW138189   4.698   1.468   7.189  0.6731 -1.9647 -0.2382
 8852SOL    HW238190   4.564   1.473   7.254 -0.9242 -1.0324 -0.1253
 8853SOL     OW38191   3.861   0.119  17.370 -0.4230 -0.1037 -0.3783
 8853SOL    HW138192   3.955   0.135  17.378 -0.5209 -0.1192  0.7935
 8853SOL    HW238193   3.848   0.025  17.356 -1.7971 -0.1484  1.2288
 8854SOL     OW38194   1.593   2.024   9.404 -0.1998 -0.3249  0.1745
 8854SOL    HW138195   1.552   2.031   9.318  1.6940 -0.4080 -0.7408
 8854SOL    HW238196   1.569   2.109   9.440  1.4500 -0.1015  0.7648
 8855SOL     OW38197   0.702   0.970  14.506  0.1819 -0.6626 -0.3699
 8855SOL    HW138198   0.642   0.897  14.493 -0.2698 -0.6118  1.4272
 8855SOL    HW238199   0.734   1.004  14.422 -0.5424 -0.2228 -0.4740
 8856SOL     OW38200   0.571   0.239  16.021 -0.3112  0.1017 -0.4050
 8856SOL    HW138201   0.482   0.246  16.056  0.3935  0.7328  1.2313
 8856SOL    HW238202   0.563   0.269  15.930 -0.5490  2.6701  0.4862
 8857SOL     OW38203   2.638   4.591   2.081  0.0868  0.7042 -0.2522
 8857SOL    HW138204   2.544   4.580   2.093  0.5178 -0.1397  2.5565
 8857SOL    HW238205   2.646   4.513   2.025  0.5526 -0.1404  0.9751
 8858SOL     OW38206   3.070   2.439   1.144  0.4149  0.0546 -0.6730
 8858SOL    HW138207   3.072   2.529   1.178 -3.1651  0.5813 -1.9380
 8858SOL    HW238208   3.020   2.458   1.065  0.1066  1.2701 -0.1889
 8859SOL     OW38209   4.086   4.320   7.628 -0.5300  0.3167  0.0375
 8859SOL    HW138210   4.067   4.229   7.606  0.9019 -0.0372  0.2151
 8859SOL    HW238211   4.002   4.357   7.603 -1.1406 -2.2750 -1.7466
 8860SOL     OW38212   3.772   0.231   0.105  0.0958  0.1760 -0.2374
 8860SOL    HW138213   3.691   0.259   0.148  0.8116  2.0290 -0.0787
 8860SOL    HW238214   3.829   0.304   0.131 -1.3392  1.3913 -0.4763
 8861SOL     OW38215   2.383   3.778   4.059  0.7664  0.1132  0.1591
 8861SOL    HW138216   2.393   3.726   3.980  2.5272 -0.7312  0.9170
 8861SOL    HW238217   2.420   3.860   4.025 -1.0176  0.2367 -1.4123
 8862SOL     OW38218   2.179   2.594  14.429 -0.0647  0.1415  0.7773
 8862SOL    HW138219   2.086   2.600  14.453 -1.1257 -1.3080 -2.9602
 8862SOL    HW238220   2.177   2.593  14.333  0.4887 -1.4850  0.7886
 8863SOL     OW38221   3.774   0.990   7.595  0.3857  0.4495 -0.0702
 8863SOL    HW138222   3.778   1.074   7.548 -0.4618  0.5327  0.0248
 8863SOL    HW238223   3.725   0.938   7.531  2.4241 -2.6022  0.7922
 8864SOL     OW38224   1.032   4.579   8.222  0.7523  0.2436  0.6063
 8864SOL    HW138225   0.979   4.627   8.285 -1.7911 -2.1849  0.3610
 8864SOL    HW238226   1.123   4.597   8.245  1.6347 -3.4616  0.1046
 8865SOL     OW38227   1.491   1.942   1.026 -0.0983 -0.2726  0.4343
 8865SOL    HW138228   1.459   2.031   1.011 -1.1103 -0.3536  2.0708
 8865SOL    HW238229   1.552   1.943   0.952 -1.6042 -0.2050 -0.7904
 8866SOL     OW38230   4.421   2.529  15.984  0.4941 -0.4599 -0.0458
 8866SOL    HW138231   4.340   2.567  15.951 -0.3668 -1.0959  1.3260
 8866SOL    HW238232   4.395   2.515  16.075 -1.1547  0.3659 -0.3871
 8867SOL     OW38233   4.603   4.028   6.192  0.1420  0.6493 -0.1082
 8867SOL    HW138234   4.673   4.071   6.142  1.7343 -1.5969  0.2199
 8867SOL    HW238235   4.657   3.978   6.253 -1.2684 -0.1530  0.4723
 8868SOL     OW38236   3.531   0.921   3.160  0.0604 -0.3977  0.1607
 8868SOL    HW138237   3.449   0.958   3.128  1.1173  0.0501 -2.1104
 8868SOL    HW238238   3.544   0.991   3.224 -0.8447 -2.2513  2.3747
 8869SOL     OW38239   3.487   1.911   1.920 -0.3428 -0.0954 -0.1384
 8869SOL    HW138240   3.392   1.909   1.916 -0.3808 -0.2238  0.9812
 8869SOL    HW238241   3.514   1.979   1.982 -1.9785  0.4297 -0.0220
 8870SOL     OW38242   0.436   4.717  15.787 -0.3572 -0.0445 -0.8760
 8870SOL    HW138243   0.348   0.017  15.779  0.0074  0.8127 -0.8151
 8870SOL    HW238244   0.423   4.656  15.714 -4.2378 -3.7314  2.8261
 8871SOL     OW38245   4.096   3.325   7.790 -0.2217  0.3348 -0.4130
 8871SOL    HW138246   4.179   3.356   7.753 -0.8385  1.5587 -0.7691
 8871SOL    HW238247   4.128   3.303   7.877  0.1842  1.2874 -0.3217
 8872SOL     OW38248   2.032   3.385   7.937  0.4338  0.4795 -0.1967
 8872SOL    HW138249   2.115   3.429   7.920  0.8747 -1.3066 -2.7681
 8872SOL    HW238250   1.965   3.441   7.897 -1.5258 -0.5786  1.6159
 8873SOL     OW38251   1.185   4.698   1.918 -0.1862  0.5513  0.0091
 8873SOL    HW138252   1.250   4.678   1.851 -0.6042  1.3134 -0.6094
 8873SOL    HW238253   1.234   0.017   1.979  1.2433 -0.9826  0.3112
 8874SOL     OW38254   2.682   0.955   6.288 -0.1927  0.2008 -0.6690
 8874SOL    HW138255   2.773   0.955   6.317  0.1591  0.1836 -1.7898
 8874SOL    HW238256   2.685   0.904   6.208  0.2785  1.0446 -1.1852
 8875SOL     OW38257   0.107   4.265   8.435 -0.3415 -0.2818 -0.3642
 8875SOL    HW138258   0.135   4.272   8.344  0.5607  4.2676  0.2975
 8875SOL    HW238259   0.014   4.243   8.427 -0.7048  0.9496  0.4749
 8876SOL     OW38260   0.689   3.675   8.912 -0.6098 -0.1534 -0.2916
 8876SOL    HW138261   0.598   3.701   8.928 -0.3565  0.2464  0.4912
 8876SOL    HW238262   0.682   3.675   8.817  0.6216 -0.4377 -0.3756
 8877SOL     OW38263   3.911   2.978  16.418  0.0787 -0.4016  0.1713
 8877SOL    HW138264   3.917   2.884  16.430 -0.9698 -0.4647  0.1329
 8877SOL    HW238265   3.932   2.987  16.325 -3.6451  3.6638 -0.2686
 8878SOL     OW38266   2.071   3.665   4.443 -0.0624 -0.2276  0.2761
 8878SOL    HW138267   2.000   3.675   4.507 -0.2700 -0.5638  0.0987
 8878SOL    HW238268   2.095   3.757   4.436  0.2348 -0.2480  1.0515
 8879SOL     OW38269   1.259   1.842   0.772 -0.5678 -0.6182  0.0507
 8879SOL    HW138270   1.285   1.754   0.802 -0.4542 -0.9434 -0.9849
 8879SOL    HW238271   1.320   1.865   0.702  0.3408  0.9268  1.3590
 8880SOL     OW38272   2.915   1.726   3.078 -0.6220  0.5720 -0.6459
 8880SOL    HW138273   2.909   1.645   3.128  0.5886  0.4176 -0.7547
 8880SOL    HW238274   3.008   1.712   3.062 -1.2227 -0.2093 -3.4019
 8881SOL     OW38275   3.650   4.112   7.580 -0.6500 -0.6506  0.3341
 8881SOL    HW138276   3.617   4.153   7.660 -0.8556  2.0499 -1.1672
 8881SOL    HW238277   3.578   4.053   7.557 -0.5714 -0.3533 -0.6878
 8882SOL     OW38278   1.677   0.369   3.800 -0.0571  0.8848  0.0667
 8882SOL    HW138279   1.665   0.381   3.706 -2.0487 -0.1608  0.2047
 8882SOL    HW238280   1.598   0.412   3.834 -1.1325 -0.7666 -0.3478
 8883SOL     OW38281   1.512   0.225  13.485 -0.3000 -0.3841  0.6444
 8883SOL    HW138282   1.573   0.160  13.519  0.8744  0.7223  0.6460
 8883SOL    HW238283   1.425   0.195  13.512  0.1599 -3.1113 -0.9366
 8884SOL     OW38284   4.702   0.837   9.710 -0.5181 -0.2357  0.3306
 8884SOL    HW138285   4.613   0.869   9.694 -0.9163 -2.0464 -0.9992
 8884SOL    HW238286   4.690   0.796   9.796  0.0912  0.4266  0.7357
 8885SOL     OW38287   3.726   4.716   8.624 -0.2574  0.0372 -0.3712
 8885SOL    HW138288   3.733   0.028   8.542  0.2155 -0.8506 -0.8594
 8885SOL    HW238289   3.761   4.632   8.595  1.5059  0.6933 -0.1840
 8886SOL     OW38290   1.939   4.344   8.136 -0.0143 -0.0001 -0.1463
 8886SOL    HW138291   1.877   4.338   8.209  0.9378  0.6643  0.7062
 8886SOL    HW238292   1.883   4.351   8.058 -1.7445 -0.7613  1.0206
 8887SOL     OW38293   3.807   0.154  15.620  0.1698 -0.7354 -0.4906
 8887SOL    HW138294   3.784   0.077  15.569 -1.0068 -2.2407  2.3345
 8887SOL    HW238295   3.775   0.229  15.570 -1.2073 -1.2996 -0.4389
 8888SOL     OW38296   3.143   0.068  15.059  0.5295 -0.2310 -0.5546
 8888SOL    HW138297   3.110   0.144  15.012 -0.4959 -0.9482 -0.9983
 8888SOL    HW238298   3.231   0.055  15.024  0.9733  0.5800  0.2745
 8889SOL     OW38299   2.008   3.301  17.555 -0.2374 -0.5199 -0.5894
 8889SOL    HW138300   2.091   3.344  17.534  0.0614 -0.2166  1.2370
 8889SOL    HW238301   1.945   3.364  17.521  0.3764  1.6788  2.3549
 8890SOL     OW38302   0.776   0.974   6.283 -0.3479 -0.5418  0.1701
 8890SOL    HW138303   0.783   1.051   6.339 -1.4678  0.6317 -1.3082
 8890SOL    HW238304   0.746   1.021   6.205  0.5253 -1.3709 -0.6602
 8891SOL     OW38305   3.316   0.971   8.277 -0.3061  0.0988  0.1709
 8891SOL    HW138306   3.384   0.912   8.307 -2.0126 -2.1208 -0.3435
 8891SOL    HW238307   3.335   1.051   8.326  0.7151  0.0675 -0.1654
 8892SOL     OW38308   3.472   1.597   9.351 -0.1824  0.0512  0.5579
 8892SOL    HW138309   3.515   1.680   9.373 -1.0364 -0.0034  2.4601
 8892SOL    HW238310   3.391   1.602   9.401 -1.2813  1.4026 -1.3535
 8893SOL     OW38311   3.450   3.824   5.164 -0.2468 -0.3350 -0.2069
 8893SOL    HW138312   3.396   3.752   5.197  1.4281 -2.2088 -1.6161
 8893SOL    HW238313   3.448   3.887   5.237  0.2649 -0.2294 -0.2842
 8894SOL     OW38314   3.655   1.417   9.540 -0.6083 -0.2424 -0.2819
 8894SOL    HW138315   3.649   1.410   9.635  1.4426  0.4568 -0.1025
 8894SOL    HW238316   3.598   1.493   9.524 -1.6843 -0.8234  0.8082
 8895SOL     OW38317   4.469   0.141   2.263 -0.1489  0.1905 -0.0141
 8895SOL    HW138318   4.483   0.047   2.274 -2.9463 -0.1698  0.5315
 8895SOL    HW238319   4.406   0.135   2.192  0.5919  1.6188 -0.7911
 8896SOL     OW38320   3.062   1.854   3.477  0.3679 -0.3816  0.7551
 8896SOL    HW138321   3.141   1.851   3.423 -0.4911  1.2225 -0.5885
 8896SOL    HW238322   3.092   1.914   3.545 -0.0522 -0.8008  1.3113
 8897SOL     OW38323   1.639   3.293   8.124  0.6351 -0.2251 -0.3842
 8897SOL    HW138324   1.623   3.250   8.209  1.1758 -0.7023 -0.5218
 8897SOL    HW238325   1.635   3.386   8.144  0.4082 -0.3866  0.3481
 8898SOL     OW38326   3.680   2.961   1.579 -0.0378  0.0369  0.1987
 8898SOL    HW138327   3.650   2.882   1.625 -1.7969  1.0211  0.7467
 8898SOL    HW238328   3.601   3.015   1.577  0.0242  0.1354  0.4168
 8899SOL     OW38329   2.458   0.305   8.639  0.3836  0.2963  0.4801
 8899SOL    HW138330   2.548   0.314   8.669 -0.2039  1.6180  1.8430
 8899SOL    HW238331   2.467   0.230   8.580  0.7218  2.3004 -2.0349
 8900SOL     OW38332   1.716   3.789  12.446  0.1870 -0.0998  0.5260
 8900SOL    HW138333   1.790   3.825  12.397 -0.5379 -0.6993 -1.0318
 8900SOL    HW238334   1.646   3.816  12.385  0.6404  1.0961  0.5337
 8901SOL     OW38335   0.912   2.944   4.490 -0.6896 -0.2349  0.1961
 8901SOL    HW138336   0.995   2.992   4.486 -0.9677  0.2548  0.3901
 8901SOL    HW238337   0.933   2.851   4.496 -0.3882 -0.1707  0.1302
 8902SOL     OW38338   0.582   4.685   2.247 -0.6401  0.3527 -0.5865
 8902SOL    HW138339   0.636   4.692   2.167 -1.9237 -0.2979 -1.5080
 8902SOL    HW238340   0.635   4.628   2.303  0.2219 -0.1566 -1.9077
 8903SOL     OW38341   1.852   2.822   6.160  0.2030 -1.1283  0.5235
 8903SOL    HW138342   1.837   2.912   6.130  0.4180 -0.6579  1.8155
 8903SOL    HW238343   1.820   2.825   6.250 -0.6715  1.1389  0.1392
 8904SOL     OW38344   1.588   3.202   9.402 -0.4970 -0.1324 -0.3763
 8904SOL    HW138345   1.657   3.237   9.459 -0.2561 -3.0643  1.1589
 8904SOL    HW238346   1.508   3.243   9.434  1.6671  2.6603  1.4004
 8905SOL     OW38347   2.796   1.755   0.554  0.7083  0.1298  0.2768
 8905SOL    HW138348   2.760   1.793   0.634  1.1684  0.1793  0.4579
 8905SOL    HW238349   2.888   1.782   0.560  0.4546  0.5773  2.1763
 8906SOL     OW38350   4.246   4.301   8.039 -0.3093 -0.0472  0.4995
 8906SOL    HW138351   4.213   4.390   8.024 -2.6402 -0.9787  0.1544
 8906SOL    HW238352   4.342   4.308   8.036 -0.1054 -3.0490  0.1286
 8907SOL     OW38353   3.055   4.611   8.743  0.1963  0.5468  0.0497
 8907SOL    HW138354   3.045   4.518   8.764  0.8068 -0.0489 -2.3176
 8907SOL    HW238355   2.967   4.640   8.722  0.1019 -0.5751 -1.0939
 8908SOL     OW38356   0.963   4.046   2.688 -0.2092 -0.5794 -0.5883
 8908SOL    HW138357   0.909   4.018   2.762  2.4511  1.1026  1.9901
 8908SOL    HW238358   0.941   3.980   2.622 -0.8877 -1.8851  0.9267
 8909SOL     OW38359   3.281   1.170   8.090 -0.1423  0.0814  0.6644
 8909SOL    HW138360   3.329   1.095   8.125 -0.3601 -0.4185 -0.1267
 8909SOL    HW238361   3.324   1.175   8.005  0.3854 -1.7748  0.8115
 8910SOL     OW38362   3.317   0.379   8.066 -1.0047 -0.4904  0.8082
 8910SOL    HW138363   3.295   0.468   8.094 -0.1289  0.2875 -0.9647
 8910SOL    HW238364   3.239   0.365   8.012 -0.6490  0.4448  0.0467
 8911SOL     OW38365   3.437   1.185   4.912 -0.3611 -0.1947  0.6172
 8911SOL    HW138366   3.497   1.151   4.978  0.5132  0.0709 -0.0398
 8911SOL    HW238367   3.394   1.252   4.966 -2.0505 -0.7516 -0.0342
 8912SOL     OW38368   3.365   0.142   7.497 -0.1182 -0.1405  0.1177
 8912SOL    HW138369   3.367   0.198   7.419 -0.7338 -0.5584 -0.2021
 8912SOL    HW238370   3.350   0.210   7.563 -4.1838 -0.6831 -0.2533
 8913SOL     OW38371   3.863   1.211  10.682 -0.0220  0.0793 -0.4134
 8913SOL    HW138372   3.818   1.294  10.701 -0.2670 -0.3160  0.6677
 8913SOL    HW238373   3.823   1.152  10.745 -1.4473  1.0000 -0.4563
 8914SOL     OW38374   0.758   3.071  15.389 -0.6282  0.0978  0.3843
 8914SOL    HW138375   0.711   2.999  15.347  0.0164  0.5539 -1.1366
 8914SOL    HW238376   0.845   3.039  15.412 -0.2412  0.8336 -0.0521
 8915SOL     OW38377   1.203   0.647   3.240 -0.0855 -0.0688  0.6907
 8915SOL    HW138378   1.147   0.597   3.301 -1.6072  0.6569 -0.1072
 8915SOL    HW238379   1.282   0.596   3.223  0.0190  0.4067 -0.2455
 8916SOL     OW38380   0.375   4.422   3.125  0.1621  0.6077 -0.6774
 8916SOL    HW138381   0.407   4.507   3.096  1.6054  0.4026  0.3024
 8916SOL    HW238382   0.304   4.456   3.180 -0.1215 -2.4351  0.8476
 8917SOL     OW38383   3.389   2.491   6.669  0.4974 -0.2017  0.1425
 8917SOL    HW138384   3.385   2.586   6.658 -0.2279 -0.4026 -1.2027
 8917SOL    HW238385   3.450   2.470   6.598  2.0669 -0.9718  1.7069
 8918SOL     OW38386   1.683   3.647   2.522 -0.2455 -0.7764 -0.1522
 8918SOL    HW138387   1.652   3.649   2.431  0.4896  0.5377 -0.3752
 8918SOL    HW238388   1.683   3.740   2.544 -1.2180 -0.7259 -0.3694
 8919SOL     OW38389   0.576   2.574   4.065  0.4357  0.0645  0.5401
 8919SOL    HW138390   0.567   2.481   4.088 -0.7217 -0.0723 -0.4918
 8919SOL    HW238391   0.507   2.613   4.119  1.8691  0.5244  2.0555
 8920SOL     OW38392   0.417   1.291  16.475  0.3881 -0.4562 -0.1277
 8920SOL    HW138393   0.499   1.243  16.480  0.2811 -0.7243 -0.9404
 8920SOL    HW238394   0.419   1.317  16.567 -0.8452 -1.4854  0.1921
 8921SOL     OW38395   2.632   3.867   6.228 -0.2130  0.2018  0.6415
 8921SOL    HW138396   2.618   3.792   6.171  1.4829  0.0509  0.4343
 8921SOL    HW238397   2.703   3.916   6.186  0.6832 -2.1903 -0.6132
 8922SOL     OW38398   3.539   1.397   5.883 -0.4481 -0.2254  0.3367
 8922SOL    HW138399   3.577   1.365   5.964  0.9660 -0.6309 -0.4997
 8922SOL    HW238400   3.531   1.315   5.834 -1.5044  0.3797 -0.5133
 8923SOL     OW38401   4.496   1.855   4.634 -0.3122  0.8148  0.7109
 8923SOL    HW138402   4.575   1.865   4.581 -0.4994  0.3968  0.3515
 8923SOL    HW238403   4.503   1.945   4.664 -1.8446  1.2228 -0.1770
 8924SOL     OW38404   1.299   0.636   4.482 -0.3875  0.0485  0.0525
 8924SOL    HW138405   1.242   0.683   4.422 -1.5978 -1.0989  0.3125
 8924SOL    HW238406   1.375   0.613   4.428 -1.4637  0.2916 -1.5409
 8925SOL     OW38407   4.449   0.828  12.756 -0.2729  0.2817 -0.1447
 8925SOL    HW138408   4.368   0.778  12.755  1.3711 -2.3766 -0.0867
 8925SOL    HW238409   4.438   0.874  12.673  4.3915  2.3009  0.3581
 8926SOL     OW38410   2.800   2.877  15.177  0.3181  0.2669  0.1933
 8926SOL    HW138411   2.758   2.826  15.247  0.8119 -0.9417 -0.3814
 8926SOL    HW238412   2.890   2.864  15.205  1.1658  1.5128 -1.9397
 8927SOL     OW38413   3.521   1.908   2.468  0.3296 -0.2545  0.3085
 8927SOL    HW138414   3.493   1.984   2.417  0.4560  1.1847  2.4092
 8927SOL    HW238415   3.441   1.856   2.458 -0.3011  0.8859 -0.5822
 8928SOL     OW38416   1.473   1.685   4.813 -0.3676 -0.2226  0.3848
 8928SOL    HW138417   1.437   1.709   4.899 -0.8733 -0.5010  0.2464
 8928SOL    HW238418   1.460   1.763   4.761  3.5208 -1.1635 -2.0566
 8929SOL     OW38419   4.098   1.442   4.813 -0.4715 -0.0950 -0.3968
 8929SOL    HW138420   4.189   1.460   4.790 -1.2350  1.5490 -2.1068
 8929SOL    HW238421   4.081   1.532   4.842  3.1362 -0.2619  2.3233
 8930SOL     OW38422   3.168   1.295   9.019 -0.6025  0.2407  0.5029
 8930SOL    HW138423   3.240   1.285   8.958  0.9891  1.7613  2.1512
 8930SOL    HW238424   3.091   1.268   8.969  0.5118 -1.4212 -0.3176
 8931SOL     OW38425   2.935   1.150   5.559 -0.0158  0.2574  0.4292
 8931SOL    HW138426   2.929   1.065   5.602  0.4329 -0.0977 -0.2147
 8931SOL    HW238427   2.979   1.201   5.627  2.6431 -1.1989 -0.2183
 8932SOL     OW38428   2.663   3.829   3.551  0.3812 -0.1259 -0.3374
 8932SOL    HW138429   2.671   3.872   3.636 -0.8175 -0.9687  0.2104
 8932SOL    HW238430   2.660   3.735   3.572 -0.0483  0.2652  1.2959
 8933SOL     OW38431   4.635   2.288  15.176  0.1342  0.4258 -0.4139
 8933SOL    HW138432   4.584   2.362  15.144  2.0080  2.1827  0.6295
 8933SOL    HW238433   4.566   2.232  15.210  1.5488 -0.7765  0.5088
 8934SOL     OW38434   3.020   2.941   5.591  0.3041 -0.4115 -1.0015
 8934SOL    HW138435   2.994   2.931   5.683  4.1177 -4.4023 -0.4013
 8934SOL    HW238436   3.101   2.991   5.603  0.5949 -1.1273 -0.0284
 8935SOL     OW38437   3.194   2.432   2.438 -0.4856 -0.1051  0.4901
 8935SOL    HW138438   3.248   2.479   2.374 -0.3777  0.1863  0.7938
 8935SOL    HW238439   3.227   2.468   2.520  0.6092  1.7533 -0.7656
 8936SOL     OW38440   0.310   1.653   5.385 -0.3952 -0.5461  0.3426
 8936SOL    HW138441   0.342   1.687   5.468 -0.5360  2.4857 -0.8447
 8936SOL    HW238442   0.217   1.674   5.384 -0.1891  0.2622 -1.2939
 8937SOL     OW38443   0.935   1.328   4.475 -0.7862  0.0161 -0.3216
 8937SOL    HW138444   1.022   1.363   4.496 -1.4462  0.5828  1.4474
 8937SOL    HW238445   0.964   1.237   4.468  0.1825  0.0849  2.6777
 8938SOL     OW38446   0.848   1.679   2.876  0.0150 -0.4263  0.2027
 8938SOL    HW138447   0.782   1.676   2.945 -0.1643  0.9274  0.0806
 8938SOL    HW238448   0.925   1.698   2.930 -0.4657  0.1240  0.6934
 8939SOL     OW38449   3.590   3.362   0.702 -0.0861  0.6245 -0.1269
 8939SOL    HW138450   3.588   3.458   0.703 -1.3926  0.5725  2.9779
 8939SOL    HW238451   3.650   3.343   0.630  0.9144  1.4663  0.4800
 8940SOL     OW38452   2.736   4.722   2.510  0.0735 -0.1728 -0.0618
 8940SOL    HW138453   2.815   4.690   2.465  0.0879  1.1706 -0.9809
 8940SOL    HW238454   2.772   0.010   2.594 -1.5249 -0.6279  0.7667
 8941SOL     OW38455   4.425   3.555   4.708 -0.6487  0.2353 -0.1050
 8941SOL    HW138456   4.392   3.645   4.699 -1.8739 -0.1884  0.0727
 8941SOL    HW238457   4.351   3.509   4.667  0.4000  0.4249 -2.2033
 8942SOL     OW38458   0.940   3.500   9.504  0.0766 -0.2220  0.2087
 8942SOL    HW138459   0.875   3.439   9.469  1.5717 -1.6043 -0.1467
 8942SOL    HW238460   0.985   3.460   9.578  1.6504 -0.3485 -0.7978
 8943SOL     OW38461   3.185   4.389  10.869 -0.3328  0.1132  0.4072
 8943SOL    HW138462   3.145   4.476  10.871 -0.3927  0.0844  0.4498
 8943SOL    HW238463   3.264   4.390  10.923 -0.2823  1.4665  0.3102
 8944SOL     OW38464   3.602   1.854   5.922  0.7756  0.5742  1.0016
 8944SOL    HW138465   3.512   1.886   5.932 -0.2152 -1.0682 -2.6195
 8944SOL    HW238466   3.619   1.807   6.003 -2.4478  1.1062  1.9791
 8945SOL     OW38467   3.765   0.506   8.840 -0.2611  0.0139  0.0289
 8945SOL    HW138468   3.744   0.587   8.887  1.7427  0.7157 -0.3180
 8945SOL    HW238469   3.753   0.434   8.901 -1.9471  0.3232  0.0646
 8946SOL     OW38470   3.088   3.115   7.158  0.4688  0.1096  0.6161
 8946SOL    HW138471   3.165   3.147   7.110 -1.1821  1.9113 -0.8169
 8946SOL    HW238472   3.019   3.126   7.093  0.1459 -0.0278  0.9372
 8947SOL     OW38473   4.254   0.824   6.235  0.4866 -0.1319 -0.2630
 8947SOL    HW138474   4.301   0.906   6.251 -0.4285  0.1107  1.1689
 8947SOL    HW238475   4.161   0.848   6.234  0.7331  0.7777 -1.1881
 8948SOL     OW38476   4.358   1.273   4.569  0.1880 -0.4814  0.4368
 8948SOL    HW138477   4.302   1.207   4.531  1.8622 -1.1178 -0.9040
 8948SOL    HW238478   4.349   1.330   4.493  0.9103  0.7475  1.2648
 8949SOL     OW38479   0.816   1.912   8.558 -0.4235 -0.0071  0.1304
 8949SOL    HW138480   0.759   1.858   8.503  0.9456  0.3194 -1.6238
 8949SOL    HW238481   0.792   1.987   8.504  3.1853 -0.6181 -2.3328
 8950SOL     OW38482   1.381   3.950   8.785 -0.3999  0.5572  0.1392
 8950SOL    HW138483   1.412   3.981   8.870 -1.4750 -2.4137  1.6140
 8950SOL    HW238484   1.369   3.858   8.810  0.3262  0.5342  0.4024
 8951SOL     OW38485   2.866   2.473   5.141  0.6858  0.8342  0.0697
 8951SOL    HW138486   2.920   2.517   5.207 -1.2736 -0.3379  2.4726
 8951SOL    HW238487   2.780   2.506   5.166 -1.0187 -3.8186  0.3733
 8952SOL     OW38488   3.734   0.316   6.214 -0.2317 -0.0684  0.8440
 8952SOL    HW138489   3.755   0.406   6.241  0.7567  0.0061 -0.2201
 8952SOL    HW238490   3.774   0.312   6.128  1.1290 -1.6319  1.5614
 8953SOL     OW38491   2.749   1.620   1.123  0.2055 -0.7145 -0.6031
 8953SOL    HW138492   2.708   1.572   1.194  0.7252  0.9158  0.7893
 8953SOL    HW238493   2.798   1.550   1.079  1.6374  1.1159 -1.9089
 8954SOL     OW38494   3.581   2.926   5.079  0.2665  0.0890 -0.0754
 8954SOL    HW138495   3.545   2.857   5.022 -1.6130  0.4556  0.6708
 8954SOL    HW238496   3.660   2.883   5.111 -0.0724 -1.0411 -0.7254
 8955SOL     OW38497   0.977   4.668   6.800  0.7043  0.4134  0.7648
 8955SOL    HW138498   1.011   4.624   6.722 -1.0808  0.9269 -0.3248
 8955SOL    HW238499   0.966   0.017   6.760  0.0970 -0.6465 -1.3971
 8956SOL     OW38500   4.124   3.419   1.094 -0.1859 -0.0716 -0.2711
 8956SOL    HW138501   4.174   3.380   1.022 -3.8212 -1.3427 -2.1101
 8956SOL    HW238502   4.181   3.396   1.167 -0.0265  2.0004  0.2618
 8957SOL     OW38503   4.599   1.197   8.726  0.6468 -0.1445  1.0349
 8957SOL    HW138504   4.662   1.246   8.673  0.7958 -1.9857 -0.5129
 8957SOL    HW238505   4.522   1.208   8.671  1.4119 -1.6064 -0.3401
 8958SOL     OW38506   1.369   3.054  17.453  0.0667 -0.2632 -0.1631
 8958SOL    HW138507   1.351   3.077  17.362 -1.6802 -0.8680  0.0264
 8958SOL    HW238508   1.408   3.135  17.485 -1.2751  0.8218 -1.3097
 8959SOL     OW38509   2.607   2.528  15.452 -0.2090 -0.2072  0.1402
 8959SOL    HW138510   2.605   2.522  15.356  1.4647  0.1591  0.0732
 8959SOL    HW238511   2.624   2.622  15.461  0.6421 -0.3668  0.2482
 8960SOL     OW38512   3.674   1.576   2.414 -0.3411  1.2011 -0.2171
 8960SOL    HW138513   3.608   1.572   2.344  0.1059  2.0550 -0.6848
 8960SOL    HW238514   3.748   1.527   2.379 -1.4803 -0.5247 -0.2203
 8961SOL     OW38515   4.266   1.691  17.642  0.3803  0.0134  0.1904
 8961SOL    HW138516   4.234   1.759  17.583 -1.0276 -0.6183  0.2243
 8961SOL    HW238517   4.270   1.738  17.725  0.9183  2.6555 -1.3163
 8962SOL     OW38518   3.921   4.093   7.523 -0.4431 -0.6809  0.5628
 8962SOL    HW138519   3.826   4.086   7.529 -0.7364  0.8647 -2.1609
 8962SOL    HW238520   3.951   4.008   7.555  0.7277 -0.3765  0.2775
 8963SOL     OW38521   4.191   2.727   5.468 -0.1653 -0.0015 -0.1781
 8963SOL    HW138522   4.231   2.814   5.460  0.7934 -0.2598  1.7828
 8963SOL    HW238523   4.260   2.674   5.508 -1.2077 -0.9799  0.3276
 8964SOL     OW38524   0.542   0.582   0.274 -0.3428 -0.1930 -0.2857
 8964SOL    HW138525   0.518   0.491   0.293 -0.1908 -0.5291 -1.6890
 8964SOL    HW238526   0.453   0.612   0.289 -0.2301  1.2424 -2.3931
 8965SOL     OW38527   2.837   1.181   1.193 -0.2344  0.1988 -0.1951
 8965SOL    HW138528   2.817   1.227   1.274 -2.7731  0.3535 -0.9050
 8965SOL    HW238529   2.766   1.118   1.199 -0.0701  0.2132  1.9456
 8966SOL     OW38530   3.877   4.468   5.552 -0.6520  0.5836  0.0026
 8966SOL    HW138531   3.886   4.461   5.647 -1.2358 -0.9900 -0.0621
 8966SOL    HW238532   3.960   4.430   5.524 -1.3420 -1.2461  0.4327
 8967SOL     OW38533   0.480   0.387   9.679 -0.2103 -0.0329  0.0400
 8967SOL    HW138534   0.560   0.349   9.644  0.1859 -0.1247  1.0561
 8967SOL    HW238535   0.512   0.429   9.759 -1.7830  1.7501 -0.2601
 8968SOL     OW38536   4.392   0.766  16.373  0.3296  0.3130  0.0549
 8968SOL    HW138537   4.374   0.772  16.279  0.5182 -0.7755 -0.0424
 8968SOL    HW238538   4.422   0.676  16.384  1.1332  0.4511 -1.0153
 8969SOL     OW38539   4.465   2.719   7.388 -0.5459 -0.3988 -0.0986
 8969SOL    HW138540   4.436   2.706   7.298  0.6800  0.1106 -0.5681
 8969SOL    HW238541   4.543   2.765   7.356 -1.9113  1.3275 -0.8814
 8970SOL     OW38542   2.537   4.142  12.072  0.3732 -0.0298  0.4776
 8970SOL    HW138543   2.550   4.236  12.067  0.8183 -0.1621 -0.7347
 8970SOL    HW238544   2.514   4.138  12.165 -2.2664  0.2242 -0.1675
 8971SOL     OW38545   4.612   0.226  15.399 -0.0974 -0.8193 -0.2438
 8971SOL    HW138546   4.619   0.315  15.433  0.7108 -0.8755 -0.2692
 8971SOL    HW238547   4.685   0.230  15.337  1.3190 -1.0887  1.4145
 8972SOL     OW38548   3.880   0.592   3.956 -0.2888 -0.6792  0.2298
 8972SOL    HW138549   3.960   0.554   3.919  0.1873 -0.1742  0.7377
 8972SOL    HW238550   3.903   0.596   4.049  2.5811 -1.5819 -0.4384
 8973SOL     OW38551   0.614   4.458  16.239 -0.3218 -0.2886  0.4772
 8973SOL    HW138552   0.519   4.457  16.253 -0.5292  0.7439 -0.8730
 8973SOL    HW238553   0.640   4.520  16.308  1.2478  0.3071 -0.6372
 8974SOL     OW38554   1.938   3.010   7.678  0.5184 -0.0428 -0.3225
 8974SOL    HW138555   1.864   2.965   7.717  2.4180 -2.3700  0.6292
 8974SOL    HW238556   1.982   3.045   7.755  0.2743  0.9053 -0.6121
 8975SOL     OW38557   3.784   3.776   1.426 -0.1751  0.7230 -0.5739
 8975SOL    HW138558   3.795   3.858   1.474 -3.1330  0.4751  0.4832
 8975SOL    HW238559   3.818   3.712   1.488  1.3666  0.3247 -1.8250
 8976SOL     OW38560   2.263   0.290   7.147  0.4450 -0.3555 -0.2408
 8976SOL    HW138561   2.253   0.377   7.107 -0.8400  0.8910  2.7304
 8976SOL    HW238562   2.171   0.270   7.164  0.1886  0.1307 -1.0573
 8977SOL     OW38563   0.911   1.528   6.720  0.2256 -0.0726 -0.1919
 8977SOL    HW138564   0.841   1.586   6.748  1.2173  0.1617  1.8155
 8977SOL    HW238565   0.982   1.590   6.703  1.6852 -2.3855 -2.4426
 8978SOL     OW38566   2.883   3.367   7.991  0.2233  0.7209  0.1463
 8978SOL    HW138567   2.949   3.298   7.977 -0.8555 -0.4348  0.7179
 8978SOL    HW238568   2.836   3.366   7.908 -1.9792  2.3482  1.3821
 8979SOL     OW38569   2.461   3.723  17.451  0.1911 -0.0412  0.4978
 8979SOL    HW138570   2.451   3.774  17.370 -0.4283  1.4655  1.5304
 8979SOL    HW238571   2.506   3.652  17.405  0.7672  0.4184  0.3492
 8980SOL     OW38572   3.116   4.009   3.761 -0.7711  0.0822  0.2707
 8980SOL    HW138573   3.150   3.975   3.844  0.1436 -0.7529 -0.4446
 8980SOL    HW238574   3.201   4.034   3.725  0.5793 -0.7821  2.8761
 8981SOL     OW38575   4.683   3.777   5.078 -0.1787  0.1246 -0.3347
 8981SOL    HW138576   4.713   3.855   5.033  0.9638 -0.4930 -0.6529
 8981SOL    HW238577   4.703   3.708   5.014  1.1873 -1.0995  1.4066
 8982SOL     OW38578   2.275   3.398   4.829 -0.0503  0.0309  0.1136
 8982SOL    HW138579   2.217   3.323   4.843 -0.3437  0.3237  0.4921
 8982SOL    HW238580   2.239   3.420   4.743  1.2486 -0.9051 -0.6522
 8983SOL     OW38581   4.696   3.255   2.080 -0.3626 -0.0254 -0.5389
 8983SOL    HW138582   0.048   3.288   2.079  0.1552 -1.4507 -1.1521
 8983SOL    HW238583   4.646   3.331   2.109 -0.3983 -0.9890  1.9656
 8984SOL     OW38584   2.825   3.470   0.438 -0.1495 -0.3469 -0.7499
 8984SOL    HW138585   2.741   3.485   0.395 -0.6633  0.4681  0.5242
 8984SOL    HW238586   2.878   3.498   0.364  0.5108 -0.5116 -0.3411
 8985SOL     OW38587   2.474   1.523   4.999 -0.4087 -0.4211  0.1354
 8985SOL    HW138588   2.504   1.497   4.912 -0.4647 -0.0316 -0.0046
 8985SOL    HW238589   2.393   1.565   4.969 -0.1734 -0.1349 -0.1064
 8986SOL     OW38590   4.261   3.828   3.530  0.2499  0.2630  0.0697
 8986SOL    HW138591   4.309   3.835   3.612 -1.0229  2.9756  0.5992
 8986SOL    HW238592   4.324   3.775   3.482 -0.4386 -0.7526  0.2930
 8987SOL     OW38593   4.077   1.144   8.641 -0.3713  0.4190  0.1069
 8987SOL    HW138594   3.986   1.153   8.670 -0.1187  0.2031  0.9727
 8987SOL    HW238595   4.065   1.127   8.547  0.4797  1.3075 -0.1596
 8988SOL     OW38596   4.057   3.441   2.079  0.1887  0.2421 -0.2091
 8988SOL    HW138597   4.076   3.534   2.069 -0.7587  0.4871  0.2567
 8988SOL    HW238598   4.136   3.407   2.120  0.8427  1.7939 -0.1699
 8989SOL     OW38599   3.589   0.378   8.015 -0.5351 -0.5176  0.1875
 8989SOL    HW138600   3.494   0.390   8.017 -0.5850 -0.8753 -0.1983
 8989SOL    HW238601   3.608   0.290   7.982 -1.4799 -1.2884  1.6605
 8990SOL     OW38602   1.582   2.948   1.805 -0.5083  0.2339 -0.4774
 8990SOL    HW138603   1.637   2.885   1.760 -0.8670 -1.3988  1.3742
 8990SOL    HW238604   1.496   2.905   1.805 -1.0530  1.2949  0.8648
 8991SOL     OW38605   4.089   0.857   3.481  0.0227  0.1554 -0.5576
 8991SOL    HW138606   4.094   0.879   3.574  1.1432 -0.2256 -0.5254
 8991SOL    HW238607   4.009   0.899   3.450 -0.9419  0.2306  1.9859
 8992SOL     OW38608   2.524   0.426   5.912 -0.1902 -0.5852  0.1725
 8992SOL    HW138609   2.445   0.457   5.956  1.2186 -0.2057  2.4916
 8992SOL    HW238610   2.510   0.334   5.895 -0.1948 -0.7336  0.9496
 8993SOL     OW38611   2.289   3.075  17.385  0.3490 -0.2061 -0.9204
 8993SOL    HW138612   2.347   3.147  17.359  3.7241 -2.5899 -0.0333
 8993SOL    HW238613   2.208   3.117  17.356  1.0310  2.3748  0.9372
 8994SOL     OW38614   1.359   0.348  15.286 -0.5331 -0.6413 -0.1378
 8994SOL    HW138615   1.360   0.369  15.380  0.1347 -0.7547 -0.1218
 8994SOL    HW238616   1.323   0.259  15.290 -0.4986 -0.6580 -0.2094
 8995SOL     OW38617   2.459   1.717   7.549  0.0919  0.1743  0.3683
 8995SOL    HW138618   2.378   1.682   7.587  0.2242 -2.5945 -1.8874
 8995SOL    HW238619   2.414   1.788   7.504 -0.5979 -0.4239  0.1146
 8996SOL     OW38620   1.022   2.927   6.163 -0.2112 -0.1263  0.0985
 8996SOL    HW138621   1.092   2.908   6.225 -1.6678 -1.7228  1.2744
 8996SOL    HW238622   1.016   3.022   6.166 -1.2546 -0.2245  1.3683
 8997SOL     OW38623   3.732   2.994   2.604 -0.4798 -0.0581 -0.2035
 8997SOL    HW138624   3.778   3.003   2.521  1.7903 -1.6408  0.8734
 8997SOL    HW238625   3.753   2.902   2.617 -0.2412  0.0272  0.0094
 8998SOL     OW38626   2.231   3.623   1.276  0.3711 -0.5193 -0.8221
 8998SOL    HW138627   2.155   3.569   1.256 -1.8489  2.7236 -1.2556
 8998SOL    HW238628   2.288   3.609   1.200  1.7232  2.2980 -0.3200
 8999SOL     OW38629   4.378   0.014   7.048 -0.0693 -1.0409 -0.2573
 8999SOL    HW138630   4.473   0.010   7.063 -0.2176  0.1074  0.9940
 8999SOL    HW238631   4.341   0.037   7.134  0.3027 -0.9584 -0.1201
 9000SOL     OW38632   1.478   3.343   3.008 -0.0565  0.1186  0.3869
 9000SOL    HW138633   1.473   3.405   3.081  0.8300  0.3627  0.2299
 9000SOL    HW238634   1.387   3.346   2.979  0.6138  0.4302 -1.6549
 9001SOL     OW38635   0.213   2.891   7.573 -0.3027  0.3982  0.2481
 9001SOL    HW138636   0.244   2.964   7.627  0.1130  0.2869  0.1573
 9001SOL    HW238637   0.289   2.857   7.526 -0.1681  0.4880  0.3972
 9002SOL     OW38638   2.362   0.530   5.129  0.9575 -0.2514 -0.1522
 9002SOL    HW138639   2.267   0.523   5.143  1.1848 -0.2702  1.4014
 9002SOL    HW238640   2.374   0.468   5.057  1.0474 -0.5647  0.1343
 9003SOL     OW38641   2.673   2.777   2.247 -0.7676 -0.5797  0.1530
 9003SOL    HW138642   2.619   2.799   2.323 -1.1152 -2.5311  0.4894
 9003SOL    HW238643   2.756   2.777   2.296 -1.5202  1.4123  1.3965
 9004SOL     OW38644   0.596   0.022   5.550 -0.3326 -0.2304 -0.0401
 9004SOL    HW138645   0.683   0.019   5.508  0.3453 -0.7832  1.4098
 9004SOL    HW238646   0.587   0.115   5.571  0.9360 -0.1432  0.1064
 9005SOL     OW38647   0.521   2.743  10.741 -0.8457  0.0873  0.2693
 9005SOL    HW138648   0.601   2.701  10.773 -1.7167  1.1833  3.8741
 9005SOL    HW238649   0.474   2.664  10.715 -0.1643  0.1590 -1.2266
 9006SOL     OW38650   2.940   4.029  12.686  0.3312  0.5332 -0.3291
 9006SOL    HW138651   2.873   4.084  12.646 -2.4286 -0.7738  2.4863
 9006SOL    HW238652   2.955   3.972  12.611  0.2986 -0.5912  0.5144
 9007SOL     OW38653   2.408   3.717   6.910  0.2008 -0.1414 -0.1338
 9007SOL    HW138654   2.435   3.725   7.001  0.6476 -0.3540 -0.2483
 9007SOL    HW238655   2.401   3.809   6.887  1.1695 -0.3480 -1.2511
 9008SOL     OW38656   3.265   2.916   4.405 -0.2466 -0.3146 -0.5041
 9008SOL    HW138657   3.296   2.965   4.482 -0.2118  1.8372 -1.9079
 9008SOL    HW238658   3.219   2.981   4.352  1.5071  1.9298  0.7280
 9009SOL     OW38659   1.201   4.019  11.293 -0.0319  0.2240 -0.9150
 9009SOL    HW138660   1.292   4.047  11.299 -0.2159  0.7130 -0.4338
 9009SOL    HW238661   1.181   4.074  11.217 -2.3109  0.0596 -0.4499
 9010SOL     OW38662   4.549   0.597   6.763  0.6523  0.2801 -0.3578
 9010SOL    HW138663   4.526   0.547   6.685  2.8850  0.6358 -1.2468
 9010SOL    HW238664   4.638   0.568   6.785 -0.2404 -0.5134  2.2451
 9011SOL     OW38665   3.093   2.914   5.323 -0.0993  0.2571 -0.3583
 9011SOL    HW138666   3.041   2.905   5.243  0.5799  1.7538 -0.9629
 9011SOL    HW238667   3.038   2.937   5.397 -0.3333  0.0532 -0.4708
 9012SOL     OW38668   4.638   4.347   0.237 -0.1971 -0.2509  0.0215
 9012SOL    HW138669   4.545   4.368   0.234 -0.5819 -1.9785  0.0925
 9012SOL    HW238670   4.631   4.253   0.224  0.0422  0.1550 -3.2223
 9013SOL     OW38671   2.779   3.793   8.586  0.2221 -0.1062 -0.7443
 9013SOL    HW138672   2.821   3.795   8.500 -0.9210  2.4832 -1.2396
 9013SOL    HW238673   2.768   3.700   8.601 -0.5949  0.3920  1.7577
 9014SOL     OW38674   0.105   3.335   5.209 -0.6987  0.0408  0.5199
 9014SOL    HW138675   0.083   3.309   5.299 -2.2378 -0.4999 -0.0090
 9014SOL    HW238676   0.084   3.428   5.209  0.7554  0.3614  3.6595
 9015SOL     OW38677   0.292   3.709  13.425  0.6935  0.0649 -0.0939
 9015SOL    HW138678   0.255   3.627  13.392  1.4572 -0.4082  0.2449
 9015SOL    HW238679   0.251   3.707  13.511  1.0540 -0.2086  0.0708
 9016SOL     OW38680   4.511   2.179   4.133 -0.1601  0.2728  0.1321
 9016SOL    HW138681   4.592   2.192   4.084 -0.2107 -0.3154 -0.1093
 9016SOL    HW238682   4.524   2.098   4.181  0.2743  1.4672  2.0133
 9017SOL     OW38683   3.806   1.417   2.649  0.4531  0.4579 -0.1584
 9017SOL    HW138684   3.744   1.366   2.596  0.6648  1.6086 -1.4926
 9017SOL    HW238685   3.877   1.353   2.652  0.1287 -0.0014 -2.3378
 9018SOL     OW38686   2.172   3.073   1.912  0.1193 -0.1572 -0.3376
 9018SOL    HW138687   2.221   3.066   1.995 -1.3214 -0.2718  0.5052
 9018SOL    HW238688   2.166   2.982   1.883  0.7135 -0.1751 -0.4044
 9019SOL     OW38689   2.029   3.778   3.842 -0.2698 -0.1564 -0.4248
 9019SOL    HW138690   1.962   3.714   3.819 -0.3023  0.2204 -1.3637
 9019SOL    HW238691   2.112   3.733   3.855  0.2981  1.1027  0.2178
 9020SOL     OW38692   0.807   3.063   4.690  0.0690  0.0559  0.0615
 9020SOL    HW138693   0.828   2.987   4.744  0.6369  0.0081 -0.2254
 9020SOL    HW238694   0.837   3.024   4.608  0.3473  3.0517 -1.2606
 9021SOL     OW38695   4.548   2.447   2.430  0.0532  0.0718 -0.5348
 9021SOL    HW138696   4.487   2.479   2.496  0.7851 -0.5622  0.4521
 9021SOL    HW238697   4.606   2.389   2.481 -0.8430  1.8462  2.4997
 9022SOL     OW38698   0.566   3.208  14.008 -0.6993  0.1797 -0.4918
 9022SOL    HW138699   0.509   3.174  14.078  2.6904 -1.9298  1.2403
 9022SOL    HW238700   0.651   3.218  14.052 -0.6006 -0.9055 -0.4487
 9023SOL     OW38701   2.294   1.550  17.515  0.0447  0.2966 -0.0875
 9023SOL    HW138702   2.290   1.540  17.420 -2.0953 -3.2781  0.3964
 9023SOL    HW238703   2.382   1.588  17.524  0.4294 -0.7012  0.4220
 9024SOL     OW38704   2.373   3.296   1.140 -0.5275 -0.0150  0.3168
 9024SOL    HW138705   2.432   3.225   1.165 -0.7512 -0.1223  0.5465
 9024SOL    HW238706   2.395   3.302   1.047 -0.8957  0.3125  0.2503
 9025SOL     OW38707   2.618   4.451   5.938  0.0996 -0.0268 -1.0586
 9025SOL    HW138708   2.624   4.493   6.024  0.0972  0.8292 -1.4794
 9025SOL    HW238709   2.709   4.462   5.913  0.9282  0.3606  2.0838
 9026SOL     OW38710   2.137   4.670  14.074  0.3601  0.1760 -0.3674
 9026SOL    HW138711   2.093   4.585  14.078 -0.6911  0.7654  0.7402
 9026SOL    HW238712   2.180   4.667  13.988 -0.9138  0.8431 -1.0193
 9027SOL     OW38713   1.577   3.831  10.864  0.4048 -0.2468  0.2271
 9027SOL    HW138714   1.607   3.746  10.832 -0.4052 -0.2984 -0.3687
 9027SOL    HW238715   1.644   3.880  10.816 -1.0566  0.5516 -0.9817
 9028SOL     OW38716   3.675   1.332   2.240 -0.1307 -0.6772 -0.4588
 9028SOL    HW138717   3.662   1.306   2.149  1.3592 -0.7651 -0.6453
 9028SOL    HW238718   3.604   1.283   2.281  0.2186 -1.2495 -0.5332
 9029SOL     OW38719   4.657   1.311  12.113 -0.1022 -0.0800  0.5461
 9029SOL    HW138720   4.672   1.380  12.049 -1.7128  1.9948  2.3531
 9029SOL    HW238721   4.572   1.270  12.096  0.1587 -1.0841  1.6380
 9030SOL     OW38722   1.162   4.535   8.776  0.2618  0.1717  1.1578
 9030SOL    HW138723   1.111   4.561   8.853 -1.9000  0.0318 -0.2216
 9030SOL    HW238724   1.228   4.603   8.780  0.7932 -0.2852  0.2082
 9031SOL     OW38725   0.150   1.502  13.138  0.2436 -0.5654  0.3182
 9031SOL    HW138726   0.212   1.535  13.072  2.2145 -1.6924  1.6092
 9031SOL    HW238727   0.106   1.584  13.161  2.0663 -0.0004  1.7239
 9032SOL     OW38728   0.952   0.556  16.246  0.9469  0.0729  0.0910
 9032SOL    HW138729   0.896   0.507  16.186  2.7667 -0.6930 -1.0012
 9032SOL    HW238730   1.040   0.563  16.209  0.6486 -0.7535 -0.7721
 9033SOL     OW38731   1.001   0.201   7.712 -0.3450 -0.5048 -0.2177
 9033SOL    HW138732   0.996   0.144   7.789  0.3747 -2.5206 -1.6377
 9033SOL    HW238733   1.038   0.135   7.652 -1.4493 -2.5987  1.4099
 9034SOL     OW38734   3.336   1.261  14.412  0.2111  0.2468  0.3698
 9034SOL    HW138735   3.303   1.172  14.399  3.8265 -1.0520 -0.0559
 9034SOL    HW238736   3.255   1.296  14.450 -0.5198 -0.2291 -0.7442
 9035SOL     OW38737   1.276   2.080   3.661  0.5410 -0.1189  0.6317
 9035SOL    HW138738   1.208   2.053   3.723  0.4832 -1.5660 -0.0813
 9035SOL    HW238739   1.313   2.154   3.710  0.5295  0.8802 -0.8869
 9036SOL     OW38740   0.578   4.605  13.661  0.2147 -0.2174 -0.1616
 9036SOL    HW138741   0.629   4.531  13.695  0.6989  0.4713  0.6204
 9036SOL    HW238742   0.649   4.666  13.645 -0.5629  0.6844 -0.1599
 9037SOL     OW38743   1.558   4.179  11.623 -0.5315  0.1201  0.2127
 9037SOL    HW138744   1.469   4.167  11.656 -0.5757 -1.3164 -0.4366
 9037SOL    HW238745   1.548   4.264  11.581 -1.6162 -0.1475 -0.0824
 9038SOL     OW38746   4.618   3.932   6.520  0.1467 -0.0518  0.1712
 9038SOL    HW138747   4.604   3.877   6.598 -0.0787  0.7707  0.7128
 9038SOL    HW238748   4.535   3.937   6.472 -1.4303 -0.3076  2.8493
 9039SOL     OW38749   4.153   0.390   3.630 -0.3723 -0.0207  0.2367
 9039SOL    HW138750   4.173   0.386   3.724 -0.6685 -2.2012  0.1933
 9039SOL    HW238751   4.113   0.477   3.628 -2.4875 -1.0150  0.0730
 9040SOL     OW38752   3.229   0.575   2.752 -0.6275  0.2256  0.1827
 9040SOL    HW138753   3.234   0.641   2.683  0.0838 -0.9966 -0.9150
 9040SOL    HW238754   3.153   0.525   2.725 -0.8037 -0.1080  1.2909
 9041SOL     OW38755   1.318   1.308   4.692  0.2600 -0.0369  0.3754
 9041SOL    HW138756   1.410   1.326   4.710 -0.2520  2.4924  0.4561
 9041SOL    HW238757   1.270   1.362   4.755 -1.4345 -1.9703  0.7372
 9042SOL     OW38758   2.545   1.548   2.213  0.2010  0.3614 -0.8763
 9042SOL    HW138759   2.553   1.643   2.224  0.8210 -0.0339  2.0641
 9042SOL    HW238760   2.589   1.516   2.292 -1.2679  0.0708 -0.1811
 9043SOL     OW38761   3.164   0.275   1.089 -0.5588 -0.0603 -0.2054
 9043SOL    HW138762   3.165   0.190   1.134 -0.6290  0.1431  0.1818
 9043SOL    HW238763   3.256   0.271   1.065 -0.0228 -0.0111  1.9080
 9044SOL     OW38764   3.044   0.253   3.853  0.0681  0.6442  0.2157
 9044SOL    HW138765   3.000   0.334   3.877 -0.6086  0.1968  0.4723
 9044SOL    HW238766   3.110   0.288   3.793  0.2924  1.8711  1.1799
 9045SOL     OW38767   1.627   4.283   2.483  0.5257  0.3518  0.0977
 9045SOL    HW138768   1.708   4.329   2.460  1.0172 -0.5941 -0.0775
 9045SOL    HW238769   1.611   4.300   2.576 -0.6387  0.3769 -0.1103
 9046SOL     OW38770   2.873   2.628   3.062 -0.4757  0.1440 -1.1217
 9046SOL    HW138771   2.839   2.664   2.980 -2.1887 -0.1576 -0.5308
 9046SOL    HW238772   2.921   2.702   3.099 -1.8329 -1.1619  3.1980
 9047SOL     OW38773   0.669   0.262   7.959  0.3281 -0.0291  0.6894
 9047SOL    HW138774   0.632   0.175   7.945 -1.8895  1.0638 -0.1348
 9047SOL    HW238775   0.657   0.261   8.054 -1.6068 -2.0506  0.4100
 9048SOL     OW38776   3.250   0.531   0.077  0.0473 -0.5473  0.1575
 9048SOL    HW138777   3.229   0.537  17.732 -0.8093  0.1608  0.3923
 9048SOL    HW238778   3.265   0.436   0.078 -1.8023 -0.8781 -3.5064
 9049SOL     OW38779   3.630   1.952   4.089 -0.6923 -1.0225  0.1469
 9049SOL    HW138780   3.549   1.917   4.126 -0.4383  0.2079  1.8827
 9049SOL    HW238781   3.703   1.929   4.146  1.7547  0.8151 -2.2223
 9050SOL     OW38782   3.389   1.705   6.461  0.4820  0.4063 -0.7718
 9050SOL    HW138783   3.357   1.770   6.399  2.7063  0.4368 -1.8741
 9050SOL    HW238784   3.377   1.622   6.415 -0.1701  0.8530 -1.3971
 9051SOL     OW38785   2.398   0.926   5.486  0.5649 -0.4977 -0.0714
 9051SOL    HW138786   2.381   0.996   5.550  0.6556 -0.4290 -0.1215
 9051SOL    HW238787   2.315   0.912   5.441  0.3009  1.9687 -0.3481
 9052SOL     OW38788   3.704   1.947   4.529  0.2046  0.3183  0.1282
 9052SOL    HW138789   3.614   1.918   4.517  0.0542  1.9980 -2.7742
 9052SOL    HW238790   3.740   1.871   4.575 -2.1073 -1.7873 -1.5533
 9053SOL     OW38791   4.188   2.200   9.659  0.4223 -0.1074 -0.2590
 9053SOL    HW138792   4.235   2.280   9.685 -0.9827  0.0291  1.8738
 9053SOL    HW238793   4.261   2.138   9.654  0.1804 -0.4606  0.6560
 9054SOL     OW38794   4.088   0.497   9.747  0.2335 -0.1846 -0.3594
 9054SOL    HW138795   4.142   0.435   9.698  3.0438  0.8835  1.3356
 9054SOL    HW238796   4.022   0.437   9.781  1.5286 -0.9891  0.7688
 9055SOL     OW38797   4.165   4.057  12.842  0.2590  0.4234 -0.3233
 9055SOL    HW138798   4.245   4.019  12.877  0.5344  0.0692 -1.3609
 9055SOL    HW238799   4.106   3.982  12.840  0.7490 -0.0733  3.2548
 9056SOL     OW38800   2.864   4.432   4.040 -0.2133  0.0107 -0.2489
 9056SOL    HW138801   2.847   4.461   4.130  1.0938 -0.2568  0.0935
 9056SOL    HW238802   2.885   4.339   4.053  1.1629  0.3169 -0.2355
 9057SOL     OW38803   4.399   3.352  12.185  0.4900  0.2441 -0.3090
 9057SOL    HW138804   4.335   3.286  12.210  2.9215 -1.0172  2.6631
 9057SOL    HW238805   4.443   3.369  12.269  1.0406  1.0683 -0.7661
 9058SOL     OW38806   1.499   2.138   9.170 -0.2690 -0.3169 -0.4370
 9058SOL    HW138807   1.447   2.215   9.190 -0.1130 -1.1737  3.2518
 9058SOL    HW238808   1.434   2.092   9.117 -1.0180 -0.8478  0.9472
 9059SOL     OW38809   3.905   4.362   8.776 -0.8039 -0.6682  0.5375
 9059SOL    HW138810   3.834   4.300   8.787 -0.6652 -0.6688  1.3940
 9059SOL    HW238811   3.884   4.402   8.860 -0.7829 -0.8313  0.6188
 9060SOL     OW38812   2.075   3.652   5.220 -0.0563 -0.0058 -0.5854
 9060SOL    HW138813   2.141   3.620   5.157  1.1494  1.5678 -0.1260
 9060SOL    HW238814   2.047   3.572   5.264  2.1892  0.0502  0.9720
 9061SOL     OW38815   2.917   3.370   7.636  1.0551  0.2913 -0.2832
 9061SOL    HW138816   2.856   3.437   7.606  2.2458  0.4913 -2.2278
 9061SOL    HW238817   2.859   3.296   7.616  0.3096  1.1573 -1.2904
 9062SOL     OW38818   1.083   3.873   5.421  0.1457 -0.0492 -0.1103
 9062SOL    HW138819   1.158   3.819   5.445 -0.0450 -0.2376  0.0642
 9062SOL    HW238820   1.021   3.801   5.428  1.1077 -0.8635 -0.0930
 9063SOL     OW38821   1.332   2.067   2.006 -0.1883  0.0635 -0.5887
 9063SOL    HW138822   1.421   2.053   1.973  0.3604  0.7431  0.5901
 9063SOL    HW238823   1.350   2.094   2.096  0.4610  0.6131 -0.8740
 9064SOL     OW38824   0.331   1.649   5.665  0.4479  0.0819 -0.6224
 9064SOL    HW138825   0.261   1.587   5.689  2.3822 -2.0913 -0.6107
 9064SOL    HW238826   0.368   1.647   5.753  1.6225 -0.5089 -1.1314
 9065SOL     OW38827   1.523   0.332   5.393 -0.2672 -0.4915 -0.2164
 9065SOL    HW138828   1.587   0.269   5.362 -2.2432 -1.9302 -1.3741
 9065SOL    HW238829   1.556   0.414   5.357 -0.6317 -1.3920 -2.6023
 9066SOL     OW38830   1.974   1.801   2.612 -0.1215 -0.0679  0.5361
 9066SOL    HW138831   1.932   1.807   2.526  0.2800 -1.1406  0.2667
 9066SOL    HW238832   1.894   1.800   2.666 -1.0986 -0.9313 -0.9266
 9067SOL     OW38833   1.487   0.551   8.312 -0.4803 -0.3800  0.4749
 9067SOL    HW138834   1.521   0.553   8.222  0.9135 -0.4611  1.0024
 9067SOL    HW238835   1.398   0.522   8.292 -1.7019  4.6818 -1.4085
 9068SOL     OW38836   2.679   2.959  15.780 -0.1728 -0.2913  0.5602
 9068SOL    HW138837   2.721   3.004  15.707  0.4981  0.7768  1.5881
 9068SOL    HW238838   2.758   2.940  15.831 -0.7879 -2.2398  0.7796
 9069SOL     OW38839   2.594   2.699   4.458  0.1093  0.5489  0.3269
 9069SOL    HW138840   2.509   2.692   4.503 -0.7918  1.6777 -1.2161
 9069SOL    HW238841   2.605   2.794   4.464  0.2417  0.5640 -0.2353
 9070SOL     OW38842   0.033   4.470  15.301  0.3883 -0.5387 -0.0687
 9070SOL    HW138843   0.051   4.377  15.316 -0.7881 -1.0557 -1.9416
 9070SOL    HW238844   0.004   4.490  15.390  2.1003  1.7543 -0.0055
 9071SOL     OW38845   4.629   2.195   7.730  0.0222 -0.0477 -0.0563
 9071SOL    HW138846   4.638   2.107   7.694  0.1631 -1.0256  2.3893
 9071SOL    HW238847   4.591   2.188   7.818  1.1230  1.4230  0.5297
 9072SOL     OW38848   3.361   3.304   1.737  0.8382  0.1541  0.6118
 9072SOL    HW138849   3.400   3.286   1.652  0.2232 -3.0715  1.0124
 9072SOL    HW238850   3.269   3.287   1.715  0.9489 -0.6501  0.7670
 9073SOL     OW38851   1.625   3.609  11.424  0.3943  0.1194  0.0591
 9073SOL    HW138852   1.684   3.578  11.355 -0.4629  1.4395 -1.2544
 9073SOL    HW238853   1.644   3.531  11.477  2.7375  0.9301  0.4261
 9074SOL     OW38854   4.217   0.760  15.135 -0.2243  0.1232 -0.2292
 9074SOL    HW138855   4.254   0.765  15.046  2.0073  2.4304  0.8154
 9074SOL    HW238856   4.286   0.719  15.188 -1.1087  0.4615  1.1677
 9075SOL     OW38857   2.419   1.317   3.359  0.0862  0.0179 -0.3475
 9075SOL    HW138858   2.446   1.277   3.442 -1.5283  1.2704  0.7830
 9075SOL    HW238859   2.352   1.374   3.396  0.4444 -0.9842  1.8634
 9076SOL     OW38860   1.287   3.938   3.410  0.2414  0.1259  0.3744
 9076SOL    HW138861   1.336   3.997   3.352  2.5072 -1.1142  1.0213
 9076SOL    HW238862   1.335   3.958   3.490 -0.1469 -0.2893  0.7044
 9077SOL     OW38863   1.202   4.437   4.817  0.0190 -0.5772  0.0475
 9077SOL    HW138864   1.184   4.377   4.890 -1.5595 -1.9380 -1.4499
 9077SOL    HW238865   1.139   4.418   4.748 -1.0479 -0.5513  1.0105
 9078SOL     OW38866   3.323   2.782   3.714  0.1692  0.4339 -0.1343
 9078SOL    HW138867   3.372   2.769   3.632  2.1860  1.1833  0.9439
 9078SOL    HW238868   3.240   2.821   3.688 -1.9050 -3.2094  1.1003
 9079SOL     OW38869   2.041   4.352   5.467 -0.5042 -0.0131 -0.1764
 9079SOL    HW138870   2.025   4.346   5.561  0.4014  1.1301  0.0529
 9079SOL    HW238871   1.985   4.422   5.433 -1.4399  0.0222  1.4382
 9080SOL     OW38872   0.552   0.570  14.026  0.0905 -0.0145 -0.3464
 9080SOL    HW138873   0.492   0.550  13.953  0.6828 -0.7864 -0.6106
 9080SOL    HW238874   0.587   0.484  14.047  2.1850  1.3411  1.6837
 9081SOL     OW38875   4.690   0.083   4.099  0.5480  0.2635 -0.4213
 9081SOL    HW138876   4.618   0.022   4.088 -0.2954  1.3340 -0.8794
 9081SOL    HW238877   4.688   0.118   4.010  0.8286  1.6168  0.1018
 9082SOL     OW38878   0.239   0.958   4.705  0.4575 -0.0579 -0.4327
 9082SOL    HW138879   0.284   1.005   4.774  3.3593 -2.2653 -0.7950
 9082SOL    HW238880   0.298   0.956   4.629  0.4728 -0.3676 -0.4143
 9083SOL     OW38881   1.253   4.397   3.606  0.4785  0.0120 -0.0360
 9083SOL    HW138882   1.341   4.376   3.577  0.5859  1.1305 -0.5187
 9083SOL    HW238883   1.263   4.484   3.645  0.7294 -1.1929  2.6131
 9084SOL     OW38884   0.453   0.281   2.573 -0.3821 -0.0907  0.0389
 9084SOL    HW138885   0.398   0.355   2.548  0.0743 -0.1459 -1.1547
 9084SOL    HW238886   0.439   0.282   2.667 -0.2788 -0.9559  0.0641
 9085SOL     OW38887   0.297   1.560   6.733  0.4021 -0.4721  0.3910
 9085SOL    HW138888   0.267   1.648   6.756 -0.2057 -0.8521  1.0547
 9085SOL    HW238889   0.243   1.497   6.780 -0.1026 -1.3591 -1.4062
 9086SOL     OW38890   2.610   2.706   8.095 -0.2672  0.4350  0.5957
 9086SOL    HW138891   2.692   2.751   8.113 -0.5790  0.2448  2.4487
 9086SOL    HW238892   2.626   2.614   8.116 -0.5853  0.4277  0.8066
 9087SOL     OW38893   0.187   0.216   4.671  0.1241  0.5408 -0.3498
 9087SOL    HW138894   0.204   0.229   4.764  0.4599  2.7106 -0.7174
 9087SOL    HW238895   0.112   0.157   4.679  0.5557 -0.1259 -1.1737
 9088SOL     OW38896   2.442   4.092  11.039  0.0102 -0.4756 -0.1792
 9088SOL    HW138897   2.385   4.163  11.069 -2.8111 -3.9105  2.5857
 9088SOL    HW238898   2.509   4.125  10.979  0.2911 -1.2688 -0.3055
 9089SOL     OW38899   3.223   0.493   9.135 -0.1201 -0.7629 -0.7863
 9089SOL    HW138900   3.205   0.408   9.095 -0.1947 -1.2919  0.3890
 9089SOL    HW238901   3.310   0.476   9.171  0.3344 -0.5143 -1.7740
 9090SOL     OW38902   0.561   1.884   6.953  0.5112  0.1852 -0.3452
 9090SOL    HW138903   0.628   1.950   6.970  2.1638 -1.4892 -0.3699
 9090SOL    HW238904   0.552   1.854   7.044 -2.2052  0.9638 -0.3533
 9091SOL     OW38905   0.847   2.786   5.144  0.3093  0.6245 -0.5056
 9091SOL    HW138906   0.894   2.781   5.227  1.0720  0.2337 -0.9566
 9091SOL    HW238907   0.827   2.880   5.139 -0.7223  0.3781 -0.9667
 9092SOL     OW38908   0.812   0.511   3.956  0.4813  0.1793  0.1354
 9092SOL    HW138909   0.755   0.452   4.005  0.2655  0.4790  0.2456
 9092SOL    HW238910   0.890   0.523   4.010  1.4966 -1.8197 -0.8921
 9093SOL     OW38911   4.195   0.317   3.877  0.4158  0.6392  0.3250
 9093SOL    HW138912   4.163   0.294   3.964 -0.5049 -1.5780 -0.5782
 9093SOL    HW238913   4.290   0.302   3.881  0.1740 -1.2719 -0.9171
 9094SOL     OW38914   0.034   0.613   1.584  0.0081  1.2545 -0.0075
 9094SOL    HW138915   0.124   0.645   1.586  0.2415  0.5247  0.7600
 9094SOL    HW238916   4.729   0.684   1.632  0.4174  0.8796  0.8997
 9095SOL     OW38917   0.927   0.741  10.224  0.3362  0.1987  0.0738
 9095SOL    HW138918   0.996   0.786  10.273  1.0391 -0.9920  0.1696
 9095SOL    HW238919   0.876   0.700  10.294  0.9649 -0.1182  0.3407
 9096SOL     OW38920   0.590   2.886   0.450  0.1068 -0.3978 -0.4233
 9096SOL    HW138921   0.667   2.937   0.478 -1.6779  0.4695  2.8483
 9096SOL    HW238922   0.590   2.906   0.356  1.1035  1.7516  0.0264
 9097SOL     OW38923   1.128   4.412   1.518  1.0375  0.6074 -0.0084
 9097SOL    HW138924   1.088   4.365   1.591  0.6625  0.6954 -0.1550
 9097SOL    HW238925   1.168   4.340   1.469  2.2162 -0.1554  2.1205
 9098SOL     OW38926   2.432   2.720   8.822  0.4050 -0.2181 -0.3237
 9098SOL    HW138927   2.404   2.811   8.838  3.4872  0.5419  0.8789
 9098SOL    HW238928   2.374   2.680   8.887  0.3239 -1.0508 -0.9143
 9099SOL     OW38929   2.059   1.343   1.900 -0.4254  0.5758  0.2146
 9099SOL    HW138930   2.041   1.291   1.978  0.0316  0.9876  0.5895
 9099SOL    HW238931   2.067   1.432   1.933  1.3987  0.4662  0.0326
 9100SOL     OW38932   1.785   0.662   4.921 -0.1787  0.1846 -0.2325
 9100SOL    HW138933   1.726   0.598   4.881 -1.9439  2.8900 -1.9565
 9100SOL    HW238934   1.865   0.644   4.872 -0.8614 -4.0596  0.2645
 9101SOL     OW38935   3.722   0.763   8.954  0.3190 -0.0962 -0.9256
 9101SOL    HW138936   3.718   0.849   8.913 -2.0528  0.1689 -0.1239
 9101SOL    HW238937   3.737   0.794   9.044 -1.7417  0.5504 -0.8100
 9102SOL     OW38938   2.564   1.697   3.633  0.3307 -0.4471 -0.2604
 9102SOL    HW138939   2.480   1.744   3.631  0.3008 -0.4631  0.4790
 9102SOL    HW238940   2.633   1.762   3.627  1.2227 -1.3546  0.2430
 9103SOL     OW38941   3.824   0.776   8.018 -0.1175  0.2275 -0.1685
 9103SOL    HW138942   3.800   0.708   8.081  0.3346 -0.1441 -0.3969
 9103SOL    HW238943   3.907   0.742   7.984 -0.6117  0.6198 -1.7238
 9104SOL     OW38944   1.270   2.335  14.212 -0.5797 -0.2406 -0.4580
 9104SOL    HW138945   1.311   2.403  14.159  0.0431 -0.1752  0.1094
 9104SOL    HW238946   1.239   2.276  14.143  1.6262  0.7257 -2.2504
 9105SOL     OW38947   2.578   2.120   3.234  0.5070 -0.0483 -0.1209
 9105SOL    HW138948   2.638   2.139   3.306 -1.1438 -3.6559  2.1977
 9105SOL    HW238949   2.511   2.188   3.242  1.2623  0.6530  0.1993
 9106SOL     OW38950   0.636   3.666   6.124 -0.4583 -0.2385  0.0342
 9106SOL    HW138951   0.605   3.576   6.115 -0.0748 -0.4923  1.3927
 9106SOL    HW238952   0.643   3.697   6.033 -1.3062  1.0446  0.4082
 9107SOL     OW38953   1.995   2.773   0.893  0.3605  0.2856 -0.1124
 9107SOL    HW138954   1.958   2.685   0.897  2.9684 -0.8414 -0.8356
 9107SOL    HW238955   1.910   2.817   0.896  0.4251  0.3211  1.1412
 9108SOL     OW38956   0.293   3.539   7.512  0.0341  0.1100  0.3221
 9108SOL    HW138957   0.294   3.610   7.448  0.0067 -0.2080 -0.0355
 9108SOL    HW238958   0.235   3.581   7.575  1.9004  2.8393  0.2307
 9109SOL     OW38959   2.687   3.794  10.512 -0.0421  0.2321 -0.5611
 9109SOL    HW138960   2.690   3.886  10.486 -2.0353 -0.2407 -2.4067
 9109SOL    HW238961   2.774   3.785  10.550 -0.2441 -1.9665 -0.6391
 9110SOL     OW38962   4.268   3.835  13.517 -0.4708  0.2288  0.0973
 9110SOL    HW138963   4.181   3.796  13.506 -0.1829  0.0816 -1.7393
 9110SOL    HW238964   4.256   3.912  13.461 -1.8544  0.6589  0.9981
 9111SOL     OW38965   0.229   3.080   7.335 -0.6111 -0.8807  0.6498
 9111SOL    HW138966   0.137   3.082   7.363 -0.8850 -1.4551 -0.2152
 9111SOL    HW238967   0.251   3.169   7.363 -0.2891 -0.2706 -1.5502
 9112SOL     OW38968   3.856   4.142  11.428  0.3746 -0.0597 -0.1561
 9112SOL    HW138969   3.783   4.176  11.480  0.5264  2.3490 -1.5352
 9112SOL    HW238970   3.815   4.056  11.421  0.5047 -0.2365  1.2447
 9113SOL     OW38971   4.723   3.045   1.702 -0.4872 -0.2019 -0.3896
 9113SOL    HW138972   0.026   2.970   1.657  0.5133  0.8787 -1.2879
 9113SOL    HW238973   0.061   3.104   1.707 -0.3031 -0.3925 -0.8593
 9114SOL     OW38974   4.265   4.550   5.011 -0.2172 -0.2201  0.0399
 9114SOL    HW138975   4.355   4.570   5.037  0.7014 -2.8727 -1.1242
 9114SOL    HW238976   4.231   4.637   4.988 -1.7730 -0.9466 -0.4227
 9115SOL     OW38977   1.602   3.069   3.019 -0.6446  0.2511  0.0401
 9115SOL    HW138978   1.595   3.165   3.016  0.0605  0.3362  1.0810
 9115SOL    HW238979   1.522   3.051   2.970 -1.1601 -2.3996  1.8911
 9116SOL     OW38980   0.044   4.732   5.034  0.4434  0.4210  0.3668
 9116SOL    HW138981   0.134   0.024   5.019  0.7489 -0.3534  0.6791
 9116SOL    HW238982   4.737   0.079   5.039  0.7697  0.5890  0.4448
 9117SOL     OW38983   3.494   3.804   8.581  0.3898  0.1044  0.0297
 9117SOL    HW138984   3.477   3.721   8.625  0.9012  0.6122  1.1929
 9117SOL    HW238985   3.488   3.774   8.490 -0.4833  0.2996  0.0316
 9118SOL     OW38986   4.266   2.368   2.896  0.2375  0.3901 -0.6296
 9118SOL    HW138987   4.240   2.277   2.909  0.2076  0.4830 -0.0093
 9118SOL    HW238988   4.275   2.395   2.988  1.8409 -0.7653 -0.4510
 9119SOL     OW38989   4.162   0.577  15.996  0.5656 -0.4343  0.1761
 9119SOL    HW138990   4.072   0.569  15.966  0.5075 -0.9604  0.4776
 9119SOL    HW238991   4.206   0.542  15.918  1.2478  0.1396  0.3016
 9120SOL     OW38992   4.507   0.484   4.463 -0.0729 -0.1068 -0.1337
 9120SOL    HW138993   4.433   0.434   4.496  1.0981 -0.5288  1.8157
 9120SOL    HW238994   4.579   0.428   4.492  0.9354  0.2686 -1.9168
 9121SOL     OW38995   0.103   2.831   1.594  0.4077  0.0070 -0.0180
 9121SOL    HW138996   0.156   2.876   1.528 -2.6587  1.9059 -1.1531
 9121SOL    HW238997   0.118   2.741   1.566 -0.1367 -0.7759  2.2306
 9122SOL     OW38998   4.165   2.762  16.751 -0.1213 -0.2939  0.4861
 9122SOL    HW138999   4.247   2.788  16.710 -1.3008  0.2240 -1.5610
 9122SOL    HW239000   4.102   2.812  16.699 -0.0516  0.2722  0.9447
 9123SOL     OW39001   1.656   2.216   2.851  0.7290  1.0716 -0.1021
 9123SOL    HW139002   1.749   2.232   2.870  0.4335  0.9421  1.4338
 9123SOL    HW239003   1.661   2.206   2.756 -0.4597 -0.9028  0.0483
 9124SOL     OW39004   1.289   0.018   8.106 -0.1676  0.5121  0.3076
 9124SOL    HW139005   1.239   0.052   8.032 -1.0165 -1.2336  0.0819
 9124SOL    HW239006   1.246   0.066   8.178  1.4096  1.0416  0.9090
 9125SOL     OW39007   3.854   4.213   3.227 -0.1388  0.4446  0.1122
 9125SOL    HW139008   3.905   4.263   3.163  2.2059 -1.9151  0.1359
 9125SOL    HW239009   3.917   4.229   3.298  2.9136  0.3380 -2.5520
 9126SOL     OW39010   2.672   0.927   4.748 -0.4688  0.1687  0.1359
 9126SOL    HW139011   2.709   1.008   4.782 -0.3319 -0.6592  1.9456
 9126SOL    HW239012   2.699   0.863   4.813 -0.1983  0.2371  0.0902
 9127SOL     OW39013   4.268   3.998   6.653 -0.4139 -0.4211  0.5956
 9127SOL    HW139014   4.282   4.072   6.594 -0.6246 -2.1469 -1.5968
 9127SOL    HW239015   4.194   3.952   6.613 -1.2670  1.5167 -0.0199
 9128SOL     OW39016   0.999   3.876   8.272  0.4668  0.3649  0.5330
 9128SOL    HW139017   1.012   3.866   8.366  2.5454 -0.3965  0.1832
 9128SOL    HW239018   0.949   3.797   8.249  2.1199 -1.0162  1.6125
 9129SOL     OW39019   2.075   3.460   5.436 -0.0800 -0.5114  0.0691
 9129SOL    HW139020   2.069   3.384   5.494  0.1257  0.5247  1.4389
 9129SOL    HW239021   2.131   3.518   5.488 -0.9135  0.2281  0.1586
 9130SOL     OW39022   4.485   1.723   7.108  0.4375  0.0878  0.2973
 9130SOL    HW139023   4.418   1.654   7.112  0.4491  0.0901  0.5637
 9130SOL    HW239024   4.545   1.710   7.182  1.5004  0.6314 -0.4767
 9131SOL     OW39025   0.964   1.139   7.867 -0.0046  0.7631  0.1370
 9131SOL    HW139026   1.039   1.106   7.817 -0.7021 -1.8896  0.8446
 9131SOL    HW239027   0.999   1.224   7.895 -2.1482  1.9202 -0.7286
 9132SOL     OW39028   0.860   0.466   6.031  0.1055  0.3433 -0.5897
 9132SOL    HW139029   0.884   0.424   6.114  1.5618  0.1083 -1.1217
 9132SOL    HW239030   0.855   0.558   6.059 -0.0198 -0.3161  1.6242
 9133SOL     OW39031   1.449   3.707   8.440 -0.1276  0.3380  0.9389
 9133SOL    HW139032   1.419   3.623   8.403  1.1686 -0.2209  1.1706
 9133SOL    HW239033   1.395   3.710   8.518 -0.7794  0.7758  0.4757
 9134SOL     OW39034   1.296   3.844   7.657  0.5506  0.2748 -0.0419
 9134SOL    HW139035   1.373   3.811   7.610  1.3784  0.0996  1.4397
 9134SOL    HW239036   1.240   3.778   7.616  0.1401 -0.4411  1.6960
 9135SOL     OW39037   3.122   3.349   1.613  0.5879  0.7343  0.0366
 9135SOL    HW139038   3.078   3.422   1.657  2.2180  0.6513  1.7818
 9135SOL    HW239039   3.047   3.291   1.597 -0.6305  2.3760 -0.1352
 9136SOL     OW39040   2.099   3.466   0.495  0.6303 -0.3664 -0.2259
 9136SOL    HW139041   2.163   3.516   0.445 -0.3461  0.5451 -0.5573
 9136SOL    HW239042   2.067   3.534   0.555  2.1764 -0.8852  1.1647
 9137SOL     OW39043   4.134   0.604   8.592 -0.4407  0.0521 -0.1364
 9137SOL    HW139044   4.216   0.555   8.586  0.0338  1.1596 -2.5734
 9137SOL    HW239045   4.136   0.606   8.688 -1.7069 -0.7744 -0.0887
 9138SOL     OW39046   0.396   4.584   3.501  0.3578 -0.2458 -0.1620
 9138SOL    HW139047   0.440   4.514   3.453 -0.0858 -0.3844 -0.3621
 9138SOL    HW239048   0.364   4.532   3.575 -0.1102 -0.2355 -0.3557
 9139SOL     OW39049   0.460   0.114  10.705 -0.1645 -0.0936  0.1812
 9139SOL    HW139050   0.464   0.043  10.770  2.3005 -0.2584 -0.1802
 9139SOL    HW239051   0.372   0.102  10.668  0.7459 -0.1472 -1.9387
 9140SOL     OW39052   3.844   3.353   6.024 -0.7108  0.1088 -0.6717
 9140SOL    HW139053   3.866   3.441   5.994 -0.8566  0.1696 -0.6008
 9140SOL    HW239054   3.764   3.363   6.076 -0.2869  1.7687 -0.3365
 9141SOL     OW39055   4.061   0.594   0.719  0.1692 -0.1710  0.4485
 9141SOL    HW139056   4.088   0.665   0.776  1.1348  0.4138 -0.7328
 9141SOL    HW239057   4.142   0.543   0.708  0.1569 -0.0912 -0.0326
 9142SOL     OW39058   0.224   0.267   3.334 -0.0452  0.1314  0.1807
 9142SOL    HW139059   0.231   0.180   3.374 -0.2101 -0.2229 -0.5560
 9142SOL    HW239060   0.144   0.314   3.357 -1.1256 -1.5214 -0.1614
 9143SOL     OW39061   4.140   2.550  15.801  0.1129  0.1327 -0.1852
 9143SOL    HW139062   4.064   2.591  15.761 -0.7418 -1.7070 -0.4672
 9143SOL    HW239063   4.200   2.622  15.817  1.0499 -0.9212  1.1049
 9144SOL     OW39064   1.091   1.487   1.857  0.3644  0.0363  0.1529
 9144SOL    HW139065   1.070   1.399   1.826  1.1177 -0.2888  0.5622
 9144SOL    HW239066   1.091   1.470   1.951 -2.0803  3.8874  0.8312
 9145SOL     OW39067   2.563   4.385   8.189  0.2514 -0.5088 -0.6396
 9145SOL    HW139068   2.540   4.299   8.155  1.5837 -0.7019 -1.0846
 9145SOL    HW239069   2.549   4.441   8.113  0.7595  1.5598  0.7893
 9146SOL     OW39070   2.198   4.217   9.711  0.3351  0.4593  0.0727
 9146SOL    HW139071   2.193   4.225   9.616 -0.3422 -0.7851  0.0128
 9146SOL    HW239072   2.252   4.138   9.716 -1.0131 -0.4924 -0.5818
 9147SOL     OW39073   4.120   3.205   4.265  0.8107  0.8398  0.2571
 9147SOL    HW139074   4.150   3.131   4.316 -0.0753  0.7932  0.7153
 9147SOL    HW239075   4.119   3.265   4.339  0.4485  3.1669 -1.5996
 9148SOL     OW39076   3.816   1.616  17.272 -0.1878  0.3579  0.1960
 9148SOL    HW139077   3.791   1.530  17.305 -1.0946  0.6860  0.3800
 9148SOL    HW239078   3.776   1.677  17.334  0.3503  0.8159  0.0905
 9149SOL     OW39079   1.736   3.507  10.979  0.1852 -0.2134 -0.0069
 9149SOL    HW139080   1.822   3.549  10.974 -0.5872  1.2870 -0.7906
 9149SOL    HW239081   1.736   3.480  10.887 -0.0998 -0.3511  0.0349
 9150SOL     OW39082   3.213   2.439   5.004 -0.1750  0.5786  0.5094
 9150SOL    HW139083   3.256   2.401   4.927 -0.9595 -0.6671  0.6863
 9150SOL    HW239084   3.128   2.464   4.967 -0.4508  1.3099  1.6405
 9151SOL     OW39085   2.564   3.772  13.481 -0.0311  0.7525 -0.4806
 9151SOL    HW139086   2.504   3.838  13.446 -0.3601  1.1851  0.9136
 9151SOL    HW239087   2.499   3.713  13.518  1.5248 -0.2820  0.6039
 9152SOL     OW39088   1.993   3.202   1.412  0.1270 -0.7865 -1.0902
 9152SOL    HW139089   1.918   3.147   1.437  0.2944 -2.0250 -3.3050
 9152SOL    HW239090   1.963   3.285   1.447  1.0247 -2.0325  2.7229
 9153SOL     OW39091   2.691   2.026  10.186  0.2386 -0.2955  0.1236
 9153SOL    HW139092   2.674   2.052  10.096  0.2096 -1.2892 -0.1521
 9153SOL    HW239093   2.639   1.946  10.199 -0.7349  0.5240  1.3023
 9154SOL     OW39094   3.154   2.985  12.485  0.5235 -0.3638  0.1413
 9154SOL    HW139095   3.092   2.958  12.553  0.0846 -1.1625 -0.5724
 9154SOL    HW239096   3.189   2.899  12.460 -1.2652 -1.7525  2.3345
 9155SOL     OW39097   4.269   3.287   0.044 -0.1776  0.0206  0.1410
 9155SOL    HW139098   4.351   3.310   0.088 -0.0636 -0.4102  0.1465
 9155SOL    HW239099   4.245   3.199   0.074  3.1635 -0.6819  0.7581
 9156SOL     OW39100   2.299   0.201  16.376 -0.2099  0.5400  0.0792
 9156SOL    HW139101   2.272   0.291  16.393 -1.6659 -0.1937  1.6650
 9156SOL    HW239102   2.368   0.175  16.436 -0.1709  0.3620 -0.0442
 9157SOL     OW39103   3.790   1.900   7.010 -0.4004  0.0014 -0.8005
 9157SOL    HW139104   3.728   1.973   7.008  1.5696  1.7623  2.3729
 9157SOL    HW239105   3.774   1.873   7.100  2.7544  3.3485  0.7498
 9158SOL     OW39106   4.641   4.040   1.745 -0.5413 -0.1599  0.5767
 9158SOL    HW139107   4.567   4.097   1.723  0.5648  1.1222  0.2156
 9158SOL    HW239108   4.610   3.955   1.713  3.9407 -1.5093 -0.1692
 9159SOL     OW39109   3.877   0.453   7.930  0.4735 -0.5223  0.3044
 9159SOL    HW139110   3.807   0.416   7.983  0.0228  0.6376  0.4925
 9159SOL    HW239111   3.836   0.444   7.844 -0.2649 -2.0612  0.8112
 9160SOL     OW39112   4.542   3.820   2.848  0.2534 -0.4001 -0.2007
 9160SOL    HW139113   4.520   3.754   2.782  1.6269 -1.7793  0.7322
 9160SOL    HW239114   4.460   3.871   2.852  1.2747  1.3019 -1.0131
 9161SOL     OW39115   0.606   3.341  13.218  0.1122  0.0273 -0.2036
 9161SOL    HW139116   0.643   3.284  13.152 -0.8260 -0.8957  0.0701
 9161SOL    HW239117   0.526   3.361  13.169 -0.0072  1.4848  0.5520
 9162SOL     OW39118   2.698   0.035   1.701 -0.4720 -0.4597 -0.0536
 9162SOL    HW139119   2.715   0.091   1.777  1.7461 -0.1630 -0.7594
 9162SOL    HW239120   2.608   0.060   1.679 -0.3640  1.1615  1.3086
 9163SOL     OW39121   0.199   2.903   7.100  0.0645 -0.2427 -0.0225
 9163SOL    HW139122   0.189   2.972   7.034 -1.8673  0.0481  0.5717
 9163SOL    HW239123   0.231   2.960   7.170  0.6117  0.0467 -0.5116
 9164SOL     OW39124   1.134   3.951  14.673 -0.4328 -0.4841 -0.7744
 9164SOL    HW139125   1.194   4.025  14.680  0.4176 -1.1396 -1.2235
 9164SOL    HW239126   1.190   3.878  14.700  0.2035 -0.5599 -2.3431
 9165SOL     OW39127   1.356   2.817   0.604 -0.3131 -0.0393 -0.4024
 9165SOL    HW139128   1.322   2.728   0.615  0.1841 -0.4932 -2.6769
 9165SOL    HW239129   1.288   2.859   0.657 -0.8464 -1.0089 -0.3121
 9166SOL     OW39130   0.426   3.420  10.537  0.2604 -0.1297 -0.4553
 9166SOL    HW139131   0.336   3.403  10.566  0.1529  0.5565 -0.3730
 9166SOL    HW239132   0.413   3.458  10.450 -0.8339  1.4578  0.3851
 9167SOL     OW39133   0.113   2.203   7.427 -0.4979  0.2237  0.6862
 9167SOL    HW139134   0.185   2.142   7.412  0.7463  2.7060 -3.2676
 9167SOL    HW239135   0.125   2.257   7.349 -0.6763  1.4049  1.4764
 9168SOL     OW39136   0.853   1.720   2.459 -0.6720 -0.4375  0.0785
 9168SOL    HW139137   0.860   1.763   2.544  1.1679 -1.2232  0.3312
 9168SOL    HW239138   0.902   1.779   2.402 -0.8041  0.3968  0.8365
 9169SOL     OW39139   1.777   0.504   7.412 -0.6153 -0.4546  0.5106
 9169SOL    HW139140   1.837   0.576   7.434  0.1560 -0.7932 -0.4686
 9169SOL    HW239141   1.692   0.546   7.416  0.2246  1.1879  1.2013
 9170SOL     OW39142   4.685   2.305   2.893  0.7757  0.8469  0.1095
 9170SOL    HW139143   4.661   2.390   2.856 -0.9645  0.9531  1.5062
 9170SOL    HW239144   4.668   2.326   2.985  2.3395  1.5549  0.2333
 9171SOL     OW39145   4.111   2.960  11.296  0.5589 -0.8879  0.6290
 9171SOL    HW139146   4.021   2.989  11.310  1.3184  1.4389  0.6434
 9171SOL    HW239147   4.154   3.041  11.270 -0.2276 -0.6392  0.1083
 9172SOL     OW39148   3.143   3.257  17.129 -0.4861  0.2113  0.2983
 9172SOL    HW139149   3.164   3.176  17.176 -2.1400 -0.4511 -0.1007
 9172SOL    HW239150   3.228   3.277  17.090 -0.0787 -2.4432 -0.1836
 9173SOL     OW39151   0.317   3.952   8.340 -0.4118 -0.3686  0.2920
 9173SOL    HW139152   0.266   3.875   8.316 -1.0020 -0.8537  3.1037
 9173SOL    HW239153   0.406   3.928   8.363 -0.6718 -1.1314  0.5142
 9174SOL     OW39154   2.661   0.552   8.089  0.5688 -0.2389 -0.4374
 9174SOL    HW139155   2.579   0.536   8.135  0.7567  1.6452  0.5480
 9174SOL    HW239156   2.708   0.612   8.147  0.3715  1.5955 -2.1570
 9175SOL     OW39157   1.993   1.695   3.809  0.0100 -0.0986 -0.0651
 9175SOL    HW139158   1.993   1.782   3.767 -0.7319  0.1181  0.4027
 9175SOL    HW239159   1.951   1.645   3.739 -1.4003 -0.7663  1.2862
 9176SOL     OW39160   2.898   0.895   5.656 -0.1716 -0.4518 -0.6063
 9176SOL    HW139161   2.824   0.907   5.716 -0.3479  1.0780 -1.1410
 9176SOL    HW239162   2.883   0.801   5.646 -0.8363 -0.2717 -1.3107
 9177SOL     OW39163   1.613   2.004  17.164 -0.1204  0.0207 -0.0951
 9177SOL    HW139164   1.636   2.088  17.205 -1.3127  0.5236 -0.4658
 9177SOL    HW239165   1.554   1.955  17.221 -1.6014  1.8664 -0.0725
 9178SOL     OW39166   2.671   2.850   3.800 -0.5207  0.1375  0.5887
 9178SOL    HW139167   2.580   2.844   3.771 -0.6645 -0.4712  1.1605
 9178SOL    HW239168   2.715   2.892   3.726 -1.4504  0.7323  0.3701
 9179SOL     OW39169   1.416   2.093   8.328 -0.5028  1.0636 -0.7002
 9179SOL    HW139170   1.378   2.169   8.374 -1.8111  0.0808 -0.1449
 9179SOL    HW239171   1.510   2.107   8.321 -0.3939  0.6563 -0.1075
 9180SOL     OW39172   2.331   0.912   6.921 -0.0727 -0.3968  0.2273
 9180SOL    HW139173   2.421   0.907   6.955  0.0883 -1.1900 -0.3170
 9180SOL    HW239174   2.283   0.899   7.003  1.1669  1.8483  1.3131
 9181SOL     OW39175   2.593   1.843  14.913  0.6023  0.3174  0.1272
 9181SOL    HW139176   2.550   1.921  14.950 -0.2489  0.6079 -1.5041
 9181SOL    HW239177   2.683   1.865  14.890  0.0992  0.7559 -1.3882
 9182SOL     OW39178   3.896   4.460  13.639  0.2414  0.0219  0.0833
 9182SOL    HW139179   3.978   4.494  13.676 -0.7734  2.2119  0.3332
 9182SOL    HW239180   3.914   4.368  13.621  1.1303  0.4218 -1.1108
 9183SOL     OW39181   1.977   0.572   7.659  0.2190  0.5838 -0.6770
 9183SOL    HW139182   1.992   0.621   7.578  2.0504  1.6596  0.3121
 9183SOL    HW239183   1.928   0.629   7.717 -0.1953 -0.7527  0.2704
 9184SOL     OW39184   4.569   0.987   8.039 -0.5808 -0.1063  0.2289
 9184SOL    HW139185   4.583   0.894   8.022 -1.1472 -0.1790  0.1659
 9184SOL    HW239186   4.654   1.016   8.073 -0.9002 -1.8838  2.6097
 9185SOL     OW39187   3.130   3.652   8.497 -0.2738  0.2672  0.3047
 9185SOL    HW139188   3.147   3.692   8.411  0.0873  0.6361  0.5458
 9185SOL    HW239189   3.117   3.727   8.555  1.3319  0.3943  0.4910
 9186SOL     OW39190   0.015   1.589  15.590  0.0578  0.7717 -0.1504
 9186SOL    HW139191   0.093   1.644  15.580  0.4792  0.0208 -0.9805
 9186SOL    HW239192   4.735   1.564  15.499  0.0647  0.8365 -0.1696
 9187SOL     OW39193   0.660   3.923   6.681  0.0133 -0.4482 -0.0738
 9187SOL    HW139194   0.656   3.880   6.596 -2.6956 -1.3827  0.5153
 9187SOL    HW239195   0.664   4.014   6.655  1.0805  0.3155  2.7062
 9188SOL     OW39196   1.057   2.017   9.030 -0.0910  0.1093 -0.1212
 9188SOL    HW139197   1.029   1.941   9.081 -0.1908 -0.7971 -1.5305
 9188SOL    HW239198   1.031   1.987   8.943 -1.3325  0.7770  0.0213
 9189SOL     OW39199   3.237   2.197   8.629 -0.1043 -0.0637 -0.2483
 9189SOL    HW139200   3.275   2.284   8.621 -0.6097  0.2621  0.9229
 9189SOL    HW239201   3.296   2.163   8.697 -0.6834  0.7716  0.6680
 9190SOL     OW39202   4.514   3.873   5.814 -0.3800  0.3915 -0.5211
 9190SOL    HW139203   4.571   3.948   5.797 -0.0886  0.7329  1.9416
 9190SOL    HW239204   4.444   3.917   5.862  1.2907  1.8422  0.5799
 9191SOL     OW39205   3.262   2.908   7.257 -0.2631  0.1411 -0.3668
 9191SOL    HW139206   3.212   2.989   7.266  2.1923  1.6949 -0.3744
 9191SOL    HW239207   3.284   2.908   7.164 -2.2335 -0.3407 -0.8172
 9192SOL     OW39208   3.565   2.265   2.745  0.0931  0.4462  0.3606
 9192SOL    HW139209   3.614   2.185   2.765  1.1529  0.9310 -0.3098
 9192SOL    HW239210   3.474   2.238   2.753  0.5649 -1.4405 -0.6460
 9193SOL     OW39211   4.201   0.107  17.471  0.9318  0.1490 -0.4464
 9193SOL    HW139212   4.192   0.127  17.378 -2.0054  0.7258 -0.0406
 9193SOL    HW239213   4.281   0.056  17.486 -0.5730 -1.9512  0.5457
 9194SOL     OW39214   0.396   4.691   9.635  0.6628 -0.0515  0.0873
 9194SOL    HW139215   0.341   4.616   9.658 -0.2439  0.8736  0.8843
 9194SOL    HW239216   0.334   0.013   9.594 -0.6052 -1.2269  0.2810
 9195SOL     OW39217   3.966   3.080   9.173 -0.4240  0.5344  0.0703
 9195SOL    HW139218   3.947   3.133   9.250  1.5426  0.2307  0.7624
 9195SOL    HW239219   3.939   2.992   9.200 -2.6056  1.0368 -0.5306
 9196SOL     OW39220   4.429   4.316  13.583 -0.1736 -0.3056  0.3245
 9196SOL    HW139221   4.452   4.397  13.627 -2.1961  1.2712 -1.5206
 9196SOL    HW239222   4.335   4.324  13.595 -0.0360  0.4961  0.8377
 9197SOL     OW39223   4.700   1.824   3.149  0.3862 -0.2507  0.7081
 9197SOL    HW139224   4.691   1.774   3.068 -1.0962  0.3349  0.5155
 9197SOL    HW239225   4.628   1.787   3.200 -0.3576  0.3939  0.0991
 9198SOL     OW39226   2.947   3.904   0.449  0.3946 -0.1524  0.5521
 9198SOL    HW139227   2.873   3.862   0.493  0.1031 -0.0840  0.1326
 9198SOL    HW239228   2.947   3.865   0.361 -0.1038  2.5856 -0.6762
 9199SOL     OW39229   2.608   1.768  13.656 -0.1690  0.3591  0.1187
 9199SOL    HW139230   2.584   1.807  13.572 -0.6056 -0.7388 -0.2661
 9199SOL    HW239231   2.685   1.719  13.628 -0.9194 -0.8888  0.2265
 9200SOL     OW39232   3.754   0.411  11.827  0.0914  0.2089  0.0512
 9200SOL    HW139233   3.804   0.342  11.784 -1.4298  1.1904 -3.3071
 9200SOL    HW239234   3.717   0.361  11.900 -0.6729  0.2182 -0.3273
 9201SOL     OW39235   2.871   0.137  13.766  0.1905 -0.5048  0.0735
 9201SOL    HW139236   2.862   0.224  13.728 -1.6448 -1.1287 -0.9454
 9201SOL    HW239237   2.793   0.144  13.821  0.5334 -1.8387  0.7357
 9202SOL     OW39238   1.430   4.066  17.562  0.2215  0.4112 -0.2924
 9202SOL    HW139239   1.419   4.148  17.610  1.4275  0.2308  0.2860
 9202SOL    HW239240   1.375   4.075  17.484  1.3920 -0.2053 -1.1761
 9203SOL     OW39241   0.512   1.363  15.164  0.5737 -0.6348  0.2297
 9203SOL    HW139242   0.567   1.435  15.196 -1.4666  0.2462  1.7888
 9203SOL    HW239243   0.562   1.343  15.085 -1.9128  0.1236 -1.5682
 9204SOL     OW39244   3.289   3.835   7.058  0.2769  0.4832  0.1007
 9204SOL    HW139245   3.344   3.815   6.982 -1.8772  1.0299 -1.6041
 9204SOL    HW239246   3.240   3.753   7.053  1.2862 -0.2836  2.6328
 9205SOL     OW39247   3.602   0.242   2.949 -0.0429 -0.4079 -0.0222
 9205SOL    HW139248   3.613   0.333   2.921  1.7558 -1.4641 -2.6851
 9205SOL    HW239249   3.681   0.229   3.002 -1.4123 -0.7992  1.9353
 9206SOL     OW39250   4.640   3.745  16.159  0.3907 -0.0995 -0.2697
 9206SOL    HW139251   4.654   3.790  16.243  0.5121 -0.6374 -0.0054
 9206SOL    HW239252   4.609   3.658  16.181 -1.0626  0.8092  1.2619
 9207SOL     OW39253   1.224   2.333   3.826  0.2946  0.3223  0.1019
 9207SOL    HW139254   1.311   2.346   3.862 -0.6835  0.5692  2.4132
 9207SOL    HW239255   1.208   2.243   3.854 -1.6691  0.2754 -1.1431
 9208SOL     OW39256   2.961   4.444  14.636 -0.7048  0.6865 -0.3783
 9208SOL    HW139257   2.887   4.444  14.697 -0.1043 -1.4790  0.3221
 9208SOL    HW239258   3.039   4.448  14.690 -0.2898  2.1114 -1.0644
 9209SOL     OW39259   2.409   4.095  11.452 -0.1019  0.4408  0.4496
 9209SOL    HW139260   2.499   4.110  11.424 -0.8333 -1.9804 -3.2638
 9209SOL    HW239261   2.414   4.000  11.465  0.1048  0.3479 -0.2790
 9210SOL     OW39262   3.665   2.944  11.539 -0.6648  0.4142  0.1015
 9210SOL    HW139263   3.597   2.970  11.602 -0.5294  2.4931 -0.6093
 9210SOL    HW239264   3.712   2.885  11.597  0.5296 -0.7470 -2.0676
 9211SOL     OW39265   2.503   3.738   5.818  0.1283 -0.1756 -0.0530
 9211SOL    HW139266   2.529   3.831   5.812  0.2996 -0.3250 -1.5895
 9211SOL    HW239267   2.409   3.748   5.809 -0.0857 -0.4587  1.8331
 9212SOL     OW39268   2.278   2.348  15.830  0.3615  0.1228  0.4480
 9212SOL    HW139269   2.323   2.418  15.783 -0.5151  0.0725 -0.4858
 9212SOL    HW239270   2.238   2.395  15.903 -2.0030  1.2071 -1.5433
 9213SOL     OW39271   0.421   3.880  14.323 -0.4318 -0.1576  0.4115
 9213SOL    HW139272   0.371   3.801  14.304 -2.3309  1.3186 -0.8514
 9213SOL    HW239273   0.467   3.852  14.402  2.2910 -1.3762 -1.6110
 9214SOL     OW39274   2.889   1.503  16.539  0.3184 -0.8506 -0.2476
 9214SOL    HW139275   2.959   1.442  16.565 -0.1621 -0.8630  0.9944
 9214SOL    HW239276   2.872   1.527  16.630 -1.3545 -0.8091 -0.5762
 9215SOL     OW39277   1.417   4.203   4.269  0.5887  0.2308  0.2219
 9215SOL    HW139278   1.338   4.212   4.216  0.7047 -0.4265 -0.0598
 9215SOL    HW239279   1.471   4.266   4.220  0.6804  1.4667  1.8913
 9216SOL     OW39280   1.993   4.720   7.632 -0.1343  0.0293  0.0418
 9216SOL    HW139281   1.975   4.734   7.725  0.4944  0.4273  0.1090
 9216SOL    HW239282   2.088   4.732   7.640 -0.1385  0.0926 -0.0022
 9217SOL     OW39283   1.941   1.548   9.328  0.1287  0.3332  0.4696
 9217SOL    HW139284   1.871   1.612   9.320  0.9972  1.2729  0.3859
 9217SOL    HW239285   2.016   1.604   9.307  0.3702  0.6170  2.0755
 9218SOL     OW39286   2.040   2.061   8.052  0.2172  0.0713 -0.6339
 9218SOL    HW139287   1.988   2.087   7.976 -1.3578  2.2269  1.2026
 9218SOL    HW239288   2.019   1.971   8.078 -1.3514  0.3037 -1.0752
 9219SOL     OW39289   3.728   1.308   9.293  0.4733 -0.4101  0.1674
 9219SOL    HW139290   3.648   1.326   9.244 -0.1582 -1.1928  0.9140
 9219SOL    HW239291   3.714   1.365   9.369 -1.2528  0.7410 -1.0039
 9220SOL     OW39292   0.775   3.034   8.629  0.2326 -0.1558  0.6643
 9220SOL    HW139293   0.866   3.030   8.659  0.7492  0.7515 -0.7722
 9220SOL    HW239294   0.727   2.996   8.702 -2.1450  0.0929 -0.7830
 9221SOL     OW39295   1.405   4.117   5.452  0.4399  0.1450  0.0709
 9221SOL    HW139296   1.372   4.060   5.383 -3.8046  1.1724  1.3026
 9221SOL    HW239297   1.346   4.191   5.449 -0.7125 -0.7957 -0.2851
 9222SOL     OW39298   3.859   0.698   9.928 -0.3075 -0.5509  0.4826
 9222SOL    HW139299   3.836   0.684   9.835 -0.7534 -2.9798  0.9529
 9222SOL    HW239300   3.855   0.793   9.935  3.0864 -0.2147 -2.1282
 9223SOL     OW39301   3.547   2.475   9.427  0.5939  0.3046  0.1849
 9223SOL    HW139302   3.555   2.393   9.378 -1.3038  0.2139  0.0171
 9223SOL    HW239303   3.509   2.532   9.361  1.0781  0.3010 -0.0924
 9224SOL     OW39304   1.014   3.852   4.252 -0.0522  0.1264  0.6167
 9224SOL    HW139305   1.016   3.947   4.249  1.0618  0.0566 -0.9592
 9224SOL    HW239306   1.053   3.830   4.167 -0.7642 -0.9664  0.5782
 9225SOL     OW39307   3.644   3.227   6.432 -0.4393  0.1213  0.1701
 9225SOL    HW139308   3.725   3.275   6.449 -0.6274  0.6492 -0.4383
 9225SOL    HW239309   3.648   3.224   6.336 -0.6539  1.2514  0.1218
 9226SOL     OW39310   2.694   1.908  12.196 -0.0495 -0.4028  0.2827
 9226SOL    HW139311   2.733   1.848  12.260 -0.5553  1.1369  2.0243
 9226SOL    HW239312   2.636   1.846  12.151 -0.0105 -1.1236  1.2173
 9227SOL     OW39313   1.304   4.656   7.806 -0.3344 -0.1562  0.0262
 9227SOL    HW139314   1.326   4.573   7.848  0.8110 -0.8592 -1.9574
 9227SOL    HW239315   1.213   4.668   7.833 -0.2850  1.1217 -0.3994
 9228SOL     OW39316   1.162   4.114   7.635  0.4549  0.8991 -0.1112
 9228SOL    HW139317   1.100   4.073   7.575 -1.9038  1.1686  2.1288
 9228SOL    HW239318   1.220   4.037   7.631 -0.5532  0.0687  1.2893
 9229SOL     OW39319   3.120   0.588   9.407 -0.2962 -0.6486 -0.2946
 9229SOL    HW139320   3.151   0.533   9.336 -0.0277  0.1932 -0.8317
 9229SOL    HW239321   3.172   0.667   9.396  0.5361 -1.2160 -0.4161
 9230SOL     OW39322   0.461   4.133   2.176 -0.3733  0.0004 -0.2210
 9230SOL    HW139323   0.376   4.112   2.139 -1.9343  1.1269  2.7176
 9230SOL    HW239324   0.513   4.131   2.095  0.8975  1.5400  0.5460
 9231SOL     OW39325   1.818   3.291  12.880 -0.9411 -0.3400  0.0972
 9231SOL    HW139326   1.905   3.309  12.845 -1.5405  1.0530 -0.6580
 9231SOL    HW239327   1.763   3.306  12.803 -0.4766 -1.4219 -0.4343
 9232SOL     OW39328   3.046   3.766  17.193  0.0296  0.1199 -0.1477
 9232SOL    HW139329   3.071   3.794  17.105 -0.9801 -0.6412 -0.6827
 9232SOL    HW239330   3.129   3.733  17.228 -0.9651 -1.2069  0.9873
 9233SOL     OW39331   1.146   3.458   5.291  0.7172  0.0649 -0.8229
 9233SOL    HW139332   1.090   3.511   5.234  1.4472 -0.7165 -2.2808
 9233SOL    HW239333   1.098   3.375   5.288 -0.0522  0.3395  4.1326
 9234SOL     OW39334   3.784   0.622   5.943  0.4165  0.1999  0.2135
 9234SOL    HW139335   3.748   0.709   5.961  2.5673  1.4009 -1.3201
 9234SOL    HW239336   3.738   0.603   5.862 -0.8355 -0.6975  1.1369
 9235SOL     OW39337   4.121   0.761  17.034  0.2430 -0.1407 -0.1540
 9235SOL    HW139338   4.105   0.810  16.954  0.7446  2.7384  1.5224
 9235SOL    HW239339   4.132   0.675  16.993  1.7296 -0.7398  1.4916
 9236SOL     OW39340   1.885   0.815   4.362 -0.8310 -0.0908  0.8356
 9236SOL    HW139341   1.830   0.802   4.439 -0.3774  0.4945  1.2580
 9236SOL    HW239342   1.905   0.731   4.322 -0.2653  0.2175  0.4682
 9237SOL     OW39343   0.994   1.168  10.589  0.1760  0.3857 -0.5190
 9237SOL    HW139344   1.012   1.149  10.681  0.6024 -2.1462 -1.1278
 9237SOL    HW239345   1.082   1.190  10.559  1.1371 -0.7533  1.4573
 9238SOL     OW39346   1.203   4.464   7.521 -0.0237  0.0820 -0.0148
 9238SOL    HW139347   1.274   4.524   7.543  1.3333 -1.4302 -0.3052
 9238SOL    HW239348   1.258   4.396   7.483 -1.2858  0.7894 -3.0946
 9239SOL     OW39349   4.134   0.171   3.191  0.4017 -0.5637 -0.9830
 9239SOL    HW139350   4.170   0.260   3.194  2.4075 -1.4269 -0.0697
 9239SOL    HW239351   4.142   0.148   3.098  1.1524 -1.1372 -0.7705
 9240SOL     OW39352   4.536   0.563   2.158  0.8884  0.0810  0.1912
 9240SOL    HW139353   4.602   0.610   2.208  1.6253 -2.5222  1.6917
 9240SOL    HW239354   4.513   0.484   2.208 -0.4762 -0.1886 -0.8671
 9241SOL     OW39355   3.710   4.259  15.232 -0.2411 -0.2264 -0.5542
 9241SOL    HW139356   3.698   4.182  15.175  0.8926 -0.1039 -0.9575
 9241SOL    HW239357   3.708   4.219  15.319  1.0219 -2.1228 -1.3959
 9242SOL     OW39358   1.684   2.210  16.709  0.6729  0.3018 -0.2050
 9242SOL    HW139359   1.625   2.264  16.762  0.3143  0.0590 -0.3515
 9242SOL    HW239360   1.613   2.176  16.654 -0.1885  0.7871  0.5986
 9243SOL     OW39361   4.524   0.153   7.355 -0.2873  0.1378 -0.3684
 9243SOL    HW139362   4.566   0.100   7.287 -1.9154  1.6669 -2.5912
 9243SOL    HW239363   4.527   0.094   7.430  4.6949  0.1351 -0.5287
 9244SOL     OW39364   4.088   2.943   2.699 -0.3229  0.7022  0.3946
 9244SOL    HW139365   4.077   2.887   2.777  0.1908  0.3000  0.1748
 9244SOL    HW239366   4.064   2.883   2.628 -0.3507  1.2528 -0.0549
 9245SOL     OW39367   3.669   3.308  15.132  0.3396 -0.3124  0.5978
 9245SOL    HW139368   3.694   3.321  15.224 -0.4330  0.0098  0.7614
 9245SOL    HW239369   3.709   3.389  15.101  0.2738 -0.4426  0.1743
 9246SOL     OW39370   2.409   3.801  11.532  0.4393  0.5492 -0.9831
 9246SOL    HW139371   2.372   3.810  11.619  0.2868 -0.4322 -0.9452
 9246SOL    HW239372   2.351   3.727  11.514  1.0471 -0.1569  0.0156
 9247SOL     OW39373   3.605   2.172   8.605  0.1668  0.0704  0.0918
 9247SOL    HW139374   3.528   2.224   8.584  1.1967  1.0954 -1.1434
 9247SOL    HW239375   3.639   2.237   8.665  0.6295 -0.5078  0.4568
 9248SOL     OW39376   0.638   1.928  12.011 -0.0607  0.1205 -0.0418
 9248SOL    HW139377   0.718   1.938  12.062 -1.4530  0.3595  2.0990
 9248SOL    HW239378   0.642   1.997  11.946 -0.2773 -0.6987 -0.9340
 9249SOL     OW39379   2.915   0.927   5.273  0.3187  0.6020  0.1077
 9249SOL    HW139380   2.929   0.898   5.364  0.2871  1.7430  0.4773
 9249SOL    HW239381   2.838   0.981   5.292 -1.0449 -1.8604  1.5823
 9250SOL     OW39382   4.370   3.805  16.472  0.2772 -0.4964 -0.0462
 9250SOL    HW139383   4.368   3.710  16.466  1.5962 -0.5022 -0.4263
 9250SOL    HW239384   4.448   3.828  16.421  0.1462 -1.0162 -0.4785
 9251SOL     OW39385   1.417   1.780   7.136  0.3865 -0.3822 -0.0916
 9251SOL    HW139386   1.431   1.724   7.212  0.4661  0.8613  0.8069
 9251SOL    HW239387   1.504   1.775   7.096 -0.8966 -1.6173 -2.7291
 9252SOL     OW39388   0.838   3.264   2.001 -0.3810  0.4122  0.1711
 9252SOL    HW139389   0.933   3.255   2.004 -0.3973 -0.1575 -1.4330
 9252SOL    HW239390   0.808   3.174   2.019  1.7137 -0.8033 -2.3731
 9253SOL     OW39391   2.321   1.212   6.544 -0.1622  0.7279  0.0705
 9253SOL    HW139392   2.305   1.154   6.619 -1.2349 -0.9929 -1.5003
 9253SOL    HW239393   2.255   1.187   6.479  2.0767 -1.4438 -1.3462
 9254SOL     OW39394   0.155   4.103  13.962  0.1397  0.4524 -0.3783
 9254SOL    HW139395   0.230   4.055  13.998 -1.1594 -0.5179  1.0279
 9254SOL    HW239396   0.190   4.161  13.895  0.4082  1.4071  0.5979
 9255SOL     OW39397   1.893   3.264   8.358 -0.0326 -0.4296  0.2056
 9255SOL    HW139398   1.895   3.320   8.435  0.4407 -0.2388  0.0556
 9255SOL    HW239399   1.883   3.324   8.283  0.1100 -0.7305 -0.0558
 9256SOL     OW39400   1.661   3.806   8.781  0.7149  0.3879 -0.2720
 9256SOL    HW139401   1.691   3.842   8.865  1.5802  1.9920 -1.2677
 9256SOL    HW239402   1.708   3.723   8.786  0.2976  0.0758 -1.6148
 9257SOL     OW39403   2.871   3.411  14.591 -0.5099  0.8124 -0.2076
 9257SOL    HW139404   2.813   3.476  14.630 -0.6748  0.4945  0.0794
 9257SOL    HW239405   2.832   3.335  14.634 -0.1855  1.4130  1.1536
 9258SOL     OW39406   0.883   2.761   2.475  0.5835  0.1865  0.0554
 9258SOL    HW139407   0.949   2.702   2.511  1.1811  0.5499 -0.4319
 9258SOL    HW239408   0.852   2.798   2.558 -0.8643 -1.9560  0.4635
 9259SOL     OW39409   1.146   0.091  17.637 -0.5519  0.4469  0.0296
 9259SOL    HW139410   1.117   0.174  17.675  0.9643  0.8677  0.2434
 9259SOL    HW239411   1.067   0.061  17.592  1.2995 -2.0683 -1.5763
 9260SOL     OW39412   0.937   4.174   3.975  0.0005 -0.2410  0.5628
 9260SOL    HW139413   0.845   4.185   3.951  0.1165 -0.2413  0.1090
 9260SOL    HW239414   0.930   4.107   4.043  0.4455  0.9596  1.7829
 9261SOL     OW39415   3.081   1.231   5.314  0.4904 -0.0102 -0.4308
 9261SOL    HW139416   3.024   1.170   5.268  0.1311  0.2397 -0.3243
 9261SOL    HW239417   3.039   1.229   5.400 -1.1910  0.4396 -1.2490
 9262SOL     OW39418   2.434   4.227   0.385 -0.3169 -0.4093  0.0013
 9262SOL    HW139419   2.357   4.222   0.329  0.0942 -0.0776 -0.5846
 9262SOL    HW239420   2.497   4.268   0.326  1.4533 -0.0886  2.1085
 9263SOL     OW39421   3.502   1.316   6.975 -0.6225  0.4861 -0.1106
 9263SOL    HW139422   3.431   1.351   6.921 -0.5273  0.4658 -0.2487
 9263SOL    HW239423   3.535   1.397   7.014 -0.0744  0.1245  0.1711
 9264SOL     OW39424   3.058   2.132   7.992  0.6088 -0.0740 -0.8251
 9264SOL    HW139425   3.001   2.056   7.985 -0.2662  0.6562 -1.6204
 9264SOL    HW239426   3.126   2.105   7.930  1.8221 -0.2881  0.6078
 9265SOL     OW39427   2.442   2.193  10.704  0.4750  0.1168 -0.0067
 9265SOL    HW139428   2.395   2.143  10.770  0.6495 -1.1732 -0.8535
 9265SOL    HW239429   2.380   2.194  10.631  0.5851  2.1213 -0.0664
 9266SOL     OW39430   4.632   0.580   7.073 -0.2079 -0.3022  0.3727
 9266SOL    HW139431   4.629   0.531   7.156  0.7644 -0.1632  0.4962
 9266SOL    HW239432   4.539   0.573   7.052 -0.5736 -0.1393  1.9065
 9267SOL     OW39433   1.880   2.524   8.918 -0.0679 -0.2840  0.1591
 9267SOL    HW139434   1.916   2.437   8.901  0.0966  0.1042 -1.5200
 9267SOL    HW239435   1.803   2.511   8.862 -0.1217  1.8226 -0.2522
 9268SOL     OW39436   2.204   4.348   4.013 -0.3578  0.0694 -0.0547
 9268SOL    HW139437   2.196   4.436   3.977  0.3157  0.4918  0.8071
 9268SOL    HW239438   2.123   4.350   4.064 -0.3149  0.8775 -0.0123
 9269SOL     OW39439   0.753   2.801   6.563 -0.1554 -0.1713 -0.0454
 9269SOL    HW139440   0.754   2.786   6.468  2.1806 -1.8642  0.2471
 9269SOL    HW239441   0.832   2.753   6.586 -0.4976 -1.2638 -1.1437
 9270SOL     OW39442   2.022   3.059   3.300 -0.3906 -0.2153  0.0294
 9270SOL    HW139443   2.101   3.108   3.279  0.7091 -1.4577  1.2488
 9270SOL    HW239444   1.957   3.103   3.246 -0.7314 -1.3704 -0.4985
 9271SOL     OW39445   4.100   4.197  12.601  0.0918  0.7516 -0.0242
 9271SOL    HW139446   4.073   4.143  12.675 -0.9447  1.4806  0.1216
 9271SOL    HW239447   4.172   4.249  12.637  1.8627 -0.9000 -1.1842
 9272SOL     OW39448   2.919   4.277   4.597 -1.0677 -0.4489  0.1559
 9272SOL    HW139449   2.925   4.278   4.692  3.0761  0.2955 -0.1284
 9272SOL    HW239450   2.955   4.190   4.579 -1.2603 -0.5541  0.2816
 9273SOL     OW39451   2.527   3.242   9.233 -0.6783 -0.2345  0.4794
 9273SOL    HW139452   2.604   3.186   9.225  0.2028  1.0929 -0.1563
 9273SOL    HW239453   2.493   3.244   9.144  0.5719 -0.9688  0.0041
 9274SOL     OW39454   2.738   1.968  13.776 -0.8073 -0.3402  0.7037
 9274SOL    HW139455   2.690   1.889  13.750  1.6650 -1.8848  0.8616
 9274SOL    HW239456   2.824   1.929  13.791 -0.3912 -0.5932 -2.4551
 9275SOL     OW39457   3.380   4.292   5.452  0.1896 -0.7426  0.0252
 9275SOL    HW139458   3.466   4.302   5.410  1.0314 -1.3394  1.6227
 9275SOL    HW239459   3.400   4.258   5.539 -2.7211 -0.1208  0.9275
 9276SOL     OW39460   1.550   1.713  14.300 -0.3606 -0.0705  0.2998
 9276SOL    HW139461   1.574   1.671  14.217 -0.4986  1.0185 -0.2941
 9276SOL    HW239462   1.455   1.713  14.294 -0.3546  3.0776  0.4903
 9277SOL     OW39463   1.011   1.870  17.060  0.5816 -0.0815 -0.4777
 9277SOL    HW139464   0.962   1.920  17.125 -1.8268 -0.2044 -2.1880
 9277SOL    HW239465   0.995   1.780  17.088  1.1716 -0.5127 -1.5024
 9278SOL     OW39466   1.751   2.298  14.517  0.0913  0.0045  0.0911
 9278SOL    HW139467   1.722   2.215  14.480 -0.5572 -0.5311  1.7628
 9278SOL    HW239468   1.684   2.352  14.477 -0.3082  0.1611  0.9741
 9279SOL     OW39469   4.606   1.887  16.825  0.0752 -0.0048  0.3937
 9279SOL    HW139470   4.597   1.883  16.730  0.4528 -0.9319  0.4021
 9279SOL    HW239471   4.580   1.978  16.843  0.4666  0.2970 -0.5550
 9280SOL     OW39472   0.872   2.134   7.709  0.8697 -0.3874 -0.1643
 9280SOL    HW139473   0.804   2.067   7.718  1.1657 -0.4713  1.4049
 9280SOL    HW239474   0.829   2.191   7.646  2.2362  0.5364 -0.2700
 9281SOL     OW39475   3.337   1.975  11.134 -0.0624 -0.4092 -0.5040
 9281SOL    HW139476   3.258   1.937  11.095 -0.0307 -1.3202  0.3150
 9281SOL    HW239477   3.375   2.008  11.053  0.0319 -1.1825 -0.7796
 9282SOL     OW39478   3.763   0.903   2.332  0.3729 -0.5094  0.3266
 9282SOL    HW139479   3.693   0.920   2.396 -1.6225  0.9862 -2.2643
 9282SOL    HW239480   3.710   0.860   2.265 -1.1692 -1.5154  2.1731
 9283SOL     OW39481   0.321   4.347   4.056  0.6374  0.3594  0.3267
 9283SOL    HW139482   0.296   4.421   4.111 -0.4098  0.5084 -0.3474
 9283SOL    HW239483   0.244   4.294   4.075  1.5235 -0.6943  0.9688
 9284SOL     OW39484   0.409   3.462  14.125 -0.0204  0.2452 -0.5946
 9284SOL    HW139485   0.337   3.401  14.139  0.4939  0.0031  1.0431
 9284SOL    HW239486   0.376   3.551  14.132 -2.0341 -0.5712  0.3544
 9285SOL     OW39487   1.218   3.340   4.786  0.2583 -0.0060 -0.2943
 9285SOL    HW139488   1.233   3.323   4.693  0.3093  0.5325 -0.3839
 9285SOL    HW239489   1.306   3.367   4.813 -0.5157  1.7854  0.4578
 9286SOL     OW39490   1.726   1.568   5.678  0.9296  0.1524  0.5012
 9286SOL    HW139491   1.769   1.573   5.592 -1.0017  1.0641 -0.4283
 9286SOL    HW239492   1.699   1.477   5.673  0.4774  0.1866  2.5899
 9287SOL     OW39493   1.997   1.903   7.669 -0.1683  0.3816 -0.4947
 9287SOL    HW139494   2.041   1.930   7.589  1.3295  2.1933  0.9650
 9287SOL    HW239495   1.927   1.969   7.670 -0.0214  0.5054  2.2595
 9288SOL     OW39496   0.979   0.809   1.828 -0.3178 -0.4252 -0.1769
 9288SOL    HW139497   1.012   0.738   1.882  1.1293  0.6831  0.3800
 9288SOL    HW239498   0.919   0.773   1.762 -0.3370  2.0188 -1.4808
 9289SOL     OW39499   0.616   0.227   3.142  0.1029  0.1749  0.1894
 9289SOL    HW139500   0.678   0.300   3.139  0.4778 -0.2104 -1.4995
 9289SOL    HW239501   0.641   0.195   3.229 -3.8934 -1.6730  0.6488
 9290SOL     OW39502   1.504   3.567   6.791  0.2324 -0.2325 -0.8714
 9290SOL    HW139503   1.591   3.601   6.811  1.1014 -2.2949 -1.2008
 9290SOL    HW239504   1.526   3.505   6.722 -2.4644  0.1681 -2.0906
 9291SOL     OW39505   2.790   0.928   2.903  0.6856  0.3249  0.4036
 9291SOL    HW139506   2.729   0.877   2.956 -0.3192  3.2330  2.0429
 9291SOL    HW239507   2.803   1.002   2.963 -2.1701  1.3202 -0.1916
 9292SOL     OW39508   2.268   4.089   3.109  0.5313 -0.2927 -0.0058
 9292SOL    HW139509   2.225   4.168   3.077  0.1491 -0.8219 -0.8149
 9292SOL    HW239510   2.245   4.035   3.033  0.7223 -0.7001  0.2263
 9293SOL     OW39511   2.517   4.070   6.776  0.3695  0.0253 -0.3451
 9293SOL    HW139512   2.455   4.044   6.844  0.2651  0.6735 -0.1876
 9293SOL    HW239513   2.459   4.070   6.700 -0.4664 -0.3751  0.2889
 9294SOL     OW39514   1.306   3.387   5.522  0.8515 -0.4438  0.2925
 9294SOL    HW139515   1.237   3.321   5.517  0.9809 -0.7002  1.9429
 9294SOL    HW239516   1.258   3.467   5.499 -1.6649 -1.8845  0.5771
 9295SOL     OW39517   4.699   1.213  17.462 -0.0424 -0.0634  0.0077
 9295SOL    HW139518   0.007   1.189  17.543  0.4635  0.1989 -0.2004
 9295SOL    HW239519   4.608   1.209  17.492 -0.4444 -0.7460 -1.3244
 9296SOL     OW39520   3.274   1.915   9.335 -0.1587 -0.7008  0.2708
 9296SOL    HW139521   3.292   1.822   9.342 -1.1221 -0.8818  0.2861
 9296SOL    HW239522   3.261   1.933   9.428  0.1661  2.7476 -0.3352
 9297SOL     OW39523   0.345   3.611  13.798 -0.3456 -0.3689  0.0168
 9297SOL    HW139524   0.336   3.516  13.789  0.9877 -0.0614 -4.0939
 9297SOL    HW239525   0.252   3.635  13.792 -0.4184 -0.9587 -1.0971
 9298SOL     OW39526   3.814   1.396   7.270 -0.5398 -0.3731 -0.2699
 9298SOL    HW139527   3.880   1.459   7.297 -2.8052  2.6859 -1.8621
 9298SOL    HW239528   3.774   1.360   7.350  1.5304  0.9197  1.3630
 9299SOL     OW39529   1.814   3.171   2.306  0.1875  0.0604  0.1402
 9299SOL    HW139530   1.786   3.237   2.370 -0.7858 -1.2843  1.1022
 9299SOL    HW239531   1.794   3.082   2.334  2.7813 -0.5796 -0.0521
 9300SOL     OW39532   4.511   1.351  14.028 -0.1201 -0.3045 -0.1271
 9300SOL    HW139533   4.479   1.428  13.979  0.4734  0.2158  0.3058
 9300SOL    HW239534   4.509   1.380  14.119 -0.6187  1.2032 -0.6060
 9301SOL     OW39535   1.587   3.022  14.629 -0.1799 -0.3131 -0.1267
 9301SOL    HW139536   1.523   3.011  14.559  0.5766  0.2191 -0.9117
 9301SOL    HW239537   1.556   3.099  14.676  0.6820 -1.0784  1.7037
 9302SOL     OW39538   0.637   2.765  16.428 -0.3788  0.3383  0.0990
 9302SOL    HW139539   0.596   2.795  16.347  0.3878 -0.9587 -0.7769
 9302SOL    HW239540   0.563   2.748  16.486  1.6882 -1.3119  2.2551
 9303SOL     OW39541   2.929   0.059  13.229 -0.4730  0.4806  0.5148
 9303SOL    HW139542   3.019   0.060  13.197 -0.3532  0.7799  0.8515
 9303SOL    HW239543   2.930   0.150  13.261  1.3524  0.4881  0.4392
 9304SOL     OW39544   4.590   0.800   3.515  0.2357  0.2006 -0.0437
 9304SOL    HW139545   4.504   0.781   3.551 -0.2518  2.2198 -0.1146
 9304SOL    HW239546   4.656   0.764   3.575  0.7410 -0.4725 -1.0115
 9305SOL     OW39547   0.149   2.642   5.443  0.2917 -0.4895 -0.4856
 9305SOL    HW139548   0.133   2.583   5.369  0.3093 -1.9847  0.7182
 9305SOL    HW239549   0.089   2.593   5.499 -3.0482  1.7320 -2.0552
 9306SOL     OW39550   0.897   2.690   3.673  0.2828 -0.4410  0.4441
 9306SOL    HW139551   0.883   2.694   3.578 -1.2961  2.5598  0.7823
 9306SOL    HW239552   0.968   2.628   3.689  0.7891 -0.3195 -1.3082
 9307SOL     OW39553   1.594   4.138   1.687 -0.7597  0.1269  0.3296
 9307SOL    HW139554   1.656   4.110   1.620 -1.3515 -0.7597  0.1643
 9307SOL    HW239555   1.580   4.227   1.653  3.1018  1.2928  1.7606
 9308SOL     OW39556   4.541   4.392   3.092 -0.5181  0.2951  0.4950
 9308SOL    HW139557   4.539   4.299   3.112  1.1063 -0.1578 -1.4353
 9308SOL    HW239558   4.636   4.400   3.087 -0.3889 -0.6103  1.5322
 9309SOL     OW39559   2.376   1.231  14.247  0.2285 -0.3296  0.0885
 9309SOL    HW139560   2.471   1.235  14.249  0.3599 -2.2897 -1.8307
 9309SOL    HW239561   2.342   1.272  14.168 -0.8392  0.7697  1.1196
 9310SOL     OW39562   0.199   1.623   2.903  0.2127  0.2576 -0.0321
 9310SOL    HW139563   0.275   1.680   2.894 -1.5244  2.6832  0.5351
 9310SOL    HW239564   0.229   1.567   2.974  3.1863 -1.2805 -2.5311
 9311SOL     OW39565   0.877   3.335   8.540  0.1492 -0.3037 -0.6383
 9311SOL    HW139566   0.871   3.278   8.464 -0.6779  0.0406 -0.8333
 9311SOL    HW239567   0.831   3.411   8.505  1.8818  0.5468 -1.1026
 9312SOL     OW39568   4.038   2.838   2.230  0.3637  0.1764  0.3515
 9312SOL    HW139569   4.058   2.780   2.156  0.6471  0.5533  0.1314
 9312SOL    HW239570   4.113   2.829   2.289  1.3652 -0.0499 -0.9455
 9313SOL     OW39571   0.982   0.365   3.218  0.2346  0.0942  0.4602
 9313SOL    HW139572   1.017   0.372   3.307  1.8604  2.7816 -0.4116
 9313SOL    HW239573   1.035   0.292   3.185 -0.3338  0.2798 -0.8621
 9314SOL     OW39574   1.521   0.924  11.619  0.0766  0.1330 -0.1050
 9314SOL    HW139575   1.566   0.856  11.570 -1.3932  1.2149 -2.9485
 9314SOL    HW239576   1.554   0.899  11.706  0.9399  0.7041 -0.2740
 9315SOL     OW39577   3.542   0.073   0.396  0.2372 -0.0887  0.4125
 9315SOL    HW139578   3.460   0.106   0.432  0.7740  1.5301  0.1814
 9315SOL    HW239579   3.605   0.116   0.455 -2.2838  1.4497  1.9858
 9316SOL     OW39580   2.423   2.274  17.665  0.7440  0.0441  0.0288
 9316SOL    HW139581   2.390   2.295  17.578 -2.5165  0.1893  1.2598
 9316SOL    HW239582   2.382   2.339  17.722  1.0185 -1.9830  2.5473
 9317SOL     OW39583   3.200   0.476   2.402  0.5736  0.6850  0.0123
 9317SOL    HW139584   3.162   0.425   2.331  1.5254  0.5807 -0.4192
 9317SOL    HW239585   3.285   0.433   2.411 -0.3923 -1.4609 -1.2438
 9318SOL     OW39586   2.623   3.954   8.310 -0.1356 -0.3731  0.4230
 9318SOL    HW139587   2.704   3.907   8.295  1.3499  2.2842  0.1063
 9318SOL    HW239588   2.630   4.003   8.228  0.2505  0.0927  0.7396
 9319SOL     OW39589   3.162   1.071  11.357 -0.1328  0.4675  0.5763
 9319SOL    HW139590   3.083   1.018  11.365  0.7256 -0.6838  1.3229
 9319SOL    HW239591   3.137   1.146  11.410 -0.1620  1.5095 -0.9238
 9320SOL     OW39592   3.845   4.361   2.552 -0.3815  0.5036  0.0124
 9320SOL    HW139593   3.800   4.277   2.554 -0.2021  0.3836 -0.8896
 9320SOL    HW239594   3.875   4.359   2.461 -0.2872  2.8153 -0.0016
 9321SOL     OW39595   1.885   3.622   2.286  0.4577  0.1372 -0.4460
 9321SOL    HW139596   1.966   3.581   2.257 -0.7129 -1.7299 -1.0810
 9321SOL    HW239597   1.924   3.697   2.331 -0.9447 -0.2494  1.3781
 9322SOL     OW39598   0.303   0.288   5.537 -0.1487 -0.3425  0.1929
 9322SOL    HW139599   0.351   0.230   5.596  0.2855 -0.7476 -0.5623
 9322SOL    HW239600   0.368   0.352   5.508 -2.5639  1.0284 -2.1991
 9323SOL     OW39601   1.730   4.372   4.498 -0.5860  0.1766 -0.0679
 9323SOL    HW139602   1.722   4.375   4.593  1.4622  0.4283  0.1133
 9323SOL    HW239603   1.649   4.325   4.480  0.9771 -1.0225 -4.0688
 9324SOL     OW39604   3.976   4.266   2.317 -0.3352  0.3727  0.2746
 9324SOL    HW139605   4.033   4.201   2.358  0.4548 -0.0534 -1.5315
 9324SOL    HW239606   3.966   4.232   2.228 -0.6645  0.6546  0.2038
 9325SOL     OW39607   2.984   4.278   1.426  0.1314  0.4609  0.2276
 9325SOL    HW139608   3.029   4.198   1.396  0.0074  1.7081 -3.2303
 9325SOL    HW239609   3.053   4.338   1.396  1.3295 -0.7242  0.5793
 9326SOL     OW39610   0.222   0.722  16.000 -0.0311  0.1472 -0.5479
 9326SOL    HW139611   0.258   0.775  16.071  0.0545  1.2774 -1.4506
 9326SOL    HW239612   0.130   0.706  16.020  0.5071 -2.4146 -0.0374
 9327SOL     OW39613   1.083   4.338   1.791 -0.9492 -0.0315  0.3458
 9327SOL    HW139614   1.076   4.362   1.883 -0.6014  0.6294  0.2065
 9327SOL    HW239615   1.178   4.328   1.793 -0.8435  0.6252 -1.0200
 9328SOL     OW39616   4.544   3.350   4.515  0.4848  0.2778 -0.4874
 9328SOL    HW139617   4.512   3.428   4.469  0.2126 -0.3785 -1.4028
 9328SOL    HW239618   4.533   3.384   4.604 -1.7391  0.3793 -0.8153
 9329SOL     OW39619   1.803   3.406   9.200  0.1577 -0.0635  0.1149
 9329SOL    HW139620   1.749   3.394   9.278  0.1100  0.8964  0.2295
 9329SOL    HW239621   1.747   3.382   9.126 -1.9463 -0.0914  1.7045
 9330SOL     OW39622   2.169   2.979   8.067 -0.0911  0.0152  0.3827
 9330SOL    HW139623   2.170   3.025   7.983 -1.3172 -0.3105  0.1838
 9330SOL    HW239624   2.249   2.927   8.059  1.2384  2.0895  0.1215
 9331SOL     OW39625   0.923   2.438   4.655  0.1812  0.2929 -1.0941
 9331SOL    HW139626   0.876   2.476   4.730  0.5690 -2.1238  0.3940
 9331SOL    HW239627   1.010   2.417   4.688  0.4345 -0.6166 -2.3642
 9332SOL     OW39628   4.057   3.326   3.996  0.3118 -0.0461 -0.3033
 9332SOL    HW139629   4.085   3.412   4.028 -2.1286  0.3245  0.8429
 9332SOL    HW239630   4.069   3.282   4.080 -3.0493 -3.2376 -1.4803
 9333SOL     OW39631   4.625   3.247   4.053 -0.1163 -0.0119 -0.4106
 9333SOL    HW139632   4.601   3.154   4.063 -2.1270  0.5628  0.1600
 9333SOL    HW239633   4.707   3.248   4.102 -0.8858 -1.7826  0.9291
 9334SOL     OW39634   1.208   3.177  13.723 -0.3444 -0.2907 -0.4634
 9334SOL    HW139635   1.116   3.157  13.739 -0.3138  0.9588  1.3471
 9334SOL    HW239636   1.228   3.190  13.816  1.4327  2.4223 -1.2096
 9335SOL     OW39637   2.278   2.172   8.119 -0.5439 -0.9553  0.4664
 9335SOL    HW139638   2.247   2.259   8.096 -0.8316 -1.6579 -1.7535
 9335SOL    HW239639   2.204   2.119   8.090 -2.1728 -0.1814  3.2322
 9336SOL     OW39640   1.962   1.792   4.929  0.4360  0.3169  0.0445
 9336SOL    HW139641   1.922   1.870   4.968 -1.9452 -1.1332  0.5153
 9336SOL    HW239642   1.908   1.731   4.981  0.0431  1.0883  0.5392
 9337SOL     OW39643   0.272   2.192  13.172  0.5644 -0.0288  0.0289
 9337SOL    HW139644   0.184   2.157  13.170 -0.6252  2.9477 -0.4087
 9337SOL    HW239645   0.278   2.259  13.104 -0.4520  0.4159  0.3820
 9338SOL     OW39646   2.959   4.635   2.397  0.1416  0.9519 -0.7305
 9338SOL    HW139647   3.044   4.672   2.370  1.2284 -0.8840  0.2039
 9338SOL    HW239648   2.932   4.620   2.306 -1.6298  0.7129 -0.1672
 9339SOL     OW39649   3.032   0.243   8.779 -0.0855 -0.0543  0.0521
 9339SOL    HW139650   2.996   0.156   8.758  3.4544 -1.7781  1.0452
 9339SOL    HW239651   2.970   0.280   8.841 -0.2997  0.3187 -0.3863
 9340SOL     OW39652   4.337   1.444   8.608 -0.1656  0.2449  0.8321
 9340SOL    HW139653   4.277   1.506   8.565 -2.6944 -2.6098  0.1965
 9340SOL    HW239654   4.422   1.488   8.601  0.6034 -1.2467  0.7212
 9341SOL     OW39655   3.113   1.289  10.623 -0.1112  0.2185 -0.1713
 9341SOL    HW139656   3.072   1.276  10.537 -0.4671 -1.4163  0.2483
 9341SOL    HW239657   3.055   1.242  10.683 -2.2574 -0.7755 -3.0586
 9342SOL     OW39658   0.435   3.383   2.102  0.0902 -0.0664  0.4608
 9342SOL    HW139659   0.447   3.295   2.067  0.7825  0.4744 -0.6504
 9342SOL    HW239660   0.480   3.431   2.033  0.0893  1.3253  1.4202
 9343SOL     OW39661   1.342   0.927   1.536 -0.0104 -0.0488  0.1145
 9343SOL    HW139662   1.277   0.929   1.606 -1.0763  0.2036 -0.8850
 9343SOL    HW239663   1.289   0.939   1.457  1.9033 -0.6151 -1.2615
 9344SOL     OW39664   3.576   4.245   2.870  0.2058  0.2316 -0.4895
 9344SOL    HW139665   3.659   4.271   2.911  0.4815 -0.3702 -0.6788
 9344SOL    HW239666   3.624   4.183   2.815  1.0512 -0.6116  1.1994
 9345SOL     OW39667   3.484   0.473  16.447  0.2171  0.0891 -0.5464
 9345SOL    HW139668   3.415   0.483  16.382 -1.1911  0.5856  1.0175
 9345SOL    HW239669   3.554   0.430  16.399 -1.5690 -1.4525 -1.7488
 9346SOL     OW39670   3.109   2.251   4.424  0.5092 -0.5795  0.7603
 9346SOL    HW139671   3.120   2.274   4.516  0.6759 -2.2157  1.1462
 9346SOL    HW239672   3.126   2.158   4.435  1.0575 -0.2727  2.6013
 9347SOL     OW39673   2.123   4.694   5.291  0.2376 -0.0252 -0.1174
 9347SOL    HW139674   2.203   4.733   5.326 -1.6547  2.2583  1.6675
 9347SOL    HW239675   2.156   4.614   5.250 -1.7266 -0.9075 -0.0045
 9348SOL     OW39676   1.918   1.401   7.433 -0.7805  0.6305 -0.2332
 9348SOL    HW139677   1.893   1.490   7.458 -0.1947  1.3432 -2.2358
 9348SOL    HW239678   1.966   1.378   7.513  1.0018 -1.5839 -1.9434
 9349SOL     OW39679   1.268   3.372  16.735 -0.2572 -0.3250  0.5257
 9349SOL    HW139680   1.320   3.378  16.655  1.9840 -3.2259  1.7621
 9349SOL    HW239681   1.181   3.358  16.697 -0.7111  1.5758  0.8293
 9350SOL     OW39682   2.287   3.410   6.548  0.7476 -0.0767  0.0356
 9350SOL    HW139683   2.334   3.409   6.465 -0.3747  0.3299 -0.6124
 9350SOL    HW239684   2.197   3.387   6.522  1.0132 -1.4021  0.2713
 9351SOL     OW39685   1.357   2.534   8.377  0.8948 -0.1567  0.5775
 9351SOL    HW139686   1.324   2.623   8.361  0.3580 -0.8766 -2.3564
 9351SOL    HW239687   1.348   2.498   8.288  0.4692 -0.2902  0.6734
 9352SOL     OW39688   3.255   3.073   5.620 -0.0448  0.1379  0.4415
 9352SOL    HW139689   3.232   3.163   5.600  0.7632  0.4980  1.1375
 9352SOL    HW239690   3.336   3.085   5.670 -0.4018  0.7636  0.8612
 9353SOL     OW39691   2.133   2.043   6.413 -0.2280 -0.2146  0.2746
 9353SOL    HW139692   2.087   2.003   6.339  0.2281  2.2107 -1.2858
 9353SOL    HW239693   2.224   2.013   6.403 -0.0379  0.1735  0.8214
 9354SOL     OW39694   1.941   0.729   7.440  0.1911  0.5916  0.5068
 9354SOL    HW139695   1.959   0.787   7.366  0.9341 -1.2409 -0.7504
 9354SOL    HW239696   1.918   0.800   7.499 -0.9592 -1.1885  2.1808
 9355SOL     OW39697   3.854   1.194   6.483 -0.0370  0.2941 -0.3511
 9355SOL    HW139698   3.774   1.229   6.524 -1.7898 -1.5437 -2.1753
 9355SOL    HW239699   3.919   1.216   6.550  0.5299  3.1152 -1.8307
 9356SOL     OW39700   1.670   1.055   1.747  0.3011  0.2578 -0.0235
 9356SOL    HW139701   1.703   1.143   1.764 -1.5872  0.7150  1.2459
 9356SOL    HW239702   1.738   0.998   1.785  0.2255 -0.0125 -0.2942
 9357SOL     OW39703   2.295   2.342   2.422 -0.0934  0.3923 -0.6623
 9357SOL    HW139704   2.342   2.407   2.475 -0.9739  1.4149 -1.1338
 9357SOL    HW239705   2.289   2.388   2.338 -0.1925  2.6150  0.5563
 9358SOL     OW39706   1.413   4.237   9.575  0.7658 -0.5766  0.0532
 9358SOL    HW139707   1.388   4.298   9.505  1.1501  1.5665  1.7910
 9358SOL    HW239708   1.345   4.252   9.641  0.7516 -1.9969  0.3572
 9359SOL     OW39709   3.569   1.597   8.170 -0.4275  0.5917 -0.1615
 9359SOL    HW139710   3.485   1.585   8.214 -0.1741 -0.0080  0.1556
 9359SOL    HW239711   3.584   1.509   8.136  0.3484  0.9444 -0.7415
 9360SOL     OW39712   0.194   2.408   6.862  0.2191  0.2212  0.0719
 9360SOL    HW139713   0.160   2.440   6.778  0.2205 -1.6919 -0.6567
 9360SOL    HW239714   0.247   2.486   6.876 -1.1349  1.0377  0.6455
 9361SOL     OW39715   4.449   0.751   3.220 -0.4751  0.4645 -0.8227
 9361SOL    HW139716   4.389   0.811   3.265  1.2387  1.7478 -0.2845
 9361SOL    HW239717   4.394   0.675   3.239  0.1649 -0.0823 -1.1865
 9362SOL     OW39718   2.307   3.404   8.604  0.0907  0.0822 -0.1013
 9362SOL    HW139719   2.360   3.391   8.525 -1.1920 -3.3647 -0.3863
 9362SOL    HW239720   2.290   3.498   8.595 -1.8753 -0.3632 -0.9328
 9363SOL     OW39721   3.497   3.043   8.452  0.5572  0.1974  0.4791
 9363SOL    HW139722   3.495   2.948   8.455 -0.4133  0.2039  0.2256
 9363SOL    HW239723   3.554   3.069   8.524 -0.6473  2.5533  0.6056
 9364SOL     OW39724   2.182   1.310  12.681  0.8072 -0.6788  0.1495
 9364SOL    HW139725   2.255   1.268  12.728  1.7365  1.7675  0.9127
 9364SOL    HW239726   2.119   1.238  12.673 -0.0188  0.3991 -2.9709
 9365SOL     OW39727   3.599   3.956   6.821 -0.3665 -0.9896  0.3874
 9365SOL    HW139728   3.533   3.994   6.763 -0.5661 -0.7198  0.8002
 9365SOL    HW239729   3.593   4.010   6.899  2.6038 -0.9428  0.6037
 9366SOL     OW39730   2.548   3.020   0.956  0.8363 -0.1018 -0.1044
 9366SOL    HW139731   2.593   2.967   0.890 -1.0142 -0.8994 -0.7169
 9366SOL    HW239732   2.521   3.092   0.900  0.7747  0.4076  0.5813
 9367SOL     OW39733   3.373   3.626   1.950 -0.4611  0.7247 -0.6084
 9367SOL    HW139734   3.401   3.534   1.943 -5.0503 -0.6614 -0.7704
 9367SOL    HW239735   3.439   3.664   2.007 -0.5872  0.2715 -0.1597
 9368SOL     OW39736   3.626   4.302  12.487  0.6657 -0.3402  0.1722
 9368SOL    HW139737   3.696   4.240  12.506  1.5679  1.0539  1.3714
 9368SOL    HW239738   3.550   4.244  12.492  0.3020  0.1362  0.2086
 9369SOL     OW39739   4.115   0.301   5.609 -0.3484 -0.0048  0.3738
 9369SOL    HW139740   4.072   0.219   5.584 -4.2178  2.1233 -0.0796
 9369SOL    HW239741   4.139   0.275   5.698 -0.1995 -1.4997 -0.0988
 9370SOL     OW39742   0.578   2.017   3.445 -0.0447  0.7474 -0.3151
 9370SOL    HW139743   0.631   2.072   3.388 -0.1338 -0.9858 -2.0783
 9370SOL    HW239744   0.627   1.936   3.427  2.3284  2.0946  0.1173
 9371SOL     OW39745   3.976   3.514   2.674 -0.2170 -0.4997  0.0153
 9371SOL    HW139746   3.900   3.487   2.727 -0.6847  2.2896  0.7637
 9371SOL    HW239747   3.994   3.429   2.634  1.6556  0.6646 -1.6039
 9372SOL     OW39748   1.232   3.734   5.716  0.2264  0.6799 -0.2111
 9372SOL    HW139749   1.270   3.684   5.643 -0.6840  0.9666 -0.8781
 9372SOL    HW239750   1.254   3.825   5.695  3.1465 -0.2467 -1.1866
 9373SOL     OW39751   0.358   2.891   8.648 -0.0175 -0.2352  0.0385
 9373SOL    HW139752   0.301   2.913   8.722 -0.0484 -1.1102  0.2817
 9373SOL    HW239753   0.349   2.796   8.644  0.1049 -0.2477  0.0503
 9374SOL     OW39754   3.042   0.694   8.597  0.0103  0.2626  0.2619
 9374SOL    HW139755   2.965   0.641   8.614  0.7515 -1.3045 -1.2012
 9374SOL    HW239756   3.029   0.770   8.653 -0.7986  0.0100  0.4171
 9375SOL     OW39757   2.483   2.165   5.145 -0.1255 -0.7234 -0.2073
 9375SOL    HW139758   2.529   2.081   5.146 -0.7905 -1.0976 -1.6194
 9375SOL    HW239759   2.404   2.144   5.195  1.4055  0.1171  2.5657
 9376SOL     OW39760   2.142   0.559   2.461 -0.2577  0.1809 -0.3058
 9376SOL    HW139761   2.227   0.533   2.497  0.2833 -0.0942 -1.7680
 9376SOL    HW239762   2.072   0.528   2.518  1.4299 -2.5696  0.2351
 9377SOL     OW39763   3.264   2.320   5.603  0.2507 -0.1750 -0.4821
 9377SOL    HW139764   3.245   2.315   5.697  0.5016  0.1489 -0.4172
 9377SOL    HW239765   3.235   2.410   5.588 -1.2326 -0.7600 -1.1684
 9378SOL     OW39766   3.348   0.924   2.123 -0.6054 -0.3230 -0.5821
 9378SOL    HW139767   3.441   0.922   2.100 -0.0220 -1.9362  1.8765
 9378SOL    HW239768   3.356   0.949   2.215  1.5698  0.0877 -0.8797
 9379SOL     OW39769   1.541   4.392   1.606 -0.3284  0.5121  0.5823
 9379SOL    HW139770   1.543   4.435   1.691 -1.4522 -1.8408  1.8048
 9379SOL    HW239771   1.565   4.468   1.553  0.5495 -0.2891 -0.1834
 9380SOL     OW39772   1.402   0.773  11.325 -0.1743 -0.0121  0.1868
 9380SOL    HW139773   1.372   0.785  11.415 -1.1713 -0.8565 -0.0331
 9380SOL    HW239774   1.459   0.697  11.336  3.5207  2.3309 -2.9875
 9381SOL     OW39775   0.439   1.417   9.111 -0.4076 -0.0668 -0.1064
 9381SOL    HW139776   0.431   1.379   9.198  0.3003 -2.7185 -1.2002
 9381SOL    HW239777   0.388   1.498   9.120 -2.6513 -1.2282 -2.5012
 9382SOL     OW39778   0.495   2.065   4.888  0.2578 -0.0152 -0.3541
 9382SOL    HW139779   0.566   2.034   4.832  0.0901 -0.7366 -0.1731
 9382SOL    HW239780   0.497   2.160   4.878  1.0095  0.0174  0.0897
 9383SOL     OW39781   3.647   1.388   7.712  0.1703 -0.6090  0.1779
 9383SOL    HW139782   3.685   1.318   7.765 -1.5185 -1.0893  0.7317
 9383SOL    HW239783   3.582   1.424   7.772  0.0642 -1.8398  0.7930
 9384SOL     OW39784   1.418   0.810   8.357  0.0827  0.2074  0.1698
 9384SOL    HW139785   1.497   0.845   8.397  1.1290  0.3003 -1.9318
 9384SOL    HW239786   1.453   0.740   8.302 -0.8623 -0.8403  0.9087
 9385SOL     OW39787   0.503   3.364   5.658 -0.2328 -0.3498  0.1058
 9385SOL    HW139788   0.503   3.460   5.652  1.4755 -0.4249 -1.0415
 9385SOL    HW239789   0.579   3.344   5.603  0.4288  2.0165  0.1608
 9386SOL     OW39790   2.490   2.507   8.648  0.3075  0.7484  0.2469
 9386SOL    HW139791   2.530   2.575   8.594 -0.5482  1.9055  1.0516
 9386SOL    HW239792   2.543   2.523   8.727 -0.2374  0.4295  0.6770
 9387SOL     OW39793   3.485   4.697   8.789  0.5214 -0.4566  0.1681
 9387SOL    HW139794   3.564   4.707   8.735  1.0635  0.2920  1.0981
 9387SOL    HW239795   3.421   4.711   8.719  0.7775  0.2743  0.0740
 9388SOL     OW39796   1.631   2.015   5.353 -0.2570  0.7765  0.3482
 9388SOL    HW139797   1.719   1.979   5.364 -1.0032 -1.4018 -0.8666
 9388SOL    HW239798   1.589   1.992   5.436 -1.1980 -0.3210 -0.4404
 9389SOL     OW39799   4.064   2.067   3.886  0.2495  0.3463  0.2461
 9389SOL    HW139800   4.045   2.042   3.976 -1.4984  1.6742  0.2587
 9389SOL    HW239801   4.149   2.108   3.904  0.3603 -0.0578  0.6245
 9390SOL     OW39802   3.423   2.055  15.913 -0.1582  0.0699  0.0162
 9390SOL    HW139803   3.376   2.040  15.995 -1.6387  2.3360 -0.4032
 9390SOL    HW239804   3.353   2.077  15.850  1.1046  0.6546 -1.1730
 9391SOL     OW39805   3.122   4.688   5.028  0.9260 -0.0541 -0.5729
 9391SOL    HW139806   3.118   4.643   4.944  0.2848 -3.4027  1.2511
 9391SOL    HW239807   3.217   4.684   5.039  0.8375  2.0434  0.9901
 9392SOL     OW39808   1.112   0.580   5.003  0.3623 -0.6505  0.0827
 9392SOL    HW139809   1.159   0.632   4.938 -2.2416 -0.5448 -1.6984
 9392SOL    HW239810   1.079   0.499   4.963  0.7617 -0.9590  0.3727
 9393SOL     OW39811   0.060   4.312  14.096 -0.6133  0.1252 -0.4655
 9393SOL    HW139812   0.145   4.328  14.138 -1.2832  2.2466  0.0938
 9393SOL    HW239813   0.081   4.233  14.045  1.1635 -0.8901  1.8645
 9394SOL     OW39814   1.048   3.072   4.262 -0.0531  0.4198 -0.1647
 9394SOL    HW139815   1.085   3.149   4.220  1.1897 -1.5552 -2.6883
 9394SOL    HW239816   0.954   3.092   4.255 -0.6010 -1.9752  0.2594
 9395SOL     OW39817   3.037   3.642   3.875  0.0981  0.2769 -0.0354
 9395SOL    HW139818   3.117   3.638   3.824  0.1830  1.3576  0.0152
 9395SOL    HW239819   3.052   3.572   3.938  0.8215 -1.9084 -2.6528
 9396SOL     OW39820   0.567   2.507   7.443  0.4174 -0.2244 -0.1632
 9396SOL    HW139821   0.490   2.451   7.430 -0.1462  0.3423  0.7219
 9396SOL    HW239822   0.601   2.525   7.355 -0.7408 -1.3083 -0.8371
 9397SOL     OW39823   3.760   3.588  13.368  0.0850  0.2793 -0.2538
 9397SOL    HW139824   3.728   3.529  13.437  0.6875  1.6870  1.2358
 9397SOL    HW239825   3.723   3.670  13.401 -1.0337 -0.1348 -0.4960
 9398SOL     OW39826   0.069   0.285  14.065  0.4175 -0.8210 -0.0638
 9398SOL    HW139827   0.041   0.246  13.982  1.1809  0.1751 -0.7953
 9398SOL    HW239828   4.724   0.291  14.113 -0.7344  1.0648 -2.2062
 9399SOL     OW39829   2.530   3.701  14.441  0.1249 -0.6657 -0.3395
 9399SOL    HW139830   2.593   3.666  14.378  2.3793  2.3837  0.2349
 9399SOL    HW239831   2.450   3.666  14.403 -1.0493  1.4830  0.1987
 9400SOL     OW39832   0.347   1.684   1.274  0.3018  0.6410  0.6399
 9400SOL    HW139833   0.437   1.666   1.303  1.1537  3.6388 -0.0951
 9400SOL    HW239834   0.337   1.625   1.200  0.3327  1.9929 -0.4382
 9401SOL     OW39835   2.418   1.600  14.976 -0.2866  0.2362 -0.1411
 9401SOL    HW139836   2.466   1.683  14.969 -1.0810  0.6960 -0.0909
 9401SOL    HW239837   2.346   1.614  14.916  1.2872  1.6117 -1.7128
 9402SOL     OW39838   0.675   4.700   6.271 -0.1879 -0.3076  0.0847
 9402SOL    HW139839   0.634   4.622   6.234 -2.2169  0.6765  0.2425
 9402SOL    HW239840   0.661   0.022   6.198 -0.1414  0.5698  0.7943
 9403SOL     OW39841   3.651   3.485   8.346  0.6639  0.4936  0.4856
 9403SOL    HW139842   3.567   3.441   8.333  0.4084  1.1531 -0.0492
 9403SOL    HW239843   3.659   3.551   8.278 -0.1794 -0.9798 -1.0673
 9404SOL     OW39844   4.423   2.462   8.372 -0.0935 -0.3443 -0.2296
 9404SOL    HW139845   4.435   2.474   8.278 -0.1835 -0.1411 -0.2149
 9404SOL    HW239846   4.328   2.455   8.357 -0.2898  0.7558  0.5157
 9405SOL     OW39847   1.118   3.856  17.680  0.4294  0.2409 -0.1684
 9405SOL    HW139848   1.136   3.762  17.686  0.2432  0.3810  2.4718
 9405SOL    HW239849   1.036   3.867  17.727  0.8516  0.4646  0.5255
 9406SOL     OW39850   4.549   2.831  14.892  0.6217  0.2352 -0.3391
 9406SOL    HW139851   4.457   2.852  14.907 -0.6519 -4.9098 -1.0399
 9406SOL    HW239852   4.602   2.876  14.958 -0.7943  0.9212  0.3346
 9407SOL     OW39853   3.464   2.736   2.869  0.1050  0.3969  0.3490
 9407SOL    HW139854   3.478   2.824   2.833 -0.0884 -1.2478 -3.6250
 9407SOL    HW239855   3.556   2.712   2.864  0.1299  0.9905 -2.0921
 9408SOL     OW39856   2.297   2.292   0.780 -0.1937  0.2356  0.1289
 9408SOL    HW139857   2.303   2.253   0.868  2.6094  2.6413  0.9952
 9408SOL    HW239858   2.242   2.369   0.796  0.6975  0.3736  2.5455
 9409SOL     OW39859   2.187   3.564   5.648 -0.1649  0.2456 -0.0788
 9409SOL    HW139860   2.222   3.645   5.686  0.2712 -0.3680  0.8235
 9409SOL    HW239861   2.121   3.535   5.710 -2.0018 -1.2247 -2.7023
 9410SOL     OW39862   0.650   1.556  13.236 -0.6765  0.9739 -0.2316
 9410SOL    HW139863   0.630   1.586  13.148  0.1606  1.4537 -0.2637
 9410SOL    HW239864   0.663   1.462  13.219  2.0360  1.5395 -1.1984
 9411SOL     OW39865   1.968   1.485  11.598  0.3557  0.0476 -0.0785
 9411SOL    HW139866   1.919   1.416  11.553 -0.5362  0.6478 -0.0244
 9411SOL    HW239867   1.894   1.544  11.609 -0.2942 -0.5264 -1.3089
 9412SOL     OW39868   1.002   1.141   2.931 -0.2247  0.1150  0.1177
 9412SOL    HW139869   1.076   1.085   2.904  0.4575  1.0716 -0.0133
 9412SOL    HW239870   0.932   1.076   2.935  0.0182 -0.1144  0.6891
 9413SOL     OW39871   3.044   2.418   7.632 -0.1952 -0.3602 -0.6746
 9413SOL    HW139872   3.130   2.412   7.673 -0.7137 -1.6449  0.2233
 9413SOL    HW239873   3.068   2.471   7.557  2.9657 -1.7607 -0.6345
 9414SOL     OW39874   2.919   1.785  14.116 -0.6714  0.0679 -0.2130
 9414SOL    HW139875   2.951   1.814  14.201 -0.2279 -2.2580  0.4157
 9414SOL    HW239876   2.963   1.833  14.045  0.4542 -1.1136 -0.3119
 9415SOL     OW39877   1.669   2.312   8.921  0.4327  0.0889  0.2958
 9415SOL    HW139878   1.601   2.256   8.884 -0.3122  0.5482  0.9728
 9415SOL    HW239879   1.706   2.356   8.845 -0.7066 -2.3368 -1.6583
 9416SOL     OW39880   3.210   1.759   7.237 -0.1114 -0.3051  0.2644
 9416SOL    HW139881   3.211   1.855   7.245 -0.0942 -0.4986  2.5210
 9416SOL    HW239882   3.223   1.720   7.323  1.1470  0.0096  0.2138
 9417SOL     OW39883   4.204   0.764   2.593 -0.2984  0.1215 -0.1933
 9417SOL    HW139884   4.163   0.692   2.641 -1.2050 -0.4447 -1.8395
 9417SOL    HW239885   4.130   0.782   2.535  0.1982 -0.6105 -1.0429
 9418SOL     OW39886   4.599   1.920   6.513  0.4066 -0.2300  0.1980
 9418SOL    HW139887   4.513   1.962   6.505  1.7645  2.6064  0.3328
 9418SOL    HW239888   4.635   1.971   6.586  0.5470 -0.5237  0.3310
 9419SOL     OW39889   2.445   2.938   5.076 -0.4442 -0.3134 -0.3329
 9419SOL    HW139890   2.441   2.946   4.980 -2.2631  1.0555 -0.1596
 9419SOL    HW239891   2.413   2.849   5.088  2.2877 -1.0763  1.2692
 9420SOL     OW39892   1.211   2.554   8.719  0.4185  0.5753 -0.3832
 9420SOL    HW139893   1.146   2.513   8.661 -1.6516  1.8255  1.0666
 9420SOL    HW239894   1.180   2.524   8.804  1.4905 -1.3543 -0.6537
 9421SOL     OW39895   3.778   0.342   1.824 -0.1131 -0.2273  0.1082
 9421SOL    HW139896   3.753   0.430   1.796 -0.8418 -0.4532  0.0325
 9421SOL    HW239897   3.750   0.288   1.749 -0.2213 -0.5404  0.3723
 9422SOL     OW39898   0.557   1.554   5.275  0.3422 -0.0484  0.4773
 9422SOL    HW139899   0.474   1.601   5.286  1.9468  2.4454  1.9952
 9422SOL    HW239900   0.582   1.554   5.367  0.8585 -1.9624  0.3225
 9423SOL     OW39901   1.724   0.559   8.455  0.0686 -0.5346  0.0361
 9423SOL    HW139902   1.664   0.500   8.409  0.6608 -0.9298 -0.2333
 9423SOL    HW239903   1.659   0.612   8.501  0.7422  0.7024 -0.4366
 9424SOL     OW39904   4.595   2.329   6.796  0.3408 -0.4081 -0.3062
 9424SOL    HW139905   4.552   2.376   6.867  2.0762  0.2939  0.2833
 9424SOL    HW239906   4.679   2.376   6.792  0.8367 -1.2675 -0.0226
 9425SOL     OW39907   2.583   3.222   8.181  0.3310 -0.2223  1.0725
 9425SOL    HW139908   2.565   3.211   8.088  1.4829  0.6105  0.7562
 9425SOL    HW239909   2.676   3.204   8.186  0.5787  0.8127  0.1638
 9426SOL     OW39910   3.064   2.267   5.389  0.2369 -0.4515 -0.0231
 9426SOL    HW139911   3.148   2.290   5.428 -0.1358  1.2610 -0.2365
 9426SOL    HW239912   3.083   2.184   5.345  0.0940  0.0344 -1.0004
 9427SOL     OW39913   2.535   0.555   4.034 -0.0954  0.3124 -0.2124
 9427SOL    HW139914   2.554   0.621   4.100 -0.6298  0.8361 -0.5791
 9427SOL    HW239915   2.610   0.501   4.009  1.5394  2.7688 -0.4879
 9428SOL     OW39916   1.406   2.737   9.564 -0.0602 -0.3691  0.0947
 9428SOL    HW139917   1.412   2.832   9.569 -2.0280 -0.2672  0.5223
 9428SOL    HW239918   1.494   2.712   9.592 -1.2770 -1.4287  2.9837
 9429SOL     OW39919   3.683   0.422   2.217  0.7119 -0.4796  0.0086
 9429SOL    HW139920   3.689   0.332   2.183  0.7486 -1.8049  3.5236
 9429SOL    HW239921   3.712   0.476   2.143 -1.9569  0.2947 -0.4666
 9430SOL     OW39922   1.944   3.042   6.753  0.0557  0.1066  0.6637
 9430SOL    HW139923   1.948   3.006   6.842  0.3352  0.2950  0.7255
 9430SOL    HW239924   2.012   3.109   6.752  1.0103 -0.8949 -1.4327
 9431SOL     OW39925   3.674   0.116   7.128 -0.2425 -0.3463 -0.1815
 9431SOL    HW139926   3.622   0.066   7.065  0.9253 -1.1344 -0.5121
 9431SOL    HW239927   3.733   0.047   7.159 -0.7675 -0.3809  0.7569
 9432SOL     OW39928   2.951   2.673   8.826  0.6383 -0.0861 -0.0526
 9432SOL    HW139929   2.867   2.718   8.815 -0.9520 -2.6706  1.5684
 9432SOL    HW239930   2.928   2.583   8.805  1.4054 -0.5118  0.9057
 9433SOL     OW39931   2.128   4.031   7.963 -0.2828 -0.4590 -0.8148
 9433SOL    HW139932   2.122   4.126   7.968  1.4536 -0.3353 -1.1656
 9433SOL    HW239933   2.113   4.015   8.057 -1.5811  1.5111 -0.6942
 9434SOL     OW39934   0.108   3.936   0.944  0.3029  0.1001  0.3080
 9434SOL    HW139935   0.197   3.970   0.945  1.2331 -2.4079  0.6682
 9434SOL    HW239936   0.086   3.929   1.037  2.1383 -1.6448  0.5995
 9435SOL     OW39937   0.639   0.023   9.522 -0.1732 -0.5895  0.5365
 9435SOL    HW139938   0.560   0.002   9.573 -2.0153  1.7320 -1.3581
 9435SOL    HW239939   0.672   0.107   9.553 -0.9731 -0.4661  1.0553
 9436SOL     OW39940   0.033   0.487   6.266 -0.1312 -0.5909 -0.1735
 9436SOL    HW139941   0.113   0.464   6.313 -0.1901  0.7130  0.5725
 9436SOL    HW239942   0.071   0.503   6.180 -3.6977  1.2477 -1.4346
 9437SOL     OW39943   2.257   1.502   3.479  0.5777 -0.3300 -0.5004
 9437SOL    HW139944   2.280   1.539   3.564  0.6730  0.5264 -0.9023
 9437SOL    HW239945   2.251   1.580   3.424 -1.1858 -0.4355 -0.4632
 9438SOL     OW39946   3.321   2.834   3.978  0.2840  0.4521  0.2482
 9438SOL    HW139947   3.331   2.927   3.959  2.7725 -0.1618 -1.4232
 9438SOL    HW239948   3.334   2.804   3.888  1.3348  1.5922  0.0266
 9439SOL     OW39949   2.387   2.090  17.361  0.1197 -0.0944  0.3823
 9439SOL    HW139950   2.365   2.183  17.364  1.3208  0.2173 -0.4947
 9439SOL    HW239951   2.299   2.058  17.385  0.1064  1.0166  1.7617
 9440SOL     OW39952   4.171   3.413   4.437 -0.4703  0.0342  0.2157
 9440SOL    HW139953   4.174   3.509   4.432  1.2567  0.0865  2.1136
 9440SOL    HW239954   4.174   3.399   4.532 -1.2291 -0.7491  0.1230
 9441SOL     OW39955   3.322   4.478   2.876 -0.1342 -0.3642 -0.7293
 9441SOL    HW139956   3.320   4.545   2.807  0.8664  0.5754  0.1676
 9441SOL    HW239957   3.258   4.521   2.933  1.5765  2.6639 -1.0846
 9442SOL     OW39958   3.061   3.477   9.121  0.4005 -0.2617 -0.4612
 9442SOL    HW139959   2.995   3.422   9.080  0.1514 -1.0447  1.0062
 9442SOL    HW239960   3.113   3.408   9.162  0.8061  0.3090 -0.0198
 9443SOL     OW39961   4.518   4.350   5.264  0.1692 -0.2914  0.1132
 9443SOL    HW139962   4.446   4.322   5.207  0.7356 -0.8068 -0.3426
 9443SOL    HW239963   4.584   4.339   5.196  2.8791  4.1789  2.0123
 9444SOL     OW39964   4.688   1.147   6.819 -0.6281  0.2993  0.6959
 9444SOL    HW139965   4.702   1.065   6.866  3.3994 -0.2334 -1.4341
 9444SOL    HW239966   4.644   1.115   6.739  1.7596 -1.0863 -0.0580
 9445SOL     OW39967   4.553   1.812   5.081 -0.3575  0.1783  0.2824
 9445SOL    HW139968   4.474   1.772   5.045  0.4087  0.1558 -1.3533
 9445SOL    HW239969   4.587   1.848   4.999 -1.2255  0.8710  0.2233
 9446SOL     OW39970   0.680   2.833  15.241 -0.1567 -0.4784 -0.1306
 9446SOL    HW139971   0.702   2.809  15.151  1.7597 -0.9892  0.4723
 9446SOL    HW239972   0.600   2.882  15.223 -0.2405 -1.0270 -1.2237
 9447SOL     OW39973   2.774   3.704   3.936 -0.2018  0.7501  0.1051
 9447SOL    HW139974   2.860   3.664   3.919 -0.6257 -0.4697  0.8194
 9447SOL    HW239975   2.784   3.774   4.000  1.0790  0.5417  0.1267
 9448SOL     OW39976   1.894   3.310   0.618 -0.2154 -0.1598  0.2175
 9448SOL    HW139977   1.919   3.222   0.593 -1.3336 -0.2396 -0.5947
 9448SOL    HW239978   1.957   3.370   0.578 -0.4892 -0.0285 -0.0157
 9449SOL     OW39979   1.668   3.953   6.276 -0.0664  0.3124 -0.3882
 9449SOL    HW139980   1.612   3.892   6.228  1.4924 -1.2135 -0.3045
 9449SOL    HW239981   1.627   4.038   6.260 -1.2475 -0.1248  0.3538
 9450SOL     OW39982   4.429   0.938   7.435  0.0287 -0.1837 -0.0015
 9450SOL    HW139983   4.420   1.033   7.421  1.4579 -0.3251 -1.8450
 9450SOL    HW239984   4.511   0.917   7.391  2.1839  3.0880  2.4433
 9451SOL     OW39985   2.931   2.790   9.449 -0.5250 -0.4232  0.4242
 9451SOL    HW139986   2.864   2.840   9.495 -1.7769 -0.5121 -1.2854
 9451SOL    HW239987   2.882   2.727   9.396 -0.2843  1.2156 -1.7613
 9452SOL     OW39988   3.385   2.625   7.559  0.2154 -0.0486 -0.2047
 9452SOL    HW139989   3.302   2.625   7.512  0.6348 -0.8867 -0.9536
 9452SOL    HW239990   3.396   2.536   7.593 -0.7858 -0.2880 -0.4984
 9453SOL     OW39991   4.018   4.393  14.699  0.1431  0.0660  0.5909
 9453SOL    HW139992   3.932   4.434  14.685 -1.3743 -3.9551 -1.9532
 9453SOL    HW239993   4.004   4.310  14.652  2.3197  0.0823 -0.0673
 9454SOL     OW39994   1.660   1.303   5.640 -0.5877 -0.0567  0.3716
 9454SOL    HW139995   1.575   1.315   5.596 -0.2541  0.7183 -0.0648
 9454SOL    HW239996   1.709   1.246   5.581 -0.6511  0.2232  0.0445
 9455SOL     OW39997   2.979   0.340   7.107  0.3907 -0.0288 -0.2322
 9455SOL    HW139998   2.943   0.392   7.179  1.4283  0.0734  0.2130
 9455SOL    HW239999   3.072   0.329   7.127  0.5695 -1.3487 -1.7858
 9456SOL     OW40000   3.896   3.313  13.631 -0.3273  0.0302 -0.0849
 9456SOL    HW140001   3.958   3.359  13.574  0.5627  1.4497  2.0588
 9456SOL    HW240002   3.950   3.306  13.709  1.0728  0.3204 -1.0202
 9457SOL     OW40003   0.849   0.318   2.734  0.5576 -0.1155  0.4779
 9457SOL    HW140004   0.928   0.269   2.758  0.3912 -1.0423 -0.8751
 9457SOL    HW240005   0.887   0.383   2.675  0.6541  0.6030  1.3184
 9458SOL     OW40006   4.302   0.555   6.130 -0.1580 -0.3564  0.3738
 9458SOL    HW140007   4.284   0.640   6.171 -0.0211  0.2417 -0.8205
 9458SOL    HW240008   4.370   0.521   6.188 -0.3622 -1.0008  0.2265
 9459SOL     OW40009   0.543   4.436   7.345  0.0172  0.4900 -0.0785
 9459SOL    HW140010   0.555   4.363   7.406 -1.3860 -1.1975 -1.7982
 9459SOL    HW240011   0.588   4.509   7.387  2.8874 -1.8730  0.9206
 9460SOL     OW40012   0.622   2.467   4.468  0.6079  0.2152  0.2249
 9460SOL    HW140013   0.543   2.415   4.453  0.5803  0.0008  1.0887
 9460SOL    HW240014   0.610   2.561   4.451 -3.5224 -0.5254 -1.0261
 9461SOL     OW40015   1.295   2.404   5.291  0.2364 -0.6877 -0.6755
 9461SOL    HW140016   1.215   2.455   5.297  1.2028  0.7666 -0.2724
 9461SOL    HW240017   1.255   2.317   5.297  2.2707 -1.6735 -1.1401
 9462SOL     OW40018   2.541   0.387  13.103 -0.0230  0.0263 -0.4420
 9462SOL    HW140019   2.515   0.459  13.046 -3.6056 -0.3271  0.7486
 9462SOL    HW240020   2.473   0.321  13.088  0.3141  0.0605 -2.1504
 9463SOL     OW40021   3.636   1.505  15.012 -0.0192 -0.5978  0.1686
 9463SOL    HW140022   3.723   1.485  14.978  0.3504 -0.2081  0.8787
 9463SOL    HW240023   3.651   1.560  15.090  0.5310  0.0835 -0.4147
 9464SOL     OW40024   2.072   4.000   3.683 -0.5566 -0.7839 -0.3600
 9464SOL    HW140025   2.038   3.937   3.746  0.5781 -3.3262 -2.2749
 9464SOL    HW240026   2.161   3.969   3.669  0.1057  0.6440  0.8245
 9465SOL     OW40027   2.544   4.025   5.764  0.2191  0.4438  0.2073
 9465SOL    HW140028   2.630   4.066   5.771  1.1848 -1.6650  0.7703
 9465SOL    HW240029   2.499   4.105   5.792  1.1423  1.6232 -1.6575
 9466SOL     OW40030   1.832   2.818   1.237  0.2934 -0.2654 -0.0497
 9466SOL    HW140031   1.745   2.810   1.197  1.1331 -0.6514 -1.7972
 9466SOL    HW240032   1.807   2.836   1.328 -2.7754 -0.3906 -0.8617
 9467SOL     OW40033   3.791   1.034   5.591  0.4419 -0.1675  0.8922
 9467SOL    HW140034   3.769   0.957   5.539  1.7338 -0.4663  0.7910
 9467SOL    HW240035   3.872   1.006   5.633  1.6989 -0.2271 -1.5679
 9468SOL     OW40036   0.066   3.610   5.253  0.5201  0.5878  0.3413
 9468SOL    HW140037   0.023   3.672   5.194  0.4098  0.5013  0.3290
 9468SOL    HW240038   0.156   3.635   5.236 -0.0715  2.8878  0.6814
 9469SOL     OW40039   2.304   2.808   0.740 -0.2625 -0.1207  0.3178
 9469SOL    HW140040   2.257   2.822   0.822 -1.6318 -1.5714 -0.2114
 9469SOL    HW240041   2.280   2.884   0.687  1.4684 -0.7674 -1.4202
 9470SOL     OW40042   4.362   3.390   4.941  0.0545 -0.2126  0.4609
 9470SOL    HW140043   4.412   3.360   5.016 -1.8090 -0.8654  1.4398
 9470SOL    HW240044   4.433   3.435   4.896 -1.1471 -0.8602 -2.1020
 9471SOL     OW40045   0.470   0.835  14.180 -0.0991 -0.3203  0.5109
 9471SOL    HW140046   0.499   0.755  14.135  4.4383  1.3630  0.3651
 9471SOL    HW240047   0.505   0.817  14.267 -1.3856 -0.5649  0.9760
 9472SOL     OW40048   2.242   0.776   3.748 -0.1342  0.1186 -0.2355
 9472SOL    HW140049   2.179   0.707   3.771  1.6438 -2.0627 -1.8623
 9472SOL    HW240050   2.196   0.846   3.701  1.0042  1.5728  0.8444
 9473SOL     OW40051   3.832   0.278   8.261 -0.5948 -0.1390 -0.6923
 9473SOL    HW140052   3.872   0.301   8.345  2.2392  1.3908 -2.4498
 9473SOL    HW240053   3.896   0.211   8.239  0.0822  0.6701 -1.1926
 9474SOL     OW40054   3.485   1.503   2.656 -0.0031  0.3689 -0.2777
 9474SOL    HW140055   3.529   1.587   2.652 -0.0545  0.4893  1.7567
 9474SOL    HW240056   3.531   1.443   2.596  3.0120  0.0286  2.3579
 9475SOL     OW40057   2.328   4.315  17.166 -0.2513  0.1537  0.0133
 9475SOL    HW140058   2.366   4.231  17.142 -0.4546 -0.3324  1.3607
 9475SOL    HW240059   2.235   4.296  17.152 -0.0639 -0.9043  0.2062
 9476SOL     OW40060   4.459   3.989   3.294 -0.6496 -0.7923  0.1628
 9476SOL    HW140061   4.460   3.917   3.230  1.7608 -0.6339  0.0028
 9476SOL    HW240062   4.376   4.034   3.279 -0.5971  0.2581  3.0957
 9477SOL     OW40063   3.988   2.864   8.777 -0.2415  0.4163 -0.2939
 9477SOL    HW140064   4.064   2.852   8.833  1.0952  0.1413 -2.1645
 9477SOL    HW240065   3.974   2.957   8.792 -0.7085 -0.1314  2.7417
 9478SOL     OW40066   1.342   3.164  11.497 -0.4232 -0.6205 -0.3623
 9478SOL    HW140067   1.270   3.207  11.543  0.0732 -1.2150  0.9594
 9478SOL    HW240068   1.334   3.214  11.416  0.6963  3.7846  2.2211
 9479SOL     OW40069   2.180   2.922  16.195 -0.0973  0.4162  0.1213
 9479SOL    HW140070   2.120   2.997  16.195 -1.1302 -0.4055 -1.3523
 9479SOL    HW240071   2.163   2.904  16.102 -1.5697  2.6201 -0.0368
 9480SOL     OW40072   1.952   2.546  17.622 -0.0032  0.0970 -0.1663
 9480SOL    HW140073   1.998   2.591  17.692  1.2737 -1.3192 -0.0994
 9480SOL    HW240074   1.897   2.619  17.593  0.6024  0.8185  0.5387
 9481SOL     OW40075   4.217   4.241  17.022 -0.3641  0.0997  0.1227
 9481SOL    HW140076   4.282   4.174  16.998 -0.4770 -0.9484  2.8019
 9481SOL    HW240077   4.258   4.279  17.100 -1.4657  0.0506  0.7288
 9482SOL     OW40078   3.920   1.513   6.449 -0.2182 -0.5569  0.1291
 9482SOL    HW140079   3.977   1.470   6.385 -0.4983  1.3289 -1.4113
 9482SOL    HW240080   3.954   1.485   6.534  0.3980 -0.1161  0.0316
 9483SOL     OW40081   4.109   0.184   4.399 -0.9574 -0.3284 -0.3467
 9483SOL    HW140082   4.020   0.157   4.421 -1.7906  2.5766 -0.1286
 9483SOL    HW240083   4.103   0.177   4.304 -2.2023 -1.4394 -0.1869
 9484SOL     OW40084   1.907   4.606   2.503  0.0471 -0.0746 -0.3147
 9484SOL    HW140085   1.925   4.516   2.533 -1.1958 -0.3245 -0.3428
 9484SOL    HW240086   1.898   4.649   2.588 -0.5872 -0.0451 -0.4002
 9485SOL     OW40087   3.944   0.629  14.442  0.2885  0.1036 -1.5002
 9485SOL    HW140088   3.964   0.692  14.510 -0.0725 -1.8166  0.3764
 9485SOL    HW240089   3.861   0.663  14.408 -1.7836 -1.8764  1.5872
 9486SOL     OW40090   4.126   0.789  13.483  0.0035  0.1927 -0.2743
 9486SOL    HW140091   4.034   0.784  13.458 -0.0328  1.5768 -0.4093
 9486SOL    HW240092   4.129   0.877  13.520  3.4332 -0.7014  1.6145
 9487SOL     OW40093   2.531   1.756  16.634 -0.2500 -0.3713  0.4330
 9487SOL    HW140094   2.452   1.808  16.652  1.3574  2.2689 -0.0645
 9487SOL    HW240095   2.589   1.829  16.610 -0.9574  0.2537  0.6199
 9488SOL     OW40096   4.177   2.845   6.836 -0.0631 -0.7428  0.0811
 9488SOL    HW140097   4.237   2.770   6.828 -0.9178 -1.4705  0.4552
 9488SOL    HW240098   4.223   2.880   6.912  0.4720 -1.8931  0.2997
 9489SOL     OW40099   0.390   2.113   2.717 -0.5542 -0.1649 -0.6904
 9489SOL    HW140100   0.438   2.139   2.638  0.1201  0.5457 -0.0429
 9489SOL    HW240101   0.323   2.063   2.670  1.0853 -2.1634 -0.9251
 9490SOL     OW40102   4.494   1.141   0.215  0.0137 -0.1107  0.8441
 9490SOL    HW140103   4.417   1.191   0.187 -0.4987 -0.8594  0.9348
 9490SOL    HW240104   4.505   1.174   0.304 -0.1697  2.6954 -0.1533
 9491SOL     OW40105   1.283   3.574  11.344  0.5043  0.0399  0.1250
 9491SOL    HW140106   1.222   3.640  11.310 -1.3968 -1.5428  0.5079
 9491SOL    HW240107   1.357   3.583  11.283  2.3696  0.3723  2.4370
 9492SOL     OW40108   2.137   1.876   0.770 -0.1123  0.6755  0.6407
 9492SOL    HW140109   2.212   1.923   0.734  0.3098 -0.4314  0.0973
 9492SOL    HW240110   2.176   1.793   0.795 -0.8800  0.4662  1.1707
 9493SOL     OW40111   3.504   0.909   8.004  0.2878  0.4899 -0.0357
 9493SOL    HW140112   3.583   0.951   7.968  0.1468 -0.3555 -1.3362
 9493SOL    HW240113   3.524   0.882   8.094  0.3686  3.3246  0.8084
 9494SOL     OW40114   0.584   1.937   2.273  0.2529  0.4206 -0.6003
 9494SOL    HW140115   0.535   1.973   2.199  1.5711  2.2781 -0.5614
 9494SOL    HW240116   0.538   1.855   2.291 -1.6377  1.5443 -0.3453
 9495SOL     OW40117   3.585   0.961   6.935  0.1685 -0.0393 -0.3329
 9495SOL    HW140118   3.651   1.025   6.908 -0.6448  1.7510  1.9373
 9495SOL    HW240119   3.622   0.887   6.887  0.0666 -0.0032 -0.4646
 9496SOL     OW40120   1.283   2.550  17.413 -0.2313  0.0607  0.2596
 9496SOL    HW140121   1.376   2.556  17.432 -0.0025  1.5881 -1.4107
 9496SOL    HW240122   1.251   2.639  17.431  0.8810  0.1430  1.8852
 9497SOL     OW40123   2.748   0.900  17.174  0.0485 -0.4722 -0.4519
 9497SOL    HW140124   2.767   0.949  17.095  0.5294 -1.1462 -0.7579
 9497SOL    HW240125   2.658   0.918  17.202 -0.0763 -0.6780 -0.7162
 9498SOL     OW40126   3.840   3.034  11.333  0.5798 -0.3824 -0.1118
 9498SOL    HW140127   3.766   3.010  11.389  1.7026  0.8619  1.9185
 9498SOL    HW240128   3.791   3.101  11.284 -1.9211 -0.4959  2.2532
 9499SOL     OW40129   4.663   3.521   2.241  0.2500 -0.0389  0.7689
 9499SOL    HW140130   4.682   3.576   2.165 -0.8158 -1.4602 -0.5034
 9499SOL    HW240131   4.732   3.455   2.233  1.1500  1.1511 -1.2518
 9500SOL     OW40132   3.076   4.573   6.668  0.6577 -0.4472 -0.1133
 9500SOL    HW140133   2.986   4.592   6.694  0.7429 -1.2196  0.7516
 9500SOL    HW240134   3.112   4.542   6.752  1.5323  0.5633 -0.1198
 9501SOL     OW40135   0.475   1.751  15.045  0.1313  0.6464  0.0460
 9501SOL    HW140136   0.494   1.798  14.964  1.5463 -0.1853 -0.1025
 9501SOL    HW240137   0.379   1.756  15.051  0.0985  2.1709 -1.8803
 9502SOL     OW40138   4.384   4.099   1.704 -0.4273  0.0518 -0.4690
 9502SOL    HW140139   4.316   4.166   1.712  0.4998  0.7607  1.6508
 9502SOL    HW240140   4.381   4.063   1.793 -0.4074  0.8749 -0.1276
 9503SOL     OW40141   0.386   2.086  17.386  0.3867  0.0030 -0.2034
 9503SOL    HW140142   0.362   2.179  17.390  2.8241  0.6473 -0.5260
 9503SOL    HW240143   0.470   2.097  17.430 -0.7444  0.1619  1.8994
 9504SOL     OW40144   2.647   3.291   7.413  0.3994 -0.2038  0.1004
 9504SOL    HW140145   2.618   3.200   7.412 -1.5932  0.4013  2.2224
 9504SOL    HW240146   2.737   3.288   7.382 -0.2471  2.7805 -2.0679
 9505SOL     OW40147   0.479   1.514   2.823 -0.5431 -0.4085  0.2726
 9505SOL    HW140148   0.552   1.527   2.763 -0.9440 -0.8057 -0.2999
 9505SOL    HW240149   0.410   1.515   2.757 -1.1160 -0.4134  0.8710
 9506SOL     OW40150   1.860   4.609   0.856 -0.0645  0.3204  0.0172
 9506SOL    HW140151   1.873   4.652   0.940 -1.5489  0.1193  0.3622
 9506SOL    HW240152   1.772   4.586   0.886  0.5848  0.0577  1.6967
 9507SOL     OW40153   2.252   3.306  11.226 -0.1783 -1.1320 -0.3514
 9507SOL    HW140154   2.261   3.393  11.187 -4.2359 -0.4764  0.1164
 9507SOL    HW240155   2.324   3.322  11.286  0.5206 -1.1800 -1.1714
 9508SOL     OW40156   4.586   3.381  12.410 -0.2061  0.2619  0.3689
 9508SOL    HW140157   4.679   3.357  12.416  0.7566  2.9892 -3.3017
 9508SOL    HW240158   4.588   3.468  12.450  2.8713  0.6367 -0.5626
 9509SOL     OW40159   3.094   3.540   5.257  0.2288  0.0667 -0.1238
 9509SOL    HW140160   3.138   3.489   5.190 -1.2205  0.1370 -1.1261
 9509SOL    HW240161   3.032   3.479   5.296 -1.1031  1.3007 -0.3144
 9510SOL     OW40162   0.586   0.614   2.382  0.6241  0.7449 -0.4751
 9510SOL    HW140163   0.618   0.603   2.471  1.0309  0.2422 -0.6879
 9510SOL    HW240164   0.581   0.710   2.379 -0.7946  0.7489  1.9654
 9511SOL     OW40165   2.476   1.555  10.873  0.1519 -0.0437  0.1356
 9511SOL    HW140166   2.467   1.459  10.877 -1.6817  0.1635  1.1061
 9511SOL    HW240167   2.541   1.559  10.942  0.0776 -2.9746  0.3652
 9512SOL     OW40168   3.920   3.124   2.811 -0.3377 -1.1236 -0.0764
 9512SOL    HW140169   3.981   3.079   2.753 -1.8075 -1.9129 -1.0026
 9512SOL    HW240170   3.841   3.107   2.760  1.4075 -2.2182 -2.4119
 9513SOL     OW40171   1.858   2.919   0.336  0.5350 -0.2987  0.0132
 9513SOL    HW140172   1.817   2.871   0.263  0.5409 -0.6013  0.2082
 9513SOL    HW240173   1.918   2.980   0.294  0.5703 -0.0197  0.4792
 9514SOL     OW40174   1.484   3.659   4.299 -0.6181  0.6726 -0.3366
 9514SOL    HW140175   1.457   3.698   4.216 -0.4420  0.3282 -0.5548
 9514SOL    HW240176   1.427   3.712   4.354 -0.7038  1.1158 -0.8462
 9515SOL     OW40177   3.888   4.106   5.249 -0.2576  0.4486  0.2959
 9515SOL    HW140178   3.945   4.068   5.316 -0.0876  1.5037  0.7494
 9515SOL    HW240179   3.824   4.037   5.231  1.0497 -0.2439 -1.7072
 9516SOL     OW40180   4.084   2.590   5.208 -0.0532  0.4569  0.0550
 9516SOL    HW140181   4.020   2.553   5.268  0.6329  3.1083  2.4200
 9516SOL    HW240182   4.136   2.648   5.263 -1.0136 -0.0924  1.5174
 9517SOL     OW40183   4.475   4.300   3.481  0.2174  0.5645  0.1142
 9517SOL    HW140184   4.519   4.265   3.404  0.7977  0.3888  0.5214
 9517SOL    HW240185   4.546   4.328   3.538 -0.4414 -2.8499  2.6223
 9518SOL     OW40186   3.117   1.116   3.309 -0.0572  0.1706 -0.0033
 9518SOL    HW140187   3.071   1.032   3.303  2.3811 -1.0555 -1.9358
 9518SOL    HW240188   3.176   1.108   3.384  0.1283 -0.5081 -0.2219
 9519SOL     OW40189   4.275   2.960  12.654 -0.1986 -0.3208 -0.0328
 9519SOL    HW140190   4.202   2.997  12.605  0.1594  1.4034  0.7515
 9519SOL    HW240191   4.321   2.910  12.586 -0.3330  1.8684 -1.7387
 9520SOL     OW40192   1.630   1.325   7.789  0.2417 -0.0564  0.4944
 9520SOL    HW140193   1.564   1.383   7.826  1.3181  0.4646  1.6182
 9520SOL    HW240194   1.616   1.252   7.849 -1.3846 -0.9605 -0.9784
 9521SOL     OW40195   2.852   2.010   1.920 -0.3605 -0.0624 -0.1700
 9521SOL    HW140196   2.907   2.014   1.997 -0.2016 -0.6612 -0.2551
 9521SOL    HW240197   2.850   2.100   1.888  3.2818 -0.1015 -0.5150
 9522SOL     OW40198   0.919   3.467   2.308  0.2802  0.6113 -0.2145
 9522SOL    HW140199   1.001   3.426   2.336 -0.6760 -2.7703 -2.2686
 9522SOL    HW240200   0.857   3.401   2.339  0.7020  0.1527 -0.3481
 9523SOL     OW40201   1.088   4.007   3.796 -0.4463  0.8307 -0.5411
 9523SOL    HW140202   1.171   4.054   3.798 -0.6606  1.1957 -0.3936
 9523SOL    HW240203   1.038   4.069   3.849 -1.2086 -0.9934  0.8840
 9524SOL     OW40204   3.227   4.088   6.958  0.1118  0.2829 -0.3834
 9524SOL    HW140205   3.283   4.151   7.005  2.7071 -0.9216 -1.8506
 9524SOL    HW240206   3.248   4.002   6.993  0.9123  0.8668  0.5810
 9525SOL     OW40207   0.323   0.612   4.652 -0.0984  0.9207  0.4727
 9525SOL    HW140208   0.258   0.561   4.699 -1.2123  1.9266  0.0050
 9525SOL    HW240209   0.367   0.654   4.726  1.6098 -0.8344  0.4560
 9526SOL     OW40210   0.075   0.708   6.798  0.0476 -0.1583  0.1128
 9526SOL    HW140211   0.085   0.747   6.884 -2.0780  0.7593 -0.0741
 9526SOL    HW240212   0.009   0.765   6.759 -1.5192 -2.3181 -0.4084
 9527SOL     OW40213   4.620   4.675  11.514  0.4956  0.3044 -0.6477
 9527SOL    HW140214   4.626   4.580  11.512  1.6293  0.3607  0.0606
 9527SOL    HW240215   4.627   4.690  11.420 -0.8323 -0.5249 -0.8748
 9528SOL     OW40216   0.083   0.189  10.920  0.4290 -0.4007  0.0518
 9528SOL    HW140217   0.133   0.220  10.844 -0.1032  0.2750 -0.0259
 9528SOL    HW240218   0.144   0.196  10.993 -0.7281 -0.4890  1.0197
 9529SOL     OW40219   1.311   0.468   2.668  0.4695 -0.0067  0.9156
 9529SOL    HW140220   1.398   0.468   2.630 -0.1027 -2.0129 -0.3366
 9529SOL    HW240221   1.329   0.410   2.742 -0.3359 -0.2944  0.8868
 9530SOL     OW40222   0.967   3.717  11.808  0.2462  0.2134  0.0361
 9530SOL    HW140223   1.007   3.667  11.737 -1.5580 -0.6661 -0.3607
 9530SOL    HW240224   0.904   3.772  11.762 -0.8070 -0.2579  0.9291
 9531SOL     OW40225   3.252   4.668   3.921  0.3516  0.0580  0.3571
 9531SOL    HW140226   3.232   4.737   3.984 -2.0894 -1.5607  1.3447
 9531SOL    HW240227   3.345   4.657   3.943  0.2121  0.9840  1.4014
 9532SOL     OW40228   2.569   3.621   1.603 -0.0021 -0.3396 -0.0200
 9532SOL    HW140229   2.630   3.661   1.541 -0.2600 -3.1823 -2.0871
 9532SOL    HW240230   2.526   3.559   1.544 -1.2574 -0.0631  0.6105
 9533SOL     OW40231   2.773   4.729   3.640  0.0332 -0.2497 -0.0541
 9533SOL    HW140232   2.692   0.001   3.690  0.4136  1.1357  0.3053
 9533SOL    HW240233   2.757   4.647   3.593  0.1533  0.1076 -0.7204
 9534SOL     OW40234   0.450   1.558   8.473 -0.1840  0.3460 -0.2811
 9534SOL    HW140235   0.482   1.608   8.548 -2.8556  1.4028  0.1521
 9534SOL    HW240236   0.407   1.482   8.514  2.3227 -0.8404  0.1435
 9535SOL     OW40237   1.398   0.579   8.647  0.1796  0.3126  0.6665
 9535SOL    HW140238   1.436   0.655   8.690 -0.6559  0.5841  0.9195
 9535SOL    HW240239   1.424   0.580   8.555  0.2808 -2.5825  0.6622
 9536SOL     OW40240   1.397   3.233   4.314 -0.1579  0.0644  0.1594
 9536SOL    HW140241   1.440   3.301   4.262  3.1524  0.7351  3.6956
 9536SOL    HW240242   1.387   3.177   4.238 -4.1285 -0.1297  0.8347
 9537SOL     OW40243   2.845   1.200   6.991 -0.6185  0.3371  0.4276
 9537SOL    HW140244   2.907   1.160   6.930 -1.0453 -1.5767  1.2436
 9537SOL    HW240245   2.902   1.243   7.055  0.8042  2.1702 -2.1101
 9538SOL     OW40246   4.478   1.995   3.412  0.5781  0.2582  0.3615
 9538SOL    HW140247   4.539   2.047   3.359  0.0402 -0.2142 -0.7294
 9538SOL    HW240248   4.486   1.905   3.381 -0.6738 -0.2331  1.4438
 9539SOL     OW40249   2.046   3.312   1.896  0.1300  0.2786  0.2989
 9539SOL    HW140250   1.972   3.257   1.922 -0.3376 -0.3512 -2.3138
 9539SOL    HW240251   2.118   3.251   1.906  1.2354  1.1501 -2.2340
 9540SOL     OW40252   2.714   0.934   1.950 -0.0753  0.5991 -0.5368
 9540SOL    HW140253   2.719   0.891   1.865  0.8069  1.1995 -0.7875
 9540SOL    HW240254   2.672   1.016   1.924  1.4027  1.0744 -1.4440
 9541SOL     OW40255   2.321   2.985   8.446  0.0375  0.2374  0.1360
 9541SOL    HW140256   2.284   2.915   8.500 -0.1905 -0.6584 -1.1798
 9541SOL    HW240257   2.378   2.939   8.385  0.5857  0.3145  0.5963
 9542SOL     OW40258   0.527   4.509   7.900  0.2821 -1.0138  0.0420
 9542SOL    HW140259   0.613   4.469   7.888 -0.0335 -0.8483 -2.6322
 9542SOL    HW240260   0.461   4.441   7.889 -1.8285  1.0469 -0.1496
 9543SOL     OW40261   2.462   3.482   1.398  0.0246  0.0636  0.3564
 9543SOL    HW140262   2.414   3.508   1.319  0.9813 -0.9183 -0.5460
 9543SOL    HW240263   2.407   3.416   1.440 -0.6372 -0.4474 -1.3068
 9544SOL     OW40264   4.393   3.709   8.328  0.2675 -0.5761 -0.0887
 9544SOL    HW140265   4.316   3.687   8.276  1.4865 -3.6896 -0.6102
 9544SOL    HW240266   4.458   3.645   8.298  0.2196 -1.6797  2.1244
 9545SOL     OW40267   1.119   0.207   8.011  0.5833 -0.0378 -0.1383
 9545SOL    HW140268   1.033   0.176   7.984  0.4521  0.5825 -0.4271
 9545SOL    HW240269   1.110   0.298   7.985  1.8227  1.0775  3.2824
 9546SOL     OW40270   1.756   1.066  16.188  0.3439  0.0487  0.1842
 9546SOL    HW140271   1.679   1.082  16.244 -1.9470 -1.2687 -2.6109
 9546SOL    HW240272   1.717   1.091  16.104  1.2624  0.8794  0.0063
 9547SOL     OW40273   0.652   4.234   3.933  0.5179 -0.0720  0.0605
 9547SOL    HW140274   0.667   4.192   3.848  1.0781 -0.3862  0.3225
 9547SOL    HW240275   0.559   4.218   3.948  0.6595 -3.4316 -2.7350
 9548SOL     OW40276   3.935   2.428   2.369 -0.1261 -0.2379  0.4776
 9548SOL    HW140277   3.849   2.392   2.390 -0.3706  1.2416  1.9514
 9548SOL    HW240278   3.919   2.461   2.281  0.1139  0.8502  0.8489
 9549SOL     OW40279   1.465   3.806  17.260 -0.0870  0.1378 -0.2334
 9549SOL    HW140280   1.516   3.844  17.332 -1.8236 -2.3018  2.3094
 9549SOL    HW240281   1.476   3.882  17.202  0.3942 -1.2544 -1.9652
 9550SOL     OW40282   4.296   3.597   1.973  0.3288 -0.1712  0.0979
 9550SOL    HW140283   4.237   3.619   1.902 -1.6672 -1.8575  1.2600
 9550SOL    HW240284   4.308   3.674   2.030 -0.5487  1.2201 -1.6031
 9551SOL     OW40285   0.521   3.354   4.417 -0.0401  0.4264 -0.4220
 9551SOL    HW140286   0.611   3.327   4.435 -0.6189 -0.8561  0.5840
 9551SOL    HW240287   0.537   3.414   4.344 -1.1394 -0.1406 -1.1364
 9552SOL     OW40288   4.457   2.620  11.531 -0.5782 -0.4062  0.3675
 9552SOL    HW140289   4.458   2.658  11.619  1.6710 -0.2154  0.2638
 9552SOL    HW240290   4.363   2.602  11.528 -0.6760  0.1493  0.0323
 9553SOL     OW40291   0.670   1.359   8.659  0.2970  0.0743 -0.0860
 9553SOL    HW140292   0.609   1.433   8.661 -1.7440 -1.6419  1.0099
 9553SOL    HW240293   0.646   1.307   8.736 -0.6438  2.1937  1.0467
 9554SOL     OW40294   4.026   3.866   6.480  0.0762  0.8213  0.1192
 9554SOL    HW140295   3.963   3.912   6.535 -1.0590  0.9557 -1.2898
 9554SOL    HW240296   3.972   3.796   6.444  2.8053  0.1991 -2.7516
 9555SOL     OW40297   0.440   4.240  10.039  0.2348  0.3281 -0.6169
 9555SOL    HW140298   0.478   4.246  10.127  0.7925 -1.8244 -0.7102
 9555SOL    HW240299   0.454   4.327  10.002 -1.3615  2.0498  2.8850
 9556SOL     OW40300   1.727   0.738   6.520 -0.7932  0.0405  0.2501
 9556SOL    HW140301   1.775   0.779   6.592  2.3896  0.6883 -2.2738
 9556SOL    HW240302   1.803   0.720   6.465 -0.7903 -1.3659  0.7168
 9557SOL     OW40303   4.486   4.299  15.466  0.4363  0.3720 -0.8033
 9557SOL    HW140304   4.465   4.235  15.534  2.4251  0.5236 -0.0498
 9557SOL    HW240305   4.572   4.316  15.503  0.7348  0.5944 -1.6090
 9558SOL     OW40306   3.515   2.683   0.902 -0.1922  0.0826  0.1524
 9558SOL    HW140307   3.429   2.707   0.868 -0.6822 -2.7744 -0.6362
 9558SOL    HW240308   3.564   2.664   0.822 -3.0223  1.8893 -1.9945
 9559SOL     OW40309   4.013   2.325   0.333 -0.1098 -0.5783  0.3127
 9559SOL    HW140310   3.947   2.291   0.394  1.7358 -0.8616  2.1510
 9559SOL    HW240311   4.033   2.415   0.359  0.0348 -0.3560 -0.5496
 9560SOL     OW40312   1.452   2.145  17.392 -0.2619  0.0553  0.3521
 9560SOL    HW140313   1.514   2.196  17.340 -1.5182  0.8943 -0.3324
 9560SOL    HW240314   1.371   2.157  17.342  0.5215  0.9919 -0.6769
 9561SOL     OW40315   2.348   1.728   3.286 -0.3539  0.0973  0.0428
 9561SOL    HW140316   2.425   1.779   3.313 -1.4301 -0.0085  3.3694
 9561SOL    HW240317   2.317   1.775   3.209  2.7830 -0.2801 -1.4281
 9562SOL     OW40318   2.108   3.228  17.250  1.0036 -0.5524  0.0813
 9562SOL    HW140319   2.023   3.192  17.224  0.7549  1.6364 -2.1866
 9562SOL    HW240320   2.080   3.318  17.267 -3.3020 -1.6387 -1.2600
 9563SOL     OW40321   4.655   2.051   6.726  0.0672  0.4625 -1.1218
 9563SOL    HW140322   4.730   2.106   6.706 -0.4352  0.1789 -3.7475
 9563SOL    HW240323   4.585   2.116   6.736  0.8467  1.4188 -1.9016
 9564SOL     OW40324   4.684   2.720  12.553 -0.2435  0.8254  0.2023
 9564SOL    HW140325   4.675   2.812  12.578 -0.9585  1.0775 -0.9871
 9564SOL    HW240326   0.041   2.714  12.536 -0.4886 -0.0989 -0.7842
 9565SOL     OW40327   4.295   4.270   5.084  0.7655 -0.3966  0.3070
 9565SOL    HW140328   4.278   4.223   5.002  0.0732 -0.4511  0.4832
 9565SOL    HW240329   4.216   4.323   5.091  0.1268 -1.0223 -2.0796
 9566SOL     OW40330   4.683   0.816  12.930 -0.2293  0.2456  0.2252
 9566SOL    HW140331   4.686   0.911  12.941  1.7718  0.3718 -1.4398
 9566SOL    HW240332   4.630   0.812  12.850  1.0390 -0.0905 -0.5991
 9567SOL     OW40333   1.410   1.085   5.789 -0.0637 -0.6209  0.2962
 9567SOL    HW140334   1.356   1.065   5.712  0.5860  1.0058 -0.5778
 9567SOL    HW240335   1.499   1.060   5.764 -0.3705 -1.5228  0.0808
 9568SOL     OW40336   0.981   1.609  17.139  0.1401 -0.1164 -0.2421
 9568SOL    HW140337   0.951   1.531  17.092  0.3134 -0.6803  0.5803
 9568SOL    HW240338   1.045   1.573  17.200 -1.6536 -1.2532  0.9703
 9569SOL     OW40339   3.871   2.759   4.223  0.0839  0.2787  0.4070
 9569SOL    HW140340   3.854   2.831   4.162  0.8779  0.5242  0.4762
 9569SOL    HW240341   3.793   2.706   4.207  1.4161 -0.3001 -4.1266
 9570SOL     OW40342   0.164   4.084   3.702 -0.1463 -0.6516 -0.0647
 9570SOL    HW140343   0.208   4.132   3.631 -1.5490  2.5159  1.2222
 9570SOL    HW240344   0.164   3.996   3.664 -0.8917 -0.7801  0.2475
 9571SOL     OW40345   3.227   2.481   9.392  0.2301 -0.7482 -0.2392
 9571SOL    HW140346   3.135   2.476   9.419  0.6031 -2.1651  0.7687
 9571SOL    HW240347   3.274   2.437   9.463  0.0483 -1.1607 -0.3769
   4.73761   4.73761  17.74866
