Membrane in water
40347
    1TMC1    C1    1   3.524   2.892  11.537  0.3656  0.8937  0.2779
    1TMC1    C2    2   3.516   2.977  11.640  0.5805  0.0264  0.4118
    1TMC1    C3    3   3.538   3.108  11.624  0.0916  0.4586  0.3012
    1TMC1    C4    4   3.551   2.935  11.411 -0.0358 -0.4948  0.6340
    1TMC1    C5    5   3.573   3.069  11.399 -0.2108  0.1400  0.2989
    1TMC1    C6    6   3.573   3.156  11.501  0.1745  0.5027  0.2962
    1TMC1     C    7   3.488   2.749  11.545  0.0102  0.1771  0.2838
    1TMC1     O    8   3.441   2.711  11.648 -0.0204 -0.3659  0.1252
    1TMC1     H    9   3.485   2.943  11.739 -0.0722 -0.1619  0.1449
    1TMC1    H1   10   3.555   2.868  11.326  1.8986 -0.1517  0.4420
    1TMC1    H2   11   3.580   3.261  11.478 -0.6026  0.1939 -1.3803
    1TMC1    C7   12   3.578   3.134  11.269 -0.1762  0.1789 -0.6116
    1TMC1    C8   13   3.560   3.189  11.745 -0.6424 -0.3314 -0.0743
    1TMC1    O1   14   3.557   3.258  11.262 -0.0605 -0.1297  0.3077
    1TMC1    O2   15   3.587   3.134  11.850  0.5297  0.1983 -0.0859
    1TMC1    O3   16   3.678   3.067  11.206  0.1239 -0.2262 -0.5242
    1TMC1    H3   17   3.687   2.979  11.247 -0.7553 -0.2101 -0.2951
    1TMC1    O5   18   3.529   3.319  11.717  0.3638  0.5714  0.6713
    1TMC1    H5   19   3.483   3.341  11.633  1.9051 -0.3704 -0.4060
    2MPD2     C   20   3.543   2.247  11.443  0.1253  0.3777 -0.0065
    2MPD2    C1   21   3.453   2.308  11.531 -0.2594  0.5952 -0.0419
    2MPD2    C2   22   3.449   2.443  11.531 -0.5161 -0.8017 -0.2379
    2MPD2    C3   23   3.542   2.520  11.454 -0.0916  0.3114  0.3476
    2MPD2    C4   24   3.633   2.453  11.373 -0.7895 -1.0747  0.1473
    2MPD2    C5   25   3.624   2.318  11.362  0.7648  0.0554 -0.1390
    2MPD2     H   26   3.371   2.495  11.586 -0.3561 -0.0729 -0.6887
    2MPD2    H1   27   3.705   2.500  11.307 -2.3095 -1.6099 -1.8724
    2MPD2    H2   28   3.550   2.139  11.439  1.0632  0.4317  0.1476
    2MPD2    H3   29   3.694   2.268  11.296  1.4910  0.2001  0.5194
    2MPD2     N   30   3.550   2.666  11.457  0.1331  0.1133  0.0534
    2MPD2    H5   31   3.612   2.707  11.387  1.5166  0.0649  1.2573
    2MPD2    N1   32   3.355   2.230  11.591 -0.6014  0.1427 -0.1558
    2MPD2    H7   33   3.278   2.282  11.632 -1.7816 -1.2164 -0.6562
    3TMC1    C1   34   2.423   2.548  10.342  0.2772  0.3460  0.4044
    3TMC1    C2   35   2.533   2.628  10.321 -0.0497 -0.0949 -0.4911
    3TMC1    C3   36   2.597   2.611  10.204  0.4219 -0.3432  0.1815
    3TMC1    C4   37   2.376   2.461  10.248 -0.6639 -0.5282  0.3825
    3TMC1    C5   38   2.455   2.439  10.142 -0.4544  0.0056 -0.3700
    3TMC1    C6   39   2.570   2.510  10.117  0.5146  0.0905  0.3006
    3TMC1     C   40   2.344   2.560  10.458  0.2125 -0.1347 -0.4221
    3TMC1     O   41   2.253   2.479  10.465 -0.1249 -0.3084 -0.1351
    3TMC1     H   42   2.570   2.690  10.401 -0.8642 -1.6420  1.0956
    3TMC1    H1   43   2.282   2.409  10.264 -1.8158  1.4532  0.1380
    3TMC1    H2   44   2.607   2.501  10.015  2.2901 -0.6902  1.0053
    3TMC1    C7   45   2.416   2.328  10.058  0.1173 -0.3369 -0.2728
    3TMC1    C8   46   2.699   2.714  10.174 -0.0662 -0.2666 -0.0421
    3TMC1    O1   47   2.300   2.296  10.043  0.6469  0.1510 -0.1932
    3TMC1    O2   48   2.717   2.810  10.251 -0.1009 -0.1395  0.1545
    3TMC1    O3   49   2.519   2.277   9.988  0.0739  0.2453 -0.1355
    3TMC1    H3   50   2.611   2.304  10.012 -0.6529  2.7584 -0.1729
    3TMC1    O5   51   2.731   2.721  10.043 -0.0296  0.1520 -0.1279
    3TMC1    H5   52   2.724   2.639   9.989 -1.9342  0.7677 -0.8123
    4MPD2     C   53   2.147   2.832  10.840 -0.1379 -0.0628  0.0088
    4MPD2    C1   54   2.230   2.917  10.768  0.8276 -0.4266 -0.1665
    4MPD2    C2   55   2.313   2.859  10.670  0.3382  0.0757  0.3998
    4MPD2    C3   56   2.294   2.726  10.636  0.0065 -0.5548 -0.0325
    4MPD2    C4   57   2.205   2.650  10.710 -0.4204  0.1526  0.5442
    4MPD2    C5   58   2.128   2.707  10.809 -0.0649 -0.5799  0.1995
    4MPD2     H   59   2.390   2.916  10.619 -0.7467 -0.4560 -1.8565
    4MPD2    H1   60   2.187   2.546  10.683  1.3982 -0.5815  2.1391
    4MPD2    H2   61   2.094   2.861  10.931  0.9501 -1.9085  1.2292
    4MPD2    H3   62   2.052   2.645  10.855  1.1297 -2.3503 -0.2316
    4MPD2     N   63   2.363   2.678  10.525 -0.2899  0.0255 -0.4210
    4MPD2    H5   64   2.439   2.741  10.503  0.8632 -0.8051  1.1052
    4MPD2    N1   65   2.267   3.046  10.811 -0.2112  0.0677  0.1607
    4MPD2    H7   66   2.360   3.078  10.789 -0.6987  0.7541 -0.9043
    5TCq1    O1   67   4.004   4.513  12.190 -0.0690  0.4565  0.1613
    5TCq1    C1   68   4.006   4.560  12.062  0.8296 -0.8007  0.2914
    5TCq1    O2   69   4.069   4.507  11.971 -0.2204  0.0594 -0.1149
    5TCq1    C2   70   3.893   4.656  12.042  0.2114 -0.3481  0.0761
    5TCq1    C3   71   3.845   4.734  12.142  0.0489  0.5316  0.2457
    5TCq1    C4   72   3.733   0.067  12.121  0.1719  0.7373  0.8769
    5TCq1    C5   73   3.678   0.070  11.993 -0.6876 -0.0402 -0.3999
    5TCq1    C6   74   3.734   0.001  11.891  0.5655 -0.1013  0.2312
    5TCq1    C7   75   3.841   4.657  11.920 -0.8279 -0.3948  0.0340
    5TCq1    C8   76   3.654   4.716  11.767 -0.3657 -0.1485 -0.2052
    5TCq1    O4   77   3.693   4.621  11.700 -0.2829 -0.2428  0.7738
    5TCq1    C9   78   3.674   0.138  12.234  0.5137 -0.6937  0.3794
    5TCq1    O5   79   3.600   0.232  12.187 -0.2476 -0.1654  0.3482
    5TCq1    O6   80   3.708   0.118  12.354 -0.1073 -0.6889  0.5268
    5TCq1    H1   81   3.924   4.555  12.229 -1.9886 -0.5110 -2.7770
    5TCq1    H2   82   3.890   0.002  12.240 -1.5723  0.2276  1.0153
    5TCq1    H3   83   3.588   0.129  11.977 -0.6065 -0.0043 -0.7407
    5TCq1    H4   84   3.882   4.596  11.840 -0.3394 -0.3718  0.2624
    6MPD2     C   85   3.318   0.097  11.703  0.1167  0.0839 -0.0841
    6MPD2    C1   86   3.423   0.008  11.692 -0.7180  0.3619 -0.4043
    6MPD2    C2   87   3.410   4.637  11.604  0.4131  0.6512  0.9682
    6MPD2    C3   88   3.286   4.604  11.543 -0.4900 -0.0701  0.0988
    6MPD2    C4   89   3.183   4.690  11.563  0.4556 -0.1493  0.0863
    6MPD2    C5   90   3.198   0.063  11.647 -0.4714 -0.0401 -0.2903
    6MPD2     H   91   3.493   4.566  11.598 -0.3065 -0.2735  1.9189
    6MPD2    H1   92   3.091   4.676  11.508 -1.3143 -0.6295  3.2149
    6MPD2    H2   93   3.323   0.194  11.750  2.0229  1.0989 -2.3614
    6MPD2    H3   94   3.110   0.126  11.662  1.1705  2.3700 -0.8650
    6MPD2     N   95   3.281   4.493  11.460  0.3994  0.0589 -0.5006
    6MPD2    H5   96   3.366   4.446  11.431  1.4058 -0.2056  2.8421
    6MPD2    N1   97   3.539   0.041  11.764  0.3327  0.5767  0.3762
    6MPD2    H7   98   3.532   0.124  11.822 -1.5637  1.0750 -0.5675
    7TCq1    O1   99   1.059   4.176  13.460 -0.2744 -0.3466 -0.2455
    7TCq1    C1  100   1.031   4.192  13.327 -0.0397 -0.7509  0.2199
    7TCq1    O2  101   1.032   4.299  13.271 -0.0628  0.2859  0.2508
    7TCq1    C2  102   0.939   4.086  13.298 -0.9522 -0.5223 -0.1414
    7TCq1    C3  103   0.820   4.120  13.238  0.6197 -0.9209  0.3335
    7TCq1    C4  104   0.747   4.011  13.189 -0.5250 -0.1260 -0.1639
    7TCq1    C5  105   0.793   3.884  13.189 -0.5588 -0.2295 -0.6475
    7TCq1    C6  106   0.909   3.857  13.268 -0.6653 -0.1275  0.0520
    7TCq1    C7  107   0.980   3.957  13.317 -0.0341 -0.2222  0.2059
    7TCq1    C8  108   0.956   3.717  13.278 -0.3379 -0.0735  0.6110
    7TCq1    O4  109   1.049   3.683  13.349 -0.5323  0.1900  0.1168
    7TCq1    C9  110   0.629   4.034  13.119  0.3646  0.9021 -0.2139
    7TCq1    O5  111   0.564   3.933  13.082 -0.4630 -1.0674  0.2827
    7TCq1    O6  112   0.580   4.149  13.125 -0.4290  0.5651  0.1555
    7TCq1    H1  113   1.030   4.095  13.506 -1.0950  0.8843  1.3995
    7TCq1    H2  114   0.795   4.222  13.211 -0.3197 -0.3646  3.2676
    7TCq1    H3  115   0.720   3.811  13.159 -1.8344  0.3935  0.9499
    7TCq1    H4  116   1.081   3.937  13.353 -0.1364  1.5995  1.5065
    8MPD2     C  117   0.905   3.252  13.065 -0.2930 -0.5566  0.1293
    8MPD2    C1  118   0.973   3.289  13.184 -0.0648  0.2869  0.2206
    8MPD2    C2  119   0.979   3.424  13.209  0.2097 -0.4726 -0.4313
    8MPD2    C3  120   0.910   3.514  13.126  0.0128 -0.4873 -0.3885
    8MPD2    C4  121   0.835   3.469  13.021 -0.2115  0.2817 -0.0110
    8MPD2    C5  122   0.831   3.335  12.986 -0.2477  0.2554 -0.4481
    8MPD2     H  123   1.036   3.462  13.293  2.2438  0.2378 -2.1170
    8MPD2    H1  124   0.775   3.535  12.958 -1.7018 -1.4009 -0.3423
    8MPD2    H2  125   0.907   3.152  13.023  2.1326  0.2232 -1.6465
    8MPD2    H3  126   0.759   3.302  12.913 -1.5784 -0.8197  1.3410
    8MPD2     N  127   0.895   3.644  13.170 -0.4172  0.6114  0.3322
    8MPD2    H5  128   0.860   3.713  13.104  1.7744 -0.5779 -2.0932
    8MPD2    N1  129   1.043   3.192  13.264  0.5519 -0.3101  0.0081
    8MPD2    H7  130   1.048   3.101  13.220 -1.1945 -0.4749  0.1269
    9TMC1    C1  131   3.204   2.616  11.298  0.5967  0.7021  1.1662
    9TMC1    C2  132   3.126   2.507  11.334  0.7183 -0.1538  0.4303
    9TMC1    C3  133   3.143   2.384  11.274  0.3995  1.2055 -0.3027
    9TMC1    C4  134   3.302   2.597  11.201 -0.1430 -0.2052 -0.5268
    9TMC1    C5  135   3.329   2.468  11.154  0.5793 -0.2752  0.5097
    9TMC1    C6  136   3.255   2.355  11.193  0.1135 -0.5227 -0.5484
    9TMC1     C  137   3.199   2.741  11.376 -0.1382 -0.2196 -0.1434
    9TMC1     O  138   3.270   2.826  11.330 -0.0332 -0.0748  0.4132
    9TMC1     H  139   3.036   2.514  11.394  0.2590 -0.8922 -0.1712
    9TMC1    H1  140   3.369   2.674  11.164 -0.2680 -0.7373 -1.8384
    9TMC1    H2  141   3.293   2.262  11.153 -2.2122 -1.0813 -1.4695
    9TMC1    C7  142   3.452   2.450  11.077  0.1016  0.1041  0.4059
    9TMC1    C8  143   3.086   2.271  11.347 -0.2123 -0.6704  0.0121
    9TMC1    O1  144   3.526   2.351  11.075  0.1458  0.1144 -0.1846
    9TMC1    O2  145   3.033   2.284  11.458 -0.5635 -0.8719  0.0170
    9TMC1    O3  146   3.438   2.545  10.983 -0.3518 -0.3057  0.4292
    9TMC1    H3  147   3.353   2.594  10.985 -0.5389 -0.6589  1.3454
    9TMC1    O5  148   3.077   2.159  11.261  0.0529 -0.0984  0.3924
    9TMC1    H5  149   3.119   2.153  11.173 -2.0763  0.7877 -0.6610
   10MPD2     C  150   3.176   2.982  11.551  0.1285 -0.1384  0.3244
   10MPD2    C1  151   3.125   2.854  11.583 -0.5322  0.0897  0.4553
   10MPD2    C2  152   3.057   2.836  11.703 -0.1660  0.4801  0.5006
   10MPD2    C3  153   3.051   2.939  11.795  0.5966  0.4116 -0.3430
   10MPD2    C4  154   3.112   3.066  11.765  0.1147  0.9799  0.5402
   10MPD2    C5  155   3.171   3.079  11.645 -0.5587 -0.2689  0.0341
   10MPD2     H  156   3.025   2.736  11.730 -0.3655  1.1492  2.6873
   10MPD2    H1  157   3.098   3.146  11.838 -0.9956 -0.6323  2.0922
   10MPD2    H2  158   3.229   2.996  11.458 -0.3717  2.3570  0.4282
   10MPD2    H3  159   3.209   3.177  11.618 -0.2779 -0.1384  0.9316
   10MPD2     N  160   3.000   2.922  11.925 -0.8132  0.6423 -0.7484
   10MPD2    H5  161   3.022   2.993  11.994 -0.1185 -1.0153  0.7698
   10MPD2    N1  162   3.138   2.737  11.502 -0.1967 -0.2358 -0.2854
   10MPD2    H7  163   3.097   2.653  11.541  1.3324  0.4122  2.7367
   11TCq1    O1  164   3.781   3.011  14.522  0.3559 -0.1636  0.2275
   11TCq1    C1  165   3.810   2.878  14.552 -0.3234  0.1036  0.8655
   11TCq1    O2  166   3.875   2.805  14.477  0.2455  0.3510  0.9618
   11TCq1    C2  167   3.678   2.844  14.598  0.4196  0.2252  0.0638
   11TCq1    C3  168   3.648   2.914  14.707  0.2411 -0.2566 -0.9116
   11TCq1    C4  169   3.513   2.930  14.739  0.0171  0.2455 -0.5602
   11TCq1    C5  170   3.417   2.863  14.668  0.0322  0.1027 -0.6140
   11TCq1    C6  171   3.452   2.784  14.562  0.1690 -0.4761  0.0375
   11TCq1    C7  172   3.582   2.775  14.516  0.1853 -0.2633 -0.0218
   11TCq1    C8  173   3.347   2.752  14.472  0.3705  0.2084 -0.1797
   11TCq1    O4  174   3.265   2.844  14.450  0.4130  0.1355  0.2771
   11TCq1    C9  175   3.479   3.026  14.843 -0.6984 -0.3284  0.1134
   11TCq1    O5  176   3.376   3.086  14.816 -0.4434  0.4084  0.0032
   11TCq1    O6  177   3.578   3.076  14.910 -0.2510 -0.2719 -0.5460
   11TCq1    H1  178   3.699   3.032  14.572  0.6589  0.0162  0.6475
   11TCq1    H2  179   3.724   2.957  14.772 -0.5031  0.9925 -0.8547
   11TCq1    H3  180   3.314   2.874  14.699  0.8841  0.6387  2.0318
   11TCq1    H4  181   3.605   2.700  14.442  0.6233  0.9175 -1.0900
   12MPD2     C  182   3.166   2.612  14.284 -0.4149 -0.3560  0.6919
   12MPD2    C1  183   3.279   2.556  14.340  0.4307 -1.0207  0.2004
   12MPD2    C2  184   3.303   2.416  14.318  0.3506 -0.4394 -0.0255
   12MPD2    C3  185   3.225   2.340  14.227 -0.0840  0.6878  0.5532
   12MPD2    C4  186   3.114   2.407  14.175 -0.7792 -0.2719  0.8536
   12MPD2    C5  187   3.093   2.540  14.197  0.7938 -0.7090 -0.3430
   12MPD2     H  188   3.391   2.364  14.355  0.6192 -0.7125 -1.0432
   12MPD2    H1  189   3.045   2.368  14.101  0.7157  0.5357 -0.9954
   12MPD2    H2  190   3.144   2.718  14.291  0.2677 -0.1079 -0.8649
   12MPD2    H3  191   3.012   2.586  14.142  0.6838  0.6122  0.9515
   12MPD2     N  192   3.245   2.202  14.190  0.0424  0.2322  0.4205
   12MPD2    H5  193   3.179   2.157  14.127  0.0479  1.7531 -0.6641
   12MPD2    N1  194   3.366   2.623  14.431  0.4696  0.4425  0.2724
   12MPD2    H7  195   3.443   2.565  14.463 -0.6690 -1.3508 -0.2981
   13TCq1    O1  196   3.077   3.175  10.271 -0.0681  0.3082  0.0781
   13TCq1    C1  197   2.963   3.131  10.332 -0.0135 -0.1896  0.2293
   13TCq1    O2  198   2.871   3.191  10.387 -0.1177 -0.3214 -0.8134
   13TCq1    C2  199   2.975   2.993  10.359 -0.1160  0.2335 -0.4849
   13TCq1    C3  200   3.015   2.912  10.256  0.6250  0.9262  0.3128
   13TCq1    C4  201   3.018   2.780  10.288  0.3151 -0.0722  0.2805
   13TCq1    C5  202   2.959   2.727  10.398 -0.7409 -1.4700 -0.1527
   13TCq1    C6  203   2.908   2.809  10.495 -0.8040 -0.5177  0.4765
   13TCq1    C7  204   2.926   2.942  10.476  0.3316  0.7118  0.2142
   13TCq1    C8  205   2.824   2.757  10.599  0.6619  0.3241  0.3760
   13TCq1    O4  206   2.802   2.845  10.683 -0.2328 -0.1366  0.0324
   13TCq1    C9  207   3.048   2.686  10.182  0.3189 -0.1907 -0.1830
   13TCq1    O5  208   3.036   2.561  10.218 -0.3257  0.7531  0.0844
   13TCq1    O6  209   3.088   2.729  10.069 -0.4487  0.1467  0.0336
   13TCq1    H1  210   3.141   3.102  10.277 -2.1187 -1.7294 -3.1267
   13TCq1    H2  211   3.047   2.952  10.161 -2.9638  0.9802 -0.8752
   13TCq1    H3  212   2.967   2.621  10.420 -0.2834 -1.8623 -2.1751
   13TCq1    H4  213   2.885   3.014  10.545 -0.6541  0.5102 -0.1641
   14MPD2     C  214   2.650   2.447  10.618 -0.8702 -0.0083 -0.6134
   14MPD2    C1  215   2.689   2.565  10.667 -0.5052  0.4006 -0.4319
   14MPD2    C2  216   2.642   2.616  10.789 -0.1403 -0.1348  0.0148
   14MPD2    C3  217   2.541   2.544  10.857  0.0366 -0.0786  0.5099
   14MPD2    C4  218   2.486   2.428  10.796  0.0043  0.1378 -0.1492
   14MPD2    C5  219   2.552   2.379  10.681 -0.6453  0.4324  0.2124
   14MPD2     H  220   2.672   2.711  10.831 -1.7759  0.0838  0.6758
   14MPD2    H1  221   2.397   2.375  10.830  0.7095 -0.4207  0.8336
   14MPD2    H2  222   2.693   2.398  10.531  1.4321 -0.3644  0.7481
   14MPD2    H3  223   2.529   2.278  10.649  0.2711  0.2364  0.1646
   14MPD2     N  224   2.493   2.602  10.978 -0.2393 -0.1672  0.4357
   14MPD2    H5  225   2.523   2.696  11.001 -4.4692  1.3243 -0.2752
   14MPD2    N1  226   2.777   2.634  10.581  0.2745 -0.0627 -0.2164
   14MPD2    H7  227   2.812   2.582  10.501 -0.7492 -1.8770  0.5096
   15TCq1    O1  228   0.513   3.146   1.196 -0.5340  0.8562 -0.0519
   15TCq1    C1  229   0.389   3.161   1.139 -0.1564 -0.5997  0.2474
   15TCq1    O2  230   0.336   3.268   1.125  0.0190  0.2854 -0.2642
   15TCq1    C2  231   0.318   3.035   1.127 -0.0974  0.1248 -0.5696
   15TCq1    C3  232   0.180   3.038   1.111  0.3603  0.3356  0.3249
   15TCq1    C4  233   0.113   2.921   1.085 -0.8457 -0.2955  0.0673
   15TCq1    C5  234   0.182   2.806   1.068  0.2795 -0.4855 -0.2681
   15TCq1    C6  235   0.319   2.811   1.078 -0.1515  0.5316  0.5862
   15TCq1    C7  236   0.397   2.920   1.110 -0.0793 -0.3384 -0.2503
   15TCq1    C8  237   0.389   2.681   1.072  0.6589 -0.0698  0.1634
   15TCq1    O4  238   0.513   2.681   1.076 -0.2469  0.2436  0.9628
   15TCq1    C9  239   4.713   2.921   1.039  1.3113 -0.2255 -0.8493
   15TCq1    O5  240   4.665   2.819   0.988  0.2667 -0.3838 -0.2322
   15TCq1    O6  241   4.659   3.033   1.034 -1.0452  0.0928 -0.6752
   15TCq1    H1  242   0.552   3.056   1.204 -0.2044  0.9638 -0.4703
   15TCq1    H2  243   0.127   3.131   1.095  0.7738  0.2580 -1.4345
   15TCq1    H3  244   0.134   2.718   1.027 -2.9171  1.4156 -0.5519
   15TCq1    H4  245   0.504   2.925   1.095  0.1309 -2.0340  0.6934
   16MPD2     C  246   0.236   2.345   1.066  0.3425 -0.0246 -0.9335
   16MPD2    C1  247   0.337   2.436   1.069  0.0601 -0.4790  0.6618
   16MPD2    C2  248   0.466   2.387   1.075 -0.0843  0.1875 -0.3492
   16MPD2    C3  249   0.502   2.254   1.067 -0.2503  0.0687  0.4868
   16MPD2    C4  250   0.397   2.167   1.073 -0.0327 -0.6554  0.0510
   16MPD2    C5  251   0.262   2.212   1.078  0.4205  0.5415 -0.4441
   16MPD2     H  252   0.551   2.454   1.080  1.4401 -1.6156 -1.9230
   16MPD2    H1  253   0.408   2.059   1.070 -2.5580 -0.9508  0.8733
   16MPD2    H2  254   0.137   2.386   1.056  0.2014  0.3390  1.8428
   16MPD2    H3  255   0.182   2.138   1.080 -1.0851  2.1840  0.1297
   16MPD2     N  256   0.640   2.214   1.053  0.3403  0.4522 -0.1397
   16MPD2    H5  257   0.705   2.291   1.048  2.3672 -1.1264  2.0284
   16MPD2    N1  258   0.301   2.573   1.075 -0.0025 -0.0248  0.3572
   16MPD2    H7  259   0.203   2.598   1.089 -0.1434  0.8349 -2.1174
   17TMC1    C1  260   2.849   3.038  11.284  0.8052  0.4715  0.2831
   17TMC1    C2  261   2.980   3.054  11.249  0.4762  0.0478 -0.1398
   17TMC1    C3  262   3.026   3.184  11.246 -0.2608 -0.7665 -0.4364
   17TMC1    C4  263   2.765   3.138  11.303  0.5274 -0.6174  0.4862
   17TMC1    C5  264   2.811   3.263  11.291  0.3012  0.0518  0.0262
   17TMC1    C6  265   2.941   3.287  11.258 -0.3041  1.2369  0.0716
   17TMC1     C  266   2.793   2.904  11.296  0.2362  0.5573  0.0629
   17TMC1     O  267   2.704   2.882  11.374 -0.0799 -0.1083  0.3442
   17TMC1     H  268   3.058   2.979  11.258  0.3402 -0.1892 -0.9509
   17TMC1    H1  269   2.660   3.122  11.327  0.8645 -0.2129  2.2286
   17TMC1    H2  270   2.979   3.389  11.262  0.8006  0.7529  1.9229
   17TMC1    C7  271   2.741   3.353  11.378 -0.0767 -0.0626 -0.0557
   17TMC1    C8  272   3.164   3.213  11.263 -0.8614 -0.2403 -0.0084
   17TMC1    O1  273   2.728   3.474  11.366  0.1984  0.2276  0.2019
   17TMC1    O2  274   3.208   3.315  11.315  0.3880 -0.2075  0.0652
   17TMC1    O3  275   2.724   3.296  11.497 -0.5534 -0.5087  0.3786
   17TMC1    H3  276   2.765   3.207  11.491 -1.5296 -0.9179 -0.2383
   17TMC1    O5  277   3.231   3.103  11.230 -0.3802  0.6838  0.0742
   17TMC1    H5  278   3.188   3.045  11.164 -0.4295 -0.3744  1.0399
   18MPD2     C  279   2.755   2.602  11.295  0.0112 -0.0127 -0.6588
   18MPD2    C1  280   2.826   2.670  11.200 -0.8509  1.0695  0.2705
   18MPD2    C2  281   2.871   2.604  11.087  0.2634  0.3140 -0.3508
   18MPD2    C3  282   2.833   2.469  11.058 -0.0772 -0.0036 -0.2613
   18MPD2    C4  283   2.749   2.408  11.151  0.1207 -0.9825 -0.3593
   18MPD2    C5  284   2.717   2.474  11.270  0.1681  0.6312 -0.1310
   18MPD2     H  285   2.948   2.655  11.029 -0.7083  0.4468 -1.5246
   18MPD2    H1  286   2.711   2.311  11.124  0.4425 -0.5548 -2.3652
   18MPD2    H2  287   2.706   2.652  11.377  2.1062 -0.1129  0.6588
   18MPD2    H3  288   2.642   2.433  11.336 -0.4805  3.2835  0.7414
   18MPD2     N  289   2.883   2.392  10.950  0.6732  0.3060  0.1469
   18MPD2    H5  290   2.853   2.296  10.938  1.5221  0.1148 -0.4418
   18MPD2    N1  291   2.866   2.810  11.219 -0.5661  0.2702  0.0850
   18MPD2    H7  292   2.922   2.851  11.145 -0.9200 -0.0507 -0.3523
   19TMC2    C1  293   0.229   2.350  13.885  0.1937 -0.0497 -0.4944
   19TMC2    C2  294   0.179   2.460  13.824  0.6524 -0.3990 -0.8266
   19TMC2    C3  295   0.045   2.478  13.836  0.3579 -0.2284  0.0656
   19TMC2    C4  296   0.160   2.263  13.969 -0.1351  0.5973  0.6600
   19TMC2    C5  297   0.022   2.291  13.978  0.4384 -0.3081  0.3184
   19TMC2    C6  298   4.707   2.388  13.895  0.6396  0.2218  0.2290
   19TMC2     C  299   0.377   2.347  13.866  0.6376 -0.3620  0.2017
   19TMC2     O  300   0.417   2.411  13.770 -0.1808  0.5922  0.2067
   19TMC2     H  301   0.226   2.524  13.750 -0.4428 -0.3337 -1.4648
   19TMC2    H1  302   0.199   2.172  14.013 -1.4829 -0.7215 -0.8755
   19TMC2    H2  303   4.600   2.401  13.887  0.8321  1.0592 -1.0941
   19TMC2    C7  304   4.671   2.173  14.002  0.2787 -0.7919 -1.1097
   19TMC2    C8  305   4.712   2.558  13.738 -0.1226  0.4851 -0.2277
   19TMC2    O1  306   4.729   2.068  13.998 -0.0336 -0.1109  0.5290
   19TMC2    O2  307   4.601   2.597  13.764  0.6245  0.5268 -0.0611
   19TMC2    O5  308   0.026   2.517  13.614  0.1526 -0.4527  0.7276
   19TMC2    H5  309   0.104   2.458  13.623 -0.1169 -0.9753 -0.3301
   20MPD2     C  310   0.664   2.362  13.913 -0.5477  0.6452 -0.4424
   20MPD2    C1  311   0.586   2.269  13.975  0.2611  0.7576  0.2517
   20MPD2    C2  312   0.644   2.180  14.065  0.5517 -0.5836  0.0254
   20MPD2    C3  313   0.776   2.182  14.096 -0.5767  0.8238 -0.4499
   20MPD2    C4  314   0.853   2.277  14.028  0.0502  0.2884  0.5457
   20MPD2    C5  315   0.798   2.364  13.939  0.1897 -0.0637 -0.2469
   20MPD2     H  316   0.583   2.105  14.114  1.4233 -1.3447 -0.0426
   20MPD2    H1  317   0.960   2.289  14.034  0.2876 -0.3070 -2.3113
   20MPD2    H2  318   0.622   2.442  13.854  0.0632  2.6127  1.7798
   20MPD2    H3  319   0.851   2.449  13.897 -0.2688  1.1951  1.7013
   20MPD2     N  320   0.822   2.088  14.190 -0.1263  0.5456  0.2293
   20MPD2    H5  321   0.760   2.028  14.243 -0.1850 -2.6514 -3.4141
   20MPD2    N1  322   0.446   2.273  13.965  0.3999 -0.1789 -0.4653
   20MPD2    H7  323   0.385   2.227  14.032  0.5773 -2.8307 -2.1345
   21TMC2    C1  324   2.226   2.374  13.993  0.6074  0.7815  0.4025
   21TMC2    C2  325   2.325   2.288  13.994 -0.2548  0.1361  0.6090
   21TMC2    C3  326   2.351   2.213  14.104 -0.0388  0.2229  0.0890
   21TMC2    C4  327   2.149   2.404  14.101  0.1755 -0.2807 -0.4668
   21TMC2    C5  328   2.169   2.320  14.211  0.0713 -0.7098 -0.5032
   21TMC2    C6  329   2.269   2.225  14.219 -0.4280 -0.1281 -0.2804
   21TMC2     C  330   2.224   2.461  13.874  0.0662  0.2066 -0.3358
   21TMC2     O  331   2.220   2.404  13.766 -0.4286  0.4991  0.1706
   21TMC2     H  332   2.395   2.292  13.912  1.7364 -1.0842  2.2714
   21TMC2    H1  333   2.072   2.480  14.100  1.9388  1.5151  0.1768
   21TMC2    H2  334   2.274   2.160  14.306 -0.8864 -0.6545 -0.6439
   21TMC2    C7  335   2.158   2.392  14.338  0.0060  0.1369 -0.7182
   21TMC2    C8  336   2.424   2.089  14.085 -0.1628  0.3564 -0.2582
   21TMC2    O1  337   2.237   2.363  14.424  0.1614 -0.5834  0.2521
   21TMC2    O2  338   2.452   2.051  13.970 -0.0721  0.4571 -0.3213
   21TMC2    O5  339   2.433   2.017  14.192  0.1800 -0.3945  0.0112
   21TMC2    H5  340   2.434   2.064  14.279 -1.0172  1.9418 -1.2388
   22MPD2     C  341   2.322   2.844  14.207  0.1399  0.1345  0.1273
   22MPD2    C1  342   2.372   2.716  14.210  0.0949 -0.4750  0.0523
   22MPD2    C2  343   2.353   2.633  14.100 -0.8112 -0.0588  0.3919
   22MPD2    C3  344   2.264   2.678  14.000 -1.4359  0.2431  0.8848
   22MPD2    C4  345   2.232   2.811  13.991  0.7536 -0.0150 -0.2812
   22MPD2    C5  346   2.254   2.890  14.101  0.1919  0.3731 -0.0132
   22MPD2     H  347   2.386   2.530  14.107 -1.5610 -0.2497  1.1284
   22MPD2    H1  348   2.167   2.854  13.916  1.9607 -0.1400 -1.4116
   22MPD2    H2  349   2.363   2.921  14.272  2.2567 -0.9751  0.1057
   22MPD2    H3  350   2.237   2.996  14.088  0.8178  0.5358  0.5398
   22MPD2     N  351   2.220   2.598  13.892 -0.2101  0.2352  0.4985
   22MPD2    H5  352   2.174   2.654  13.820 -2.1034 -0.2610  1.3320
   22MPD2    N1  353   2.428   2.656  14.329 -0.4478  0.4911 -0.4713
   22MPD2    H7  354   2.449   2.557  14.324 -0.0928  0.4371  2.0170
   23TMC2    C1  355   3.829   3.436  14.259  0.2104 -0.3326  0.4489
   23TMC2    C2  356   3.837   3.526  14.153  0.7246  0.2716 -0.1935
   23TMC2    C3  357   3.717   3.552  14.092  0.8135  0.1333 -0.1995
   23TMC2    C4  358   3.714   3.374  14.295  0.2196 -0.5909  1.0124
   23TMC2    C5  359   3.601   3.416  14.234 -0.4447  0.5295  0.0221
   23TMC2    C6  360   3.595   3.501  14.126 -0.0437 -0.3812  0.2221
   23TMC2     C  361   3.928   3.438  14.359 -0.0963 -0.3439 -0.5816
   23TMC2     O  362   3.897   3.397  14.468  0.3617  0.3601  0.5437
   23TMC2     H  363   3.924   3.574  14.110 -1.4323  2.5426 -2.0333
   23TMC2    H1  364   3.717   3.300  14.373 -0.5724 -0.3087  1.3126
   23TMC2    H2  365   3.508   3.525  14.067  0.7439 -0.4643 -0.9727
   23TMC2    C7  366   3.489   3.333  14.249 -0.3997  0.3201  0.1017
   23TMC2    C8  367   3.711   3.680  14.024 -0.5551  0.4466  0.2280
   23TMC2    O1  368   3.505   3.231  14.316 -0.1022 -0.5919  0.4532
   23TMC2    O2  369   3.819   3.724  13.982 -0.4897  0.1672  0.7062
   23TMC2    O5  370   3.588   3.732  14.041  0.2262  0.0614  0.5469
   23TMC2    H5  371   3.515   3.690  14.091  0.8523 -1.0839  0.5268
   24MPD2     C  372   4.387   3.582  14.547  0.2894 -0.1549 -0.8097
   24MPD2    C1  373   4.269   3.548  14.618  0.5742  0.2378  0.5596
   24MPD2    C2  374   4.161   3.504  14.541 -0.5518 -0.1458  0.6416
   24MPD2    C3  375   4.164   3.503  14.400  0.2919  0.8716 -0.0459
   24MPD2    C4  376   4.281   3.533  14.337  0.4016  0.3375 -0.1957
   24MPD2    C5  377   4.389   3.569  14.409 -0.2312  0.0495  0.4176
   24MPD2     H  378   4.063   3.494  14.586 -0.0774 -1.6070  1.3467
   24MPD2    H1  379   4.287   3.540  14.229 -0.3033  1.0631 -0.1898
   24MPD2    H2  380   4.485   3.605  14.587  0.3637 -1.7143 -0.0870
   24MPD2    H3  381   4.484   3.581  14.359 -0.9733 -0.3580 -1.0972
   24MPD2     N  382   4.048   3.487  14.322  1.0133  0.5102  0.1252
   24MPD2    H5  383   4.055   3.506  14.222  1.0608  0.9305  0.2093
   24MPD2    N1  384   4.265   3.553  14.759 -0.1196 -0.2634 -0.5984
   24MPD2    H7  385   4.178   3.570  14.808  0.9984 -0.9564  1.6014
   25TMC2    C1  386   2.415   1.682  11.192 -0.2350 -0.2957  0.2976
   25TMC2    C2  387   2.539   1.641  11.144 -1.0230 -0.2217 -0.1336
   25TMC2    C3  388   2.645   1.659  11.220 -0.2624 -0.3212  0.0197
   25TMC2    C4  389   2.401   1.751  11.313  0.6395  1.9130 -0.5615
   25TMC2    C5  390   2.512   1.783  11.388  0.1489  0.8139 -0.1863
   25TMC2    C6  391   2.630   1.726  11.336 -0.5783  1.3141  0.0122
   25TMC2     C  392   2.302   1.668  11.106  0.0974 -0.3946 -0.5128
   25TMC2     O  393   2.258   1.775  11.065 -0.2772 -0.1662 -0.0766
   25TMC2     H  394   2.552   1.582  11.053 -1.1771  0.1083 -0.3697
   25TMC2    H1  395   2.303   1.778  11.351 -1.0722 -0.6255 -3.1348
   25TMC2    H2  396   2.721   1.743  11.393  0.1771  0.0046 -0.7965
   25TMC2    C7  397   2.505   1.771  11.530  0.2412 -0.7570 -0.2693
   25TMC2    C8  398   2.745   1.558  11.222  0.5611 -0.3153 -0.1801
   25TMC2    O1  399   2.593   1.704  11.586  0.7386 -0.2492  0.2071
   25TMC2    O2  400   2.772   1.499  11.325  0.3949 -0.9707  0.4955
   25TMC2    O5  401   2.813   1.557  11.104 -0.0543 -0.3522  0.7450
   25TMC2    H5  402   2.775   1.622  11.041  1.0305  0.3089  0.7742
   26MPD2     C  403   2.164   1.415  10.685 -0.4635 -0.7173 -0.3843
   26MPD2    C1  404   2.234   1.328  10.768  0.0357 -0.2515 -0.2407
   26MPD2    C2  405   2.285   1.377  10.884 -0.2224  0.0615 -0.1387
   26MPD2    C3  406   2.253   1.506  10.919 -0.1788 -0.6978  0.5015
   26MPD2    C4  407   2.175   1.590  10.839 -0.9967 -0.4000 -0.7504
   26MPD2    C5  408   2.142   1.544  10.718  0.1573 -0.6053  0.2736
   26MPD2     H  409   2.350   1.324  10.954  0.4359  2.5798  1.1635
   26MPD2    H1  410   2.162   1.692  10.875 -1.5276 -0.0014 -2.0878
   26MPD2    H2  411   2.122   1.382  10.590  0.0774 -0.8928 -0.5685
   26MPD2    H3  412   2.090   1.598  10.641  1.9511 -1.2654 -1.3881
   26MPD2     N  413   2.304   1.546  11.047  0.0293 -0.3275 -0.0860
   26MPD2    H5  414   2.348   1.474  11.104  1.2813  0.4405 -0.0832
   26MPD2    N1  415   2.249   1.191  10.722 -0.5951 -0.2778 -0.0457
   26MPD2    H7  416   2.210   1.160  10.634  0.1638 -2.5054  0.3996
   27TMC2    C1  417   1.274   3.103  11.647  0.5972  0.1267  0.3335
   27TMC2    C2  418   1.383   3.042  11.588 -0.6570  0.6179  0.2018
   27TMC2    C3  419   1.507   3.101  11.597  0.2156 -0.4285 -0.3369
   27TMC2    C4  420   1.280   3.237  11.685 -0.1086  0.1152 -0.2165
   27TMC2    C5  421   1.401   3.303  11.686 -0.4422 -0.4213 -0.0420
   27TMC2    C6  422   1.511   3.233  11.644 -0.2813 -0.1166 -0.6191
   27TMC2     C  423   1.138   3.046  11.641  0.3479 -1.1177  0.3779
   27TMC2     O  424   1.112   2.979  11.541 -0.4542 -0.2460 -0.3154
   27TMC2     H  425   1.389   2.936  11.571 -2.3227  0.5733 -0.0627
   27TMC2    H1  426   1.189   3.295  11.695 -0.0414  0.2805 -0.5307
   27TMC2    H2  427   1.610   3.275  11.658 -0.6093  0.6668 -0.6290
   27TMC2    C7  428   1.404   3.405  11.791 -0.4286  0.4522  0.4843
   27TMC2    C8  429   1.624   3.037  11.530  0.1574 -0.2914 -1.2904
   27TMC2    O1  430   1.326   3.391  11.882  0.3755  0.5056 -0.2319
   27TMC2    O2  431   1.657   2.922  11.542 -0.3282  0.2452  0.0524
   27TMC2    O5  432   1.688   3.134  11.463 -0.1830  0.4314  0.2776
   27TMC2    H5  433   1.635   3.212  11.438  3.1376  2.5713 -0.1286
   28MPD2     C  434   0.659   2.968  11.837 -0.3052  0.7883 -0.4080
   28MPD2    C1  435   0.737   3.046  11.924  0.0843 -0.4027 -0.6836
   28MPD2    C2  436   0.866   3.080  11.892 -0.4907 -0.1912  0.0702
   28MPD2    C3  437   0.926   3.035  11.777 -0.0905 -0.6433 -0.5206
   28MPD2    C4  438   0.846   2.962  11.694 -0.2749  0.3648  0.6739
   28MPD2    C5  439   0.719   2.922  11.719  0.5358 -0.1030  0.2285
   28MPD2     H  440   0.929   3.139  11.958  1.0637 -0.1141 -1.4880
   28MPD2    H1  441   0.889   2.944  11.597 -1.0781  2.5355 -0.0871
   28MPD2    H2  442   0.558   2.937  11.858  0.7496 -1.1017  1.8961
   28MPD2    H3  443   0.665   2.874  11.638 -0.8741  0.7950  0.6194
   28MPD2     N  444   1.056   3.078  11.750  0.1956 -0.4559 -0.7428
   28MPD2    H5  445   1.098   3.132  11.825  0.2683 -1.1628 -0.2718
   28MPD2    N1  446   0.686   3.086  12.049 -0.4260  0.5408  0.8030
   28MPD2    H7  447   0.601   3.045  12.085 -1.1977  1.2434 -0.2057
   29TMC2    C1  448   1.117   1.088  14.409 -0.0286  0.4134  0.7049
   29TMC2    C2  449   1.103   1.117  14.540  0.2085 -0.3844  0.2880
   29TMC2    C3  450   1.048   1.238  14.571  0.8189  0.0610 -0.5739
   29TMC2    C4  451   1.064   1.167  14.314 -0.6717  0.3246  0.2301
   29TMC2    C5  452   1.001   1.280  14.357  0.4825  0.7854 -0.0743
   29TMC2    C6  453   1.004   1.325  14.479 -0.3860 -0.2671  0.0649
   29TMC2     C  454   1.163   0.953  14.391  0.5532 -0.8641  0.3067
   29TMC2     O  455   1.208   0.894  14.491 -0.5544 -0.2213  0.5395
   29TMC2     H  456   1.135   1.052  14.621  2.7521 -0.3013 -0.6309
   29TMC2    H1  457   1.072   1.145  14.208  1.0311  0.2997  0.3649
   29TMC2    H2  458   0.949   1.415  14.506  1.3969  1.1383 -0.9630
   29TMC2    C7  459   0.973   1.376  14.251 -0.0704 -0.9349  0.3314
   29TMC2    C8  460   1.016   1.277  14.709 -0.4048 -0.0560  0.2536
   29TMC2    O1  461   0.909   1.337  14.152  0.1909 -0.6795 -0.1062
   29TMC2    O2  462   0.903   1.320  14.738  0.0206 -0.4958 -0.2957
   29TMC2    O5  463   1.133   1.328  14.762 -0.1645  0.3550 -0.0387
   29TMC2    H5  464   1.205   1.274  14.723 -1.4479 -0.2239 -1.6339
   30MPD2     C  465   1.099   0.501  14.152  0.0027 -0.0610 -0.5595
   30MPD2    C1  466   1.142   0.529  14.279  0.0172 -0.3908 -0.6283
   30MPD2    C2  467   1.161   0.661  14.319  0.1393  0.1708  0.1692
   30MPD2    C3  468   1.141   0.768  14.229 -0.4195 -0.0867 -0.4951
   30MPD2    C4  469   1.106   0.735  14.098 -0.0242  0.1466 -0.0735
   30MPD2    C5  470   1.094   0.607  14.060 -0.2643  0.0580 -0.2626
   30MPD2     H  471   1.191   0.673  14.422 -0.2450 -0.2823  0.3343
   30MPD2    H1  472   1.085   0.815  14.028 -0.9531  1.1766  1.3701
   30MPD2    H2  473   1.073   0.401  14.120 -1.3978  0.7707 -2.0217
   30MPD2    H3  474   1.084   0.579  13.956 -1.4401  1.0964 -0.4232
   30MPD2     N  475   1.133   0.905  14.265 -0.3516 -0.1252 -0.4157
   30MPD2    H5  476   1.102   0.970  14.193  1.0161  0.0792 -0.8118
   30MPD2    N1  477   1.174   0.431  14.372 -0.0235  0.6138  0.8024
   30MPD2    H7  478   1.220   0.457  14.459 -1.1279 -1.7753  2.1072
   31TMC2    C1  479   3.574   4.563  15.371 -0.3371 -0.0412  0.2169
   31TMC2    C2  480   3.440   4.586  15.362 -0.1555  0.1167  0.0342
   31TMC2    C3  481   3.375   4.620  15.476  0.4070  0.2061 -0.2192
   31TMC2    C4  482   3.642   4.571  15.491 -0.6302  0.0994 -0.1629
   31TMC2    C5  483   3.567   4.582  15.606 -0.4412  0.0849  0.3654
   31TMC2    C6  484   3.432   4.615  15.600 -0.5090 -0.1208 -0.7473
   31TMC2     C  485   3.641   4.528  15.243  0.3569  0.2900  0.5373
   31TMC2     O  486   3.574   4.559  15.148 -0.2457  0.1771  0.2461
   31TMC2     H  487   3.388   4.567  15.269  0.9977 -0.4762 -0.4989
   31TMC2    H1  488   3.748   4.551  15.499 -0.3312  1.5429 -0.4790
   31TMC2    H2  489   3.379   4.652  15.687 -0.3878  0.2133 -0.8121
   31TMC2    C7  490   3.635   4.555  15.729  0.2467  0.1210 -0.3719
   31TMC2    C8  491   3.230   4.607  15.471  0.1045 -0.9406  0.5203
   31TMC2    O1  492   3.753   4.535  15.718 -0.3215  0.5073  0.1710
   31TMC2    O2  493   3.171   4.570  15.575 -0.2424  0.1877 -0.0174
   31TMC2    O5  494   3.176   4.663  15.359  0.3322  0.1424  0.4546
   31TMC2    H5  495   3.236   4.708  15.296  2.4380 -2.3198  0.7419
   32MPD2     C  496   4.053   4.455  14.938  0.3601 -0.2869 -0.7076
   32MPD2    C1  497   3.925   4.495  14.903 -0.0955  0.2621 -0.2786
   32MPD2    C2  498   3.823   4.503  15.002 -0.1108 -0.3897  0.2150
   32MPD2    C3  499   3.851   4.456  15.132 -0.0288  0.4130 -0.2456
   32MPD2    C4  500   3.971   4.404  15.156 -0.2251  0.3446 -1.1746
   32MPD2    C5  501   4.074   4.411  15.064 -0.0581  0.2394  0.3796
   32MPD2     H  502   3.733   4.559  14.977  0.3137 -0.6644 -1.9114
   32MPD2    H1  503   4.001   4.376  15.256 -1.1605  2.3615 -0.3389
   32MPD2    H2  504   4.135   4.464  14.868 -0.9144 -1.1387 -2.2885
   32MPD2    H3  505   4.173   4.371  15.082 -0.3386 -0.7084 -0.1819
   32MPD2     N  506   3.761   4.461  15.242 -0.1105 -0.3620 -0.3170
   32MPD2    H5  507   3.793   4.422  15.330  1.6459  2.1827  0.1785
   32MPD2    N1  508   3.909   4.539  14.774 -0.0328 -0.0546  0.4820
   32MPD2    H7  509   3.993   4.525  14.719 -2.4277 -1.5853 -2.7498
   33TMC2    C1  510   3.702   2.822  10.187 -0.6015  0.4055 -0.5986
   33TMC2    C2  511   3.825   2.769  10.146  0.0061  0.1202  0.0623
   33TMC2    C3  512   3.912   2.860  10.089  0.4247  0.3794  0.0259
   33TMC2    C4  513   3.677   2.952  10.185  0.0573  0.3426  0.1812
   33TMC2    C5  514   3.763   3.039  10.129 -0.3939  0.3842 -0.6443
   33TMC2    C6  515   3.886   2.991  10.087  0.3325  0.7814  0.0030
   33TMC2     C  516   3.642   2.752  10.300  0.2711 -0.0640  0.4169
   33TMC2     O  517   3.523   2.742  10.317  0.5722 -0.6097  0.1489
   33TMC2     H  518   3.832   2.661  10.154 -1.9282 -0.1134 -1.4678
   33TMC2    H1  519   3.590   2.999  10.228 -0.4542  0.2857 -0.7897
   33TMC2    H2  520   3.949   3.054  10.026  1.5829 -0.0840  0.4088
   33TMC2    C7  521   3.753   3.181  10.146  0.2047 -0.3866  0.2889
   33TMC2    C8  522   4.048   2.826  10.053  0.1095  0.2520 -0.2817
   33TMC2    O1  523   3.839   3.251  10.096 -0.1820  0.1784 -0.1729
   33TMC2    O2  524   4.125   2.919  10.041  0.9767  0.4020 -0.6966
   33TMC2    O5  525   4.067   2.718  10.140  0.0689  0.2877  0.0290
   33TMC2    H5  526   4.054   2.627  10.104  1.5538 -1.1997  3.3113
   34MPD2     C  527   3.718   2.462  10.727  0.7302  0.0947 -0.0896
   34MPD2    C1  528   3.607   2.474  10.643  0.2400 -0.5181  0.6035
   34MPD2    C2  529   3.613   2.550  10.526  0.1387 -0.4512 -0.9347
   34MPD2    C3  530   3.726   2.624  10.499  0.1607  0.1051  0.1450
   34MPD2    C4  531   3.834   2.617  10.584 -0.1740  0.2459  0.3176
   34MPD2    C5  532   3.831   2.535  10.696 -1.0893 -0.1582 -0.5518
   34MPD2     H  533   3.521   2.573  10.474  0.1002 -0.3272 -0.8151
   34MPD2    H1  534   3.910   2.694  10.577  0.7709 -0.7192  0.1564
   34MPD2    H2  535   3.717   2.393  10.810  1.3202 -1.4998 -1.3932
   34MPD2    H3  536   3.918   2.537  10.760 -0.0525  0.2121 -1.9809
   34MPD2     N  537   3.745   2.710  10.387  0.3281  0.4993 -0.3058
   34MPD2    H5  538   3.840   2.739  10.367  0.0492  1.1288 -0.7465
   34MPD2    N1  539   3.481   2.419  10.677 -0.0973 -0.2182  0.2040
   34MPD2    H7  540   3.474   2.369  10.764 -0.2274 -0.4640  0.0509
   35TMC2    C1  541   4.452   3.666  11.388 -0.9304  0.1685  0.2553
   35TMC2    C2  542   4.371   3.658  11.276  0.5423 -0.4274 -0.2785
   35TMC2    C3  543   4.236   3.653  11.300 -0.1636 -0.0583  0.4890
   35TMC2    C4  544   4.397   3.660  11.515  0.0656 -0.8369 -0.0071
   35TMC2    C5  545   4.260   3.665  11.531  0.1591  0.4411 -0.1890
   35TMC2    C6  546   4.178   3.675  11.425  0.4567  0.5507 -0.7121
   35TMC2     C  547   4.576   3.594  11.369  0.0703  0.8158 -0.5252
   35TMC2     O  548   4.638   3.622  11.268  0.1304 -0.4973  0.3361
   35TMC2     H  549   4.407   3.633  11.177 -0.2290  1.1258 -0.9557
   35TMC2    H1  550   4.457   3.643  11.603  1.0118 -2.4430 -0.9636
   35TMC2    H2  551   4.070   3.680  11.432  0.4586 -0.9798  0.4842
   35TMC2    C7  552   4.223   3.566  11.624 -0.3019  0.2983 -0.3269
   35TMC2    C8  553   4.148   3.671  11.197  0.2596  0.0283  0.3839
   35TMC2    O1  554   4.308   3.484  11.655 -0.1215  0.3411 -0.4741
   35TMC2    O2  555   4.033   3.637  11.197 -0.5763  0.1427 -0.0216
   35TMC2    O5  556   4.211   3.740  11.099  0.2915 -0.4770  0.2820
   35TMC2    H5  557   4.292   3.781  11.136 -0.3420  1.6443 -0.6783
   36MPD2     C  558   0.169   3.235  11.520  0.1686  0.4571 -0.0579
   36MPD2    C1  559   0.052   3.216  11.588 -0.5615 -0.8805  0.7309
   36MPD2    C2  560   4.688   3.304  11.568 -0.1377  0.1878 -0.0287
   36MPD2    C3  561   4.694   3.402  11.471  0.1050 -0.0739 -0.7527
   36MPD2    C4  562   0.077   3.419  11.403  0.4317 -0.4819 -0.3394
   36MPD2    C5  563   0.178   3.331  11.424 -0.2902 -0.3201 -0.4810
   36MPD2     H  564   4.594   3.297  11.623 -0.2020 -0.8763 -0.2793
   36MPD2    H1  565   0.097   3.500  11.334  0.9201  0.6303  1.1150
   36MPD2    H2  566   0.260   3.179  11.543  0.3167  0.6410 -0.1939
   36MPD2    H3  567   0.271   3.336  11.370  0.2804  3.3175  0.8221
   36MPD2     N  568   4.584   3.495  11.462  0.3545 -0.2399  0.4504
   36MPD2    H5  569   4.503   3.480  11.522  1.0584  1.6067  1.8469
   36MPD2    N1  570   0.045   3.121  11.699 -0.1052  0.2519  0.1304
   36MPD2    H7  571   0.133   3.072  11.714 -0.6488 -0.6634  0.3460
   37TMC2    C1  572   2.519   4.028  11.418 -0.6503  0.0427 -0.1453
   37TMC2    C2  573   2.531   4.018  11.281 -0.0602  0.0486 -0.3397
   37TMC2    C3  574   2.645   4.051  11.218 -0.1200  0.1255  0.4644
   37TMC2    C4  575   2.627   4.059  11.497  1.0047  0.8214  0.1906
   37TMC2    C5  576   2.745   4.077  11.430 -0.4512 -0.3233 -0.1742
   37TMC2    C6  577   2.757   4.067  11.291  0.0231  0.6832 -0.2090
   37TMC2     C  578   2.391   4.005  11.484 -0.1645 -0.3880  1.1617
   37TMC2     O  579   2.290   4.004  11.413  0.4918  0.0030 -0.6668
   37TMC2     H  580   2.444   3.996  11.220 -0.8228  1.4391  0.2559
   37TMC2    H1  581   2.625   4.086  11.602  2.1008  0.7698  0.2210
   37TMC2    H2  582   2.847   4.095  11.237  0.1507 -1.1754 -0.9517
   37TMC2    C7  583   2.861   4.113  11.515 -0.1696 -0.1131 -0.0626
   37TMC2    C8  584   2.645   3.991  11.082 -0.8131 -0.1567 -0.2076
   37TMC2    O1  585   2.834   4.156  11.628  0.4849  0.8330  0.8900
   37TMC2    O2  586   2.562   4.023  10.997 -0.4252  0.2186 -0.0467
   37TMC2    O5  587   2.676   3.867  11.116 -0.5972 -0.1184 -0.9179
   37TMC2    H5  588   2.718   3.860  11.204 -3.5732  0.3104  0.5404
   38MPD2     C  589   2.109   3.948  11.922 -0.5863 -0.4224 -0.0729
   38MPD2    C1  590   2.241   3.927  11.958 -0.3436 -0.6873  0.5638
   38MPD2    C2  591   2.336   3.930  11.854  0.0844 -0.2127 -0.3611
   38MPD2    C3  592   2.303   3.961  11.726  0.0253 -0.3478  0.7123
   38MPD2    C4  593   2.167   3.981  11.690 -0.4932 -0.4260  0.3195
   38MPD2    C5  594   2.075   3.972  11.794 -0.6670 -0.0017 -0.4199
   38MPD2     H  595   2.439   3.913  11.884 -0.5919 -0.0281  2.0636
   38MPD2    H1  596   2.126   3.999  11.592 -0.8421 -0.1884  0.5069
   38MPD2    H2  597   2.028   3.968  11.992 -0.4604  1.9960 -0.6054
   38MPD2    H3  598   1.971   3.990  11.771  0.1849  3.6199 -1.3347
   38MPD2     N  599   2.407   3.973  11.623 -0.0888  0.0553 -0.1347
   38MPD2    H5  600   2.501   3.941  11.645  0.9191  2.4374 -0.9697
   38MPD2    N1  601   2.290   3.904  12.089 -0.0119  0.1526 -0.4043
   38MPD2    H7  602   2.390   3.888  12.095  0.3580  2.8053  0.3721
   39TMC2    C1  603   1.460   2.168   1.600  0.1250  0.0313  0.5563
   39TMC2    C2  604   1.573   2.101   1.592  0.0531  0.5901 -0.3114
   39TMC2    C3  605   1.694   2.166   1.616 -0.4182 -0.0584  0.4918
   39TMC2    C4  606   1.469   2.295   1.652 -0.8117  0.0301  0.1248
   39TMC2    C5  607   1.585   2.356   1.682  0.4188 -0.3246  0.6702
   39TMC2    C6  608   1.701   2.293   1.666 -0.3265  0.0944  0.0962
   39TMC2     C  609   1.337   2.098   1.561  0.2041 -0.1001  0.4904
   39TMC2     O  610   1.339   1.986   1.511  0.3598 -0.3180 -0.4586
   39TMC2     H  611   1.576   2.004   1.544 -0.7881 -0.1183  1.0617
   39TMC2    H1  612   1.374   2.346   1.658 -1.7569 -1.5825 -1.0478
   39TMC2    H2  613   1.797   2.333   1.696 -0.2718 -1.2094  1.6221
   39TMC2    C7  614   1.575   2.504   1.691 -0.5049  0.6012 -0.2818
   39TMC2    C8  615   1.820   2.089   1.617  0.2488 -0.0685  0.0719
   39TMC2    O1  616   1.466   2.550   1.706 -0.7001  0.3866 -0.7039
   39TMC2    O2  617   1.930   2.142   1.619 -0.1783 -0.0683  0.7625
   39TMC2    O5  618   1.800   1.953   1.644  0.4436 -0.6093 -0.3989
   39TMC2    H5  619   1.706   1.923   1.645 -0.4604  2.1216 -3.2655
   40MPD2     C  620   1.023   2.198   1.712  0.2570  0.6684  0.8156
   40MPD2    C1  621   1.103   2.119   1.632  0.5053  0.1025 -0.0308
   40MPD2    C2  622   1.044   2.030   1.543 -0.2629  0.3436  0.0141
   40MPD2    C3  623   0.905   2.020   1.531 -0.2026 -0.0352 -0.0037
   40MPD2    C4  624   0.831   2.109   1.605  0.8855  0.5782 -0.0448
   40MPD2    C5  625   0.891   2.188   1.702  0.3652  0.5175 -0.2187
   40MPD2     H  626   1.103   1.975   1.471  1.6234  2.5743 -0.1509
   40MPD2    H1  627   0.724   2.098   1.595  0.6532  2.0870  0.7594
   40MPD2    H2  628   1.064   2.264   1.787 -1.2978 -0.0758  2.3043
   40MPD2    H3  629   0.809   2.235   1.756 -0.1215 -2.7083  1.8225
   40MPD2     N  630   0.838   1.947   1.433  0.1896  0.5047  0.3699
   40MPD2    H5  631   0.738   1.966   1.426  0.3236  0.7017 -0.9410
   40MPD2    N1  632   1.238   2.160   1.627 -0.7563  0.5039  0.0130
   40MPD2    H7  633   1.265   2.240   1.683  1.4231 -2.0956  2.7622
   41TMC2    C1  634   0.297   3.325  14.038  0.3408 -0.0781 -0.4258
   41TMC2    C2  635   0.253   3.214  13.973 -0.1114  0.5855 -0.1015
   41TMC2    C3  636   0.299   3.200  13.839  0.5587  0.6573  0.1857
   41TMC2    C4  637   0.380   3.416  13.987 -0.2773  0.3707 -0.4162
   41TMC2    C5  638   0.427   3.390  13.864  0.1888  0.1939  0.0895
   41TMC2    C6  639   0.387   3.286  13.782 -0.2749 -0.8248 -0.1704
   41TMC2     C  640   0.203   3.376  14.136  0.1156 -0.2627  0.0364
   41TMC2     O  641   0.142   3.294  14.200  0.1749  0.1793 -0.6284
   41TMC2     H  642   0.178   3.149  14.014  1.0043 -0.9935 -0.5433
   41TMC2    H1  643   0.414   3.500  14.047 -0.7670  1.2754 -1.4197
   41TMC2    H2  644   0.432   3.263  13.686 -1.9994 -0.2949 -1.0906
   41TMC2    C7  645   0.502   3.500  13.805 -0.1572 -0.4476 -0.1781
   41TMC2    C8  646   0.260   3.086  13.759 -0.0857  0.2859 -0.0331
   41TMC2    O1  647   0.579   3.563  13.876  0.8301  0.3331 -0.1835
   41TMC2    O2  648   0.279   3.069  13.639 -0.2247  0.2440 -1.1237
   41TMC2    O5  649   0.265   2.987  13.850 -0.0052  0.3985 -0.1875
   41TMC2    H5  650   0.312   3.020  13.930  0.3620 -2.8336  0.9520
   42MPD2     C  651   0.073   3.527  14.355  1.0802 -0.0050 -0.1465
   42MPD2    C1  652   0.095   3.580  14.231  0.1461 -0.2059  0.4282
   42MPD2    C2  653   0.036   3.698  14.194  0.1169 -0.1726  0.0260
   42MPD2    C3  654   4.708   3.779  14.282  0.1093  0.4666 -0.2262
   42MPD2    C4  655   4.687   3.723  14.410 -0.0763 -0.4312  0.1655
   42MPD2    C5  656   0.004   3.608  14.442  0.3631 -0.3938 -0.1439
   42MPD2     H  657   0.043   3.728  14.090  2.1781 -2.5912 -0.5284
   42MPD2    H1  658   4.637   3.773  14.493  0.1856 -1.3363  0.8655
   42MPD2    H2  659   0.114   3.430  14.381  0.1349 -0.7866 -1.5740
   42MPD2    H3  660   4.727   3.568  14.541 -1.1380 -0.1871 -0.3185
   42MPD2     N  661   4.637   3.893  14.244  0.1355  0.2131  0.3532
   42MPD2    H5  662   4.580   3.934  14.317  0.0682 -0.8964  0.9268
   42MPD2    N1  663   0.170   3.512  14.130 -0.0242 -0.3843  0.4549
   42MPD2    H7  664   0.203   3.571  14.054  2.7450 -0.8966  1.2427
   43TMC2    C1  665   1.768   2.733   0.757  0.4534  0.7850  0.2833
   43TMC2    C2  666   1.715   2.842   0.716  0.0025 -0.4295 -0.3831
   43TMC2    C3  667   1.745   2.962   0.770 -0.0727  0.3268  0.8667
   43TMC2    C4  668   1.872   2.727   0.848  0.1104  0.3001 -0.0769
   43TMC2    C5  669   1.912   2.848   0.895 -0.4861 -0.1982  0.0100
   43TMC2    C6  670   1.845   2.967   0.861  0.5416  0.0384  0.6776
   43TMC2     C  671   1.739   2.609   0.688  0.8721 -0.9105  0.0574
   43TMC2     O  672   1.821   2.518   0.703 -0.2125  0.8938  0.4874
   43TMC2     H  673   1.649   2.846   0.629  2.0048  0.5188 -1.8504
   43TMC2    H1  674   1.922   2.636   0.878 -0.8577  0.2911  1.4837
   43TMC2    H2  675   1.872   3.062   0.904  0.5206  0.0026  0.7701
   43TMC2    C7  676   2.045   2.845   0.956  0.4118 -0.1368 -0.2203
   43TMC2    C8  677   1.651   3.073   0.768  0.0316 -0.5238 -0.1341
   43TMC2    O1  678   2.110   2.749   0.930  0.0845 -0.0766 -0.1637
   43TMC2    O2  679   1.640   3.157   0.854  0.2799 -0.2075  0.3119
   43TMC2    O5  680   1.606   3.087   0.642  0.4228  0.1694 -0.0033
   43TMC2    H5  681   1.651   3.025   0.582 -0.0949  1.7279 -1.9996
   44MPD2     C  682   1.481   2.344   0.336  0.8908  0.1328 -0.3179
   44MPD2    C1  683   1.615   2.334   0.378  0.6895 -0.0865 -0.0615
   44MPD2    C2  684   1.658   2.411   0.483  0.6161 -0.0074 -0.6983
   44MPD2    C3  685   1.571   2.502   0.536  0.1919  0.2924  0.8301
   44MPD2    C4  686   1.436   2.492   0.503 -0.0186 -0.2319  0.7828
   44MPD2    C5  687   1.390   2.419   0.404 -0.1818 -1.1415  0.1552
   44MPD2     H  688   1.764   2.407   0.506  0.5173 -0.0692 -0.2636
   44MPD2    H1  689   1.368   2.550   0.564 -1.1928 -1.1458  0.3454
   44MPD2    H2  690   1.439   2.279   0.260  1.3050 -0.8293  0.2866
   44MPD2    H3  691   1.284   2.425   0.380 -0.4022 -1.4761  1.0344
   44MPD2     N  692   1.610   2.601   0.625  0.1846 -0.6585 -0.3818
   44MPD2    H5  693   1.538   2.671   0.639 -0.1769 -1.3329  1.0519
   44MPD2    N1  694   1.713   2.256   0.310  0.0978 -0.3099  0.4433
   44MPD2    H7  695   1.803   2.260   0.358 -0.5388  0.5610  1.5648
   45TMC2    C1  696   2.028   3.476   9.731 -0.3771  0.2995 -0.1428
   45TMC2    C2  697   2.123   3.382   9.722 -0.0141  0.3136 -0.0025
   45TMC2    C3  698   2.246   3.406   9.771 -0.4484 -0.5943 -0.1103
   45TMC2    C4  699   2.053   3.594   9.798  0.1141  0.8181 -0.0221
   45TMC2    C5  700   2.182   3.611   9.847 -0.8848 -0.6522 -0.1132
   45TMC2    C6  701   2.275   3.513   9.845  0.6287 -0.2517 -0.3705
   45TMC2     C  702   1.889   3.453   9.690 -0.4861 -0.0446 -0.1979
   45TMC2     O  703   1.875   3.343   9.631 -0.2956 -0.3036  0.2198
   45TMC2     H  704   2.122   3.293   9.660  0.8244  0.0612  0.3426
   45TMC2    H1  705   1.988   3.680   9.788  0.2964  1.2014  1.9961
   45TMC2    H2  706   2.376   3.529   9.882  0.7018  0.9310 -1.0675
   45TMC2    C7  707   2.213   3.735   9.911  0.0371 -0.2179  0.4908
   45TMC2    C8  708   2.344   3.299   9.747  0.2152  0.6711 -0.2892
   45TMC2    O1  709   2.116   3.799   9.950 -0.2828 -0.1405 -0.2486
   45TMC2    O2  710   2.407   3.283   9.645 -0.0427 -0.5157  0.2685
   45TMC2    O5  711   2.402   3.292   9.864 -0.7066  0.4285  0.4094
   45TMC2    H5  712   2.337   3.306   9.937 -1.3684  0.2477 -0.1465
   46MPD2     C  713   1.603   3.461   9.613 -0.8072  0.0413 -0.3867
   46MPD2    C1  714   1.666   3.564   9.684 -0.0270 -0.4377 -0.3190
   46MPD2    C2  715   1.585   3.678   9.705  0.1240 -0.1932  0.1886
   46MPD2    C3  716   1.452   3.696   9.664 -0.1048  0.2834  0.2289
   46MPD2    C4  717   1.394   3.587   9.598 -0.0716  0.4767  0.3119
   46MPD2    C5  718   1.476   3.480   9.567  0.5429 -0.0106 -0.4770
   46MPD2     H  719   1.629   3.759   9.762  1.0930 -0.9167  0.4785
   46MPD2    H1  720   1.295   3.599   9.556 -0.9132  2.1150  2.8012
   46MPD2    H2  721   1.649   3.369   9.578 -0.0555  0.2439  0.0865
   46MPD2    H3  722   1.434   3.404   9.502  0.7967 -0.1184 -0.5154
   46MPD2     N  723   1.395   3.824   9.677 -0.8181  0.5738 -0.3878
   46MPD2    H5  724   1.449   3.900   9.717 -0.0364 -0.2527  0.1356
   46MPD2    N1  725   1.802   3.562   9.714  0.3440 -0.0767 -0.3194
   46MPD2    H7  726   1.837   3.646   9.759 -1.1824 -0.3431  1.3847
   47TMC2    C1  727   2.684   0.378   9.269  0.1521 -0.6305 -0.0850
   47TMC2    C2  728   2.623   0.498   9.303  0.4532  0.0198 -0.1465
   47TMC2    C3  729   2.553   0.495   9.418  0.1375 -0.0804  0.4335
   47TMC2    C4  730   2.656   0.259   9.331 -0.1490  0.5294 -0.2899
   47TMC2    C5  731   2.582   0.266   9.446  0.5184 -0.5489  0.4133
   47TMC2    C6  732   2.518   0.382   9.487  0.2167 -0.7286  0.1824
   47TMC2     C  733   2.773   0.394   9.164 -0.0383  0.6333  0.0614
   47TMC2     O  734   2.756   0.490   9.092 -0.1227 -1.1630 -0.4068
   47TMC2     H  735   2.646   0.595   9.260 -1.2535  1.0280  1.2216
   47TMC2    H1  736   2.700   0.164   9.304 -1.8738 -1.0891  2.6196
   47TMC2    H2  737   2.446   0.390   9.567 -0.5079 -0.8131 -0.4583
   47TMC2    C7  738   2.534   0.138   9.499 -0.0855 -0.1008 -0.5841
   47TMC2    C8  739   2.494   0.620   9.457 -0.1254 -0.3180 -0.0005
   47TMC2    O1  740   2.583   0.037   9.450 -0.7964 -0.3435 -0.3292
   47TMC2    O2  741   2.397   0.621   9.536  0.1599  0.3706  0.2969
   47TMC2    O5  742   2.600   0.706   9.472  0.4403  0.5239  0.0272
   47TMC2    H5  743   2.686   0.666   9.447  0.0585  0.6934 -1.5202
   48MPD2     C  744   3.023   0.403   9.009  0.0950  0.2926 -0.6859
   48MPD2    C1  745   3.009   0.326   9.119 -0.0795  0.2578 -0.0179
   48MPD2    C2  746   3.118   0.263   9.174 -0.2754  0.0623  0.6555
   48MPD2    C3  747   3.241   0.263   9.107 -0.1111 -0.1799  0.3722
   48MPD2    C4  748   3.254   0.337   8.991  0.3825  0.6133  0.5535
   48MPD2    C5  749   3.147   0.410   8.956 -0.1174  0.0178  0.1631
   48MPD2     H  750   3.110   0.197   9.259 -2.3992  0.6898  0.9301
   48MPD2    H1  751   3.349   0.346   8.941  0.2799 -3.1045 -0.2948
   48MPD2    H2  752   2.940   0.456   8.964 -0.7669 -0.5604 -0.0741
   48MPD2    H3  753   3.169   0.460   8.862 -2.4301 -1.4125 -1.1378
   48MPD2     N  754   3.352   0.196   9.169  0.3693  0.1751  0.4855
   48MPD2    H5  755   3.329   0.145   9.254 -1.7999 -1.2273 -0.9270
   48MPD2    N1  756   2.887   0.313   9.190 -0.2458  0.7344  0.0796
   48MPD2    H7  757   2.882   0.253   9.271  0.2471 -1.3680 -1.4262
   49TMC2    C1  758   1.874   1.828  10.404 -0.0439 -1.0197 -0.2687
   49TMC2    C2  759   1.906   1.698  10.416  0.2318 -0.2600 -0.1790
   49TMC2    C3  760   1.829   1.605  10.340 -0.3650 -0.2100 -0.8708
   49TMC2    C4  761   1.758   1.871  10.340 -0.8753 -0.4571 -0.1683
   49TMC2    C5  762   1.682   1.779  10.272 -0.2475  0.0382  1.0347
   49TMC2    C6  763   1.712   1.646  10.277 -0.4665  0.4322 -0.8318
   49TMC2     C  764   1.943   1.919  10.495 -0.7284  0.1503  0.4373
   49TMC2     O  765   1.881   2.010  10.557  0.4927  0.2823  0.2183
   49TMC2     H  766   1.991   1.661  10.471 -0.2205 -0.5908  0.2991
   49TMC2    H1  767   1.716   1.971  10.345 -1.3355 -0.9037  4.4970
   49TMC2    H2  768   1.648   1.573  10.230 -0.3383 -0.2705  0.0833
   49TMC2    C7  769   1.587   1.821  10.174 -0.2588 -0.0593  0.2917
   49TMC2    C8  770   1.869   1.466  10.339  0.3097  0.1839 -0.3091
   49TMC2    O1  771   1.500   1.739  10.142 -0.0122 -0.7387  0.4587
   49TMC2    O2  772   1.958   1.424  10.415  0.6121  0.2552 -0.1455
   49TMC2    O5  773   1.858   1.423  10.209 -0.1261 -0.3647 -0.3922
   49TMC2    H5  774   1.801   1.471  10.145  2.6064  0.5007 -2.1870
   50MPD2     C  775   2.308   1.895  10.573 -0.1122 -0.7797 -0.2475
   50MPD2    C1  776   2.175   1.934  10.591 -0.4879  0.8218 -0.5395
   50MPD2    C2  777   2.142   2.010  10.701  0.6614 -0.2780  0.8449
   50MPD2    C3  778   2.245   2.038  10.793 -0.4635 -0.5153 -0.0954
   50MPD2    C4  779   2.373   1.996  10.772  0.6218  0.5131 -0.1476
   50MPD2    C5  780   2.405   1.933  10.657 -0.4234  0.0321 -0.0444
   50MPD2     H  781   2.039   2.038  10.715  0.5567 -0.9723  1.4854
   50MPD2    H1  782   2.457   2.019  10.837  0.1181 -0.2535  0.7562
   50MPD2    H2  783   2.341   1.848  10.482 -2.4825 -1.6969 -0.6547
   50MPD2    H3  784   2.506   1.903  10.633 -0.4388 -1.6184  1.9422
   50MPD2     N  785   2.219   2.111  10.907  0.0191  0.0030 -0.8229
   50MPD2    H5  786   2.296   2.128  10.971  0.5830  1.4422 -1.8868
   50MPD2    N1  787   2.071   1.894  10.493 -0.1735 -0.4460 -0.4990
   50MPD2    H7  788   2.113   1.832  10.424  0.2687  1.7064 -2.1562
   51TMC2    C1  789   2.553   2.052   1.709 -0.1704  1.0942  0.2091
   51TMC2    C2  790   2.502   2.182   1.685 -0.2570  0.3389  0.7037
   51TMC2    C3  791   2.576   2.297   1.708  0.2307  0.8911  0.2360
   51TMC2    C4  792   2.668   2.045   1.782 -0.5726 -0.2242 -0.5943
   51TMC2    C5  793   2.734   2.156   1.821 -0.0477 -0.6901 -0.2218
   51TMC2    C6  794   2.690   2.282   1.786  0.2177  0.8374 -0.0670
   51TMC2     C  795   2.491   1.926   1.662  0.0324 -0.2982  0.2516
   51TMC2     O  796   2.559   1.826   1.679 -0.2561 -0.0501 -0.0836
   51TMC2     H  797   2.410   2.180   1.628 -0.7350 -1.9469  1.5514
   51TMC2    H1  798   2.699   1.943   1.805 -1.9341 -0.9068 -1.7680
   51TMC2    H2  799   2.737   2.374   1.819  1.5135  0.6514 -1.3366
   51TMC2    C7  800   2.857   2.138   1.892 -0.4849 -0.9662  0.4903
   51TMC2    C8  801   2.497   2.420   1.743  0.2351 -0.9088  0.3539
   51TMC2    O1  802   2.935   2.234   1.891  0.3156  0.0075  0.0390
   51TMC2    O2  803   2.507   2.465   1.858 -0.4030  0.1943  0.2560
   51TMC2    O5  804   2.382   2.433   1.669  0.1540  0.0052 -0.0068
   51TMC2    H5  805   2.370   2.379   1.588 -0.4166 -0.9087  0.6855
   52MPD2     C  806   2.111   1.664   1.461  0.3717  0.0138  0.6060
   52MPD2    C1  807   2.246   1.630   1.480  0.0617 -0.0590 -0.1635
   52MPD2    C2  808   2.332   1.732   1.530  0.0070  0.3988  0.8633
   52MPD2    C3  809   2.277   1.852   1.564  0.2344  0.2659  0.7231
   52MPD2    C4  810   2.148   1.877   1.535  0.4270 -0.0563 -0.1592
   52MPD2    C5  811   2.060   1.786   1.489  0.2493 -0.0435 -0.6530
   52MPD2     H  812   2.439   1.719   1.528 -0.1230 -0.6664  0.7821
   52MPD2    H1  813   2.103   1.975   1.551 -1.2999 -0.8375 -0.2140
   52MPD2    H2  814   2.048   1.605   1.396 -1.4056  1.5317  0.9579
   52MPD2    H3  815   1.957   1.817   1.492  0.8386  1.7840  0.8508
   52MPD2     N  816   2.363   1.947   1.615  0.3027 -0.3515  0.2763
   52MPD2    H5  817   2.322   2.037   1.636  1.3371  0.3526 -0.7250
   52MPD2    N1  818   2.316   1.515   1.422 -0.1341 -0.0817  0.2370
   52MPD2    H7  819   2.416   1.508   1.439 -0.4080 -3.7795  0.1737
   53TMC2    C1  820   3.317   4.132  12.065 -0.7419  0.0512  0.6336
   53TMC2    C2  821   3.382   4.069  12.168  0.0025 -0.4340 -0.5491
   53TMC2    C3  822   3.328   4.083  12.295  0.7170  0.0949  0.3599
   53TMC2    C4  823   3.200   4.199  12.081 -0.4009  0.5610  0.0759
   53TMC2    C5  824   3.155   4.222  12.208  0.0224 -0.0481  0.5241
   53TMC2    C6  825   3.221   4.166  12.312 -0.2157 -0.1332 -0.7454
   53TMC2     C  826   3.352   4.080  11.938 -0.2872 -0.6940 -0.4636
   53TMC2     O  827   3.465   4.032  11.918  0.1051  0.6824  0.5673
   53TMC2     H  828   3.474   4.011  12.163  1.1013  1.2943 -0.1337
   53TMC2    H1  829   3.143   4.253  12.007 -1.0191  0.9844  0.8657
   53TMC2    H2  830   3.194   4.175  12.417  0.4954  0.6946 -0.6360
   53TMC2    C7  831   3.014   4.264  12.228  0.0003 -0.0140 -0.5900
   53TMC2    C8  832   3.432   4.103  12.393  0.0028 -0.0698 -0.0294
   53TMC2    O1  833   2.970   4.323  12.131  0.3243 -0.4556  0.8459
   53TMC2    O2  834   3.424   4.180  12.487 -0.7885 -0.3585  0.2653
   53TMC2    O5  835   3.481   3.982  12.407 -0.1351 -0.1964  0.5248
   53TMC2    H5  836   3.438   3.921  12.344 -0.9003  0.1751  0.6889
   54MPD2     C  837   3.345   4.057  11.644 -0.6906  0.3677  0.0734
   54MPD2    C1  838   3.231   4.073  11.715 -0.2010 -0.2192  0.1002
   54MPD2    C2  839   3.113   4.093  11.650  0.3736  0.9053 -0.1423
   54MPD2    C3  840   3.099   4.073  11.519 -0.1332 -0.8422 -0.3853
   54MPD2    C4  841   3.212   4.042  11.441 -0.3565 -0.5769  0.0245
   54MPD2    C5  842   3.336   4.037  11.507 -0.1312  0.1877  0.6162
   54MPD2     H  843   3.025   4.087  11.713  1.1077  0.6012  0.8513
   54MPD2    H1  844   3.211   4.022  11.334  1.2381  1.7085 -0.4114
   54MPD2    H2  845   3.441   4.057  11.694 -0.4527 -0.0129 -0.3883
   54MPD2    H3  846   3.432   4.026  11.458 -0.8317  1.9207 -1.1275
   54MPD2     N  847   2.975   4.066  11.455 -0.2564  0.0030 -0.6274
   54MPD2    H5  848   2.969   4.028  11.361  0.9987 -0.1367 -0.6488
   54MPD2    N1  849   3.237   4.078  11.855  0.4764 -0.5771 -0.4369
   54MPD2    H7  850   3.149   4.094  11.903  0.2646 -1.5192 -0.5190
   55TMC2    C1  851   4.266   1.972  17.611 -0.5816  0.3334 -0.1708
   55TMC2    C2  852   4.253   1.957  17.469  0.6331  0.2828 -0.6407
   55TMC2    C3  853   4.205   1.840  17.429 -0.1484 -0.9752  0.2897
   55TMC2    C4  854   4.235   1.870  17.701  0.3843  0.3993 -0.6246
   55TMC2    C5  855   4.185   1.755  17.650 -0.2079 -0.3569  0.3012
   55TMC2    C6  856   4.178   1.735  17.518  0.2635  0.5105  0.4254
   55TMC2     C  857   4.325   2.095  17.668 -0.5368 -0.3020  0.9144
   55TMC2     O  858   4.343   2.086   0.028  0.1112  0.1571  0.3042
   55TMC2     H  859   4.285   2.032  17.399  1.8238  1.1712  0.8615
   55TMC2    H1  860   4.253   1.882   0.047 -1.9414  1.2348 -0.3315
   55TMC2    H2  861   4.116   1.652  17.487  0.8756 -0.4570  1.7411
   55TMC2    C7  862   4.124   1.651  17.737 -0.0147 -0.6464  0.2963
   55TMC2    C8  863   4.147   1.827  17.290 -0.3679 -0.3782 -0.0760
   55TMC2    O1  864   4.113   1.534  17.706  0.0915  0.4754  0.3264
   55TMC2    O2  865   4.196   1.902  17.210  0.2916 -0.5352  0.4853
   55TMC2    O5  866   4.025   1.768  17.293 -0.6376  0.3328 -0.0721
   55TMC2    H5  867   3.989   1.742  17.381  1.9949 -1.8132  0.3598
   56MPD2     C  868   4.320   2.436  17.539 -0.0400  0.1689  0.2669
   56MPD2    C1  869   4.326   2.343  17.642 -0.2743  0.0808  0.6203
   56MPD2    C2  870   4.343   2.377   0.009  0.1820  0.1185 -0.2064
   56MPD2    C3  871   4.372   2.510   0.033 -0.5120  0.3034  0.1287
   56MPD2    C4  872   4.371   2.611  17.688 -0.6464  0.2787 -0.3226
   56MPD2    C5  873   4.345   2.572  17.558 -0.0997  0.1872 -0.4005
   56MPD2     H  874   4.355   2.307   0.090  2.3502  0.0298 -0.5997
   56MPD2    H1  875   4.375   2.717  17.711 -0.1349  0.1358  0.2439
   56MPD2    H2  876   4.295   2.413  17.437  0.5033 -1.3264  0.4688
   56MPD2    H3  877   4.336   2.642  17.476 -1.3536 -1.0186 -1.2750
   56MPD2     N  878   4.396   2.552   0.169  0.0144  0.5795  0.4105
   56MPD2    H5  879   4.365   2.492   0.245 -2.8278  1.6397  0.0637
   56MPD2    N1  880   4.314   2.208  17.598 -0.5943 -0.8032 -0.1135
   56MPD2    H7  881   4.287   2.191  17.502  1.7567  0.7152 -1.0419
   57TMC2    C1  882   2.721   2.262  13.834 -0.0367 -0.0446 -0.7520
   57TMC2    C2  883   2.682   2.217  13.718 -0.3410 -0.5216 -0.6514
   57TMC2    C3  884   2.753   2.122  13.646 -0.5381 -0.0793  0.2499
   57TMC2    C4  885   2.836   2.223  13.888  0.3113  0.3702 -0.1257
   57TMC2    C5  886   2.910   2.131  13.814  0.4144 -1.0125 -0.2337
   57TMC2    C6  887   2.872   2.075  13.698  0.1827 -0.0677  0.2192
   57TMC2     C  888   2.667   2.388  13.878 -0.2886  0.1983  0.1913
   57TMC2     O  889   2.599   2.458  13.801  0.5797  0.5942  0.1866
   57TMC2     H  890   2.598   2.269  13.674  1.0969  2.9778  0.7213
   57TMC2    H1  891   2.877   2.266  13.979  2.4859  1.5330 -1.6390
   57TMC2    H2  892   2.926   2.001  13.640 -0.6359 -0.8908  0.5114
   57TMC2    C7  893   3.053   2.140  13.844  0.0136 -0.8119  0.4277
   57TMC2    C8  894   2.701   2.047  13.532 -0.0987 -0.2795 -0.8083
   57TMC2    O1  895   3.079   2.205  13.944 -0.2108  0.5801  0.5419
   57TMC2    O2  896   2.783   1.988  13.461  0.7802  0.2311  0.2026
   57TMC2    O5  897   2.567   2.052  13.508 -0.0329  0.4958 -0.4759
   57TMC2    H5  898   2.513   2.072  13.588  0.4070  1.3049 -0.3828
   58MPD2     C  899   2.717   2.786  14.200  0.1086 -0.5115  0.7437
   58MPD2    C1  900   2.667   2.780  14.073  0.1979 -0.5535  0.4900
   58MPD2    C2  901   2.661   2.655  14.007  0.2379  0.1809 -0.2752
   58MPD2    C3  902   2.693   2.537  14.074 -0.1313 -0.3365  1.1294
   58MPD2    C4  903   2.750   2.552  14.199 -0.3166  0.1715  0.0181
   58MPD2    C5  904   2.758   2.671  14.256 -0.1810  0.0089  0.2653
   58MPD2     H  905   2.595   2.644  13.921 -0.7635  1.8524  0.2678
   58MPD2    H1  906   2.775   2.462  14.254  1.2211  1.4302  1.4093
   58MPD2    H2  907   2.722   2.875  14.260 -0.9407  0.4541 -0.5975
   58MPD2    H3  908   2.796   2.681  14.357  1.7854  0.1157 -0.4840
   58MPD2     N  909   2.695   2.410  14.014 -0.0527 -0.2245  0.3816
   58MPD2    H5  910   2.724   2.332  14.071  0.3485 -0.0236  0.4497
   58MPD2    N1  911   2.628   2.889  13.995  0.1147 -0.0162 -0.0077
   58MPD2    H7  912   2.605   2.871  13.897 -0.4056 -1.0034  0.2960
   59TMC2    C1  913   0.864   2.819  12.592  0.1490  0.0626 -0.0684
   59TMC2    C2  914   0.864   2.760  12.714 -0.3088  0.6595 -0.0969
   59TMC2    C3  915   0.823   2.629  12.711 -0.0737  0.6916 -0.7360
   59TMC2    C4  916   0.837   2.757  12.476  0.3174  0.7418 -0.0473
   59TMC2    C5  917   0.787   2.626  12.483 -0.0949 -0.6099 -0.2132
   59TMC2    C6  918   0.791   2.554  12.600  0.6403  0.4730  1.3509
   59TMC2     C  919   0.926   2.949  12.579  0.4661 -1.2628  0.2354
   59TMC2     O  920   0.924   3.010  12.472 -0.1936 -0.6528 -0.3976
   59TMC2     H  921   0.862   2.820  12.804 -1.6814  1.2257 -0.5051
   59TMC2    H1  922   0.843   2.812  12.382 -0.4673  0.4745 -0.2532
   59TMC2    H2  923   0.757   2.454  12.620 -1.1367  1.3385  2.6682
   59TMC2    C7  924   0.712   2.563  12.381 -0.3514  0.1687 -0.2175
   59TMC2    C8  925   0.843   2.563  12.842 -0.1413  0.4224 -0.2766
   59TMC2    O1  926   0.723   2.442  12.366  0.2444 -0.0385 -0.0524
   59TMC2    O2  927   0.820   2.615  12.950  0.1413 -0.0276  0.0217
   59TMC2    O5  928   0.913   2.451  12.822  0.5988  0.0291  0.0304
   59TMC2    H5  929   0.972   2.453  12.744  0.8676  1.2706  0.2673
   60MPD2     C  930   0.958   3.239  12.625  0.4243 -0.0877 -0.3497
   60MPD2    C1  931   1.012   3.139  12.713 -0.0102  0.1048  0.0177
   60MPD2    C2  932   1.092   3.181  12.821  0.7769 -0.2429 -1.0796
   60MPD2    C3  933   1.131   3.314  12.823 -0.5034 -0.0442  0.2998
   60MPD2    C4  934   1.101   3.396  12.717 -0.6552  0.0565 -0.9185
   60MPD2    C5  935   1.004   3.366  12.627 -0.1922  0.8157 -0.1779
   60MPD2     H  936   1.127   3.108  12.893  2.9945 -1.0581 -2.9843
   60MPD2    H1  937   1.126   3.501  12.726 -2.0354  0.2724  0.2999
   60MPD2    H2  938   0.889   3.219  12.543  1.0452 -0.6239 -0.7418
   60MPD2    H3  939   0.967   3.439  12.555  0.2248  0.2396 -0.9678
   60MPD2     N  940   1.221   3.371  12.921 -0.3532 -0.0929 -0.4653
   60MPD2    H5  941   1.255   3.465  12.901  0.0227  0.2157  1.6780
   60MPD2    N1  942   0.986   2.996  12.691 -0.0086 -0.0015 -0.0625
   60MPD2    H7  943   1.000   2.944  12.777 -1.1811 -3.0936 -1.7713
   61TMC2    C1  944   0.412   4.101  15.656  0.1779 -0.6017 -0.4511
   61TMC2    C2  945   0.325   4.033  15.741 -0.0913  0.4689  0.5305
   61TMC2    C3  946   0.211   4.090  15.777 -0.8690  0.1520  0.0580
   61TMC2    C4  947   0.382   4.221  15.596  1.4447  0.0767  0.0054
   61TMC2    C5  948   0.272   4.278  15.650 -0.0341  0.0160 -0.0395
   61TMC2    C6  949   0.187   4.215  15.734  0.0911 -0.1339 -0.1728
   61TMC2     C  950   0.496   4.006  15.580  0.0140 -0.4721 -0.2361
   61TMC2     O  951   0.525   3.899  15.630 -0.6027 -0.2672 -0.1752
   61TMC2     H  952   0.324   3.925  15.752  1.2982  0.3565 -0.4351
   61TMC2    H1  953   0.456   4.283  15.547  2.3025 -1.5084 -0.7021
   61TMC2    H2  954   0.089   4.259  15.749  0.6658  0.5554  1.6462
   61TMC2    C7  955   0.234   4.407  15.592  0.8650 -0.6698 -0.1103
   61TMC2    C8  956   0.106   4.006  15.838  0.1154  0.2128 -1.1145
   61TMC2    O1  957   0.291   4.438  15.492 -0.3554  0.1566 -0.0033
   61TMC2    O2  958   0.081   3.887  15.812  0.1964 -0.1945  0.3718
   61TMC2    O5  959   0.020   4.092  15.891  0.4536 -0.3435 -0.5260
   61TMC2    H5  960   0.073   4.165  15.929  1.0306  0.2420 -2.4812
   62MPD2     C  961   0.636   3.879  15.342  0.5765  0.3583 -0.2137
   62MPD2    C1  962   0.558   3.988  15.338 -0.3751 -0.0601  0.1192
   62MPD2    C2  963   0.549   4.065  15.219  0.9014 -0.1867  0.3580
   62MPD2    C3  964   0.616   4.030  15.103 -0.3810 -0.2901 -0.3680
   62MPD2    C4  965   0.691   3.913  15.112 -0.2916  0.0070 -0.5274
   62MPD2    C5  966   0.704   3.843  15.228 -0.0639  0.0676 -0.3717
   62MPD2     H  967   0.498   4.160  15.224  1.4614  0.1125  0.4628
   62MPD2    H1  968   0.738   3.863  15.029 -2.3293  1.1116 -2.3527
   62MPD2    H2  969   0.647   3.817  15.430  0.7872  0.8595  0.1163
   62MPD2    H3  970   0.756   3.748  15.230 -0.6988 -0.2455  0.9669
   62MPD2     N  971   0.602   4.108  14.992 -0.1122 -0.0494 -0.3270
   62MPD2    H5  972   0.547   4.193  15.001  0.1832  0.2499 -1.2749
   62MPD2    N1  973   0.498   4.045  15.451 -0.0178 -0.5895  0.3380
   62MPD2    H7  974   0.437   4.124  15.431  0.2336 -0.4906 -0.0329
   63TMC2    C1  975   4.021   4.653  10.458  0.1367  0.4115  0.8542
   63TMC2    C2  976   4.153   4.616  10.487 -0.3261 -0.0136 -0.5502
   63TMC2    C3  977   4.245   4.673  10.409  0.1962  0.5437  0.2119
   63TMC2    C4  978   3.984   4.728  10.351 -0.6924  0.5218  0.4566
   63TMC2    C5  979   4.089   0.052  10.285  0.3793  0.2920  0.4935
   63TMC2    C6  980   4.219   0.025  10.315  0.0096 -0.4275  0.4610
   63TMC2     C  981   3.916   4.561  10.500  0.7992 -0.3166  0.2638
   63TMC2     O  982   3.802   4.603  10.477 -0.0311 -0.0269 -0.4288
   63TMC2     H  983   4.189   4.556  10.569  2.2716  0.9405 -1.0002
   63TMC2    H1  984   3.881   0.007  10.328 -0.8616 -0.7596  0.1082
   63TMC2    H2  985   4.297   0.076  10.260 -0.2654 -1.5864 -0.9952
   63TMC2    C7  986   4.051   0.166  10.197 -0.1826 -0.4005  0.1473
   63TMC2    C8  987   4.384   4.668  10.447 -0.8593 -0.6301  0.7964
   63TMC2    O1  988   3.933   0.187  10.192  0.1280 -0.5110 -0.3588
   63TMC2    O2  989   4.423   4.629  10.554  0.5908  0.6859 -0.3770
   63TMC2    O5  990   4.448   4.638  10.335  0.5086  0.1601  0.3586
   63TMC2    H5  991   4.402   4.664  10.252  2.4204  0.0372 -0.7538
   64MPD2     C  992   3.746   4.102  10.619 -0.2494 -1.1469  0.1665
   64MPD2    C1  993   3.866   4.093  10.556 -0.5475  1.0392 -0.0445
   64MPD2    C2  994   3.938   4.203  10.527 -0.2778 -0.3810  0.4513
   64MPD2    C3  995   3.882   4.328  10.547 -0.4429 -0.9005 -0.2184
   64MPD2    C4  996   3.760   4.333  10.602 -0.2756 -0.2618 -0.2898
   64MPD2    C5  997   3.694   4.222  10.648 -0.2625  0.3576  0.3488
   64MPD2     H  998   4.040   4.195  10.492 -0.3356  0.6906  0.0245
   64MPD2    H1  999   3.711   4.430  10.606  2.6171  1.2316 -0.7272
   64MPD2    H2 1000   3.699   4.017  10.665 -0.1915 -1.2730 -0.0062
   64MPD2    H3 1001   3.601   4.236  10.702 -1.4451  1.0380 -1.8265
   64MPD2     N 1002   3.968   4.434  10.512  0.5777 -0.2424  0.6816
   64MPD2    H5 1003   4.062   4.406  10.485  0.1440 -0.7074 -0.3449
   64MPD2    N1 1004   3.931   3.972  10.525 -0.2616 -0.2802  0.0051
   64MPD2    H7 1005   4.018   3.983  10.474 -1.8788 -0.8512 -2.8640
   65TMC2    C1 1006   1.015   4.154  15.456  0.0968  0.6245 -0.0100
   65TMC2    C2 1007   0.965   4.144  15.326 -0.0838 -0.4948 -0.3804
   65TMC2    C3 1008   0.974   4.255  15.239 -0.1866  0.0617 -0.0331
   65TMC2    C4 1009   1.048   4.280  15.503  0.4813  0.5805  0.3587
   65TMC2    C5 1010   1.057   4.387  15.413 -0.4335 -0.1283  0.1277
   65TMC2    C6 1011   1.034   4.369  15.282  0.1178 -0.0329  0.7009
   65TMC2     C 1012   0.960   4.063  15.554 -0.5162 -0.3694 -0.0679
   65TMC2     O 1013   0.917   4.120  15.659 -0.5991 -0.2570 -0.3041
   65TMC2     H 1014   0.921   4.054  15.285 -0.7131 -0.4199  0.1204
   65TMC2    H1 1015   1.066   4.298  15.608 -3.5556  1.3744  0.9264
   65TMC2    H2 1016   1.006   4.450  15.216  4.3246  0.8323  0.0074
   65TMC2    C7 1017   1.026   4.520  15.457  0.1764  0.8976  0.9761
   65TMC2    C8 1018   0.909   4.241  15.113 -0.5850  0.4620 -0.5148
   65TMC2    O1 1019   1.023   4.604  15.365 -0.5449 -0.2064 -0.4957
   65TMC2    O2 1020   0.855   4.342  15.070  0.1993  0.5430  0.0356
   65TMC2    O5 1021   0.987   4.168  15.037 -0.3790 -0.4435 -0.2480
   65TMC2    H5 1022   1.060   4.132  15.091  0.0292  1.7284  0.6688
   66MPD2     C 1023   0.880   3.830  15.724  0.1423 -0.2569 -0.7500
   66MPD2    C1 1024   0.905   3.827  15.585  0.0740  0.5644 -0.1822
   66MPD2    C2 1025   0.889   3.706  15.525 -0.0513  0.4824 -0.2539
   66MPD2    C3 1026   0.834   3.601  15.587  0.2855 -0.4777 -0.9248
   66MPD2    C4 1027   0.787   3.617  15.716  0.0633 -0.2258 -0.7565
   66MPD2    C5 1028   0.820   3.725  15.781 -0.2994 -0.8807 -0.0112
   66MPD2     H 1029   0.901   3.701  15.417 -0.8365  0.8405 -0.3563
   66MPD2    H1 1030   0.735   3.542  15.775 -0.1387 -0.3468 -1.0857
   66MPD2    H2 1031   0.885   3.920  15.785 -0.8112  0.5054 -1.7908
   66MPD2    H3 1032   0.805   3.725  15.888  0.2099 -2.8775  0.0532
   66MPD2     N 1033   0.827   3.470  15.527  0.2527  0.7892  0.2844
   66MPD2    H5 1034   0.789   3.394  15.582  0.6506  0.5281  0.1963
   66MPD2    N1 1035   0.953   3.935  15.511  0.4851 -0.7505 -0.3135
   66MPD2    H7 1036   0.974   3.914  15.414  0.9138 -0.8116 -0.2097
   67TMC2    C1 1037   1.126   2.590  14.245  0.6082 -0.2515 -0.2702
   67TMC2    C2 1038   1.100   2.470  14.301 -0.4640 -0.1924 -0.3060
   67TMC2    C3 1039   1.149   2.455  14.428  0.0452  0.9853  0.4217
   67TMC2    C4 1040   1.183   2.697  14.306  0.1262 -0.5455  0.2291
   67TMC2    C5 1041   1.222   2.675  14.433  0.4619  0.5268  0.7261
   67TMC2    C6 1042   1.205   2.556  14.500 -0.2092  0.9601  0.4738
   67TMC2     C 1043   1.132   2.601  14.100 -0.1584  0.6597  0.1557
   67TMC2     O 1044   1.135   2.492  14.047  0.2237  0.2664 -0.0152
   67TMC2     H 1045   1.040   2.394  14.253 -0.1322  0.7345 -2.1582
   67TMC2    H1 1046   1.191   2.787  14.245 -2.1769 -0.4227  0.1036
   67TMC2    H2 1047   1.239   2.541  14.602  0.1716 -1.7404 -0.0551
   67TMC2    C7 1048   1.278   2.799  14.499 -0.1012  0.4499 -0.1866
   67TMC2    C8 1049   1.097   2.343  14.496  0.2365 -0.6338 -0.3358
   67TMC2    O1 1050   1.295   2.894  14.430 -0.4927 -0.0536  0.0167
   67TMC2    O2 1051   1.146   2.281  14.591  0.2804 -0.1096 -0.2468
   67TMC2    O5 1052   0.962   2.344  14.469  0.1262 -0.6455  0.1960
   67TMC2    H5 1053   0.927   2.427  14.429 -0.3175  0.0099  1.9440
   68MPD2     C 1054   1.128   2.674  13.819  0.6003  0.2698 -0.7157
   68MPD2    C1 1055   1.090   2.759  13.921 -0.1127  0.5856  0.8915
   68MPD2    C2 1056   1.037   2.885  13.887 -0.5120 -0.6696 -0.4030
   68MPD2    C3 1057   1.014   2.920  13.755  0.8532 -0.0665 -0.2450
   68MPD2    C4 1058   1.053   2.830  13.652 -0.5506 -0.0481  0.1389
   68MPD2    C5 1059   1.111   2.711  13.691  0.7014  0.3747 -0.8105
   68MPD2     H 1060   1.003   2.954  13.963  1.1187  0.7039 -0.9233
   68MPD2    H1 1061   1.047   2.848  13.545  1.2245 -2.4301 -0.3682
   68MPD2    H2 1062   1.167   2.574  13.830  0.5886  0.3579  0.1300
   68MPD2    H3 1063   1.142   2.643  13.612 -1.5723 -0.5678 -0.8980
   68MPD2     N 1064   0.955   3.041  13.711 -0.0186  0.9520 -0.1873
   68MPD2    H5 1065   0.932   3.052  13.613 -1.5224  1.2598  0.1984
   68MPD2    N1 1066   1.107   2.721  14.057  0.2717 -0.3141 -0.2835
   68MPD2    H7 1067   1.089   2.796  14.123  2.4977 -0.3423  0.3543
   69TMC2    C1 1068   3.470   4.540  12.646  0.3235  0.4814 -0.2393
   69TMC2    C2 1069   3.559   4.622  12.712 -0.6349 -0.1064 -0.1937
   69TMC2    C3 1070   3.667   4.658  12.640 -0.4804  0.3127  0.1930
   69TMC2    C4 1071   3.477   4.499  12.517 -0.1066 -0.4338 -0.4122
   69TMC2    C5 1072   3.590   4.542  12.456 -0.6307 -0.1482  0.1834
   69TMC2    C6 1073   3.690   4.613  12.514 -0.0046  0.2594 -0.0185
   69TMC2     C 1074   3.372   4.470  12.736 -0.6472 -0.2059  0.1050
   69TMC2     O 1075   3.265   4.441  12.681  0.1927 -0.0483 -0.4656
   69TMC2     H 1076   3.544   4.669  12.808 -0.5019 -1.5340  0.5323
   69TMC2    H1 1077   3.404   4.431  12.473  0.2455 -0.6873 -0.6094
   69TMC2    H2 1078   3.780   4.643  12.461 -1.6023  1.3853 -2.0865
   69TMC2    C7 1079   3.607   4.507  12.313  0.0694  0.0276 -0.6701
   69TMC2    C8 1080   3.738   0.034  12.688  0.4895  0.4776 -0.4586
   69TMC2    O1 1081   3.721   4.496  12.271 -0.6010  0.0766  0.0200
   69TMC2    O2 1082   3.741   0.049  12.809 -0.0582  0.1506  0.5070
   69TMC2    O5 1083   3.696   0.130  12.606 -0.7128 -0.3108  0.3251
   69TMC2    H5 1084   3.688   0.098  12.514 -2.7373 -0.8254  0.6899
   70MPD2     C 1085   3.473   4.256  13.011 -0.0675 -0.5177  0.2326
   70MPD2    C1 1086   3.381   4.319  12.931  0.1272 -0.3520 -0.3252
   70MPD2    C2 1087   3.247   4.293  12.940 -0.0026 -0.2341  0.2915
   70MPD2    C3 1088   3.212   4.188  13.020 -0.1402 -0.2484  0.2051
   70MPD2    C4 1089   3.301   4.122  13.100 -0.2549 -0.2593  0.5105
   70MPD2    C5 1090   3.433   4.153  13.090  0.9349  0.2041 -1.0306
   70MPD2     H 1091   3.171   4.344  12.882 -0.5100  0.9537  1.9844
   70MPD2    H1 1092   3.270   4.046  13.171 -0.6397 -0.5828 -0.0024
   70MPD2    H2 1093   3.579   4.277  12.999 -0.8517  2.0671 -2.0381
   70MPD2    H3 1094   3.514   4.111  13.149 -2.8292 -2.8217  1.9439
   70MPD2     N 1095   3.078   4.150  13.028 -0.3007 -0.0724  0.1645
   70MPD2    H5 1096   3.055   4.083  13.101  0.6177  0.3893  0.8682
   70MPD2    N1 1097   3.431   4.421  12.849  0.0664 -0.3871  0.8360
   70MPD2    H7 1098   3.524   4.456  12.870  0.8866 -1.2278 -1.4251
   71TMC2    C1 1099   1.178   1.149   1.811  0.4243  0.5684 -0.4488
   71TMC2    C2 1100   1.301   1.139   1.864  0.8379 -0.1401  0.1154
   71TMC2    C3 1101   1.306   1.148   2.000 -0.7943 -0.2100 -1.0400
   71TMC2    C4 1102   1.069   1.171   1.891  0.3610  0.6040 -0.1392
   71TMC2    C5 1103   1.078   1.164   2.026  0.5078  0.0743  0.6229
   71TMC2    C6 1104   1.199   1.164   2.085 -1.0181 -0.7599 -0.5301
   71TMC2     C 1105   1.163   1.116   1.668  0.4241 -0.2685 -0.0106
   71TMC2     O 1106   1.256   1.129   1.589  0.2096 -0.3738 -0.1831
   71TMC2     H 1107   1.389   1.136   1.802  2.4629 -0.0721  2.4098
   71TMC2    H1 1108   0.982   1.193   1.830 -1.4495 -0.0361  2.1985
   71TMC2    H2 1109   1.206   1.172   2.193 -1.8688 -1.0544 -0.4515
   71TMC2    C7 1110   0.975   1.223   2.096 -0.5076 -0.2768 -0.3840
   71TMC2    C8 1111   1.434   1.122   2.053 -0.1706  0.7657 -0.3734
   71TMC2    O1 1112   1.005   1.262   2.207 -0.5723  0.1577  0.5225
   71TMC2    O2 1113   1.515   1.059   1.990 -0.2083 -0.4389  0.0728
   71TMC2    O5 1114   1.463   1.251   2.080  0.9073 -0.1675 -0.2462
   71TMC2    H5 1115   1.384   1.302   2.110  2.1325  2.3389 -1.2395
   72MPD2     C 1116   0.905   0.891   1.277 -1.0835 -0.0180  0.7075
   72MPD2    C1 1117   1.020   0.965   1.281  0.3276  0.6910 -0.8629
   72MPD2    C2 1118   1.071   1.022   1.398  0.1102 -0.3505  0.0342
   72MPD2    C3 1119   1.012   0.991   1.520  0.3797 -0.0684  0.0186
   72MPD2    C4 1120   0.891   0.920   1.511 -0.0132  0.4434  0.7637
   72MPD2    C5 1121   0.846   0.867   1.391  0.4438  0.5938 -0.0241
   72MPD2     H 1122   1.160   1.084   1.395 -0.5538  0.5987 -0.0598
   72MPD2    H1 1123   0.835   0.898   1.602 -0.5744  0.6084  0.4592
   72MPD2    H2 1124   0.854   0.858   1.187 -0.4098 -0.1203  0.3673
   72MPD2    H3 1125   0.748   0.822   1.397  0.5548  0.4084  0.3738
   72MPD2     N 1126   1.057   1.036   1.649 -0.0915  0.5538 -0.9283
   72MPD2    H5 1127   1.002   1.008   1.729 -0.8018  0.9020 -1.2952
   72MPD2    N1 1128   1.090   1.003   1.161 -0.7836  0.1481 -0.1785
   72MPD2    H7 1129   1.163   1.073   1.175 -2.3702  1.8471 -0.3273
   73TMC2    C1 1130   4.701   1.395  13.838  0.2990  0.1225  0.0927
   73TMC2    C2 1131   4.707   1.408  13.973 -0.1046 -0.1449  0.4390
   73TMC2    C3 1132   0.012   1.303  14.048 -0.2683 -0.8016  0.6737
   73TMC2    C4 1133   4.737   1.276  13.781  0.5296 -0.3671 -0.3855
   73TMC2    C5 1134   0.046   1.180  13.858  0.5492  0.4426 -0.3598
   73TMC2    C6 1135   0.049   1.181  13.995 -0.0248  0.1852  0.1833
   73TMC2     C 1136   0.008   1.499  13.747 -0.4082 -0.1528  0.1245
   73TMC2     O 1137   0.083   1.462  13.659  0.2975 -0.3837 -0.0801
   73TMC2     H 1138   4.684   1.507  14.010  1.7166  0.8488 -1.0401
   73TMC2    H1 1139   4.716   1.262  13.676 -0.2848 -1.4424 -0.0776
   73TMC2    H2 1140   0.087   1.097  14.052  0.9858  0.6944  0.2654
   73TMC2    C7 1141   0.159   1.112  13.792 -0.2515 -0.1940 -0.2634
   73TMC2    C8 1142   0.022   1.323  14.188  0.8433 -0.1657 -0.0646
   73TMC2    O1 1143   0.202   1.006  13.834  0.0944  0.3749 -0.8564
   73TMC2    O2 1144   0.017   1.228  14.264  0.3346  0.1252 -0.5137
   73TMC2    O5 1145   0.104   1.424  14.211  0.3680 -0.2964  0.8066
   73TMC2    H5 1146   0.109   1.488  14.137  0.4288 -1.0771  0.1436
   74MPD2     C 1147   0.180   1.965  13.647 -0.2811 -0.7352 -0.9723
   74MPD2    C1 1148   0.247   1.845  13.639  0.8807  0.2199  0.7779
   74MPD2    C2 1149   0.173   1.732  13.668 -0.1783 -0.7953 -0.1329
   74MPD2    C3 1150   0.055   1.740  13.743 -0.1990 -0.3390 -0.6403
   74MPD2    C4 1151   0.001   1.865  13.762  0.3095 -0.5396  0.6719
   74MPD2    C5 1152   0.056   1.972  13.700  0.2903 -0.2204 -0.1844
   74MPD2     H 1153   0.218   1.641  13.632  3.3489  1.1491 -0.6596
   74MPD2    H1 1154   4.655   1.880  13.825 -1.1813  2.1960 -1.9813
   74MPD2    H2 1155   0.229   2.052  13.603  1.1326 -0.6714  0.7175
   74MPD2    H3 1156   0.002   2.065  13.708 -0.2785 -0.4029 -1.8209
   74MPD2     N 1157   4.725   1.629  13.788  0.1604  0.5379 -0.3775
   74MPD2    H5 1158   4.639   1.646  13.839  0.8002  0.0602  0.8709
   74MPD2    N1 1159   0.373   1.847  13.579  0.3127 -0.5361 -0.2836
   74MPD2    H7 1160   0.391   1.937  13.535 -0.6980  1.3148  3.1138
   75TMC2    C1 1161   0.875   3.264  13.718 -0.0677 -0.1173  0.7156
   75TMC2    C2 1162   0.936   3.385  13.741  0.0647  0.1123 -0.1522
   75TMC2    C3 1163   0.891   3.487  13.664 -0.0281  0.5532 -0.0208
   75TMC2    C4 1164   0.789   3.246  13.615 -0.9090  0.3219  0.4540
   75TMC2    C5 1165   0.764   3.350  13.525 -0.4591 -0.2217 -0.1379
   75TMC2    C6 1166   0.812   3.481  13.551 -0.9350  0.2519 -0.1685
   75TMC2     C 1167   0.932   3.148  13.791  0.6823  0.5468  0.2053
   75TMC2     O 1168   0.952   3.175  13.908  0.3233  0.4791 -0.2659
   75TMC2     H 1169   1.012   3.394  13.818 -0.0425  1.0011 -0.1595
   75TMC2    H1 1170   0.739   3.150  13.602 -1.2095  0.7919 -1.8043
   75TMC2    H2 1171   0.767   3.562  13.495 -0.9316  0.5843  0.3106
   75TMC2    C7 1172   0.644   3.335  13.447  0.0832  0.1899  0.6262
   75TMC2    C8 1173   0.924   3.623  13.704  0.4693  0.3149 -0.5387
   75TMC2    O1 1174   0.562   3.252  13.492 -0.0487  0.0858  0.5341
   75TMC2    O2 1175   0.898   3.715  13.632 -0.0552  0.1955  0.0006
   75TMC2    O5 1176   0.922   3.632  13.837  1.1468  0.3888 -0.0017
   75TMC2    H5 1177   0.932   3.549  13.887  0.9704  1.0574  1.1450
   76TMC2    C1 1178   4.114   3.474  12.161 -0.4277  0.4046 -0.2704
   76TMC2    C2 1179   4.207   3.378  12.149 -0.7660 -0.1687 -0.2569
   76TMC2    C3 1180   4.276   3.348  12.266 -0.4214 -0.5537 -0.4821
   76TMC2    C4 1181   4.094   3.537  12.281 -0.1285  0.2450  0.6766
   76TMC2    C5 1182   4.163   3.500  12.385  0.1923  0.3607  0.4228
   76TMC2    C6 1183   4.261   3.406  12.386 -0.1821 -0.2432  0.2439
   76TMC2     C 1184   4.130   3.583  12.061  0.0867  0.4531 -0.4203
   76TMC2     O 1185   4.040   3.665  12.064 -0.2397  0.6131 -0.1392
   76TMC2     H 1186   4.221   3.322  12.057 -2.7365  0.2436 -0.8187
   76TMC2    H1 1187   4.015   3.610  12.289 -0.1497  0.0440  2.3832
   76TMC2    H2 1188   4.313   3.365  12.471  3.2830  2.9684 -0.3409
   76TMC2    C7 1189   4.153   3.583  12.508  0.6288 -0.6551 -0.3023
   76TMC2    C8 1190   4.366   3.234  12.251  0.5399 -0.1894 -0.5242
   76TMC2    O1 1191   4.082   3.680  12.511  0.3360 -0.1697  0.4778
   76TMC2    O2 1192   4.337   3.157  12.160  0.1441 -0.5835 -0.3238
   76TMC2    O5 1193   4.489   3.274  12.286  0.1501  0.0866 -0.1088
   76TMC2    H5 1194   4.497   3.344  12.354 -1.9598 -1.5372  1.8275
   77MPD2     C 1195   4.431   3.896  11.802  0.3229  0.2767 -0.3311
   77MPD2    C1 1196   4.300   3.903  11.841  0.8578  0.3692  0.6762
   77MPD2    C2 1197   4.249   3.798  11.911 -0.1215  0.1188 -0.2408
   77MPD2    C3 1198   4.318   3.684  11.943  0.6583  0.3384  0.2806
   77MPD2    C4 1199   4.458   3.690  11.921  0.8338 -0.1975 -0.5383
   77MPD2    C5 1200   4.508   3.791  11.850  0.1264 -0.2863  0.1411
   77MPD2     H 1201   4.146   3.810  11.942 -0.0641  1.9646 -0.7785
   77MPD2    H1 1202   4.528   3.614  11.954  0.0567 -1.2799 -1.3903
   77MPD2    H2 1203   4.486   3.960  11.734 -1.8440  0.9250 -1.4776
   77MPD2    H3 1204   4.615   3.774  11.837 -0.2110 -1.2934 -1.2674
   77MPD2     N 1205   4.255   3.576  12.007 -0.0731  0.4307  0.1979
   77MPD2    H5 1206   4.317   3.499  12.031 -0.0509  0.7055  1.0408
   77MPD2    N1 1207   4.211   4.000  11.797  0.4011 -0.4993  0.2931
   77MPD2    H7 1208   4.117   3.988  11.832  0.7140 -0.0383  1.3087
   78TMC2    C1 1209   0.362   0.616   1.045  0.4369 -0.4220  0.0329
   78TMC2    C2 1210   0.364   0.594   1.177  0.1260 -0.0610 -0.1542
   78TMC2    C3 1211   0.477   0.546   1.233  0.5050 -0.2571 -0.6167
   78TMC2    C4 1212   0.471   0.601   0.961  0.2095 -0.5296 -0.1176
   78TMC2    C5 1213   0.579   0.545   1.024 -0.6846  0.4735 -0.6894
   78TMC2    C6 1214   0.587   0.513   1.161 -0.1965 -0.2626  0.4139
   78TMC2     C 1215   0.230   0.632   0.978  0.6065 -0.1120  0.0516
   78TMC2     O 1216   0.224   0.606   0.858 -0.0648  0.1404 -0.0372
   78TMC2     H 1217   0.270   0.591   1.232 -0.8861  1.1350 -1.8044
   78TMC2    H1 1218   0.471   0.629   0.857  1.5773 -0.7329 -0.1668
   78TMC2    H2 1219   0.677   0.500   1.219 -0.4020  1.5790  1.1294
   78TMC2    C7 1220   0.697   0.524   0.938  0.1643 -0.9655 -0.7480
   78TMC2    C8 1221   0.487   0.555   1.376 -0.4029 -0.8509 -0.3626
   78TMC2    O1 1222   0.749   0.607   0.868  0.3949  0.3332  0.1371
   78TMC2    O2 1223   0.563   0.482   1.439  0.3944  0.6046 -0.1956
   78TMC2    O5 1224   0.437   0.677   1.407 -0.0084  0.0664 -0.0243
   78TMC2    H5 1225   0.383   0.722   1.339 -0.0300  1.0183  0.6161
   79MPD1     C 1226   4.473   0.757   0.930  0.4899  0.7395  0.0191
   79MPD1    C1 1227   4.562   0.715   0.837 -0.0237  0.4153  0.1383
   79MPD1    C2 1228   4.691   0.682   0.874  0.0104  0.6971 -0.2390
   79MPD1    C3 1229   4.731   0.690   1.008 -0.2684 -0.0707  0.4277
   79MPD1    C4 1230   4.634   0.725   1.103  0.3562  0.2930  0.1235
   79MPD1    C5 1231   4.510   0.758   1.058  0.0914  0.5771 -0.5982
   79MPD1     H 1232   0.017   0.634   0.803  1.4476 -0.4060  1.8543
   79MPD1    H1 1233   4.661   0.723   1.208  3.1039 -2.7361 -0.6186
   79MPD1    H2 1234   4.371   0.777   0.899  1.1821  2.5228 -1.1192
   79MPD1    H3 1235   4.430   0.790   1.124  0.7630  0.6825  0.1747
   79MPD1     N 1236   0.120   0.654   1.057  0.4538 -0.1288  0.2324
   79MPD1    H5 1237   0.130   0.673   1.156  0.6968 -0.3275  0.2456
   79MPD1    N1 1238   4.526   0.672   0.706  0.5548  0.7249 -0.1601
   79MPD1    H6 1239   4.604   0.697   0.646  0.6628 -0.0982 -0.3620
   79MPD1    H7 1240   4.443   0.716   0.667  1.3408  0.0491 -2.5849
   80TMC2    C1 1241   3.284   3.639  12.116  0.0957  0.6193 -1.0212
   80TMC2    C2 1242   3.385   3.675  12.036 -0.3750  0.1299 -0.0242
   80TMC2    C3 1243   3.387   3.625  11.915 -0.2399  0.5963 -0.0705
   80TMC2    C4 1244   3.194   3.537  12.086 -0.0986  0.2406  0.0115
   80TMC2    C5 1245   3.216   3.477  11.970  0.2728 -0.7392 -0.8400
   80TMC2    C6 1246   3.314   3.514  11.876 -1.0549  0.5844 -0.4528
   80TMC2     C 1247   3.270   3.715  12.234 -0.5242 -0.4451 -0.2054
   80TMC2     O 1248   3.371   3.766  12.278  0.0321  0.0636 -0.8104
   80TMC2     H 1249   3.435   3.769  12.057  1.5587 -1.0312  0.5333
   80TMC2    H1 1250   3.115   3.497  12.148 -0.6078 -0.9120 -1.4049
   80TMC2    H2 1251   3.333   3.462  11.783  1.4887  0.7080  0.0015
   80TMC2    C7 1252   3.102   3.400  11.912 -1.1255 -0.6947 -0.0255
   80TMC2    C8 1253   3.511   3.634  11.849  0.2400 -0.0499 -0.5510
   80TMC2    O1 1254   3.080   3.399  11.792  0.0987 -0.2582  0.0558
   80TMC2    O2 1255   3.616   3.671  11.901  0.5315 -0.6244  0.2162
   80TMC2    O5 1256   3.490   3.609  11.712 -0.0958  0.4148  0.1301
   80TMC2    H5 1257   3.395   3.627  11.698  0.0587  0.6185 -0.6438
   81MPD2     C 1258   3.148   3.838  12.471  0.3021 -0.4396 -0.4396
   81MPD2    C1 1259   3.080   3.803  12.356  0.4278 -0.4154 -0.8588
   81MPD2    C2 1260   2.942   3.820  12.346 -0.5140  0.6836  0.6143
   81MPD2    C3 1261   2.871   3.892  12.448  0.0651  0.3607 -0.0370
   81MPD2    C4 1262   2.945   3.923  12.564 -0.2786 -0.0301 -0.4617
   81MPD2    C5 1263   3.078   3.899  12.572  0.4071  0.0213  0.5663
   81MPD2     H 1264   2.890   3.784  12.258  1.4513 -4.9787  1.7855
   81MPD2    H1 1265   2.894   3.973  12.646 -0.5045 -0.0377 -0.5982
   81MPD2    H2 1266   3.250   3.807  12.493  0.7716 -0.3020 -2.4922
   81MPD2    H3 1267   3.132   3.930  12.661  0.4588  1.3675  0.0790
   81MPD2     N 1268   2.731   3.891  12.449  0.6449 -0.2738 -0.2762
   81MPD2    H5 1269   2.692   3.934  12.533  0.6967 -2.9085  1.1104
   81MPD2    N1 1270   3.140   3.740  12.251  0.2159 -0.8137  0.3402
   81MPD2    H7 1271   3.084   3.708  12.173  0.4036 -0.0600 -0.1041
   82TMC2    C1 1272   0.958   2.572  11.694  0.7230  0.0377  0.0419
   82TMC2    C2 1273   1.060   2.658  11.683  0.0359  0.2466 -0.2470
   82TMC2    C3 1274   1.187   2.618  11.723  0.3814  0.0645  0.5676
   82TMC2    C4 1275   0.975   2.449  11.751  0.1544  0.0922  0.1319
   82TMC2    C5 1276   1.101   2.398  11.777  0.2981 -0.1668 -0.3088
   82TMC2    C6 1277   1.213   2.487  11.773 -0.3473 -1.0765  0.1681
   82TMC2     C 1278   0.830   2.601  11.632  0.1369  0.9382  0.1902
   82TMC2     O 1279   0.845   2.676  11.537  0.0656  0.1224  0.3403
   82TMC2     H 1280   1.045   2.755  11.638  3.4104  1.2272  0.7181
   82TMC2    H1 1281   0.893   2.379  11.759 -0.5018  0.8891  0.3564
   82TMC2    H2 1282   1.313   2.457  11.802  0.5790  0.8659 -1.0216
   82TMC2    C7 1283   1.112   2.278  11.858 -0.3359  0.4701  0.7728
   82TMC2    C8 1284   1.296   2.690  11.674 -0.1396  0.4886  0.1117
   82TMC2    O1 1285   1.031   2.185  11.837  0.3055  0.0100 -0.2730
   82TMC2    O2 1286   1.413   2.686  11.717  0.3935  0.5062  0.4744
   82TMC2    O5 1287   1.265   2.702  11.548  0.1629  0.6935  0.6831
   82TMC2    H5 1288   1.190   2.644  11.525  0.3212  0.1810  1.4558
   83MPD2     C 1289   0.330   2.510  11.536  0.1671 -0.3931  0.3577
   83MPD2    C1 1290   0.427   2.571  11.453  0.2586  0.4362 -0.3375
   83MPD2    C2 1291   0.560   2.582  11.500  0.5292 -1.1151 -0.4325
   83MPD2    C3 1292   0.598   2.521  11.619 -1.0216  0.1917  0.4869
   83MPD2    C4 1293   0.493   2.461  11.695 -0.5430  0.6014 -0.5488
   83MPD2    C5 1294   0.366   2.453  11.656 -0.6660  0.4249  0.0414
   83MPD2     H 1295   0.632   2.641  11.445  0.6626 -1.6128 -0.7999
   83MPD2    H1 1296   0.503   2.415  11.793  2.1738 -2.5925 -2.3531
   83MPD2    H2 1297   0.230   2.501  11.495  0.0108  1.5030  0.2798
   83MPD2    H3 1298   0.295   2.408  11.725  1.5885 -3.1949  0.0052
   83MPD2     N 1299   0.724   2.523  11.672 -0.3490  0.1849 -0.8665
   83MPD2    H5 1300   0.747   2.469  11.755  0.4515  1.5955 -0.1668
   83MPD2    N1 1301   0.384   2.613  11.324 -0.1716  0.3924 -0.1478
   83MPD2    H7 1302   0.288   2.601  11.292  0.1063 -1.6242 -0.2531
   84TMC2    C1 1303   2.028   2.388  11.210  0.4515 -1.0837  0.7344
   84TMC2    C2 1304   2.095   2.328  11.318  0.4606  0.5942 -1.2420
   84TMC2    C3 1305   2.171   2.218  11.290 -0.6730  0.0382  0.4377
   84TMC2    C4 1306   2.038   2.344  11.079  0.0321 -0.0461 -0.1883
   84TMC2    C5 1307   2.106   2.229  11.070 -0.9093 -0.1369  0.1341
   84TMC2    C6 1308   2.178   2.164  11.168 -0.1975  0.1148 -0.5566
   84TMC2     C 1309   1.993   2.531  11.232  0.4180  0.6166 -0.2949
   84TMC2     O 1310   2.022   2.581  11.339  0.4451 -0.1531 -0.1035
   84TMC2     H 1311   2.069   2.362  11.418 -1.1642 -1.6409 -0.8973
   84TMC2    H1 1312   1.983   2.377  10.991 -1.1548  0.9280  0.9113
   84TMC2    H2 1313   2.230   2.070  11.154 -1.6028 -0.8109  0.3402
   84TMC2    C7 1314   2.100   2.171  10.938  0.0098 -0.1230  0.3031
   84TMC2    C8 1315   2.223   2.136  11.403 -0.3905 -0.0028 -0.4428
   84TMC2    O1 1316   1.995   2.175  10.881 -0.4507 -0.2069  0.0565
   84TMC2    O2 1317   2.264   2.018  11.395 -0.4611  0.2496 -0.0588
   84TMC2    O5 1318   2.197   2.197  11.520 -0.1890  0.1406  0.0254
   84TMC2    H5 1319   2.200   2.294  11.501 -0.3314  0.1551  0.0773
   85TMC2    C1 1320   3.383   0.439  15.418  0.5328  0.3984  0.2960
   85TMC2    C2 1321   3.272   0.507  15.377 -0.5696  0.5600 -0.4376
   85TMC2    C3 1322   3.291   0.591  15.274 -0.7506  0.7292 -0.6436
   85TMC2    C4 1323   3.511   0.463  15.379 -0.2484 -0.3110  0.3763
   85TMC2    C5 1324   3.528   0.539  15.266  0.4841 -0.6331 -0.0877
   85TMC2    C6 1325   3.417   0.603  15.211 -0.1174 -0.0181 -0.0511
   85TMC2     C 1326   3.374   0.385  15.554  0.4840  1.1094 -0.1800
   85TMC2     O 1327   3.470   0.409  15.627  0.6669 -0.0726  0.3328
   85TMC2     H 1328   3.175   0.508  15.425 -0.4360  0.7675 -0.1753
   85TMC2    H1 1329   3.596   0.407  15.416 -1.2175 -1.0626  1.4634
   85TMC2    H2 1330   3.430   0.677  15.133 -1.1807 -1.4842 -1.6023
   85TMC2    C7 1331   3.644   0.516  15.180 -0.2231  0.4723  0.5380
   85TMC2    C8 1332   3.193   0.692  15.254  0.3428 -0.5591  0.3326
   85TMC2    O1 1333   3.702   0.408  15.199 -0.2846 -0.1605 -0.2937
   85TMC2    O2 1334   3.074   0.665  15.254 -0.4686 -0.2947  0.1178
   85TMC2    O5 1335   3.261   0.805  15.206  0.3642 -0.1746 -0.0567
   85TMC2    H5 1336   3.358   0.792  15.212  0.4704  1.3908  1.4547
   86MPD2     C 1337   3.162   0.110  15.931  0.3316  0.6909 -0.5901
   86MPD2    C1 1338   3.086   0.090  15.816  0.6389 -0.1546  0.4007
   86MPD2    C2 1339   3.119   0.156  15.697 -0.0547 -0.3158  0.5411
   86MPD2    C3 1340   3.226   0.249  15.691 -0.0930 -0.5051  0.1827
   86MPD2    C4 1341   3.303   0.254  15.809 -0.5711 -0.2276 -0.0099
   86MPD2    C5 1342   3.273   0.189  15.926 -0.0108  0.1448 -1.0866
   86MPD2     H 1343   3.063   0.134  15.607 -1.1177 -0.0578  1.1296
   86MPD2    H1 1344   3.396   0.311  15.810 -1.0041  0.5220 -2.0506
   86MPD2    H2 1345   3.145   0.059  16.025  0.3710 -1.7983 -1.9077
   86MPD2    H3 1346   3.325   0.210  16.019 -0.1331 -1.2764 -0.6962
   86MPD2     N 1347   3.260   0.311  15.570 -0.8866 -0.7275  0.4903
   86MPD2    H5 1348   3.190   0.305  15.496  0.5122  4.4582 -1.2593
   86MPD2    N1 1349   2.987   4.734  15.809 -0.0418 -0.2613  0.0656
   86MPD2    H7 1350   2.934   4.717  15.724  0.1245  1.0566 -0.2974
   87TMC2    C1 1351   0.618   3.657   0.454 -0.6383 -0.4054 -0.3142
   87TMC2    C2 1352   0.522   3.627   0.358 -0.7193  0.2196 -0.5980
   87TMC2    C3 1353   0.395   3.670   0.379  0.3814 -0.9931  0.1415
   87TMC2    C4 1354   0.589   3.718   0.571  0.9250 -0.6774 -0.6532
   87TMC2    C5 1355   0.454   3.743   0.595  0.8569 -0.0169  0.2014
   87TMC2    C6 1356   0.360   3.728   0.497  0.3658 -0.0499  1.5807
   87TMC2     C 1357   0.753   3.611   0.424 -0.3402 -0.5806 -0.5976
   87TMC2     O 1358   0.761   3.526   0.333 -0.1377 -0.1776  0.2589
   87TMC2     H 1359   0.550   3.568   0.271  0.0724 -1.0601  0.5121
   87TMC2    H1 1360   0.664   3.739   0.646  1.7036  1.3854 -2.0224
   87TMC2    H2 1361   0.257   3.758   0.513  0.9484  1.4065  2.6979
   87TMC2    C7 1362   0.425   3.856   0.681 -0.3891  0.5574  0.9704
   87TMC2    C8 1363   0.309   3.694   0.271  0.5763  0.4656  0.3501
   87TMC2    O1 1364   0.336   3.924   0.642 -0.1204 -0.4174 -0.9083
   87TMC2    O2 1365   0.201   3.751   0.282  0.0497  0.2078 -0.3705
   87TMC2    O5 1366   0.383   3.700   0.156  0.2452  0.5703  0.4869
   87TMC2    H5 1367   0.476   3.716   0.182  1.0757 -2.9773 -0.1728
   88MPD2     C 1368   0.593   4.020   0.964  0.7693  0.2092 -0.5529
   88MPD2    C1 1369   0.505   4.005   0.862  0.1524 -0.4201 -0.3502
   88MPD2    C2 1370   0.410   4.105   0.851  0.4406  0.8015 -0.1654
   88MPD2    C3 1371   0.422   4.224   0.916  0.0873 -0.5693  0.3019
   88MPD2    C4 1372   0.522   4.238   1.011 -0.1795 -0.3425  0.4515
   88MPD2    C5 1373   0.602   4.133   1.040 -0.3486  0.0007  0.0546
   88MPD2     H 1374   0.331   4.100   0.777 -0.8613 -1.0901  1.3588
   88MPD2    H1 1375   0.528   4.331   1.067 -0.3302 -0.6336  0.9452
   88MPD2    H2 1376   0.660   3.938   0.989 -0.9423 -0.9667  0.1842
   88MPD2    H3 1377   0.680   4.140   1.114  2.1084  0.3632 -2.5739
   88MPD2     N 1378   0.346   4.343   0.884 -0.3240 -0.3007  0.3381
   88MPD2    H5 1379   0.381   4.430   0.922  1.9515 -0.5930 -1.0813
   88MPD2    N1 1380   0.510   3.884   0.783  0.5199 -0.0200  0.1302
   88MPD2    H7 1381   0.588   3.821   0.795  0.4735  0.0828  0.9605
   89TMC2    C1 1382   2.215   3.020   1.485  0.3648  0.2261 -0.4127
   89TMC2    C2 1383   2.277   2.904   1.426  0.0622 -0.3723 -0.3583
   89TMC2    C3 1384   2.410   2.889   1.461 -1.0484 -0.8831  0.3171
   89TMC2    C4 1385   2.278   3.118   1.554  0.2075  0.2241  0.2758
   89TMC2    C5 1386   2.408   3.086   1.577  0.6611 -0.3001  0.1776
   89TMC2    C6 1387   2.472   2.979   1.533 -0.2992  0.1735  0.3243
   89TMC2     C 1388   2.071   3.016   1.488  0.1513 -0.5187 -0.2892
   89TMC2     O 1389   2.007   3.121   1.472 -0.2589 -0.8117  0.0802
   89TMC2     H 1390   2.227   2.835   1.359 -0.1735  0.2804 -0.8523
   89TMC2    H1 1391   2.221   3.186   1.616 -1.4159 -0.5892 -0.3333
   89TMC2    H2 1392   2.574   2.964   1.568 -0.1037  1.8997  0.5084
   89TMC2    C7 1393   2.480   3.165   1.670  0.4309  0.8634 -1.0985
   89TMC2    C8 1394   2.487   2.780   1.410  0.1577 -0.0443 -0.3327
   89TMC2    O1 1395   2.416   3.226   1.752 -0.1194 -0.4642 -0.3388
   89TMC2    O2 1396   2.429   2.688   1.353 -0.2568  0.2143 -0.7190
   89TMC2    O5 1397   2.594   2.849   1.358  0.8495  0.3766 -0.0321
   89TMC2    H5 1398   2.660   2.901   1.409  2.1395 -0.6474 -0.6672
   90MPD2     C 1399   1.628   2.801   1.652  0.1172  0.2182  0.6706
   90MPD2    C1 1400   1.715   2.698   1.629 -0.4766 -0.5060  0.8511
   90MPD2    C2 1401   1.844   2.725   1.581 -0.2361  0.1512  0.4886
   90MPD2    C3 1402   1.883   2.861   1.559  0.1566 -0.4446  0.5325
   90MPD2    C4 1403   1.798   2.959   1.593  0.1420  0.3907 -0.4119
   90MPD2    C5 1404   1.673   2.936   1.640 -0.2997 -0.4286  0.1446
   90MPD2     H 1405   1.911   2.645   1.554  1.6636  2.9528 -3.1713
   90MPD2    H1 1406   1.820   3.065   1.586 -0.5299  0.5412 -0.3055
   90MPD2    H2 1407   1.525   2.782   1.678  0.7322 -2.4270  1.1242
   90MPD2    H3 1408   1.613   3.023   1.664 -0.0904 -0.5359  1.0684
   90MPD2     N 1409   2.018   2.889   1.515  0.9661  0.0616  0.7258
   90MPD2    H5 1410   2.083   2.812   1.504  1.7540  0.9808 -0.8811
   90MPD2    N1 1411   1.691   2.560   1.648  0.1761  0.5861 -0.3827
   90MPD2    H7 1412   1.761   2.497   1.609  0.2117  1.4730 -1.7380
   91TMC2    C1 1413   2.948   1.087  16.268 -0.3199  0.0949  0.0503
   91TMC2    C2 1414   3.000   1.041  16.384  0.5456  0.6868 -0.2275
   91TMC2    C3 1415   2.924   0.948  16.455 -0.1963 -0.1305 -0.2281
   91TMC2    C4 1416   2.842   1.037  16.203  0.7047 -1.0559  0.0714
   91TMC2    C5 1417   2.773   0.942  16.277  0.0930  0.2002  0.1877
   91TMC2    C6 1418   2.810   0.898  16.401  0.2159 -0.3928 -0.8207
   91TMC2     C 1419   3.042   1.178  16.197  0.1369 -0.0252 -0.1980
   91TMC2     O 1420   2.999   1.209  16.085 -0.7498 -0.3499  0.2610
   91TMC2     H 1421   3.077   1.100  16.434 -0.0438 -0.5216  2.0934
   91TMC2    H1 1422   2.836   1.048  16.096  0.1818 -3.2349 -0.1150
   91TMC2    H2 1423   2.739   0.830  16.449  0.5322 -0.3539 -0.2924
   91TMC2    C7 1424   2.701   0.843  16.205 -0.0290  0.1501 -0.7623
   91TMC2    C8 1425   2.958   0.910  16.593  0.6575  0.5187 -0.1086
   91TMC2    O1 1426   2.696   0.725  16.251 -0.0217  0.7206 -0.2229
   91TMC2    O2 1427   2.885   0.850  16.669  0.2062  0.3877  0.2833
   91TMC2    O5 1428   3.084   0.947  16.620 -0.0682 -0.0626 -0.4955
   91TMC2    H5 1429   3.124   1.010  16.556 -1.4654  0.5329 -0.7809
   92MPD2     C 1430   3.261   1.382  16.123 -0.3663 -0.4615 -0.3398
   92MPD2    C1 1431   3.279   1.273  16.207 -1.0077 -0.3695 -0.0731
   92MPD2    C2 1432   3.407   1.265  16.261  0.5813 -0.1327 -0.2017
   92MPD2    C3 1433   3.509   1.355  16.230 -0.3155 -0.0410  0.1616
   92MPD2    C4 1434   3.486   1.461  16.141  0.4767 -0.5222 -0.0529
   92MPD2    C5 1435   3.359   1.474  16.085  0.5226 -1.0431 -0.2682
   92MPD2     H 1436   3.432   1.196  16.341 -0.6136  1.1223  1.2442
   92MPD2    H1 1437   3.571   1.523  16.114 -0.1381 -0.0475 -0.8850
   92MPD2    H2 1438   3.161   1.402  16.085 -0.6142 -1.0336  0.0107
   92MPD2    H3 1439   3.341   1.565  16.030  1.9161  1.6239  3.7404
   92MPD2     N 1440   3.636   1.318  16.281  0.1201  0.2537  0.9007
   92MPD2    H5 1441   3.628   1.240  16.346  0.0842  1.6275  2.5467
   92MPD2    N1 1442   3.169   1.190  16.253  0.0115 -0.1156  0.2130
   92MPD2    H7 1443   3.190   1.125  16.328  1.4160 -1.0622 -0.9986
   93TMC2    C1 1444   0.843   1.095  13.914 -1.2441  0.0356  0.0547
   93TMC2    C2 1445   0.757   1.201  13.937  0.3709  0.1116 -0.1537
   93TMC2    C3 1446   0.784   1.325  13.874  0.3273 -0.1052 -0.1061
   93TMC2    C4 1447   0.929   1.110  13.815  0.1746  0.4417 -0.1235
   93TMC2    C5 1448   0.958   1.233  13.760  0.4903 -0.4635 -0.3707
   93TMC2    C6 1449   0.889   1.347  13.787 -0.5695 -0.7087 -0.7344
   93TMC2     C 1450   0.797   0.958  13.946 -0.2270  0.2187  0.2977
   93TMC2     O 1451   0.873   0.869  13.918 -0.0236  0.3253 -0.3322
   93TMC2     H 1452   0.713   1.209  14.035  1.8056  2.5418  0.2878
   93TMC2    H1 1453   0.983   1.027  13.771  2.6092  0.3718  3.0292
   93TMC2    H2 1454   0.900   1.436  13.726  1.1510 -0.0319  0.5556
   93TMC2    C7 1455   1.080   1.232  13.677  0.2776  0.5463 -0.3815
   93TMC2    C8 1456   0.715   1.439  13.929 -0.0821 -0.5016  0.4742
   93TMC2    O1 1457   1.151   1.131  13.678 -0.0413  0.0670 -0.0542
   93TMC2    O2 1458   0.749   1.556  13.909 -0.3733  0.0063 -0.0500
   93TMC2    O5 1459   0.590   1.397  13.966 -1.1115  0.1163 -0.5470
   93TMC2    H5 1460   0.570   1.300  13.966 -3.0000  0.4853  0.7919
   94MPD2     C 1461   0.663   0.705  14.010  0.7660  0.4059  0.3306
   94MPD2    C1 1462   0.601   0.817  13.966  0.4360  0.9684 -0.4873
   94MPD2    C2 1463   0.464   0.819  13.942  0.1978  1.7499  0.1110
   94MPD2    C3 1464   0.391   0.702  13.937  0.4418 -0.5718 -0.1291
   94MPD2    C4 1465   0.450   0.582  13.979  0.0130 -0.3718 -0.0239
   94MPD2    C5 1466   0.585   0.592  14.004 -0.6381 -0.0912  0.4527
   94MPD2     H 1467   0.417   0.913  13.913  0.4934  2.8278  3.1637
   94MPD2    H1 1468   0.410   0.482  13.987 -0.5105 -0.0543  1.2964
   94MPD2    H2 1469   0.767   0.696  14.041  0.5375 -0.6748  0.8021
   94MPD2    H3 1470   0.641   0.504  14.033 -0.9134 -0.3468  0.2121
   94MPD2     N 1471   0.261   0.714  13.886 -0.0765  0.2342 -0.2957
   94MPD2    H5 1472   0.234   0.810  13.868  1.2385  0.3143 -1.9509
   94MPD2    N1 1473   0.664   0.942  13.967  0.1205  0.4675  0.0068
   94MPD2    H7 1474   0.605   1.024  13.954  0.6857  0.8257 -0.3174
   95TMC2    C1 1475   4.717   2.899  15.774  0.1317 -0.5029  0.3190
   95TMC2    C2 1476   4.610   2.814  15.746 -0.0592  0.2970  0.4089
   95TMC2    C3 1477   4.522   2.789  15.849  0.9359 -0.2244 -0.8364
   95TMC2    C4 1478   0.004   2.938  15.902 -0.1717 -0.8122 -0.1509
   95TMC2    C5 1479   4.660   2.897  16.002  0.3997 -1.1062  0.1085
   95TMC2    C6 1480   4.554   2.822  15.975 -0.6369 -0.1863 -0.7145
   95TMC2     C 1481   0.086   2.924  15.685  0.0716 -0.4043  0.1573
   95TMC2     O 1482   0.175   3.002  15.718 -0.5341 -0.0566 -0.3052
   95TMC2     H 1483   4.566   2.811  15.647 -0.9895  0.4210  0.8204
   95TMC2    H1 1484   0.095   2.994  15.922 -0.7814 -0.4530  1.6572
   95TMC2    H2 1485   4.485   2.798  16.055 -0.0952  2.5726  0.6042
   95TMC2    C7 1486   4.695   2.921  16.145  0.6742  0.2864 -0.3836
   95TMC2    C8 1487   4.392   2.737  15.821 -0.0047 -0.5870 -0.1622
   95TMC2    O1 1488   4.662   2.829  16.221  0.1040  0.4660 -0.2817
   95TMC2    O2 1489   4.298   2.760  15.898  0.4068 -0.5648  0.3370
   95TMC2    O5 1490   4.390   2.645  15.721  0.4563  0.1518  0.8181
   95TMC2    H5 1491   4.477   2.624  15.679 -0.9301 -1.2642 -1.3596
   96MPD2     C 1492   0.335   2.819  15.244 -0.5435 -0.5093  0.5944
   96MPD2    C1 1493   0.370   2.908  15.343 -0.5733  0.6167  0.4127
   96MPD2    C2 1494   0.275   2.931  15.448  0.5276 -0.1742 -0.7252
   96MPD2    C3 1495   0.160   2.856  15.460 -0.8720  0.5058 -0.5846
   96MPD2    C4 1496   0.132   2.764  15.367 -0.1555 -0.0561 -0.0158
   96MPD2    C5 1497   0.221   2.748  15.260  0.3964  0.8095 -0.6833
   96MPD2     H 1498   0.296   3.005  15.524 -2.6538 -1.1294  1.0585
   96MPD2    H1 1499   0.047   2.698  15.378 -0.0624 -0.1915 -0.1033
   96MPD2    H2 1500   0.392   2.816  15.152 -0.6306  1.3238  0.4896
   96MPD2    H3 1501   0.198   2.671  15.188  0.7676  1.2985 -1.3244
   96MPD2     N 1502   0.072   2.848  15.573  0.1997  0.7000 -0.1132
   96MPD2    H5 1503   4.740   2.777  15.570  1.8692 -1.0315  0.4496
   96MPD2    N1 1504   0.497   2.969  15.336 -0.6040 -0.6905 -0.0428
   96MPD2    H7 1505   0.550   2.938  15.256  1.5460  1.2156  0.6496
   97TMC2    C1 1506   2.954   2.228   0.410  0.3236 -0.1482  0.2913
   97TMC2    C2 1507   2.991   2.206   0.278  0.2984 -0.4816  0.0544
   97TMC2    C3 1508   3.041   2.317   0.218  0.0810  0.0673  0.5680
   97TMC2    C4 1509   2.991   2.339   0.486 -0.4858 -0.2779  0.0601
   97TMC2    C5 1510   3.075   2.428   0.419 -0.2116 -0.3789  0.5892
   97TMC2    C6 1511   3.096   2.420   0.287 -0.4289  0.7833  0.5095
   97TMC2     C 1512   2.922   2.111   0.490 -0.0932  0.5970 -0.2947
   97TMC2     O 1513   2.898   2.117   0.609 -0.2052 -0.1805 -0.4683
   97TMC2     H 1514   2.955   2.126   0.216 -2.3575 -0.8446  2.0708
   97TMC2    H1 1515   2.966   2.333   0.591 -1.0296  0.8979 -0.0000
   97TMC2    H2 1516   3.138   2.506   0.235 -0.1178  0.7041  0.6289
   97TMC2    C7 1517   3.189   2.464   0.504 -0.2085  0.6791 -0.1257
   97TMC2    C8 1518   3.074   2.312   0.078  0.1731 -0.0738 -0.4065
   97TMC2    O1 1519   3.158   2.489   0.620 -0.1653 -0.4425 -0.1932
   97TMC2    O2 1520   3.163   2.387   0.038  0.5300  0.0402 -0.3600
   97TMC2    O5 1521   2.968   2.262   0.002  0.1817 -0.1016  0.2519
   97TMC2    H5 1522   2.893   2.232   0.058 -0.1896  0.6601  0.1635
   98MPD2     C 1523   2.979   1.589   0.546  0.6498 -0.5763  0.8818
   98MPD2    C1 1524   2.979   1.697   0.632  0.0611 -0.1518 -0.6463
   98MPD2    C2 1525   2.963   1.832   0.589 -0.0511 -0.2986 -0.5034
   98MPD2    C3 1526   2.938   1.858   0.458  0.4724 -0.3750  0.9626
   98MPD2    C4 1527   2.920   1.757   0.368 -0.3381  0.3409  0.4770
   98MPD2    C5 1528   2.939   1.625   0.417 -0.6711 -0.2959 -0.3577
   98MPD2     H 1529   2.985   1.914   0.656  3.3416 -0.1577 -1.7567
   98MPD2    H1 1530   2.905   1.783   0.264  1.6307 -0.6054 -0.0293
   98MPD2    H2 1531   3.013   1.489   0.570 -0.5053 -2.1253 -3.7616
   98MPD2    H3 1532   2.926   1.541   0.351 -0.7240 -0.2063 -0.4612
   98MPD2     N 1533   2.928   1.995   0.411 -0.6804  0.5257 -0.0708
   98MPD2    H5 1534   2.903   2.000   0.313 -2.3218  2.0662  0.4353
   98MPD2    N1 1535   3.014   1.665   0.766 -0.1720 -0.3936 -0.3332
   98MPD2    H7 1536   3.010   1.565   0.785  1.2008 -0.0593  1.7537
   99TMC2    C1 1537   2.477   3.433   1.362 -0.1371  0.3309 -0.6431
   99TMC2    C2 1538   2.579   3.490   1.435 -0.2288 -0.9946  0.1785
   99TMC2    C3 1539   2.579   3.627   1.460 -0.8470 -0.4200 -0.2830
   99TMC2    C4 1540   2.373   3.516   1.328  0.5416 -0.6650  0.1508
   99TMC2    C5 1541   2.373   3.648   1.357  0.0670  0.1355 -1.2474
   99TMC2    C6 1542   2.476   3.709   1.425 -0.4385  0.0681 -0.6822
   99TMC2     C 1543   2.496   3.297   1.312 -0.2545  0.6305  0.7085
   99TMC2     O 1544   2.601   3.238   1.334 -0.1762 -0.3965  0.2961
   99TMC2     H 1545   2.672   3.435   1.447 -0.1903 -0.7894  0.8397
   99TMC2    H1 1546   2.290   3.478   1.269 -0.7239  2.1882  0.0778
   99TMC2    H2 1547   2.470   3.812   1.459  0.6105 -0.4003  0.9155
   99TMC2    C7 1548   2.250   3.733   1.354 -0.1571  0.0765  0.0252
   99TMC2    C8 1549   2.710   3.685   1.465 -0.1812  0.1503 -0.3502
   99TMC2    O1 1550   2.272   3.850   1.375  0.3433  0.2121  0.3695
   99TMC2    O2 1551   2.813   3.623   1.444  0.9384 -0.4402 -0.9437
   99TMC2    O5 1552   2.702   3.801   1.532 -0.1853 -0.1564  0.0586
   99TMC2    H5 1553   2.613   3.812   1.570  1.4341 -0.3144  3.9644
  100MPD2     C 1554   2.472   3.053   1.157 -0.4557  0.0219  0.1645
  100MPD2    C1 1555   2.370   3.137   1.166 -0.1269  0.3310 -0.2278
  100MPD2    C2 1556   2.248   3.107   1.112 -0.1002  0.5838  0.0317
  100MPD2    C3 1557   2.230   2.981   1.047 -0.0461 -0.4543 -0.1472
  100MPD2    C4 1558   2.335   2.893   1.033 -0.1553  0.3183 -0.0240
  100MPD2    C5 1559   2.457   2.929   1.096  1.1045 -0.0049  0.2905
  100MPD2     H 1560   2.165   3.177   1.116  0.3141  1.0632  0.1684
  100MPD2    H1 1561   2.333   2.794   0.988  2.3170 -0.1508  0.9108
  100MPD2    H2 1562   2.571   3.066   1.199 -0.7015  2.2923  0.0163
  100MPD2    H3 1563   2.543   2.863   1.097  0.6085 -0.7033 -2.5662
  100MPD2     N 1564   2.091   2.961   1.013 -0.4238  0.2633  0.1873
  100MPD2    H5 1565   2.030   3.039   1.032  1.1140  1.7188 -0.9175
  100MPD2    N1 1566   2.387   3.255   1.241  0.4454  0.6432  0.4892
  100MPD2    H7 1567   2.306   3.315   1.241 -1.5947 -2.1093  2.0752
  101TMC2    C1 1568   1.332   4.204  12.563  0.1085 -0.1821  0.1478
  101TMC2    C2 1569   1.198   4.224  12.552 -0.0313  0.5969  0.1420
  101TMC2    C3 1570   1.146   4.236  12.426  0.2115 -0.1349 -0.3135
  101TMC2    C4 1571   1.416   4.203  12.455 -0.1722  0.1357 -0.7875
  101TMC2    C5 1572   1.360   4.230  12.331 -0.6278  0.2667  0.4339
  101TMC2    C6 1573   1.228   4.231  12.312 -0.3998 -0.3741  0.0107
  101TMC2     C 1574   1.363   4.105  12.667 -0.4166 -0.5455 -0.5262
  101TMC2     O 1575   1.271   4.041  12.710  0.0520  0.3755  0.1261
  101TMC2     H 1576   1.139   4.227  12.643 -1.1625  1.6051 -0.6255
  101TMC2    H1 1577   1.520   4.179  12.472 -0.3110 -0.0259 -0.1504
  101TMC2    H2 1578   1.183   4.236  12.213 -1.9457 -0.6055  0.7029
  101TMC2    C7 1579   1.459   4.246  12.226  0.3740  0.2426  0.3228
  101TMC2    C8 1580   1.002   4.210  12.408 -0.1360 -0.0775 -0.0500
  101TMC2    O1 1581   1.565   4.278  12.268 -0.8341 -0.0186  0.2358
  101TMC2    O2 1582   0.958   4.151  12.313 -0.0929  0.4090  0.1625
  101TMC2    O5 1583   0.939   4.306  12.482  0.3573 -0.1960  0.2874
  101TMC2    H5 1584   0.991   4.377  12.526  0.1280  1.7542 -2.5234
  102MPD2     C 1585   1.704   4.013  12.784 -0.0498  0.0611  0.0309
  102MPD2    C1 1586   1.566   4.020  12.785  0.3600  0.1787 -0.0721
  102MPD2    C2 1587   1.500   3.943  12.873  0.1087 -0.4012  0.5047
  102MPD2    C3 1588   1.561   3.865  12.970  0.8470 -0.4092  0.4258
  102MPD2    C4 1589   1.699   3.872  12.975 -0.1643 -0.1027  0.4747
  102MPD2    C5 1590   1.763   3.944  12.879  0.2887  0.0226  0.5360
  102MPD2     H 1591   1.392   3.945  12.863  0.1304  1.0475  0.5222
  102MPD2    H1 1592   1.760   3.831  13.054  1.5858 -0.2645 -0.9586
  102MPD2    H2 1593   1.760   4.051  12.699 -1.4988 -0.9090 -1.3576
  102MPD2    H3 1594   1.870   3.929  12.866 -0.2829 -2.2159 -1.4333
  102MPD2     N 1595   1.480   3.781  13.042  0.0283 -0.1794 -0.0064
  102MPD2    H5 1596   1.381   3.774  13.018  0.1076  1.2961 -0.8099
  102MPD2    N1 1597   1.501   4.106  12.696  0.3455 -0.8293 -0.4172
  102MPD2    H7 1598   1.561   4.168  12.642 -1.2695  0.8888 -0.2562
  103TMC2    C1 1599   0.057   3.768  12.935 -0.0297 -0.4605 -0.3671
  103TMC2    C2 1600   0.150   3.830  12.859 -0.1773 -0.1400  0.3494
  103TMC2    C3 1601   0.258   3.893  12.919  0.4569  0.4514 -0.0206
  103TMC2    C4 1602   0.066   3.774  13.075 -0.2159  0.4310 -0.1959
  103TMC2    C5 1603   0.172   3.844  13.133  0.1100 -0.3215 -0.3169
  103TMC2    C6 1604   0.266   3.900  13.056 -0.6578  0.1615  0.5169
  103TMC2     C 1605   4.683   3.704  12.875  0.2590 -0.1399  0.4722
  103TMC2     O 1606   4.696   3.670  12.757 -0.1587  0.1592  0.4032
  103TMC2     H 1607   0.140   3.822  12.752  1.6816 -0.8171  0.2177
  103TMC2    H1 1608   0.005   3.703  13.130  0.4191  0.6702  0.8122
  103TMC2    H2 1609   0.337   3.966  13.104 -0.9412  0.4621  0.5228
  103TMC2    C7 1610   0.220   3.789  13.261  0.0580 -0.0899 -0.3148
  103TMC2    C8 1611   0.332   3.985  12.829 -0.4992 -0.2349 -0.0120
  103TMC2    O1 1612   0.138   3.730  13.326  0.2421  0.0889 -0.0298
  103TMC2    O2 1613   0.283   4.004  12.717  0.6187 -0.0500  0.6957
  103TMC2    O5 1614   0.449   4.032  12.875 -0.5112 -0.2282 -0.8084
  103TMC2    H5 1615   0.485   3.988  12.955  0.9717  1.9299 -0.2765
  104MPD2     C 1616   4.320   3.741  12.964  0.6183 -0.0270 -0.0372
  104MPD2    C1 1617   4.430   3.708  12.887 -0.4877 -0.0481  0.1651
  104MPD2    C2 1618   4.412   3.664  12.756 -0.7047 -0.6678 -0.1053
  104MPD2    C3 1619   4.284   3.637  12.713 -0.1284 -0.0552  0.3999
  104MPD2    C4 1620   4.174   3.665  12.788 -0.7455 -0.0360 -0.2681
  104MPD2    C5 1621   4.194   3.724  12.914 -0.3540 -0.5101 -0.2140
  104MPD2     H 1622   4.494   3.639  12.690 -1.1475 -3.5403  0.4074
  104MPD2    H1 1623   4.075   3.670  12.744 -0.2558 -0.3119 -1.3926
  104MPD2    H2 1624   4.330   3.788  13.061  1.0189  2.4587 -1.2811
  104MPD2    H3 1625   4.111   3.759  12.974  1.0739 -1.1089  2.1180
  104MPD2     N 1626   4.267   3.583  12.582 -0.0305  0.5239 -0.0263
  104MPD2    H5 1627   4.351   3.535  12.551  0.7049 -0.4048  3.3727
  104MPD2    N1 1628   4.560   3.725  12.943 -0.3965  0.4660  0.4778
  104MPD2    H7 1629   4.555   3.760  13.038  1.0937 -0.0188  0.7366
  105TMC2    C1 1630   1.467   3.027   0.160  0.0420  0.1123 -0.7073
  105TMC2    C2 1631   1.365   2.974   0.082  0.1735 -1.4666 -0.0385
  105TMC2    C3 1632   1.254   3.057   0.062 -0.3692  0.0953  0.5401
  105TMC2    C4 1633   1.468   3.155   0.199  0.2360 -0.7540  0.3340
  105TMC2    C5 1634   1.351   3.221   0.197  0.1880  0.2563  0.0593
  105TMC2    C6 1635   1.240   3.173   0.133 -0.2020 -0.1771  0.3581
  105TMC2     C 1636   1.592   2.969   0.123 -0.7712  0.7220 -0.0110
  105TMC2     O 1637   1.666   2.933   0.214 -0.2983 -0.3322 -0.7438
  105TMC2     H 1638   1.388   2.882   0.029 -0.7847 -1.9163  0.3114
  105TMC2    H1 1639   1.565   3.192   0.229 -0.3937  2.8094 -2.1091
  105TMC2    H2 1640   1.146   3.227   0.133  0.2429  0.5828  4.0731
  105TMC2    C7 1641   1.344   3.336   0.283  0.0822 -0.6307 -0.3075
  105TMC2    C8 1642   1.146   3.027  17.729  0.1289  0.3030  0.1366
  105TMC2    O1 1643   1.447   3.371   0.336  0.3704  0.1599 -0.8165
  105TMC2    O2 1644   1.048   3.095  17.710  0.4764 -0.6892 -0.3591
  105TMC2    O5 1645   1.201   2.953  17.631  0.2658 -0.4744 -0.7932
  105TMC2    H5 1646   1.291   2.922  17.657  0.5690  0.8499 -0.2795
  106MPD2     C 1647   1.894   2.841  17.492  0.0304  0.2874  0.8300
  106MPD2    C1 1648   1.808   2.945  17.447  0.0106 -0.3249 -1.1607
  106MPD2    C2 1649   1.717   2.996  17.540  0.2132  0.5880 -0.3208
  106MPD2    C3 1650   1.713   2.953  17.678 -0.0055 -0.5003 -0.2215
  106MPD2    C4 1651   1.809   2.864  17.714 -0.7735  0.6846  0.1230
  106MPD2    C5 1652   1.896   2.813  17.622 -0.6942 -0.3347  0.5151
  106MPD2     H 1653   1.637   3.062  17.509 -0.0755  0.3275 -0.1181
  106MPD2    H1 1654   1.816   2.836   0.059 -0.0356 -2.1324 -0.6684
  106MPD2    H2 1655   1.975   2.805  17.430 -1.5616 -1.6898 -0.1213
  106MPD2    H3 1656   1.960   2.732  17.657 -0.7770 -1.2073 -1.3551
  106MPD2     N 1657   1.612   3.000  17.755  0.2762  0.5675 -0.3669
  106MPD2    H5 1658   1.542   3.058  17.710  0.6517  1.3242  0.0340
  106MPD2    N1 1659   1.813   3.008  17.320  0.1178 -0.7418  0.2137
  106MPD2    H7 1660   1.737   3.072  17.300  1.2568 -0.4939 -3.3131
  107TMC2    C1 1661   2.069   3.090  11.667 -0.2699  0.1305 -0.0339
  107TMC2    C2 1662   2.190   3.151  11.678  0.1256 -0.5895  0.2514
  107TMC2    C3 1663   2.222   3.239  11.578  0.1482 -0.2382 -0.3579
  107TMC2    C4 1664   1.987   3.107  11.558 -0.0071 -0.0411 -0.1235
  107TMC2    C5 1665   2.019   3.192  11.465  0.0876  0.4243 -0.0788
  107TMC2    C6 1666   2.132   3.269  11.478  0.1393 -0.2206  0.5200
  107TMC2     C 1667   1.996   3.073  11.789 -0.0560  0.9101 -0.0964
  107TMC2     O 1668   2.043   3.007  11.881 -0.0377 -0.0719  0.3001
  107TMC2     H 1669   2.236   3.148  11.776  0.5383 -0.8437  0.0479
  107TMC2    H1 1670   1.888   3.062  11.559  0.1628 -0.4091  0.0280
  107TMC2    H2 1671   2.152   3.339  11.397 -0.5144 -0.2199  0.3559
  107TMC2    C7 1672   1.968   3.163  11.332 -0.1533  0.5341  0.6141
  107TMC2    C8 1673   2.348   3.314  11.578  0.3210  0.3334 -0.3973
  107TMC2    O1 1674   1.943   3.256  11.259 -0.7857 -0.2653  1.3404
  107TMC2    O2 1675   2.380   3.407  11.505 -0.5670 -0.1615 -0.3877
  107TMC2    O5 1676   2.431   3.242  11.657  0.2498 -0.3245  0.1860
  107TMC2    H5 1677   2.397   3.161  11.699 -1.3331  0.6296  0.7153
  108MPD2     C 1678   1.744   3.311  11.918  0.0167  0.3532 -0.5716
  108MPD2    C1 1679   1.812   3.188  11.909  0.0493  0.1222  0.0456
  108MPD2    C2 1680   1.797   3.091  12.009 -0.5501 -0.2039 -0.3368
  108MPD2    C3 1681   1.691   3.106  12.099  0.1535 -0.1706 -0.5431
  108MPD2    C4 1682   1.617   3.225  12.095 -0.6429  0.4613 -0.1205
  108MPD2    C5 1683   1.646   3.332  12.010  0.2545  0.3017  0.4800
  108MPD2     H 1684   1.845   2.994  12.002 -0.2814 -0.4361  4.5285
  108MPD2    H1 1685   1.536   3.244  12.164  0.3950  1.8028  0.7132
  108MPD2    H2 1686   1.757   3.388  11.843 -1.1284  0.2616 -0.8549
  108MPD2    H3 1687   1.585   3.421  12.020  0.6341  0.7082 -0.7912
  108MPD2     N 1688   1.666   3.024  12.204  0.0023  0.4729  0.8913
  108MPD2    H5 1689   1.595   3.059  12.267  0.1189  2.8607 -0.2833
  108MPD2    N1 1690   1.896   3.169  11.796 -0.0432  0.3609  0.8829
  108MPD2    H7 1691   1.896   3.229  11.714  3.7274 -1.4216 -0.4098
  109TMC2    C1 1692   1.717   1.554   1.114  0.5229  0.6743  0.1073
  109TMC2    C2 1693   1.669   1.683   1.151  0.2373 -0.2561  0.3936
  109TMC2    C3 1694   1.760   1.777   1.176  0.5032  0.0850  0.4864
  109TMC2    C4 1695   1.848   1.524   1.101 -0.3997  0.0299 -0.2008
  109TMC2    C5 1696   1.934   1.620   1.145  0.1410 -0.5208  0.2806
  109TMC2    C6 1697   1.891   1.744   1.179 -0.2050  0.1099 -0.3309
  109TMC2     C 1698   1.621   1.447   1.142 -0.2345 -0.1340  0.4202
  109TMC2     O 1699   1.527   1.478   1.222 -0.3470  0.5350  0.1808
  109TMC2     H 1700   1.565   1.691   1.183 -0.4729 -0.7706 -1.7402
  109TMC2    H1 1701   1.884   1.422   1.090 -1.7728 -0.4192 -0.4593
  109TMC2    H2 1702   1.961   1.822   1.206 -1.5489  0.7081  1.3968
  109TMC2    C7 1703   2.076   1.613   1.125 -0.0001 -0.3427  0.1935
  109TMC2    C8 1704   1.712   1.909   1.210 -0.6210 -0.2853  0.1499
  109TMC2    O1 1705   2.144   1.704   1.165 -0.5652  0.4799 -0.3121
  109TMC2    O2 1706   1.784   1.981   1.273  0.5887 -0.2262  0.3786
  109TMC2    O5 1707   1.678   1.955   1.091  0.0632  0.1095 -0.2774
  109TMC2    H5 1708   1.630   1.888   1.038 -0.9914  2.2126 -1.9892
  110MPD2     C 1709   1.454   0.978   1.157  0.3386 -0.7419 -0.5840
  110MPD2    C1 1710   1.518   0.989   1.037  0.6561  0.3144  0.3459
  110MPD2    C2 1711   1.593   1.101   1.012 -0.4651 -0.3261  0.3069
  110MPD2    C3 1712   1.578   1.207   1.106 -0.0569 -0.2241  0.3330
  110MPD2    C4 1713   1.518   1.193   1.232  0.7582 -0.1575  0.1310
  110MPD2    C5 1714   1.453   1.075   1.252 -1.4304  0.2517 -0.8675
  110MPD2     H 1715   1.637   1.124   0.915 -1.5424 -3.4476 -0.9247
  110MPD2    H1 1716   1.511   1.271   1.306 -1.8924  0.0924 -0.3800
  110MPD2    H2 1717   1.416   0.881   1.186 -3.1110  0.4097 -1.3311
  110MPD2    H3 1718   1.401   1.057   1.345  2.0955  1.2004  1.2806
  110MPD2     N 1719   1.643   1.328   1.071  0.0214 -0.2048 -0.1872
  110MPD2    H5 1720   1.716   1.324   1.001 -0.4165 -0.1228 -0.6449
  110MPD2    N1 1721   1.515   0.878   0.950  0.0547  0.3172 -0.0536
  110MPD2    H7 1722   1.456   0.804   0.988  0.6126 -0.5128 -0.7967
  111TMC2    C1 1723   2.401   4.449  10.794 -0.2004 -0.5201 -0.5891
  111TMC2    C2 1724   2.356   4.342  10.725 -0.6223 -0.1047 -0.1714
  111TMC2    C3 1725   2.338   4.225  10.793 -0.0739 -0.0045  0.2071
  111TMC2    C4 1726   2.415   4.439  10.929 -0.2915  0.2327  0.5017
  111TMC2    C5 1727   2.392   4.322  10.995  0.0668 -0.2105  0.6915
  111TMC2    C6 1728   2.356   4.211  10.931 -0.4885 -0.3240  0.0767
  111TMC2     C 1729   2.335   4.577  10.758  0.1414 -0.0548 -0.3934
  111TMC2     O 1730   2.242   4.563  10.680 -0.6827 -0.4357 -0.0686
  111TMC2     H 1731   2.330   4.352  10.620  3.1634 -1.8445 -1.2757
  111TMC2    H1 1732   2.445   4.530  10.979 -2.4363 -0.1394  2.5208
  111TMC2    H2 1733   2.332   4.117  10.981 -1.1012  0.3947  1.1226
  111TMC2    C7 1734   2.401   4.330  11.143  0.0524  0.0811 -0.4965
  111TMC2    C8 1735   2.346   4.108  10.708 -0.0802  0.8493 -0.2077
  111TMC2    O1 1736   2.333   4.249  11.200  0.3375  0.5722  0.4913
  111TMC2    O2 1737   2.296   4.099  10.597 -0.1200  0.5406 -0.0739
  111TMC2    O5 1738   2.402   4.004  10.773 -0.1079 -0.3325  0.6202
  111TMC2    H5 1739   2.459   4.037  10.845 -0.8305  0.0845  1.0069
  112MPD2     C 1740   2.106   0.216  11.006  0.2647  0.2834 -0.2233
  112MPD2    C1 1741   2.063   0.102  10.941  0.3535 -0.1436  0.2703
  112MPD2    C2 1742   2.150   0.013  10.885  0.2666 -0.5234  0.5399
  112MPD2    C3 1743   2.286   0.045  10.870  0.0583  0.4259  0.3449
  112MPD2    C4 1744   2.330   0.168  10.924  0.5445 -0.3929 -0.0877
  112MPD2    C5 1745   2.236   0.246  10.992  0.2749 -0.2483 -0.1630
  112MPD2     H 1746   2.106   4.657  10.861 -1.3856  0.2951  0.3132
  112MPD2    H1 1747   2.432   0.202  10.915  0.8993 -0.9292  1.8580
  112MPD2    H2 1748   2.039   0.289  11.049 -1.6837 -1.0747 -0.9339
  112MPD2    H3 1749   2.274   0.338  11.036 -0.5211  0.9972 -2.0913
  112MPD2     N 1750   2.380   4.690  10.823 -0.7915  0.2073 -0.5039
  112MPD2    H5 1751   2.476   4.693  10.855 -0.2009  0.7988 -2.3492
  112MPD2    N1 1752   1.937   0.052  10.956 -0.0600  0.4072  0.2679
  112MPD2    H7 1753   1.921   4.700  10.918 -0.0938  0.9592 -1.0770
  113TMC2    C1 1754   0.200   2.936   0.541  0.5090  0.5545  0.1838
  113TMC2    C2 1755   0.148   3.019   0.443  0.3059  0.4201 -0.0325
  113TMC2    C3 1756   0.095   2.959   0.334  0.4458  0.0539  0.0273
  113TMC2    C4 1757   0.184   2.799   0.538 -0.3417 -0.0198 -0.3652
  113TMC2    C5 1758   0.131   2.749   0.423 -0.1150  0.6710 -0.4768
  113TMC2    C6 1759   0.079   2.826   0.321  0.5090 -0.0703 -0.1040
  113TMC2     C 1760   0.279   3.002   0.642 -0.0022 -0.5163  0.4193
  113TMC2     O 1761   0.278   3.127   0.652 -0.5226  0.2161  0.0907
  113TMC2     H 1762   0.159   3.126   0.439  0.3551  0.3711 -1.3978
  113TMC2    H1 1763   0.238   2.729   0.601  1.1734  0.7860 -0.7679
  113TMC2    H2 1764   0.028   2.774   0.241 -0.4235 -0.2889  0.6345
  113TMC2    C7 1765   0.093   2.609   0.408 -0.3928 -0.2598 -0.1740
  113TMC2    C8 1766   0.027   3.052   0.254  0.7743 -0.2658  0.1615
  113TMC2    O1 1767   0.097   2.564   0.295 -0.4162 -0.1439 -0.2916
  113TMC2    O2 1768   4.703   3.144   0.296 -0.3719 -0.4184 -0.3548
  113TMC2    O5 1769   0.055   3.038   0.126  0.1283  0.4686 -0.3752
  113TMC2    H5 1770   0.119   2.964   0.118 -2.2130 -1.3918 -2.1021
  114MPD2     C 1771   0.724   2.980   0.895  0.2243 -0.0122  0.3279
  114MPD2    C1 1772   0.638   3.092   0.890  0.5206  0.1390  1.0025
  114MPD2    C2 1773   0.521   3.074   0.828 -1.0345 -0.0713  0.0981
  114MPD2    C3 1774   0.473   2.945   0.792  0.1239  0.2933 -0.7858
  114MPD2    C4 1775   0.553   2.834   0.809 -0.0084 -0.6382  0.4050
  114MPD2    C5 1776   0.684   2.855   0.848 -0.0678  1.0871  0.0243
  114MPD2     H 1777   0.460   3.160   0.806  0.6193  0.7949 -1.1289
  114MPD2    H1 1778   0.524   2.732   0.785  2.2487 -1.1349 -0.2089
  114MPD2    H2 1779   0.827   2.999   0.923  0.6570 -0.6495 -0.8157
  114MPD2    H3 1780   0.750   2.769   0.859 -0.9281  0.1438 -2.1823
  114MPD2     N 1781   0.349   2.916   0.719 -0.2699  0.1032 -0.6477
  114MPD2    H5 1782   0.326   2.817   0.712  2.5060 -0.4975 -1.4757
  114MPD2    N1 1783   0.664   3.227   0.928  0.6545 -0.0696  0.8155
  114MPD2    H7 1784   0.592   3.296   0.909  1.7151  1.3418  1.9290
  115TMC2    C1 1785   1.144   0.534  17.389 -0.2302 -0.2884  0.2379
  115TMC2    C2 1786   1.267   0.490  17.349  0.0640  0.0413  0.1423
  115TMC2    C3 1787   1.349   0.581  17.286 -0.3939 -0.5923  0.6153
  115TMC2    C4 1788   1.097   0.663  17.373 -0.4142 -0.6303  0.9958
  115TMC2    C5 1789   1.185   0.751  17.319  0.1289  0.1786  0.5037
  115TMC2    C6 1790   1.316   0.712  17.282 -0.2280 -0.8522  0.2134
  115TMC2     C 1791   1.045   0.428  17.380  0.2775  0.0981 -0.5217
  115TMC2     O 1792   1.075   0.333  17.309  0.8006  0.1967  0.0507
  115TMC2     H 1793   1.288   0.384  17.349 -1.4957 -0.2664  1.6112
  115TMC2    H1 1794   0.997   0.688  17.407 -0.1887  0.7421  0.6586
  115TMC2    H2 1795   1.386   0.777  17.231 -1.4321 -0.6373 -1.1659
  115TMC2    C7 1796   1.152   0.893  17.329 -0.3087  0.6585 -0.1097
  115TMC2    C8 1797   1.485   0.547  17.272  0.1338 -0.3051  0.3468
  115TMC2    O1 1798   1.064   0.925  17.409 -0.5834 -0.0715 -0.3517
  115TMC2    O2 1799   1.573   0.634  17.269  0.8034 -0.5298 -0.0783
  115TMC2    O5 1800   1.506   0.412  17.254 -0.0474 -0.3943 -0.0970
  115TMC2    H5 1801   1.424   0.369  17.221  0.5517 -2.7353  1.5470
  116MPD2     C 1802   0.608   0.209  17.549 -0.9587 -0.3766 -0.2649
  116MPD2    C1 1803   0.718   0.156  17.474 -0.0569 -0.1625  0.8972
  116MPD2    C2 1804   0.830   0.242  17.448  0.0793  0.1908  0.0593
  116MPD2    C3 1805   0.830   0.371  17.498 -0.7405 -0.8404  0.4588
  116MPD2    C4 1806   0.724   0.414  17.577  0.3206  0.2141 -0.5844
  116MPD2    C5 1807   0.619   0.326  17.604 -0.0003  0.1469  0.2213
  116MPD2     H 1808   0.907   0.202  17.384 -0.3932 -2.7500  1.3257
  116MPD2    H1 1809   0.725   0.515  17.616  1.8184  0.2689 -0.7846
  116MPD2    H2 1810   0.510   0.164  17.557 -1.6931  1.2953  0.2086
  116MPD2    H3 1811   0.528   0.363  17.650 -1.1084 -0.4086 -1.5148
  116MPD2     N 1812   0.941   0.455  17.469 -1.2727 -0.0990 -0.3767
  116MPD2    H5 1813   0.952   0.538  17.527 -0.9447 -0.4178  0.0043
  116MPD2    N1 1814   0.708   0.023  17.431  0.8735 -0.0682  0.1365
  116MPD2    H7 1815   0.616   4.721  17.438  0.2462  1.0992 -1.0556
  117TMC2    C1 1816   4.164   1.395  13.801  0.3105  0.6292 -0.1549
  117TMC2    C2 1817   4.225   1.291  13.863 -0.1314 -0.0932 -0.2874
  117TMC2    C3 1818   4.335   1.315  13.936  0.1169  0.6904 -0.0255
  117TMC2    C4 1819   4.207   1.528  13.821  0.6955 -0.6912  0.2416
  117TMC2    C5 1820   4.316   1.546  13.896  0.0925 -0.1012 -0.4745
  117TMC2    C6 1821   4.383   1.442  13.960 -0.5959 -0.4733 -0.2095
  117TMC2     C 1822   4.027   1.371  13.761 -0.4099  0.1426  0.4766
  117TMC2     O 1823   4.004   1.255  13.732 -0.0174  0.0971  0.0683
  117TMC2     H 1824   4.174   1.195  13.857 -1.0525  0.4025 -0.3904
  117TMC2    H1 1825   4.163   1.615  13.773  1.7794 -0.4311 -0.2788
  117TMC2    H2 1826   4.454   1.467  14.038  0.0433 -0.5429 -0.7741
  117TMC2    C7 1827   4.373   1.680  13.920 -0.1120 -0.5401 -0.2242
  117TMC2    C8 1828   4.381   1.212  14.025  0.8846 -0.5641  0.3695
  117TMC2    O1 1829   4.494   1.684  13.928 -0.3281 -0.7944  0.6292
  117TMC2    O2 1830   4.437   1.228  14.134  0.7111  0.2874  0.0190
  117TMC2    O5 1831   4.404   1.105  13.944  0.0369 -0.1184 -0.0828
  117TMC2    H5 1832   4.372   1.114  13.852  0.2671 -1.2276 -0.2674
  118MPD2     C 1833   4.185   1.978  14.030 -0.2443  0.6094 -0.7902
  118MPD2    C1 1834   4.295   1.910  13.988 -0.0732 -0.1777 -1.0728
  118MPD2    C2 1835   4.414   1.984  13.978  0.1072  0.1829 -0.1083
  118MPD2    C3 1836   4.419   2.113  14.018 -0.2462 -0.0519  0.0406
  118MPD2    C4 1837   4.310   2.176  14.056  0.4518 -0.1319 -0.6316
  118MPD2    C5 1838   4.194   2.109  14.078  0.1001  0.1687 -1.4730
  118MPD2     H 1839   4.502   1.941  13.932 -1.3634 -3.2232  0.2805
  118MPD2    H1 1840   4.308   2.281  14.080 -0.3195 -0.3723  0.3818
  118MPD2    H2 1841   4.087   1.931  14.039  0.1055  0.3801  1.9421
  118MPD2    H3 1842   4.103   2.139  14.129 -0.5600 -2.8800 -0.8748
  118MPD2     N 1843   4.533   2.204  14.005 -0.0075 -0.5574  0.2563
  118MPD2    H5 1844   4.508   2.302  14.017 -1.3470 -0.8797  0.1356
  118MPD2    N1 1845   4.272   1.778  13.937  0.1037 -0.2818  0.3375
  118MPD2    H7 1846   4.174   1.750  13.935 -0.4057  1.4677 -0.0438
  119TMC2    C1 1847   2.670   2.437  13.332 -0.1625 -0.4380 -0.7996
  119TMC2    C2 1848   2.773   2.357  13.291  0.4303 -0.1722 -1.2110
  119TMC2    C3 1849   2.755   2.253  13.212 -0.0284 -0.7063 -0.7623
  119TMC2    C4 1850   2.540   2.407  13.310 -0.4592 -0.2958  0.3960
  119TMC2    C5 1851   2.520   2.303  13.222  0.7176 -0.3084  0.0557
  119TMC2    C6 1852   2.626   2.224  13.173  0.4774 -0.0461 -1.5844
  119TMC2     C 1853   2.691   2.538  13.430  0.4839 -0.9280  0.3976
  119TMC2     O 1854   2.611   2.632  13.445 -0.3354 -0.2883  0.0006
  119TMC2     H 1855   2.876   2.393  13.298  0.1596  0.4164 -0.2253
  119TMC2    H1 1856   2.456   2.471  13.338  1.0201  2.0717 -0.5594
  119TMC2    H2 1857   2.599   2.141  13.109 -1.8950 -1.0741  0.7264
  119TMC2    C7 1858   2.388   2.254  13.202  0.1773  0.4553  0.0939
  119TMC2    C8 1859   2.868   2.196  13.143 -0.2428 -0.2427 -0.5058
  119TMC2    O1 1860   2.358   2.183  13.108 -0.3610 -0.1614  0.2860
  119TMC2    O2 1861   2.980   2.181  13.192  0.7260  0.0076  0.3453
  119TMC2    O5 1862   2.856   2.234  13.013  0.2746  0.0458 -0.1976
  119TMC2    H5 1863   2.766   2.262  12.987 -0.2842  0.6190  2.3671
  120MPD2     C 1864   2.966   2.749  13.808 -0.1833  0.0803 -0.5634
  120MPD2    C1 1865   2.883   2.807  13.705 -0.3148  0.0773  0.0880
  120MPD2    C2 1866   2.835   2.729  13.606  0.6085 -0.3932  0.3151
  120MPD2    C3 1867   2.861   2.591  13.605 -0.2870  0.4861 -0.0056
  120MPD2    C4 1868   2.941   2.534  13.698  0.2590  0.1582  0.4760
  120MPD2    C5 1869   2.985   2.606  13.807 -0.3820 -0.2721  0.1984
  120MPD2     H 1870   2.771   2.774  13.531 -0.8999  0.2529  1.9972
  120MPD2    H1 1871   2.953   2.427  13.687  1.8170  0.3280  0.5773
  120MPD2    H2 1872   3.012   2.810  13.884  0.5474 -0.5792 -0.4782
  120MPD2    H3 1873   3.050   2.563  13.882  0.8854 -0.3480 -0.9369
  120MPD2     N 1874   2.806   2.505  13.502 -0.0744 -0.5103 -0.2109
  120MPD2    H5 1875   2.841   2.410  13.499  1.7513  0.1327  0.5169
  120MPD2    N1 1876   2.859   2.948  13.723 -0.0960  0.5284 -0.1709
  120MPD2    H7 1877   2.884   2.975  13.818 -0.6238  0.7531 -0.0948
  121TMC2    C1 1878   4.082   4.370  14.083  0.0217 -0.6312 -0.4033
  121TMC2    C2 1879   4.146   4.341  14.198 -0.5649  0.5533 -0.3534
  121TMC2    C3 1880   4.088   4.253  14.279 -0.9202  0.3624  0.6239
  121TMC2    C4 1881   3.957   4.321  14.048 -0.0710  0.1146 -0.1132
  121TMC2    C5 1882   3.902   4.222  14.123 -0.3337  0.2153  0.4111
  121TMC2    C6 1883   3.972   4.191  14.240  0.2148 -0.4205  0.6931
  121TMC2     C 1884   4.136   4.470  13.993 -0.5585 -0.3208  0.5241
  121TMC2     O 1885   4.101   4.453  13.878  0.2187  0.2040 -0.0445
  121TMC2     H 1886   4.247   4.368  14.224 -0.4247 -0.2095 -0.0842
  121TMC2    H1 1887   3.926   4.338  13.946 -0.1978 -1.7460 -0.3750
  121TMC2    H2 1888   3.920   4.116  14.299  0.2646 -1.2005 -0.2622
  121TMC2    C7 1889   3.780   4.152  14.091 -0.5651 -0.3520  0.1405
  121TMC2    C8 1890   4.137   4.236  14.417 -0.6270 -0.5157  0.7412
  121TMC2    O1 1891   3.757   4.040  14.134 -0.1336 -0.1203 -0.0116
  121TMC2    O2 1892   4.254   4.245  14.454 -0.2258 -0.5155 -0.0886
  121TMC2    O5 1893   4.027   4.258  14.493  0.7836  0.5542 -0.2529
  121TMC2    H5 1894   3.939   4.251  14.449 -0.3474 -0.4334  2.2187
  122MPD2     C 1895   4.288   0.053  14.080 -0.2045  0.0312 -0.1386
  122MPD2    C1 1896   4.237   4.703  13.993  0.1219 -0.6663  0.5866
  122MPD2    C2 1897   4.242   4.728  13.856  0.7235 -1.0802 -0.4134
  122MPD2    C3 1898   4.278   0.111  13.818 -0.4612  0.2823 -0.1021
  122MPD2    C4 1899   4.321   0.208  13.907  0.4794 -0.3781  0.5701
  122MPD2    C5 1900   4.325   0.180  14.036  0.2387 -1.0174  0.8404
  122MPD2     H 1901   4.210   4.649  13.789 -1.5289 -0.4017 -0.1583
  122MPD2    H1 1902   4.328   0.313  13.878 -2.1825  0.0056  1.3406
  122MPD2    H2 1903   4.284   0.029  14.185  1.7638  0.9095  0.1406
  122MPD2    H3 1904   4.356   0.254  14.109 -0.6911  1.1757 -1.0150
  122MPD2     N 1905   4.288   0.150  13.681 -0.1485  0.7046  0.1719
  122MPD2    H5 1906   4.302   0.248  13.659  1.8638  1.3562  4.4516
  122MPD2    N1 1907   4.196   4.578  14.055  0.4501 -0.4431 -0.4920
  122MPD2    H7 1908   4.194   4.586  14.156  2.6950 -1.7408 -0.3406
  123TMC2    C1 1909   2.675   3.258  10.156 -0.8514 -0.6940  0.2130
  123TMC2    C2 1910   2.730   3.356  10.073  0.0762  1.1097 -0.0909
  123TMC2    C3 1911   2.754   3.329   9.940 -0.2330 -0.3301  0.8530
  123TMC2    C4 1912   2.661   3.128  10.111 -0.2838  0.2196 -0.2079
  123TMC2    C5 1913   2.695   3.102   9.973 -0.8304 -0.3708  0.0777
  123TMC2    C6 1914   2.741   3.203   9.889  0.1673 -0.1123 -0.0428
  123TMC2     C 1915   2.580   3.297  10.262 -0.3436 -0.1358 -0.3277
  123TMC2     O 1916   2.590   3.413  10.304  0.3999 -0.1868  0.4408
  123TMC2     H 1917   2.735   3.458  10.107 -0.1293  0.8740  0.6470
  123TMC2    H1 1918   2.650   3.043  10.178  0.5834  1.2866  1.2893
  123TMC2    H2 1919   2.765   3.189   9.784 -1.6691  0.8634 -0.5892
  123TMC2    C7 1920   2.593   3.018   9.908  0.0401 -0.0897 -0.3342
  123TMC2    C8 1921   2.730   3.440   9.847  0.5010  0.6694 -0.5435
  123TMC2    O1 1922   2.511   2.976   9.989  0.8415  0.3938 -0.7449
  123TMC2    O2 1923   2.755   3.428   9.731 -0.0406  0.0655  0.5518
  123TMC2    O5 1924   2.636   3.522   9.892  0.7291  0.3590  0.6008
  123TMC2    H5 1925   2.621   3.522   9.989  0.4044  1.5141  0.5537
  124MPD2     C 1926   2.136   3.245  10.517 -0.2183 -0.0264 -1.1154
  124MPD2    C1 1927   2.173   3.126  10.461  0.2431  0.1533 -0.3737
  124MPD2    C2 1928   2.302   3.113  10.407  0.6796 -0.1573  0.3071
  124MPD2    C3 1929   2.376   3.222  10.384 -0.2002  0.1952  0.0611
  124MPD2    C4 1930   2.330   3.348  10.423 -0.3274 -0.7747  0.0856
  124MPD2    C5 1931   2.212   3.356  10.488  0.2071 -0.4481 -0.6405
  124MPD2     H 1932   2.344   3.016  10.384 -0.6197 -0.2832 -1.5138
  124MPD2    H1 1933   2.377   3.440  10.389 -0.7942  0.7973  3.7383
  124MPD2    H2 1934   2.036   3.251  10.560  1.0593 -2.4074  2.1693
  124MPD2    H3 1935   2.164   3.450  10.514  0.7915 -0.4957  0.6219
  124MPD2     N 1936   2.486   3.198  10.301  0.5625 -0.2315 -0.4558
  124MPD2    H5 1937   2.496   3.106  10.260 -0.7288  1.2007 -4.0268
  124MPD2    N1 1938   2.080   3.026  10.444 -0.0524 -0.5400  0.4067
  124MPD2    H7 1939   1.989   3.041  10.488 -0.3780 -0.1063 -0.4027
  125TMC2    C1 1940   2.319   3.967   9.627 -1.0597  0.1552 -0.1843
  125TMC2    C2 1941   2.451   3.962   9.576 -0.2157  0.5049 -0.4420
  125TMC2    C3 1942   2.524   4.081   9.588  0.3949  0.0668 -0.5615
  125TMC2    C4 1943   2.266   4.084   9.668 -0.3235  0.6749  0.9689
  125TMC2    C5 1944   2.347   4.190   9.674  0.2194 -0.3073 -0.5531
  125TMC2    C6 1945   2.483   4.197   9.640  0.3455  0.0237  0.1444
  125TMC2     C 1946   2.219   3.868   9.581 -0.2072  0.1238 -0.3479
  125TMC2     O 1947   2.103   3.898   9.587  0.5436  0.1975  0.2765
  125TMC2     H 1948   2.500   3.875   9.536  0.9884  1.2616 -0.6100
  125TMC2    H1 1949   2.163   4.096   9.701 -0.7522 -1.4377  0.3683
  125TMC2    H2 1950   2.553   4.279   9.639  0.3534  0.0230  0.4448
  125TMC2    C7 1951   2.282   4.320   9.705 -0.5229  0.0369  0.2105
  125TMC2    C8 1952   2.671   4.065   9.577  0.5302  0.6188 -0.2640
  125TMC2    O1 1953   2.167   4.326   9.742 -0.4954  0.2145 -0.2113
  125TMC2    O2 1954   2.725   3.960   9.589  0.2576 -0.0979 -0.0262
  125TMC2    O5 1955   2.716   4.161   9.495 -0.3552  0.3583  0.0445
  125TMC2    H5 1956   2.648   4.229   9.478  0.1648  0.8570 -0.0440
  126MPD1     C 1957   2.104   3.405   9.383  0.8853  0.6004 -1.1197
  126MPD1    C1 1958   2.234   3.404   9.422 -0.5759 -0.4473 -0.4385
  126MPD1    C2 1959   2.293   3.527   9.457  0.3158 -1.2462  0.1406
  126MPD1    C3 1960   2.213   3.643   9.479  0.8868 -0.8911  0.3842
  126MPD1    C4 1961   2.082   3.639   9.441  0.2876 -0.1851  0.7828
  126MPD1    C5 1962   2.033   3.522   9.391  0.5887  0.6206 -0.0534
  126MPD1     H 1963   2.397   3.532   9.488  0.0651 -1.1035  0.9661
  126MPD1    H1 1964   2.008   3.718   9.446 -0.4145 -0.7842 -0.0860
  126MPD1    H2 1965   2.062   3.314   9.340  1.3587  0.3039 -0.9504
  126MPD1    H3 1966   1.931   3.517   9.355 -0.1229  0.6297  1.9818
  126MPD1     N 1967   2.277   3.752   9.541  0.3536 -0.5926 -0.6166
  126MPD1    H5 1968   2.374   3.736   9.566  0.2723 -0.1096  0.0189
  126MPD1    N1 1969   2.311   3.300   9.376 -0.0506  0.0919 -0.7293
  126MPD1    H6 1970   2.378   3.296   9.453 -1.8786 -1.3523  0.7752
  126MPD1    H7 1971   2.259   3.214   9.384  1.4954 -0.9787 -2.2238
  127TMC2    C1 1972   3.851   4.115  10.013 -0.0037  0.4941 -0.0302
  127TMC2    C2 1973   3.983   4.098  10.043  0.0936  0.5711 -0.5981
  127TMC2    C3 1974   4.005   3.987  10.122  0.1393 -0.4575  0.1881
  127TMC2    C4 1975   3.750   4.028  10.047 -0.2324 -0.4610  0.3779
  127TMC2    C5 1976   3.780   3.926  10.133  0.4044 -0.0687 -0.0271
  127TMC2    C6 1977   3.911   3.898  10.169 -0.1838  0.5346  0.0536
  127TMC2     C 1978   3.805   4.229   9.932  0.4908 -0.1514  0.9421
  127TMC2     O 1979   3.896   4.278   9.866 -0.4388  0.0225  0.2804
  127TMC2     H 1980   4.047   4.185  10.051 -0.1228  0.7299 -0.6288
  127TMC2    H1 1981   3.644   4.039  10.026 -0.0272 -0.2661 -0.5324
  127TMC2    H2 1982   3.931   3.819  10.241  0.6794 -0.5195 -1.3459
  127TMC2    C7 1983   3.676   3.834  10.159  0.5869 -0.4481  0.1977
  127TMC2    C8 1984   4.125   4.009  10.206 -0.1091  0.0238  0.2071
  127TMC2    O1 1985   3.561   3.873  10.143 -0.5553 -0.0245 -0.7299
  127TMC2    O2 1986   4.137   3.967  10.319  0.0477  0.1951  0.0389
  127TMC2    O5 1987   4.226   4.036  10.125 -0.3380 -0.2229 -0.1429
  127TMC2    H5 1988   4.205   4.058  10.032  0.9551 -0.2805 -0.4494
  128MPD2     C 1989   3.484   4.406   9.942 -0.4614  0.6512 -0.0195
  128MPD2    C1 1990   3.601   4.366   9.885  1.1538 -0.2233 -0.4572
  128MPD2    C2 1991   3.632   4.411   9.756 -0.0843  0.2019 -0.2463
  128MPD2    C3 1992   3.548   4.503   9.685 -0.2150 -0.5797  0.4598
  128MPD2    C4 1993   3.429   4.537   9.751 -0.1153 -0.0988 -0.7865
  128MPD2    C5 1994   3.403   4.494   9.878 -0.6538  0.2778  0.0189
  128MPD2     H 1995   3.718   4.382   9.697  0.1226 -1.6019  0.9479
  128MPD2    H1 1996   3.360   4.602   9.699 -2.6713 -1.5586  0.7569
  128MPD2    H2 1997   3.450   4.379  10.041  0.5707 -0.6942 -0.0448
  128MPD2    H3 1998   3.315   4.530   9.930 -1.8320 -0.0927 -1.6859
  128MPD2     N 1999   3.591   4.550   9.560  0.3573 -0.0783  0.0950
  128MPD2    H5 2000   3.689   4.533   9.536 -0.4616  0.1099 -3.2615
  128MPD2    N1 2001   3.680   4.271   9.962 -0.2007  0.6460 -0.2424
  128MPD2    H7 2002   3.641   4.236  10.049 -0.3502  1.7185  0.1254
  129TMC2    C1 2003   2.729   0.310   1.003 -0.5879  0.4817  0.3542
  129TMC2    C2 2004   2.829   0.384   1.051 -0.0225 -0.0660  0.0772
  129TMC2    C3 2005   2.928   0.319   1.121 -0.2500 -0.1437 -0.6360
  129TMC2    C4 2006   2.716   0.180   1.033  0.5600 -0.7474 -0.2504
  129TMC2    C5 2007   2.809   0.118   1.112 -0.1685 -0.7641 -0.0373
  129TMC2    C6 2008   2.921   0.180   1.151  0.1229 -0.1610 -0.3142
  129TMC2     C 2009   2.621   0.370   0.928  0.0235  0.2372  0.0001
  129TMC2     O 2010   2.551   0.291   0.869  0.1824 -0.2112  0.1754
  129TMC2     H 2011   2.848   0.480   1.004  0.5433  0.9285  2.3516
  129TMC2    H1 2012   2.622   0.129   1.016  0.8823 -1.3006 -0.3826
  129TMC2    H2 2013   2.997   0.140   1.217 -1.0755 -1.4840  0.2693
  129TMC2    C7 2014   2.784   4.727   1.159  1.0665 -0.2365 -0.2591
  129TMC2    C8 2015   3.050   0.380   1.175  0.3617 -0.4133  0.7396
  129TMC2    O1 2016   2.707   4.664   1.088  0.2182 -1.0489  0.5395
  129TMC2    O2 2017   3.147   0.319   1.212 -0.1454 -0.3431 -0.5382
  129TMC2    O5 2018   3.019   0.507   1.219  0.3122  1.3723 -0.1059
  129TMC2    H5 2019   2.922   0.519   1.206  0.0605 -0.3899  0.0432
  130MPD2     C 2020   2.370   0.535   0.896  0.4361  0.3198  0.5104
  130MPD2    C1 2021   2.488   0.577   0.958 -0.7423 -0.5127 -0.2066
  130MPD2    C2 2022   2.483   0.696   1.031 -0.2479  0.8696 -0.0452
  130MPD2    C3 2023   2.368   0.777   1.030  0.1933 -0.4394 -0.3895
  130MPD2    C4 2024   2.257   0.733   0.970  0.2405 -0.5646  0.2912
  130MPD2    C5 2025   2.257   0.614   0.907 -0.5248 -0.0044  0.6282
  130MPD2     H 2026   2.565   0.741   1.084 -0.6153 -0.5004  1.6938
  130MPD2    H1 2027   2.170   0.798   0.972  0.8294  0.2962 -1.9140
  130MPD2    H2 2028   2.361   0.435   0.855  0.2735  1.1934 -1.5795
  130MPD2    H3 2029   2.165   0.578   0.863  1.5721 -2.3377 -1.8783
  130MPD2     N 2030   2.376   0.895   1.107  0.3454 -0.6515 -0.1134
  130MPD2    H5 2031   2.461   0.910   1.159 -0.3694  1.4104  0.4627
  130MPD2    N1 2032   2.603   0.497   0.969  0.0867 -0.1259  0.1576
  130MPD2    H7 2033   2.666   0.534   1.040  3.0770 -1.4761 -1.8055
  131TMC2    C1 2034   2.035   3.663  10.224  0.7943 -0.3211  1.0084
  131TMC2    C2 2035   1.942   3.758  10.253 -0.1840 -0.3819 -0.5625
  131TMC2    C3 2036   1.983   3.862  10.335 -0.2822 -0.7893  0.0670
  131TMC2    C4 2037   2.160   3.664  10.278  0.2434 -0.2257 -0.4534
  131TMC2    C5 2038   2.202   3.781  10.336  0.1548 -0.0057  0.5093
  131TMC2    C6 2039   2.116   3.880  10.365 -0.0157  0.2153  0.2804
  131TMC2     C 2040   1.980   3.541  10.178  0.6447 -0.4691  0.1756
  131TMC2     O 2041   2.038   3.439  10.224 -0.1517  0.1714  0.5834
  131TMC2     H 2042   1.845   3.756  10.205 -0.7312  2.5488  0.4452
  131TMC2    H1 2043   2.226   3.582  10.254 -0.6046 -0.3683 -2.3208
  131TMC2    H2 2044   2.144   3.972  10.416  0.7947  0.8776 -1.3595
  131TMC2    C7 2045   2.348   3.801  10.340  0.5858  0.1671  0.6227
  131TMC2    C8 2046   1.896   3.974  10.349 -0.8073  0.1810  0.2343
  131TMC2    O1 2047   2.413   3.705  10.308 -0.6288 -0.1942 -0.1459
  131TMC2    O2 2048   1.927   4.091  10.339 -0.0545  0.2888 -0.1055
  131TMC2    O5 2049   1.775   3.928  10.354 -0.0558 -0.1106 -0.2844
  131TMC2    H5 2050   1.761   3.831  10.360  0.7470 -0.1167  1.3107
  132MPD2     C 2051   1.656   3.470  10.008 -0.4754 -0.0993  0.1542
  132MPD2    C1 2052   1.777   3.450  10.071 -0.5212  0.7126 -0.2287
  132MPD2    C2 2053   1.803   3.321  10.119  1.5656 -0.5368  0.4040
  132MPD2    C3 2054   1.718   3.216  10.095 -0.5031  0.0269 -0.2836
  132MPD2    C4 2055   1.612   3.230  10.009  0.0472 -0.4824 -0.3884
  132MPD2    C5 2056   1.578   3.359   9.983  0.5508  0.5577 -0.0934
  132MPD2     H 2057   1.885   3.292  10.184  1.5005 -1.0141  0.2786
  132MPD2    H1 2058   1.538   3.153   9.992  0.9046 -1.1500 -1.0558
  132MPD2    H2 2059   1.620   3.565   9.970 -0.5961 -0.4517 -0.6036
  132MPD2    H3 2060   1.485   3.372   9.928  0.3145 -1.4559 -0.1791
  132MPD2     N 2061   1.749   3.104  10.175  0.5946  0.7157 -0.4217
  132MPD2    H5 2062   1.825   3.108  10.243 -0.5785 -0.9191  0.9829
  132MPD2    N1 2063   1.867   3.550  10.095  0.2058  0.2317 -0.4110
  132MPD2    H7 2064   1.839   3.636  10.047 -0.2977  1.2572  1.7289
  133TMC2    C1 2065   1.969   4.616   9.612 -0.2248  0.4705  0.2524
  133TMC2    C2 2066   1.999   0.007   9.616  0.0545 -0.3148  0.4932
  133TMC2    C3 2067   2.092   0.063   9.527 -0.0003 -0.4859  0.0165
  133TMC2    C4 2068   2.015   4.540   9.507  0.2979 -0.0441 -0.7931
  133TMC2    C5 2069   2.112   4.603   9.423  0.6334 -0.8675 -0.5623
  133TMC2    C6 2070   2.153   4.731   9.432 -0.1773 -0.5392 -0.3946
  133TMC2     C 2071   1.839   4.576   9.661 -0.7100 -0.0111 -0.4506
  133TMC2     O 2072   1.778   4.518   9.571  0.5140  0.1047 -0.6992
  133TMC2     H 2073   1.954   0.077   9.686  0.0263  0.5660 -0.4081
  133TMC2    H1 2074   1.989   4.435   9.498  0.0823 -0.0486 -0.1061
  133TMC2    H2 2075   2.235   0.027   9.372 -1.0100  3.1901  0.7896
  133TMC2    C7 2076   2.195   4.528   9.335 -0.5668 -0.5370  0.0889
  133TMC2    C8 2077   2.112   0.206   9.551 -0.3147  0.1327  0.0311
  133TMC2    O1 2078   2.284   4.589   9.275 -0.2398  0.2646 -0.0913
  133TMC2    O2 2079   2.082   0.266   9.654 -0.0484 -0.1448 -0.5050
  133TMC2    O5 2080   2.182   0.256   9.447 -0.1394  0.0146 -0.0967
  133TMC2    H5 2081   2.188   0.194   9.371  1.1461 -0.4757  0.4156
  134MPD2     C 2082   1.617   4.733   9.912  0.3239 -0.1939 -0.5459
  134MPD2    C1 2083   1.671   4.630   9.839 -0.5797 -0.3522  0.4967
  134MPD2    C2 2084   1.586   4.524   9.823 -0.6742 -0.5080 -0.2639
  134MPD2    C3 2085   1.454   4.512   9.868  0.2366  0.3731  0.3958
  134MPD2    C4 2086   1.417   4.610   9.949  0.4390  0.5017  0.0432
  134MPD2    C5 2087   1.489   4.725   9.962 -0.3448  0.2981  0.1953
  134MPD2     H 2088   1.633   4.442   9.771  0.6122  0.5220 -0.7353
  134MPD2    H1 2089   1.317   4.613   9.990 -0.7318 -1.4337 -2.6920
  134MPD2    H2 2090   1.681   0.080   9.922 -2.3173  1.6316  0.1846
  134MPD2    H3 2091   1.436   0.056  10.025  0.0858 -0.3045  1.2424
  134MPD2     N 2092   1.372   4.399   9.843 -0.1858  0.9746 -0.1028
  134MPD2    H5 2093   1.273   4.411   9.863 -0.5230 -0.7398 -0.7123
  134MPD2    N1 2094   1.796   4.646   9.776 -0.0986  0.3376  0.1314
  134MPD2    H7 2095   1.863   4.700   9.831  0.9593 -0.5993 -0.2441
  135TMC2    C1 2096   2.887   1.083   9.797 -0.0115  0.1294  0.5234
  135TMC2    C2 2097   2.789   1.150   9.860  0.5736 -0.2239  0.4927
  135TMC2    C3 2098   2.796   1.144  10.005 -0.3053  0.4759  0.0379
  135TMC2    C4 2099   2.992   1.018   9.865  0.1423  0.3056 -0.2377
  135TMC2    C5 2100   3.001   1.021  10.002  0.2666  0.0659 -0.1607
  135TMC2    C6 2101   2.909   1.093  10.072  0.5677 -0.2091 -0.2994
  135TMC2     C 2102   2.854   1.053   9.661  0.2482 -0.0554 -0.6394
  135TMC2     O 2103   2.746   1.092   9.626 -0.4255  0.3094 -0.4833
  135TMC2     H 2104   2.722   1.218   9.808  0.6755 -1.5024 -1.3218
  135TMC2    H1 2105   3.074   0.974   9.808 -2.3632 -3.6457 -0.7864
  135TMC2    H2 2106   2.909   1.105  10.179  2.2661  0.3411 -0.3645
  135TMC2    C7 2107   3.111   0.965  10.068 -0.4626  0.2567 -0.3600
  135TMC2    C8 2108   2.699   1.219  10.083  0.1698  0.4525  0.1322
  135TMC2    O1 2109   3.215   0.958  10.009 -0.3505  0.6037  0.0582
  135TMC2    O2 2110   2.710   1.211  10.204  0.3731  0.3846  0.5234
  135TMC2    O5 2111   2.592   1.256  10.014 -0.0176 -0.4096  0.6333
  135TMC2    H5 2112   2.591   1.262   9.916  0.3689  2.7977  0.8272
  136MPD2     C 2113   2.820   0.964   9.376  0.2023 -0.1096  0.7365
  136MPD2    C1 2114   2.924   0.924   9.463  0.0817 -0.3270 -0.6847
  136MPD2    C2 2115   3.027   0.841   9.421  0.1153 -0.5409 -0.5305
  136MPD2    C3 2116   3.033   0.793   9.291 -0.3990 -0.1446 -0.6429
  136MPD2    C4 2117   2.931   0.842   9.207  0.1558 -0.2706 -0.2169
  136MPD2    C5 2118   2.829   0.925   9.244  0.0857  0.2353 -0.6072
  136MPD2     H 2119   3.104   0.813   9.492  0.0874 -2.4556 -1.2515
  136MPD2    H1 2120   2.928   0.812   9.103 -1.8347  1.7959 -0.7542
  136MPD2    H2 2121   2.742   1.033   9.405 -2.2889 -2.5769 -0.0982
  136MPD2    H3 2122   2.761   0.962   9.168  0.0391  0.6487 -0.3609
  136MPD2     N 2123   3.134   0.713   9.237 -0.1936  0.2603  0.0727
  136MPD2    H5 2124   3.132   0.702   9.136 -0.2553 -0.1896  0.1226
  136MPD2    N1 2125   2.939   0.969   9.599 -0.5652  0.0562 -0.0621
  136MPD2    H7 2126   3.022   0.941   9.651  0.1209  0.9894 -0.6606
  137TMC2    C1 2127   3.078   4.496   9.560 -0.0968 -0.1110  0.1784
  137TMC2    C2 2128   3.008   4.418   9.465 -0.1873  0.0761 -0.0365
  137TMC2    C3 2129   2.956   4.477   9.355 -0.1973 -0.0713  0.7963
  137TMC2    C4 2130   3.094   4.627   9.532  0.2487  0.4745  0.4778
  137TMC2    C5 2131   3.024   4.682   9.430 -0.1297 -0.1907  0.2918
  137TMC2    C6 2132   2.962   4.610   9.330 -0.7975 -0.1707 -0.0695
  137TMC2     C 2133   3.054   4.474   9.701  0.1551  0.5385 -0.5049
  137TMC2     O 2134   3.046   4.579   9.764 -0.4604 -0.3592 -0.0283
  137TMC2     H 2135   2.972   4.322   9.502 -2.6164  0.4727 -1.3988
  137TMC2    H1 2136   3.162   4.686   9.593 -0.5448  0.3524  1.4816
  137TMC2    H2 2137   2.905   4.649   9.246 -0.6259 -0.4487 -0.3172
  137TMC2    C7 2138   2.952   0.058   9.470 -0.8447 -0.0929  0.3866
  137TMC2    C8 2139   2.869   4.398   9.272  0.9833 -0.3532 -0.0510
  137TMC2    O1 2140   2.916   0.153   9.401 -0.5539  0.4465  0.4231
  137TMC2    O2 2141   2.769   4.443   9.218 -0.0403 -0.3646 -0.4304
  137TMC2    O5 2142   2.949   4.301   9.232  0.1512  0.1039  0.3071
  137TMC2    H5 2143   3.035   4.294   9.278 -0.1752 -0.3577  0.8479
  138MPD2     C 2144   3.034   4.162   9.899 -1.0913 -0.4383 -0.1176
  138MPD2    C1 2145   3.038   4.295   9.875 -0.3695  0.2196  0.1084
  138MPD2    C2 2146   3.033   4.382   9.980  0.1702  0.3901 -0.1340
  138MPD2    C3 2147   3.027   4.336  10.113  0.4829 -0.4018 -0.8891
  138MPD2    C4 2148   3.037   4.206  10.129  0.5721 -0.3101  0.1936
  138MPD2    C5 2149   3.040   4.121  10.028  0.2993 -0.3822  0.3534
  138MPD2     H 2150   3.033   4.488   9.960  1.4324  0.5739  0.8511
  138MPD2    H1 2151   3.061   4.152  10.220 -1.2088 -0.5442  0.5326
  138MPD2    H2 2152   3.037   4.085   9.823  3.8086 -0.8806  0.5408
  138MPD2    H3 2153   3.044   4.015  10.054  1.2631  0.0356  1.8812
  138MPD2     N 2154   3.031   4.430  10.219 -0.3956  0.1693 -0.2868
  138MPD2    H5 2155   3.026   4.525  10.183  0.7258 -0.8414 -3.1133
  138MPD2    N1 2156   3.058   4.338   9.745  0.0887  0.2596  0.1481
  138MPD2    H7 2157   3.063   4.269   9.672  1.6165 -0.4810  0.9625
  139TMC2    C1 2158   4.513   2.670  13.379  0.6446  0.2062  0.2541
  139TMC2    C2 2159   4.596   2.776  13.403 -0.0856  0.0737 -0.0148
  139TMC2    C3 2160   4.534   2.887  13.461 -0.6001  0.2613 -0.6854
  139TMC2    C4 2161   4.380   2.671  13.415 -0.0863  0.1838  0.5399
  139TMC2    C5 2162   4.328   2.787  13.470  0.1725 -0.1435  0.4009
  139TMC2    C6 2163   4.399   2.898  13.487  0.0661  0.0219  0.2897
  139TMC2     C 2164   4.572   2.540  13.349 -0.3474 -0.2901  0.0489
  139TMC2     O 2165   4.499   2.448  13.386  0.4303 -0.2681  0.1312
  139TMC2     H 2166   4.704   2.767  13.401  0.0224  1.6829 -1.0412
  139TMC2    H1 2167   4.315   2.588  13.389 -0.8550  0.5633  1.2487
  139TMC2    H2 2168   4.358   2.986  13.535  0.1276 -0.2887  0.9157
  139TMC2    C7 2169   4.187   2.790  13.499  0.3790 -0.3795 -0.5807
  139TMC2    C8 2170   4.620   2.987  13.527 -0.3502 -0.2043  0.1201
  139TMC2    O1 2171   4.147   2.886  13.563 -0.5283  0.2314  0.1159
  139TMC2    O2 2172   4.740   2.973  13.534 -0.0976 -0.0900 -0.7704
  139TMC2    O5 2173   4.566   3.104  13.497 -0.1547  0.3971 -0.1681
  139TMC2    H5 2174   4.477   3.098  13.455 -1.1935 -1.1415  2.3006
  140MPD2     C 2175   0.166   2.457  13.240  0.2875  0.4702  0.0093
  140MPD2    C1 2176   0.037   2.424  13.275  0.2186  0.5306  0.5421
  140MPD2    C2 2177   0.000   2.296  13.297  0.3562  0.0789  0.3233
  140MPD2    C3 2178   0.095   2.199  13.295 -0.5266 -0.6625  0.3007
  140MPD2    C4 2179   0.225   2.235  13.260 -0.1705 -0.4042  0.7014
  140MPD2    C5 2180   0.260   2.360  13.232  0.2539  0.1469 -0.5224
  140MPD2     H 2181   4.637   2.274  13.317 -0.6559  1.2473 -3.6318
  140MPD2    H1 2182   0.306   2.169  13.233 -0.3309  0.2926 -1.5283
  140MPD2    H2 2183   0.185   2.561  13.218 -0.9993  0.8985  0.9060
  140MPD2    H3 2184   0.363   2.371  13.200 -0.1656  0.1812 -1.8809
  140MPD2     N 2185   0.038   2.070  13.303  0.0748  0.3741 -0.0042
  140MPD2    H5 2186   4.682   2.070  13.333  0.4379 -1.1403  1.1389
  140MPD2    N1 2187   4.698   2.545  13.295  0.6206 -0.4128 -0.3114
  140MPD2    H7 2188   4.736   2.637  13.278 -2.4054  1.4941  3.2643
  141TMC2    C1 2189   4.546   4.067  14.114  0.1020  0.1110  0.0934
  141TMC2    C2 2190   4.516   4.109  13.985 -0.2183 -0.2826  0.2958
  141TMC2    C3 2191   4.472   4.236  13.974 -0.3056  0.3331 -0.3735
  141TMC2    C4 2192   4.563   4.151  14.218  0.3641 -0.3387  0.3209
  141TMC2    C5 2193   4.543   4.282  14.192  0.3418  0.0882  0.8543
  141TMC2    C6 2194   4.491   4.324  14.079 -0.5548  0.7614 -0.0421
  141TMC2     C 2195   4.633   3.949  14.117 -0.0456 -1.1291  0.0993
  141TMC2     O 2196   4.687   3.916  14.010  0.8069 -0.3730  0.3908
  141TMC2     H 2197   4.533   4.045  13.899  2.1733  1.9581 -0.9029
  141TMC2    H1 2198   4.607   4.131  14.314 -2.8362 -2.5691  1.3170
  141TMC2    H2 2199   4.463   4.427  14.059  0.2076  0.6876 -1.5080
  141TMC2    C7 2200   4.573   4.383  14.290 -0.1460 -0.6042  0.1653
  141TMC2    C8 2201   4.484   4.305  13.847  0.2746 -0.4712  0.0979
  141TMC2    O1 2202   4.484   4.466  14.301 -0.4407 -0.4204 -0.0801
  141TMC2    O2 2203   4.503   4.425  13.823 -0.5438  0.1529 -0.3621
  141TMC2    O5 2204   4.443   4.213  13.759  0.6415  0.2539  0.2797
  141TMC2    H5 2205   4.409   4.133  13.804  0.4916  0.9786  1.4674
  142TMC2    C1 2206   1.812   2.642   9.891  0.1076  0.3833  0.1114
  142TMC2    C2 2207   1.715   2.706   9.826 -0.2714  0.0134 -0.0029
  142TMC2    C3 2208   1.741   2.809   9.739 -0.6325  0.5187  0.6231
  142TMC2    C4 2209   1.947   2.667   9.866  0.5838 -0.4799 -0.3256
  142TMC2    C5 2210   1.976   2.759   9.768  0.7797 -0.3579  0.1738
  142TMC2    C6 2211   1.874   2.831   9.706  0.1413  0.4349  0.6007
  142TMC2     C 2212   1.764   2.567  10.012  0.1699  0.2188 -0.2826
  142TMC2     O 2213   1.645   2.540  10.021 -0.6676  0.1233  0.2921
  142TMC2     H 2214   1.610   2.691   9.846 -0.1920 -2.1347 -1.3111
  142TMC2    H1 2215   2.030   2.609   9.904  1.4538  1.2250  0.3544
  142TMC2    H2 2216   1.898   2.922   9.651 -0.7300  0.0758 -0.3762
  142TMC2    C7 2217   2.107   2.816   9.769  0.4570 -0.1022 -0.0034
  142TMC2    C8 2218   1.617   2.871   9.690  0.4929 -0.6531 -0.2433
  142TMC2    O1 2219   2.170   2.810   9.874  0.6245 -0.0404 -0.1559
  142TMC2    O2 2220   1.514   2.807   9.678  0.0147 -0.2200 -0.5150
  142TMC2    O5 2221   1.642   3.002   9.654 -0.0571  0.1367  0.6585
  142TMC2    H5 2222   1.726   3.036   9.693  0.5749  0.4317 -0.9236
  143MPD2     C 2223   1.858   2.327  10.455  0.2338 -0.2883 -0.0476
  143MPD2    C1 2224   1.748   2.330  10.376 -0.5236 -0.4751  0.4262
  143MPD2    C2 2225   1.748   2.398  10.254 -0.5196 -0.0047 -0.1947
  143MPD2    C3 2226   1.858   2.473  10.218 -0.1080 -0.2269 -0.2932
  143MPD2    C4 2227   1.973   2.468  10.306 -0.0477 -0.7223  0.0626
  143MPD2    C5 2228   1.969   2.392  10.414  0.3800 -0.1897 -0.1443
  143MPD2     H 2229   1.658   2.397  10.193 -1.0002  0.4833  0.5168
  143MPD2    H1 2230   2.055   2.539  10.308  0.1614 -0.9677  0.0881
  143MPD2    H2 2231   1.859   2.268  10.546  2.0442  0.2765  0.3025
  143MPD2    H3 2232   2.052   2.376  10.482 -1.1815 -2.2991  1.2697
  143MPD2     N 2233   1.865   2.557  10.097 -0.3545  0.2443 -0.1043
  143MPD2    H5 2234   1.954   2.598  10.074  0.5120 -1.0033  1.0022
  143MPD2    N1 2235   1.643   2.248  10.427 -0.1286 -0.0627 -0.3048
  143MPD2    H7 2236   1.666   2.170  10.487 -1.0904 -0.1363 -0.0366
  144TMC2    C1 2237   1.393   2.279   0.868 -0.1545 -0.1252  0.3567
  144TMC2    C2 2238   1.464   2.195   0.789 -0.1325  0.5680  0.4599
  144TMC2    C3 2239   1.600   2.199   0.783 -0.3542 -0.2543  0.7132
  144TMC2    C4 2240   1.458   2.366   0.948  0.0063 -0.4396  0.0960
  144TMC2    C5 2241   1.596   2.363   0.952  0.4770  0.3384  0.6585
  144TMC2    C6 2242   1.671   2.266   0.878  0.2114  0.1740  0.3705
  144TMC2     C 2243   1.250   2.274   0.843  0.1580  0.1534 -0.2642
  144TMC2     O 2244   1.207   2.171   0.793 -0.2361 -0.2696  0.5574
  144TMC2     H 2245   1.408   2.127   0.725  1.5108  0.0901 -0.4689
  144TMC2    H1 2246   1.407   2.420   1.027  0.1645  1.6951 -1.2645
  144TMC2    H2 2247   1.778   2.275   0.866  0.3850 -2.2498  0.0214
  144TMC2    C7 2248   1.677   2.467   1.023 -0.7342 -1.1263  0.4889
  144TMC2    C8 2249   1.660   2.112   0.682  0.2475  0.0154 -0.4156
  144TMC2    O1 2250   1.796   2.448   1.053 -0.1225  0.4091 -0.3539
  144TMC2    O2 2251   1.594   2.064   0.592 -0.3775  0.3602 -0.1754
  144TMC2    O5 2252   1.737   2.033   0.760 -0.4189 -0.5670 -0.6994
  144TMC2    H5 2253   1.800   2.077   0.822 -0.6292 -1.1195 -0.0887
  145MPD2     C 2254   0.770   2.470   0.882 -0.7003  0.0416  0.3302
  145MPD2    C1 2255   0.824   2.358   0.820  0.5255  0.0886 -0.3842
  145MPD2    C2 2256   0.954   2.328   0.838 -1.0479  0.1496  0.4169
  145MPD2    C3 2257   1.042   2.410   0.896  0.2777 -0.1268  0.4766
  145MPD2    C4 2258   0.994   2.533   0.942  0.4673  0.0640 -0.3948
  145MPD2    C5 2259   0.855   2.548   0.956  0.8955 -0.2727  0.9154
  145MPD2     H 2260   0.987   2.234   0.797  1.1870  1.0428  0.1574
  145MPD2    H1 2261   1.053   2.608   0.993  0.0278 -0.2630  0.6125
  145MPD2    H2 2262   0.664   2.490   0.889 -0.8782 -1.4450  1.9278
  145MPD2    H3 2263   0.821   2.634   1.013  0.0891  0.1227 -0.1663
  145MPD2     N 2264   1.185   2.387   0.889  0.4461  0.1434 -0.7420
  145MPD2    H5 2265   1.245   2.461   0.925  0.7198 -0.2068 -0.4830
  145MPD2    N1 2266   0.744   2.278   0.732  0.4435 -0.5326 -0.3367
  145MPD2    H7 2267   0.793   2.208   0.678 -0.2765 -1.3793  0.1186
  146TMC2    C1 2268   1.501   4.616  11.855 -0.3938  0.5753 -0.1913
  146TMC2    C2 2269   1.438   4.623  11.735  0.2887 -0.1168 -0.3983
  146TMC2    C3 2270   1.514   4.604  11.621  0.1063 -0.1118 -0.2228
  146TMC2    C4 2271   1.648   4.618  11.866 -0.2855 -0.8442 -0.4235
  146TMC2    C5 2272   1.715   4.628  11.746  1.5873 -0.7801 -0.6090
  146TMC2    C6 2273   1.650   4.621  11.625  0.3701 -0.0272  0.1092
  146TMC2     C 2274   1.431   4.672  11.963  0.5319  0.2371 -0.1473
  146TMC2     O 2275   1.328   4.723  11.929 -0.8173  0.2511 -0.4194
  146TMC2     H 2276   1.330   4.629  11.742  0.2094 -2.6521  0.6249
  146TMC2    H1 2277   1.692   4.608  11.965  0.6224 -0.5408 -0.7949
  146TMC2    H2 2278   1.706   4.625  11.532 -0.3735  2.3970 -0.2317
  146TMC2    C7 2279   1.857   4.656  11.741  0.6766  0.5758 -0.2996
  146TMC2    C8 2280   1.465   4.646  11.492  0.3048 -0.2444  0.1810
  146TMC2    O1 2281   1.910   4.646  11.630  0.2506 -0.3056  0.2700
  146TMC2    O2 2282   1.526   4.719  11.419 -0.5291 -0.3906 -0.3418
  146TMC2    O5 2283   1.368   4.559  11.449  0.4576  0.2188 -0.3394
  146TMC2    H5 2284   1.345   4.497  11.521 -0.6916 -0.3531 -1.1966
  147MPD2     C 2285   2.294   4.661  12.006  0.2685  0.7346  0.6586
  147MPD2    C1 2286   2.194   4.641  12.096 -0.5229 -0.3060  0.1873
  147MPD2    C2 2287   2.060   4.651  12.043 -0.4962 -0.1158 -0.3439
  147MPD2    C3 2288   2.039   4.653  11.911 -0.4403  0.0577 -0.5938
  147MPD2    C4 2289   2.148   4.663  11.820  0.0575 -0.1808  0.6534
  147MPD2    C5 2290   2.273   4.669  11.870  0.2089 -0.0003  0.0641
  147MPD2     H 2291   1.976   4.662  12.111  1.1663  1.0622  1.5258
  147MPD2    H1 2292   2.126   4.667  11.714  1.2677 -0.5154  0.3910
  147MPD2    H2 2293   2.396   4.676  12.041 -0.0112 -0.2292  1.9107
  147MPD2    H3 2294   2.358   4.683  11.804 -1.0413  1.7439 -1.1787
  147MPD2     N 2295   1.902   4.666  11.871 -0.1927 -0.5756 -0.3665
  147MPD2    H5 2296   1.841   4.649  11.951 -0.3417 -0.7242 -0.5103
  147MPD2    N1 2297   2.219   4.625  12.239  0.2557 -0.5715 -1.0300
  147MPD2    H7 2298   2.315   4.608  12.267  0.1808 -0.5300 -0.7493
  148TMC2    C1 2299   1.582   3.781  10.639  0.3222 -0.3832 -0.3691
  148TMC2    C2 2300   1.713   3.795  10.665  0.3055 -0.6734  0.1717
  148TMC2    C3 2301   1.790   3.696  10.728  0.0997  0.3482  0.1855
  148TMC2    C4 2302   1.524   3.665  10.686  0.4224  0.0842  0.2698
  148TMC2    C5 2303   1.596   3.569  10.752  0.1669  0.1840 -0.0031
  148TMC2    C6 2304   1.734   3.580  10.780 -0.4016  0.5765  0.5942
  148TMC2     C 2305   1.499   3.895  10.633  0.2488  0.3988  0.3385
  148TMC2     O 2306   1.558   4.002  10.633  0.1020  0.0835 -0.4861
  148TMC2     H 2307   1.771   3.879  10.627 -3.9540  1.8729 -0.6138
  148TMC2    H1 2308   1.419   3.643  10.672  0.1181  2.5528 -1.2799
  148TMC2    H2 2309   1.787   3.505  10.838 -0.0713  2.0302  2.1837
  148TMC2    C7 2310   1.544   3.433  10.743 -0.6313 -1.0346  0.1401
  148TMC2    C8 2311   1.934   3.710  10.725  0.0514  0.2050 -0.6691
  148TMC2    O1 2312   1.465   3.409  10.648 -0.3129 -0.1954  0.1492
  148TMC2    O2 2313   1.982   3.819  10.701 -0.2674 -0.2184 -0.5368
  148TMC2    O5 2314   1.984   3.596  10.680  0.0283  0.1084 -0.6141
  148TMC2    H5 2315   1.922   3.520  10.677  0.2315 -0.1080  0.5575
  149MPD2     C 2316   1.280   4.080  10.568  0.1857  0.2024  0.6349
  149MPD2    C1 2317   1.276   3.946  10.543  0.0102  0.5734 -0.5700
  149MPD2    C2 2318   1.163   3.885  10.485  0.3202  0.1427  0.4994
  149MPD2    C3 2319   1.056   3.966  10.447 -0.4999 -0.1970 -0.6212
  149MPD2    C4 2320   1.062   4.099  10.479 -0.3983  0.0594 -0.4217
  149MPD2    C5 2321   1.171   4.152  10.527 -0.6194  0.2059  0.1906
  149MPD2     H 2322   1.165   3.777  10.471  0.5039  0.2295 -0.1227
  149MPD2    H1 2323   0.976   4.164  10.471  0.0198  0.8968  2.1692
  149MPD2    H2 2324   1.364   4.132  10.611 -0.0213  1.0744 -0.0119
  149MPD2    H3 2325   1.179   4.260  10.536  1.0598  0.1243 -0.3321
  149MPD2     N 2326   0.935   3.903  10.393  0.6117 -0.8137 -0.5138
  149MPD2    H5 2327   0.865   3.971  10.365 -2.8070 -3.0312  2.5900
  149MPD2    N1 2328   1.381   3.861  10.581 -0.0493 -0.2024  0.2719
  149MPD2    H7 2329   1.356   3.765  10.603  1.3252 -1.1622 -2.3514
  150TMC2    C1 2330   3.877   2.872  12.488 -0.1101  0.0185 -0.2439
  150TMC2    C2 2331   3.815   2.970  12.424 -0.3452 -0.2715  0.1212
  150TMC2    C3 2332   3.877   3.089  12.402 -0.0786  0.0035 -1.0726
  150TMC2    C4 2333   4.001   2.899  12.541 -0.1387 -0.3731  0.0355
  150TMC2    C5 2334   4.059   3.016  12.530 -0.2459 -0.4402 -0.2149
  150TMC2    C6 2335   3.997   3.115  12.456 -0.1865  0.5029 -0.0948
  150TMC2     C 2336   3.806   2.748  12.522  0.3162  0.1226 -0.7892
  150TMC2     O 2337   3.868   2.649  12.560 -0.8447  0.1694 -0.1293
  150TMC2     H 2338   3.726   2.944  12.367  0.7023 -2.2240 -0.6372
  150TMC2    H1 2339   4.064   2.818  12.576  2.4662  1.7210  0.1929
  150TMC2    H2 2340   4.044   3.212  12.442  0.5221  0.0768 -0.6646
  150TMC2    C7 2341   4.197   3.035  12.559  0.8975 -0.6597 -0.0475
  150TMC2    C8 2342   3.847   3.175  12.289  0.3245  0.2184  0.0057
  150TMC2    O1 2343   4.258   3.122  12.494  0.7635 -0.4902 -0.2421
  150TMC2    O2 2344   3.874   3.293  12.276  0.1134  0.1060 -0.2548
  150TMC2    O5 2345   3.812   3.098  12.183 -0.1048  0.2768  0.8429
  150TMC2    H5 2346   3.825   3.004  12.208 -0.3254  0.2449  0.8387
  151MPD2     C 2347   3.363   2.507  12.548 -0.2375 -1.1551 -0.3420
  151MPD2    C1 2348   3.342   2.630  12.491 -0.2559 -0.0227  0.6400
  151MPD2    C2 2349   3.454   2.709  12.464  0.5499 -0.1715 -0.2459
  151MPD2    C3 2350   3.574   2.673  12.513 -1.1133  0.2868 -0.2821
  151MPD2    C4 2351   3.590   2.560  12.584  0.5014 -0.0894 -0.4470
  151MPD2    C5 2352   3.487   2.473  12.594  0.0599 -0.5210 -0.1997
  151MPD2     H 2353   3.452   2.799  12.403 -3.4618 -0.6351 -0.7874
  151MPD2    H1 2354   3.684   2.528  12.626 -0.1450 -1.1066  0.2013
  151MPD2    H2 2355   3.286   2.432  12.558 -1.1840 -0.1738 -0.2471
  151MPD2    H3 2356   3.498   2.375  12.639  0.8561 -0.9314 -1.2885
  151MPD2     N 2357   3.674   2.765  12.493  0.1979  0.0123 -0.1084
  151MPD2    H5 2358   3.650   2.858  12.460 -0.8869  0.8408  2.9803
  151MPD2    N1 2359   3.214   2.664  12.449 -0.5746 -0.4270 -0.0535
  151MPD2    H7 2360   3.143   2.593  12.466 -1.9649 -0.0170 -4.2300
  152TMC2    C1 2361   3.498   2.809  12.867 -0.0195 -0.5888  0.4173
  152TMC2    C2 2362   3.552   2.679  12.884  0.2432  0.0037 -0.1591
  152TMC2    C3 2363   3.686   2.683  12.885  0.0345 -0.0774  0.4268
  152TMC2    C4 2364   3.569   2.923  12.887  0.1913 -0.1254 -0.1236
  152TMC2    C5 2365   3.707   2.911  12.889  1.0993 -0.4486 -0.5132
  152TMC2    C6 2366   3.765   2.787  12.874  0.2480  0.2051  0.1807
  152TMC2     C 2367   3.357   2.820  12.844 -0.0952  0.3612  0.2111
  152TMC2     O 2368   3.309   2.917  12.784  0.8885  1.0948  0.0212
  152TMC2     H 2369   3.502   2.584  12.869  0.7503 -0.3656  0.4482
  152TMC2    H1 2370   3.528   3.023  12.880  0.5860  0.0467 -0.0186
  152TMC2    H2 2371   3.871   2.762  12.875 -0.3109 -2.1395  1.2827
  152TMC2    C7 2372   3.786   3.034  12.868  0.5586 -0.4692 -0.4641
  152TMC2    C8 2373   3.750   2.561  12.931 -0.4491 -1.2232  0.4498
  152TMC2    O1 2374   3.731   3.129  12.811 -0.3030 -0.3167  0.0512
  152TMC2    O2 2375   3.867   2.530  12.912  0.9236 -0.3039  0.4987
  152TMC2    O5 2376   3.678   2.502  13.032  0.1630  0.3805 -0.3069
  152TMC2    H5 2377   3.631   2.572  13.081  0.1518  1.2837 -1.6185
  153MPD2     C 2378   3.116   2.586  12.969  0.2484 -0.1685 -0.3586
  153MPD2    C1 2379   3.158   2.685  12.888  0.1523  0.4495  0.1207
  153MPD2    C2 2380   3.069   2.748  12.799  0.7707  0.0801  0.3535
  153MPD2    C3 2381   2.937   2.708  12.794  0.3131 -0.5616 -0.7747
  153MPD2    C4 2382   2.897   2.603  12.877 -0.0105 -0.4152  0.2001
  153MPD2    C5 2383   2.987   2.540  12.957 -0.2699  0.1653  0.6341
  153MPD2     H 2384   3.098   2.823  12.727 -0.9750  1.5417  1.1633
  153MPD2    H1 2385   2.794   2.570  12.878 -0.5677  1.3165  1.3774
  153MPD2    H2 2386   3.182   2.535  13.038 -1.2734 -0.8304  0.6028
  153MPD2    H3 2387   2.957   2.459  13.024  1.7533  0.1677  1.5501
  153MPD2     N 2388   2.850   2.772  12.703 -0.0728 -0.2843 -0.1321
  153MPD2    H5 2389   2.894   2.849  12.654 -1.2002  1.3340  1.4143
  153MPD2    N1 2390   3.296   2.717  12.904  0.3682 -0.4350 -0.0120
  153MPD2    H7 2391   3.350   2.652  12.959  1.5093  0.5716  0.0528
  154TMC2    C1 2392   0.796   3.217   0.533 -0.2912 -0.1260 -0.3612
  154TMC2    C2 2393   0.841   3.294   0.637  0.1519 -0.3833  0.1738
  154TMC2    C3 2394   0.973   3.277   0.664 -0.4254 -0.1859 -0.2264
  154TMC2    C4 2395   0.866   3.103   0.485 -0.7480  0.1548 -0.3221
  154TMC2    C5 2396   0.992   3.088   0.513  0.0305 -0.6022 -0.1822
  154TMC2    C6 2397   1.056   3.182   0.600 -0.2782 -0.4206  1.0931
  154TMC2     C 2398   0.660   3.238   0.490 -0.5299  0.5234  0.1181
  154TMC2     O 2399   0.591   3.311   0.561 -0.1528 -0.3508  0.4798
  154TMC2     H 2400   0.790   3.381   0.676  1.2105 -0.1176  0.9461
  154TMC2    H1 2401   0.817   3.037   0.415  0.9796 -0.7307 -0.6722
  154TMC2    H2 2402   1.164   3.185   0.605 -0.1509 -2.4901 -0.4269
  154TMC2    C7 2403   1.074   2.990   0.441 -0.3562 -0.6512  0.3798
  154TMC2    C8 2404   1.032   3.385   0.751 -0.3646  0.4763  0.1769
  154TMC2    O1 2405   1.185   2.978   0.489  0.7964  0.4001 -0.4351
  154TMC2    O2 2406   0.962   3.474   0.800  0.4710  0.0252  0.4116
  154TMC2    O5 2407   1.108   3.313   0.832  0.0584 -0.2807  0.1104
  154TMC2    H5 2408   1.163   3.242   0.791  0.3271  0.5215 -0.9190
  155MPD2     C 2409   0.541   3.229   0.139  0.8533  0.3819  0.0757
  155MPD2    C1 2410   0.530   3.226   0.279  0.0560 -0.3039 -0.7259
  155MPD2    C2 2411   0.415   3.274   0.331  0.1225 -0.2364  0.4435
  155MPD2    C3 2412   0.317   3.324   0.244 -0.2162  0.5878  0.4317
  155MPD2    C4 2413   0.324   3.307   0.105 -0.4923  0.2392  0.5938
  155MPD2    C5 2414   0.441   3.259   0.052 -0.0910 -0.2482  0.0691
  155MPD2     H 2415   0.389   3.265   0.436  0.1128  1.9163  0.6228
  155MPD2    H1 2416   0.237   3.332   0.044  1.0782  1.1856 -1.2628
  155MPD2    H2 2417   0.637   3.206   0.096  0.0653 -0.7949 -1.0566
  155MPD2    H3 2418   0.462   3.257  17.706  0.9326 -2.2245  0.3151
  155MPD2     N 2419   0.202   3.372   0.309 -0.6461  0.3461 -0.0680
  155MPD2    H5 2420   0.186   3.367   0.409  0.3611  1.3180  0.1399
  155MPD2    N1 2421   0.644   3.204   0.357 -0.4068 -0.0098  0.2125
  155MPD2    H7 2422   0.728   3.169   0.310  0.8344  0.7145  1.9001
  156TMC2    C1 2423   3.721   0.160  11.454  0.1949  0.1188 -0.0756
  156TMC2    C2 2424   3.694   0.036  11.412 -0.2993 -0.5017 -0.0850
  156TMC2    C3 2425   3.579   0.008  11.343 -0.4850 -0.4101  0.2102
  156TMC2    C4 2426   3.638   0.261  11.422 -0.2445 -0.5272 -0.0579
  156TMC2    C5 2427   3.522   0.235  11.354 -0.1449  0.5408 -0.2532
  156TMC2    C6 2428   3.484   0.100  11.322  0.5231  0.8257  0.1444
  156TMC2     C 2429   3.826   0.188  11.554  0.3141  0.1334  0.1626
  156TMC2     O 2430   3.813   0.289  11.623 -0.1232 -0.3524 -0.2365
  156TMC2     H 2431   3.756   4.691  11.438  0.2370  0.6479  2.4403
  156TMC2    H1 2432   3.665   0.364  11.443  0.4461 -0.5652 -0.7682
  156TMC2    H2 2433   3.391   0.080  11.270  0.8951  2.4010 -1.1467
  156TMC2    C7 2434   3.415   0.323  11.368  0.5573  0.0855 -1.1291
  156TMC2    C8 2435   3.556   4.616  11.303 -0.7469  0.7001  0.3303
  156TMC2    O1 2436   3.314   0.268  11.381  0.1722 -0.0400  0.0793
  156TMC2    O2 2437   3.601   4.516  11.357  0.5220 -1.0217 -0.0497
  156TMC2    O5 2438   3.472   4.610  11.196  0.4692 -0.1329  0.0600
  156TMC2    H5 2439   3.467   4.694  11.145 -3.2779 -0.8098 -0.6828
  157MPD2     C 2440   4.085   4.699  11.678 -0.3269 -1.0581  0.7136
  157MPD2    C1 2441   4.023   0.078  11.660  1.1525  0.4597  0.3064
  157MPD2    C2 2442   4.065   0.193  11.725 -0.7345  0.5947  0.4469
  157MPD2    C3 2443   4.163   0.192  11.819 -0.5273  0.2597  0.7297
  157MPD2    C4 2444   4.231   0.073  11.832 -0.5328  0.3910 -0.2019
  157MPD2    C5 2445   4.183   4.696  11.773 -0.1975  0.0614  0.3157
  157MPD2     H 2446   4.013   0.286  11.704  1.5580  1.5638 -0.9981
  157MPD2    H1 2447   4.318   0.066  11.897 -0.9445 -1.4735  0.1379
  157MPD2    H2 2448   4.045   4.604  11.644 -0.7702 -1.4721  2.3536
  157MPD2    H3 2449   4.232   4.600  11.788  0.9455  0.3549 -1.5584
  157MPD2     N 2450   4.206   0.311  11.885 -0.2505  0.2185 -0.1501
  157MPD2    H5 2451   4.147   0.393  11.877 -0.8309 -0.1849 -0.0333
  157MPD2    N1 2452   3.910   0.083  11.573 -0.0791  0.0901 -0.0235
  157MPD2    H7 2453   3.889   4.731  11.537  0.6699  0.7870 -2.2752
  158TMC2    C1 2454   4.071   4.002  13.706  0.0989 -0.3960  0.0772
  158TMC2    C2 2455   4.098   4.122  13.650  0.7030 -0.1437 -0.2354
  158TMC2    C3 2456   4.005   4.164  13.568  0.5443 -0.4741 -0.7858
  158TMC2    C4 2457   3.965   3.925  13.679  0.3507 -0.7542 -0.3820
  158TMC2    C5 2458   3.868   3.982  13.604  0.0341  0.3179  0.5730
  158TMC2    C6 2459   3.893   4.101  13.541 -0.0178 -0.1628 -0.0214
  158TMC2     C 2460   4.179   3.947  13.787  0.6207  0.4441  0.0704
  158TMC2     O 2461   4.257   4.028  13.837 -0.1607  0.3701 -0.6239
  158TMC2     H 2462   4.197   4.164  13.655  0.8083 -0.5833  1.4033
  158TMC2    H1 2463   3.928   3.853  13.751 -0.6184  1.4897  1.3591
  158TMC2    H2 2464   3.820   4.138  13.470  1.0413 -0.0275 -1.0402
  158TMC2    C7 2465   3.737   3.929  13.593  0.2509 -0.0107 -0.1791
  158TMC2    C8 2466   4.039   4.267  13.474  0.6982 -0.4747 -0.3092
  158TMC2    O1 2467   3.653   3.999  13.533 -0.2838 -0.0691  0.5480
  158TMC2    O2 2468   4.156   4.298  13.453  0.4193 -0.7044 -0.3569
  158TMC2    O5 2469   3.945   4.357  13.481 -0.3817 -0.0695 -0.4085
  158TMC2    H5 2470   3.864   4.303  13.494  0.4834 -1.0124  1.1278
  159MPD2     C 2471   4.446   3.549  13.975 -0.2322 -0.0104  0.0568
  159MPD2    C1 2472   4.314   3.514  13.967 -0.5441  0.0464  0.1409
  159MPD2    C2 2473   4.226   3.612  13.922  0.2840  0.3397 -0.3025
  159MPD2    C3 2474   4.267   3.738  13.883 -0.0089 -0.1945 -0.1588
  159MPD2    C4 2475   4.403   3.767  13.892 -0.1194 -0.0714  0.3593
  159MPD2    C5 2476   4.485   3.668  13.928  0.2463  0.0617 -0.4302
  159MPD2     H 2477   4.122   3.584  13.911  0.1507  0.1550  1.3827
  159MPD2    H1 2478   4.444   3.857  13.848 -1.5373  1.3817  2.0506
  159MPD2    H2 2479   4.527   3.479  13.994 -2.4702 -2.7680 -0.5233
  159MPD2    H3 2480   4.591   3.692  13.926  0.9064 -2.8045 -0.1945
  159MPD2     N 2481   4.171   3.811  13.812  0.3141  0.3254  0.0151
  159MPD2    H5 2482   4.085   3.763  13.787 -1.1739  1.5114  2.8369
  159MPD2    N1 2483   4.267   3.385  14.007  1.0581  0.1449  0.2960
  159MPD2    H7 2484   4.340   3.324  14.041  1.1357 -0.1011 -0.3009
  160TMC2    C1 2485   4.236   3.023   1.199 -0.4230  0.5128  0.1852
  160TMC2    C2 2486   4.127   2.957   1.243 -0.3030  0.1584 -0.0488
  160TMC2    C3 2487   4.153   2.835   1.304  0.4179 -0.4093 -0.3649
  160TMC2    C4 2488   4.358   2.971   1.216  0.0785  0.1204 -0.0623
  160TMC2    C5 2489   4.375   2.855   1.283  0.2403 -0.2249  0.6044
  160TMC2    C6 2490   4.278   2.777   1.329  0.4129  0.1203 -0.3739
  160TMC2     C 2491   4.235   3.172   1.211 -0.3148  0.1856  0.1650
  160TMC2     O 2492   4.331   3.226   1.252 -0.0692 -0.4365 -0.2553
  160TMC2     H 2493   4.023   2.985   1.226  0.1381  2.8580  1.7872
  160TMC2    H1 2494   4.440   3.034   1.182  1.2129 -3.2241 -3.4605
  160TMC2    H2 2495   4.293   2.674   1.360  1.2925 -0.0336 -1.3232
  160TMC2    C7 2496   4.505   2.826   1.333 -0.1584  0.0089  0.0992
  160TMC2    C8 2497   4.039   2.768   1.366 -0.1813 -0.3775 -0.3545
  160TMC2    O1 2498   4.521   2.716   1.382 -0.1203  0.4611  0.0375
  160TMC2    O2 2499   3.935   2.744   1.301 -0.0545 -0.1111 -0.4488
  160TMC2    O5 2500   4.087   2.700   1.471  0.0933 -0.0361 -0.3798
  160TMC2    H5 2501   4.166   2.748   1.505 -0.1118  1.4151 -1.9372
  161MPD2     C 2502   4.147   3.445   1.272  0.0572  0.3217  0.8299
  161MPD2    C1 2503   4.075   3.358   1.192  0.5402 -0.2956  0.2085
  161MPD2    C2 2504   3.960   3.408   1.139 -0.0639 -0.0904 -0.3294
  161MPD2    C3 2505   3.916   3.540   1.158 -0.4964 -0.7349  0.6197
  161MPD2    C4 2506   3.997   3.622   1.236  0.1492  0.6113 -0.1241
  161MPD2    C5 2507   4.114   3.578   1.291 -0.4897 -0.4140 -0.3698
  161MPD2     H 2508   3.900   3.344   1.076 -1.0835  0.3030  0.2472
  161MPD2    H1 2509   3.963   3.723   1.255 -0.4230  0.2490  0.7508
  161MPD2    H2 2510   4.245   3.418   1.312 -1.3008 -4.8496  0.6494
  161MPD2    H3 2511   4.171   3.641   1.358 -1.2588 -0.9087  0.7604
  161MPD2     N 2512   3.804   3.597   1.099 -0.0523  0.2749  0.7968
  161MPD2    H5 2513   3.787   3.695   1.120 -0.5684 -0.0966  2.0711
  161MPD2    N1 2514   4.111   3.225   1.180 -0.5074 -0.2166  0.2488
  161MPD2    H7 2515   4.042   3.160   1.144 -0.4095  2.5986 -5.0713
  162TMC2    C1 2516   1.705   4.725   0.723 -0.4882  0.2931 -0.1986
  162TMC2    C2 2517   1.596   0.064   0.760  0.8780  0.2035 -0.2533
  162TMC2    C3 2518   1.523   0.044   0.874  0.5533 -0.2081  0.2862
  162TMC2    C4 2519   1.750   4.628   0.810  0.1698  0.3022 -0.9700
  162TMC2    C5 2520   1.669   4.613   0.925 -0.2201 -0.4134 -0.6601
  162TMC2    C6 2521   1.561   4.689   0.962  0.1538 -0.2455  0.4878
  162TMC2     C 2522   1.719   4.695   0.581 -0.4086  0.4120 -0.2066
  162TMC2     O 2523   1.792   4.603   0.548  0.1078 -0.4605 -0.4297
  162TMC2     H 2524   1.544   0.123   0.686  0.9506 -3.3221 -3.1037
  162TMC2    H1 2525   1.844   4.576   0.799  1.2521  1.7615  1.6172
  162TMC2    H2 2526   1.507   4.683   1.056  0.9900 -0.2846  0.9684
  162TMC2    C7 2527   1.686   4.492   1.004 -0.9901 -1.1649 -0.5390
  162TMC2    C8 2528   1.416   0.134   0.919 -0.4156  0.2236  0.3017
  162TMC2    O1 2529   1.593   4.467   1.079  0.2668  0.6369 -0.1040
  162TMC2    O2 2530   1.311   0.108   0.982  0.3652 -0.3448  0.2818
  162TMC2    O5 2531   1.452   0.249   0.863  0.4838 -0.4068  0.3975
  162TMC2    H5 2532   1.545   0.259   0.834  0.4621  0.3199  0.5877
  163MPD2     C 2533   1.628   0.048   0.091 -0.4163 -0.1617  0.4157
  163MPD2    C1 2534   1.671   4.675   0.156 -0.4457 -0.3177  0.6576
  163MPD2    C2 2535   1.692   4.675   0.294 -0.4190  0.0390  0.0909
  163MPD2    C3 2536   1.651   0.050   0.365  0.1381  0.0404  0.1158
  163MPD2    C4 2537   1.600   0.162   0.297  0.1128  0.0162 -0.6708
  163MPD2    C5 2538   1.581   0.159   0.159  0.2809 -0.1676 -0.2351
  163MPD2     H 2539   1.745   4.590   0.336  0.0257  0.1054 -0.3313
  163MPD2    H1 2540   1.571   0.246   0.360  4.6054  1.7160 -0.9229
  163MPD2    H2 2541   1.647   0.060  17.746  0.9576 -1.8474  0.4716
  163MPD2    H3 2542   1.558   0.249   0.102  1.5970 -1.2451 -2.4752
  163MPD2     N 2543   1.664   0.054   0.501 -0.2369 -0.0908  0.2472
  163MPD2    H5 2544   1.631   0.138   0.548  0.5459 -0.0142  0.6708
  163MPD2    N1 2545   1.718   4.566   0.074 -1.3865 -0.0219 -0.2805
  163MPD2    H7 2546   1.715   4.577  17.734 -1.7314  2.1510 -0.0260
  164TMC2    C1 2547   2.223   3.270  10.882  0.3246  0.0269  0.1974
  164TMC2    C2 2548   2.321   3.316  10.795  0.0885 -0.7671  0.3520
  164TMC2    C3 2549   2.360   3.449  10.806  0.6422 -0.3885  0.7196
  164TMC2    C4 2550   2.151   3.360  10.962 -0.7515  0.4038 -0.2441
  164TMC2    C5 2551   2.194   3.490  10.961  0.8432  0.1820  0.7573
  164TMC2    C6 2552   2.295   3.542  10.883  0.9363  0.2565 -0.1027
  164TMC2     C 2553   2.174   3.136  10.873  0.6947  0.2372  0.3991
  164TMC2     O 2554   2.053   3.120  10.888 -0.2456 -0.1251 -0.4337
  164TMC2     H 2555   2.383   3.252  10.734  1.2209 -0.3513  1.0673
  164TMC2    H1 2556   2.075   3.317  11.026 -1.3495  0.5151 -0.8790
  164TMC2    H2 2557   2.330   3.644  10.884  0.4298  0.4297 -0.4636
  164TMC2    C7 2558   2.094   3.591  10.998 -0.2477  0.3025  0.0171
  164TMC2    C8 2559   2.472   3.487  10.728 -0.1686  0.5835 -0.3403
  164TMC2    O1 2560   1.982   3.550  10.993  0.2248  0.1105  0.5967
  164TMC2    O2 2561   2.555   3.407  10.686 -0.4894 -0.2381 -0.3988
  164TMC2    O5 2562   2.473   3.621  10.693 -0.5366 -0.3290  0.3411
  164TMC2    H5 2563   2.390   3.672  10.685  0.7536  1.8958  1.1889
  165TMC2    C1 2564   3.518   2.122   1.870 -0.2913 -0.2420 -0.2867
  165TMC2    C2 2565   3.586   2.145   1.990 -0.2548 -0.5177 -0.4983
  165TMC2    C3 2566   3.708   2.201   1.982 -0.3265  0.1796  0.5179
  165TMC2    C4 2567   3.579   2.129   1.749  0.0756  0.4232 -0.1353
  165TMC2    C5 2568   3.707   2.175   1.751  0.2045  0.0199 -0.1951
  165TMC2    C6 2569   3.766   2.217   1.859  0.0150  0.6069  0.1045
  165TMC2     C 2570   3.380   2.082   1.879 -0.3600 -0.3479 -0.2637
  165TMC2     O 2571   3.312   2.110   1.779 -0.0411 -0.1935  0.0747
  165TMC2     H 2572   3.540   2.140   2.087  2.1263 -0.6220  0.6259
  165TMC2    H1 2573   3.523   2.108   1.658 -2.1125  0.6173  1.1622
  165TMC2    H2 2574   3.874   2.227   1.851 -0.1410  1.8620 -0.4839
  165TMC2    C7 2575   3.793   2.154   1.636 -0.2523  0.1848  0.3878
  165TMC2    C8 2576   3.772   2.259   2.100  0.0299  0.2129  0.2434
  165TMC2    O1 2577   3.912   2.172   1.650 -0.2457  0.0059  0.9581
  165TMC2    O2 2578   3.745   2.236   2.220  0.1986  0.0838  0.2823
  165TMC2    O5 2579   3.822   2.381   2.049  0.6483 -0.3760 -0.2633
  165TMC2    H5 2580   3.800   2.400   1.955 -0.0613 -4.3120 -0.8732
  166MPD2     C 2581   2.992   1.864   2.109 -0.3977  0.1598  0.1454
  166MPD2    C1 2582   2.997   1.977   2.024  0.5657  0.0884 -0.7093
  166MPD2    C2 2583   3.124   2.025   1.989 -0.2752 -0.6651  0.1499
  166MPD2    C3 2584   3.236   1.965   2.039  0.1073  0.5273 -0.2436
  166MPD2    C4 2585   3.222   1.863   2.129 -0.6251 -0.8314  0.3003
  166MPD2    C5 2586   3.104   1.814   2.169  0.1266  0.0560 -0.0434
  166MPD2     H 2587   3.135   2.111   1.923 -0.2764 -1.3784 -0.7810
  166MPD2    H1 2588   3.309   1.824   2.179  1.6744  2.9853 -0.7241
  166MPD2    H2 2589   2.893   1.834   2.141 -0.9313  0.7635 -0.9193
  166MPD2    H3 2590   3.094   1.732   2.240 -1.3464  1.4655  1.3881
  166MPD2     N 2591   3.359   2.003   1.996 -0.7743 -0.3220  0.0528
  166MPD2    H5 2592   3.440   1.954   2.032 -0.2007  1.2481  0.8936
  166MPD2    N1 2593   2.876   2.019   1.962  0.4349 -0.6869  0.5856
  166MPD2    H7 2594   2.787   1.973   1.978 -1.6013  3.0689  0.1673
  167TMC2    C1 2595   1.328   3.813  12.375  0.5137 -0.0975  0.3710
  167TMC2    C2 2596   1.198   3.848  12.407  0.8272  0.7846  0.6169
  167TMC2    C3 2597   1.157   3.817  12.538 -0.6112 -0.0320 -0.1252
  167TMC2    C4 2598   1.410   3.745  12.463  0.6967 -0.3232 -0.5169
  167TMC2    C5 2599   1.363   3.715  12.592 -0.6745  1.0073 -0.9318
  167TMC2    C6 2600   1.237   3.749  12.633  0.2436  0.0523 -0.4498
  167TMC2     C 2601   1.370   3.849  12.238 -0.5529  0.5594  0.4555
  167TMC2     O 2602   1.321   3.951  12.187 -0.1164 -0.3559  0.1843
  167TMC2     H 2603   1.125   3.905  12.350  0.6192  0.0742  0.1758
  167TMC2    H1 2604   1.510   3.726  12.429 -0.3412 -3.8086 -1.5375
  167TMC2    H2 2605   1.202   3.726  12.733  0.4039 -0.9309 -0.6175
  167TMC2    C7 2606   1.430   3.611  12.667 -0.0139 -0.3186  0.3305
  167TMC2    C8 2607   1.019   3.841  12.575 -0.5761  0.0963 -0.5348
  167TMC2    O1 2608   1.360   3.560  12.751  0.3351  0.5023  0.0899
  167TMC2    O2 2609   0.919   3.820  12.505 -0.4592  0.0196  0.5517
  167TMC2    O5 2610   1.031   3.938  12.661  0.1968  0.1040  0.0204
  167TMC2    H5 2611   1.125   3.956  12.685  1.0663 -0.6184 -2.8257
  168MPD2     C 2612   1.505   3.858  11.985  0.0247  0.0736  0.2542
  168MPD2    C1 2613   1.458   3.745  12.044  0.0619 -0.9973  0.8629
  168MPD2    C2 2614   1.455   3.631  11.970  0.4763  0.0379  0.5949
  168MPD2    C3 2615   1.498   3.625  11.837  0.1072 -0.3754 -0.1898
  168MPD2    C4 2616   1.572   3.735  11.795  0.0438  0.1718 -0.1893
  168MPD2    C5 2617   1.560   3.854  11.862  0.3020 -0.0408  0.1772
  168MPD2     H 2618   1.414   3.548  12.026  2.8724 -0.7161  1.2117
  168MPD2    H1 2619   1.625   3.731  11.700 -6.7266 -0.2897 -3.9600
  168MPD2    H2 2620   1.512   3.949  12.043 -1.2153  1.0152 -1.0817
  168MPD2    H3 2621   1.589   3.951  11.823  0.9671 -0.1746  0.3527
  168MPD2     N 2622   1.486   3.510  11.755 -0.4016 -0.8180 -0.5859
  168MPD2    H5 2623   1.526   3.501  11.662 -0.0937 -3.5828 -0.1875
  168MPD2    N1 2624   1.408   3.739  12.172  0.4209  0.1782  0.2239
  168MPD2    H7 2625   1.411   3.651  12.223  0.6623  2.0166  3.3149
  169MPD1     C 2626   3.757   4.416   9.226  0.2525  0.2497 -0.2023
  169MPD1    C1 2627   3.873   4.353   9.261  0.2318 -0.1564  0.7602
  169MPD1    C2 2628   3.859   4.257   9.361 -0.1196  0.7929 -0.6570
  169MPD1    C3 2629   3.736   4.208   9.405  0.2656  1.4098  0.6948
  169MPD1    C4 2630   3.623   4.279   9.367 -0.6338  0.4786 -0.2286
  169MPD1    C5 2631   3.633   4.380   9.279  0.5868  0.2911  0.1589
  169MPD1     H 2632   3.949   4.205   9.393 -1.4674 -0.6723  0.7313
  169MPD1    H1 2633   3.524   4.258   9.407 -0.0594 -0.8572  0.4905
  169MPD1    H2 2634   3.762   4.496   9.152 -2.4159 -1.5053 -2.2639
  169MPD1    H3 2635   3.545   4.433   9.244  0.4743 -1.1640 -1.7369
  169MPD1     N 2636   3.737   4.099   9.498  0.3027 -0.1975  0.0499
  169MPD1    H5 2637   3.833   4.076   9.521 -0.2051 -3.1505 -0.7406
  169MPD1    N1 2638   4.003   4.400   9.217  0.0116 -0.4247  0.6433
  169MPD1    H6 2639   4.048   4.318   9.176  1.2450  1.1339 -1.1046
  169MPD1    H7 2640   3.993   4.464   9.138  0.1120  0.4402  1.3364
  170MPD1     C 2641   2.218   0.587  13.543  0.0685 -0.3779 -0.5809
  170MPD1    C1 2642   2.189   0.581  13.407 -0.4619  0.3818  0.1607
  170MPD1    C2 2643   2.288   0.572  13.313  0.4647  0.5710 -0.2646
  170MPD1    C3 2644   2.421   0.572  13.355  0.3334  0.0292 -0.4585
  170MPD1    C4 2645   2.446   0.567  13.493 -0.5305  0.3622 -0.1524
  170MPD1    C5 2646   2.350   0.572  13.588 -0.1220  0.3992 -0.0049
  170MPD1     H 2647   2.263   0.564  13.208  0.1023 -0.6670 -0.0854
  170MPD1    H1 2648   2.548   0.569  13.529 -1.0236 -2.9991  1.4073
  170MPD1    H2 2649   2.146   0.609  13.621  1.5833  0.5958  0.5303
  170MPD1    H3 2650   2.377   0.572  13.693 -0.2695  0.8685  0.0329
  170MPD1     N 2651   2.521   0.557  13.256 -0.9235  0.0839  0.0682
  170MPD1    H5 2652   2.487   0.531  13.164 -0.5203 -0.7330  0.1560
  170MPD1    N1 2653   2.049   0.573  13.379  0.4771  0.1286  0.2163
  170MPD1    H6 2654   2.018   0.623  13.296 -0.3690 -0.2384  0.3090
  170MPD1    H7 2655   2.014   0.636  13.451  1.1054  0.4946  0.1956
  171MPD1     C 2656   1.303   2.118  15.195 -0.0096 -0.2088 -0.0273
  171MPD1    C1 2657   1.287   2.187  15.318  0.2219 -0.2598  0.1123
  171MPD1    C2 2658   1.306   2.120  15.437 -0.2031  0.4611  1.1424
  171MPD1    C3 2659   1.323   1.981  15.447 -0.0194 -0.0153 -0.2174
  171MPD1    C4 2660   1.340   1.919  15.323  0.5344 -0.4765  0.7503
  171MPD1    C5 2661   1.336   1.988  15.202  0.3501 -0.7964 -0.2190
  171MPD1     H 2662   1.317   2.175  15.529  2.0675  2.5483 -0.3814
  171MPD1    H1 2663   1.354   1.813  15.304 -0.2553 -0.6596  1.1864
  171MPD1    H2 2664   1.295   2.178  15.105  1.0694 -1.7180 -1.1355
  171MPD1    H3 2665   1.356   1.935  15.110 -1.0873 -1.7167  0.0075
  171MPD1     N 2666   1.326   1.899  15.558  0.3656  0.9739  0.6179
  171MPD1    H5 2667   1.351   1.801  15.550 -0.0988  1.2236 -3.4675
  171MPD1    N1 2668   1.278   2.329  15.309 -0.5265  0.7358 -0.3325
  171MPD1    H6 2669   1.237   2.358  15.398  0.0579  0.2331  0.1071
  171MPD1    H7 2670   1.226   2.359  15.227 -1.3600  2.2655  0.7384
  172MPD1     C 2671   0.932   1.597   0.400  0.0719  0.2807  0.0598
  172MPD1    C1 2672   0.847   1.693   0.465  1.3500 -0.1746 -0.0899
  172MPD1    C2 2673   0.912   1.815   0.495 -0.1139  0.0678 -0.2537
  172MPD1    C3 2674   1.046   1.838   0.474  0.5029  0.7190 -0.9118
  172MPD1    C4 2675   1.123   1.743   0.411 -0.5768 -0.0436 -0.3949
  172MPD1    C5 2676   1.061   1.626   0.375 -0.3975  0.1852  0.3380
  172MPD1     H 2677   0.860   1.885   0.559  0.2956 -0.4026  0.5946
  172MPD1    H1 2678   1.222   1.759   0.369 -0.6964  1.8159  0.0149
  172MPD1    H2 2679   0.886   1.500   0.382  0.8749  0.6654 -3.8435
  172MPD1    H3 2680   1.114   1.551   0.317 -2.6696 -0.9111 -0.3046
  172MPD1     N 2681   1.103   1.963   0.490 -0.0645  0.1797  0.0165
  172MPD1    H5 2682   1.198   1.973   0.457 -0.1280 -0.0220 -0.2229
  172MPD1    N1 2683   0.711   1.665   0.487 -0.3375 -0.3292 -0.0768
  172MPD1    H6 2684   0.680   1.569   0.473 -1.4334 -0.1992  1.4667
  172MPD1    H7 2685   0.680   1.691   0.580 -1.2104 -3.3420  0.4557
  173MPD1     C 2686   1.400   1.445  13.762  0.2324  0.2556 -0.4428
  173MPD1    C1 2687   1.498   1.349  13.761 -0.5806  0.4762  0.0297
  173MPD1    C2 2688   1.532   1.289  13.882 -0.1705  0.5735  0.3210
  173MPD1    C3 2689   1.461   1.298  13.994  0.1447 -0.5520 -0.0500
  173MPD1    C4 2690   1.360   1.399  13.993  0.4964 -0.8550  0.2995
  173MPD1    C5 2691   1.337   1.470  13.880 -0.4885 -0.2414 -0.3082
  173MPD1     H 2692   1.610   1.215  13.869  1.0834  1.8096  0.7965
  173MPD1    H1 2693   1.289   1.410  14.074  1.8712  2.6276  1.0298
  173MPD1    H2 2694   1.361   1.500  13.677 -0.2786  0.0897 -0.3134
  173MPD1    H3 2695   1.258   1.543  13.878  0.0701  0.3502 -0.7854
  173MPD1     N 2696   1.492   1.218  14.108  0.4505 -0.8474  0.2821
  173MPD1    H5 2697   1.564   1.149  14.091  2.6161  1.7349 -0.9794
  173MPD1    N1 2698   1.577   1.322  13.642 -0.2150  0.1847  0.3326
  173MPD1    H6 2699   1.519   1.338  13.560  2.4402  0.8633 -1.4142
  173MPD1    H7 2700   1.615   1.228  13.645 -0.4619  0.1124  1.2903
  174MPD1     C 2701   2.107   0.654  14.120  0.1642  0.2980  0.1146
  174MPD1    C1 2702   2.103   0.678  14.252  0.1990  0.2672 -0.4268
  174MPD1    C2 2703   1.989   0.736  14.300 -0.2734 -0.2252 -0.2488
  174MPD1    C3 2704   1.889   0.778  14.221  0.5629  0.0520  0.5257
  174MPD1    C4 2705   1.902   0.755  14.078  0.2191 -0.4068 -0.6407
  174MPD1    C5 2706   2.014   0.694  14.036  0.6391 -0.5403  0.1092
  174MPD1     H 2707   1.991   0.748  14.408  1.4694 -2.6969 -0.0092
  174MPD1    H1 2708   1.828   0.791  14.007  0.4264 -1.2525 -1.2793
  174MPD1    H2 2709   2.189   0.592  14.085  0.3001  0.4191  0.2162
  174MPD1    H3 2710   2.021   0.679  13.929 -1.5542 -0.8649 -0.0058
  174MPD1     N 2711   1.782   0.863  14.265  0.3338  0.3142  0.6152
  174MPD1    H5 2712   1.712   0.887  14.196 -0.8240  0.1186  1.7269
  174MPD1    N1 2713   2.198   0.611  14.334 -0.0026  0.0890 -0.1434
  174MPD1    H6 2714   2.289   0.611  14.289  0.7235  0.6846  1.3230
  174MPD1    H7 2715   2.208   0.663  14.421  0.2931 -0.3051  0.0518
  175MPD1     C 2716   4.620   1.941  15.609  0.6587 -0.1907  0.4088
  175MPD1    C1 2717   0.001   1.950  15.669  0.7616 -0.2767 -0.2375
  175MPD1    C2 2718   0.008   2.007  15.799  0.0751  0.1949  0.1666
  175MPD1    C3 2719   4.636   2.022  15.877  0.3641  0.2726  0.6976
  175MPD1    C4 2720   4.514   2.000  15.812 -0.1265 -0.1690 -0.7535
  175MPD1    C5 2721   4.506   1.961  15.683  0.4011 -0.3935 -0.3343
  175MPD1     H 2722   0.107   2.035  15.833  1.2566 -2.5276 -1.0541
  175MPD1    H1 2723   4.422   2.028  15.862  0.3777  1.8278 -0.9223
  175MPD1    H2 2724   4.609   1.906  15.507  0.3115  0.1319  0.3331
  175MPD1    H3 2725   4.411   1.940  15.636 -0.2065  1.9567 -0.1199
  175MPD1     N 2726   4.638   2.079  16.006 -0.0833  0.1728  0.2636
  175MPD1    H5 2727   4.548   2.095  16.050 -0.8231  1.0351 -1.5695
  175MPD1    N1 2728   0.114   1.937  15.594 -0.2876  0.8156  0.7858
  175MPD1    H6 2729   0.201   1.905  15.637 -0.8188 -0.6163  0.8121
  175MPD1    H7 2730   0.098   1.878  15.513 -0.2127  0.9740  0.6581
  176MPD1     C 2731   2.041   4.723   0.200 -0.0458  0.5763 -0.0510
  176MPD1    C1 2732   2.132   4.707   0.099 -0.7972  0.8854  0.1737
  176MPD1    C2 2733   2.177   0.077   0.032  0.5070 -0.0070  0.1411
  176MPD1    C3 2734   2.155   0.204   0.080 -0.2316  0.0207 -0.9323
  176MPD1    C4 2735   2.077   0.218   0.187  0.2425 -0.5222  0.0655
  176MPD1    C5 2736   2.025   0.106   0.250  0.0144 -0.2649 -0.1292
  176MPD1     H 2737   2.242   0.057  17.707  1.2499  0.0968  0.6865
  176MPD1    H1 2738   2.043   0.308   0.237  1.7623 -0.7360  1.5133
  176MPD1    H2 2739   1.983   4.645   0.249  1.6722  0.0794  1.1782
  176MPD1    H3 2740   1.966   0.111   0.341  0.4806 -0.0044  0.1610
  176MPD1     N 2741   2.205   0.312   0.004  0.0894  0.5464  0.3723
  176MPD1    H5 2742   2.252   0.295  17.676  0.9279 -0.9953  1.1116
  176MPD1    N1 2743   2.155   4.576   0.052  0.1120 -0.0831  0.3295
  176MPD1    H6 2744   2.250   4.564   0.017  0.9298  0.8441  2.2288
  176MPD1    H7 2745   2.119   4.502   0.113  0.7959  0.4327  1.3537
  177MPD1     C 2746   4.391   0.145   9.492 -0.5005  0.3223 -0.5606
  177MPD1    C1 2747   4.346   0.018   9.505  0.2956  0.5915 -0.1140
  177MPD1    C2 2748   4.206   4.737   9.494  0.6732 -0.1043 -0.1901
  177MPD1    C3 2749   4.119   0.095   9.459  0.5083  0.4303 -0.1151
  177MPD1    C4 2750   4.175   0.220   9.428  0.4703 -0.3082  0.2117
  177MPD1    C5 2751   4.305   0.238   9.433 -0.0730 -0.0217  1.0905
  177MPD1     H 2752   4.173   4.634   9.503  0.1108 -0.0562 -1.8275
  177MPD1    H1 2753   4.124   0.310   9.395  0.2689 -0.6883 -0.5276
  177MPD1    H2 2754   4.495   0.171   9.511 -0.7655  1.4923 -0.7491
  177MPD1    H3 2755   4.350   0.335   9.416 -0.8377 -0.3004 -2.5662
  177MPD1     N 2756   3.991   0.058   9.415 -0.3952  0.3734  0.1957
  177MPD1    H5 2757   3.960   4.705   9.440  0.2825 -0.3719 -1.7276
  177MPD1    N1 2758   4.438   4.653   9.544  0.1107 -0.1841  0.0552
  177MPD1    H6 2759   4.417   4.560   9.510  1.2083 -1.2386  2.2308
  177MPD1    H7 2760   4.533   4.684   9.522  0.1452 -0.0172  0.4433
  178MPD1     C 2761   2.963   0.390   0.360  0.8254  0.0972 -0.1391
  178MPD1    C1 2762   2.887   0.308   0.276  0.5431 -0.8131  0.1582
  178MPD1    C2 2763   2.893   0.338   0.146 -0.8127 -0.2317 -0.6546
  178MPD1    C3 2764   2.939   0.458   0.094  0.6874 -1.2589 -0.2689
  178MPD1    C4 2765   2.994   0.544   0.179  0.1996 -0.4290  0.0825
  178MPD1    C5 2766   3.006   0.510   0.308  0.0645 -0.3409  0.6172
  178MPD1     H 2767   2.843   0.275   0.074  0.0613  0.4303 -1.8410
  178MPD1    H1 2768   3.041   0.638   0.152 -3.4131  1.7678  1.3860
  178MPD1    H2 2769   3.007   0.353   0.452 -2.6855  1.5811  2.1709
  178MPD1    H3 2770   3.059   0.573   0.379  0.6213 -0.3751  0.2277
  178MPD1     N 2771   2.943   0.480  17.711 -0.1243 -0.5370 -0.5301
  178MPD1    H5 2772   2.986   0.565  17.674 -0.3039  0.1888  0.9036
  178MPD1    N1 2773   2.843   0.179   0.321 -0.1295  0.0196  0.4733
  178MPD1    H6 2774   2.804   0.180   0.415  2.1235 -1.0644  1.4421
  178MPD1    H7 2775   2.778   0.134   0.258 -1.1905 -0.7785  2.1436
  179MPD1     C 2776   2.294   3.352  15.688  0.1719 -0.5188  0.1406
  179MPD1    C1 2777   2.176   3.295  15.723 -0.2372 -0.1283  0.4112
  179MPD1    C2 2778   2.169   3.166  15.774 -0.4098 -0.4266  0.0407
  179MPD1    C3 2779   2.279   3.084  15.778 -0.0762 -0.6708 -0.5143
  179MPD1    C4 2780   2.397   3.141  15.741 -0.0010 -0.1910 -0.6672
  179MPD1    C5 2781   2.405   3.275  15.701  0.0898  0.5194 -0.1201
  179MPD1     H 2782   2.070   3.135  15.805 -0.9448  0.3774 -0.8886
  179MPD1    H1 2783   2.487   3.081  15.749  0.3394  0.6203  1.7899
  179MPD1    H2 2784   2.306   3.452  15.648  2.6931 -0.5497  0.8467
  179MPD1    H3 2785   2.500   3.310  15.664 -0.3460  0.5925 -1.1786
  179MPD1     N 2786   2.276   2.954  15.823 -0.0822  0.5156  0.1835
  179MPD1    H5 2787   2.369   2.914  15.816 -1.0835 -1.6756 -0.4945
  179MPD1    N1 2788   2.053   3.372  15.718 -0.1537  0.4546 -0.0064
  179MPD1    H6 2789   2.061   3.442  15.644  1.7999  0.1576 -0.0609
  179MPD1    H7 2790   1.964   3.323  15.717 -0.3400  0.7812  0.8334
  180MPD1     C 2791   1.722   0.075  14.798 -0.4545  0.3736 -0.6662
  180MPD1    C1 2792   1.803   0.081  14.689 -0.1370 -0.7337  0.3808
  180MPD1    C2 2793   1.811   4.704  14.617  0.2271 -0.2412 -0.4218
  180MPD1    C3 2794   1.725   4.597  14.632  0.1538 -0.1273 -0.4298
  180MPD1    C4 2795   1.644   4.600  14.752  0.2970  0.2407  0.0528
  180MPD1    C5 2796   1.654   4.709  14.828 -0.0888 -0.0422 -0.3940
  180MPD1     H 2797   1.880   4.693  14.535  0.9220  2.3707 -0.1631
  180MPD1    H1 2798   1.589   4.518  14.796 -0.6470 -0.1954 -1.9369
  180MPD1    H2 2799   1.712   0.159  14.866 -1.1912 -0.2343 -0.0186
  180MPD1    H3 2800   1.596   4.702  14.919 -1.8736  0.5603 -1.4677
  180MPD1     N 2801   1.742   4.485  14.551  0.0321 -0.9206  0.3232
  180MPD1    H5 2802   1.813   4.482  14.479  1.5628 -0.0479  1.7719
  180MPD1    N1 2803   1.882   0.193  14.667 -0.1206  0.2897 -0.2089
  180MPD1    H6 2804   1.901   0.196  14.567  0.3352  2.2150 -0.0633
  180MPD1    H7 2805   1.834   0.277  14.695 -1.1097  0.5483 -2.6647
  181MPD1     C 2806   2.954   1.954  10.587 -0.2976  0.4354 -0.4232
  181MPD1    C1 2807   3.075   1.891  10.602  0.4006 -0.7791 -0.1941
  181MPD1    C2 2808   3.182   1.951  10.544 -0.3311  0.2740 -0.4779
  181MPD1    C3 2809   3.172   2.071  10.465  0.2640 -0.4924 -0.4238
  181MPD1    C4 2810   3.050   2.120  10.449  0.6747  0.3400 -0.5582
  181MPD1    C5 2811   2.941   2.065  10.506  0.8618  0.7580 -0.3152
  181MPD1     H 2812   3.277   1.900  10.550  0.4297  1.7942  0.2885
  181MPD1    H1 2813   3.032   2.203  10.381  2.7357 -0.3525 -1.9298
  181MPD1    H2 2814   2.865   1.904  10.623 -0.1672  0.1302 -0.5286
  181MPD1    H3 2815   2.844   2.111  10.486 -1.2284 -2.1558  3.0542
  181MPD1     N 2816   3.279   2.140  10.404  0.4665  0.9258 -0.6165
  181MPD1    H5 2817   3.263   2.208  10.331 -0.4069  0.3746 -0.9481
  181MPD1    N1 2818   3.084   1.788  10.697  0.0188  0.2520  0.5927
  181MPD1    H6 2819   3.177   1.747  10.703 -1.2692 -2.6765  0.5411
  181MPD1    H7 2820   3.050   1.815  10.789 -1.4076 -0.5404  0.3043
  182MPD1     C 2821   0.470   1.560   1.877 -0.0668  0.3161 -0.1730
  182MPD1    C1 2822   0.527   1.520   1.761  0.2452 -0.0949  0.3725
  182MPD1    C2 2823   0.452   1.521   1.646  0.1551 -0.1431 -0.4558
  182MPD1    C3 2824   0.321   1.557   1.642  0.4166  0.9006  0.6850
  182MPD1    C4 2825   0.262   1.598   1.753 -0.2873  0.1403  0.3756
  182MPD1    C5 2826   0.341   1.600   1.865 -0.7331 -0.1850  0.0324
  182MPD1     H 2827   0.497   1.497   1.551 -1.4140  2.6304 -1.8677
  182MPD1    H1 2828   0.157   1.616   1.773 -0.2330  0.7320  0.1145
  182MPD1    H2 2829   0.517   1.571   1.975 -0.8520 -1.2265  0.3815
  182MPD1    H3 2830   0.298   1.641   1.955  0.4551  0.3857  0.3503
  182MPD1     N 2831   0.251   1.554   1.526  0.1616 -0.2264 -0.0378
  182MPD1    H5 2832   0.157   1.592   1.524  1.9440  4.0573 -0.7911
  182MPD1    N1 2833   0.665   1.492   1.750  0.3405 -0.5285 -0.0984
  182MPD1    H6 2834   0.695   1.448   1.836  0.2552  2.7273  1.5927
  182MPD1    H7 2835   0.677   1.420   1.679  1.9297  2.2158 -2.6644
  183MPD1     C 2836   4.008   0.771   8.682  0.5765  0.2174  0.4495
  183MPD1    C1 2837   3.894   0.771   8.760  0.1361  0.7119  0.3961
  183MPD1    C2 2838   3.905   0.805   8.895  0.3256 -0.7520 -0.0596
  183MPD1    C3 2839   4.033   0.821   8.944  0.2268  0.5359  0.1262
  183MPD1    C4 2840   4.149   0.794   8.871  0.1921 -0.4418  0.4012
  183MPD1    C5 2841   4.132   0.763   8.735  0.3387 -0.2851  1.0224
  183MPD1     H 2842   3.818   0.819   8.958 -0.2822 -0.3512 -0.9888
  183MPD1    H1 2843   4.252   0.796   8.902  0.7581 -3.2163 -1.2438
  183MPD1    H2 2844   4.006   0.749   8.576  2.2333  1.0577  0.2475
  183MPD1    H3 2845   4.216   0.731   8.674 -0.5272 -1.6561  0.5714
  183MPD1     N 2846   4.044   0.875   9.072  0.5461 -0.1578  0.5575
  183MPD1    H5 2847   3.953   0.894   9.113  1.6852  3.2531  1.5067
  183MPD1    N1 2848   3.773   0.773   8.698  0.8251  0.3941 -0.1705
  183MPD1    H6 2849   3.766   0.713   8.616 -2.3314  1.1294 -0.4119
  183MPD1    H7 2850   3.694   0.753   8.758  0.9988 -2.9326 -1.0558
  184MPD1     C 2851   3.345   4.529  10.746 -0.1299 -0.4374  0.5222
  184MPD1    C1 2852   3.333   4.431  10.644  0.3185 -0.0163  0.1770
  184MPD1    C2 2853   3.375   4.467  10.514  0.2865 -0.8934  0.2297
  184MPD1    C3 2854   3.399   4.603  10.482 -0.1224  0.6637  0.5298
  184MPD1    C4 2855   3.380   4.700  10.586  0.1998 -1.1513  0.2072
  184MPD1    C5 2856   3.362   4.657  10.711  0.3281 -0.0512 -0.2932
  184MPD1     H 2857   3.372   4.406  10.425 -2.4412 -1.1318  0.4660
  184MPD1    H1 2858   3.388   0.066  10.568 -0.1028 -0.4381  4.2818
  184MPD1    H2 2859   3.329   4.505  10.851  1.1364  0.5606  0.9470
  184MPD1    H3 2860   3.349   4.725  10.795  0.9246 -1.1901  0.7308
  184MPD1     N 2861   3.447   4.652  10.355  0.0117 -0.1388  0.4417
  184MPD1    H5 2862   3.454   0.012  10.353 -0.2850 -0.1436 -1.2644
  184MPD1    N1 2863   3.303   4.294  10.677  0.3331 -0.5555  0.6187
  184MPD1    H6 2864   3.262   4.239  10.602 -1.5852  1.8052 -0.0564
  184MPD1    H7 2865   3.250   4.287  10.763 -0.5333  1.6599  0.2659
  185MPD1     C 2866   3.340   0.343   9.463  0.7512 -0.2852  0.0609
  185MPD1    C1 2867   3.258   0.295   9.561  0.2262  0.3989 -0.4046
  185MPD1    C2 2868   3.319   0.233   9.662  0.6982  0.5391  0.0392
  185MPD1    C3 2869   3.457   0.211   9.674  0.7292 -0.4066 -0.0999
  185MPD1    C4 2870   3.536   0.252   9.567  0.2546 -0.2909  0.3226
  185MPD1    C5 2871   3.476   0.320   9.468 -0.8792 -0.1668 -0.4042
  185MPD1     H 2872   3.256   0.198   9.744  1.0137 -3.5692 -1.4792
  185MPD1    H1 2873   3.644   0.238   9.569  0.6363  2.5032 -1.2576
  185MPD1    H2 2874   3.301   0.392   9.374 -0.6390  0.6486  1.1952
  185MPD1    H3 2875   3.541   0.356   9.388 -0.1248 -1.6145 -0.4397
  185MPD1     N 2876   3.521   0.158   9.789 -0.0296 -0.0005  0.0284
  185MPD1    H5 2877   3.620   0.144   9.771 -0.2041 -2.0782  0.7340
  185MPD1    N1 2878   3.122   0.331   9.556  0.6469  0.4030  0.5045
  185MPD1    H6 2879   3.049   0.292   9.615  0.5618 -0.0324  0.1108
  185MPD1    H7 2880   3.086   0.351   9.463 -0.7071  1.9387  1.3666
  186MPD1     C 2881   2.851   3.168  15.662 -0.2642  0.2297 -0.1809
  186MPD1    C1 2882   2.776   3.160  15.776  0.6177 -0.0965  0.3827
  186MPD1    C2 2883   2.734   3.277  15.835  0.5454  0.0253 -0.2199
  186MPD1    C3 2884   2.755   3.398  15.775 -0.4150 -0.2348  0.7875
  186MPD1    C4 2885   2.834   3.405  15.662  0.4632 -0.0394 -0.6439
  186MPD1    C5 2886   2.884   3.291  15.605 -0.6598  0.7391  0.5558
  186MPD1     H 2887   2.672   3.272  15.924 -1.5921 -2.7807 -1.8926
  186MPD1    H1 2888   2.851   3.495  15.603 -0.3849 -0.3456 -1.3529
  186MPD1    H2 2889   2.882   3.075  15.615 -0.6826 -1.2285  2.4194
  186MPD1    H3 2890   2.944   3.299  15.516 -1.8464  2.8349 -0.0596
  186MPD1     N 2891   2.698   3.519  15.819 -0.3437 -0.0740 -0.1370
  186MPD1    H5 2892   2.720   3.594  15.754  1.7220 -1.1134 -0.6335
  186MPD1    N1 2893   2.754   3.033  15.835 -0.3094  0.2166  0.0213
  186MPD1    H6 2894   2.665   3.037  15.885 -0.6308 -0.3378 -0.5157
  186MPD1    H7 2895   2.753   2.950  15.775  0.2898  0.7480 -0.7180
  187MPD1     C 2896   1.433   1.530  17.303 -0.1361 -0.5828  0.5598
  187MPD1    C1 2897   1.390   1.404  17.338  0.3401 -0.2322 -0.0120
  187MPD1    C2 2898   1.445   1.294  17.285 -0.0233  0.0460 -0.5379
  187MPD1    C3 2899   1.554   1.309  17.196  0.5625 -0.0037  0.6507
  187MPD1    C4 2900   1.595   1.433  17.153 -0.5779  0.0534 -0.1728
  187MPD1    C5 2901   1.531   1.541  17.209  0.6812  0.4905  0.3654
  187MPD1     H 2902   1.407   1.198  17.320  2.3357  0.3632  2.9811
  187MPD1    H1 2903   1.682   1.451  17.091 -0.9547 -0.5004 -0.8645
  187MPD1    H2 2904   1.395   1.614  17.360 -1.7816 -0.3119 -0.9483
  187MPD1    H3 2905   1.568   1.639  17.181  1.4396  0.8618  2.6596
  187MPD1     N 2906   1.623   1.193  17.156  0.9190 -0.2653  0.7161
  187MPD1    H5 2907   1.706   1.223  17.106 -0.7561  2.6723 -0.3129
  187MPD1    N1 2908   1.298   1.384  17.441  0.2163  0.4266 -0.2986
  187MPD1    H6 2909   1.229   1.459  17.446  0.4695  0.6696 -0.4379
  187MPD1    H7 2910   1.242   1.300  17.428  0.8542  0.0672 -0.7306
  188MPD1     C 2911   1.731   0.806   9.938  0.4814  0.1796 -0.2061
  188MPD1    C1 2912   1.826   0.718   9.895 -0.2289  0.0098 -0.2710
  188MPD1    C2 2913   1.856   0.606   9.970  0.6701 -0.7297 -0.7489
  188MPD1    C3 2914   1.785   0.580  10.085  0.9197  0.0156  0.0716
  188MPD1    C4 2915   1.683   0.667  10.128  0.4936 -0.0911  0.2147
  188MPD1    C5 2916   1.658   0.775  10.049  0.8928 -0.6609  0.3872
  188MPD1     H 2917   1.945   0.547   9.955  1.4492  0.0393  0.8468
  188MPD1    H1 2918   1.630   0.657  10.222  1.0316  0.7042  0.5940
  188MPD1    H2 2919   1.712   0.898   9.884  1.5355  0.8614  0.5797
  188MPD1    H3 2920   1.590   0.849  10.090  1.5435  0.6446 -0.8745
  188MPD1     N 2921   1.801   0.463  10.162  0.4579 -0.2998 -0.2624
  188MPD1    H5 2922   1.753   0.465  10.251  0.8327  0.3042 -0.0757
  188MPD1    N1 2923   1.903   0.749   9.782  0.1557 -0.2605  0.3482
  188MPD1    H6 2924   1.932   0.664   9.733  1.4138  0.7202 -0.5949
  188MPD1    H7 2925   1.838   0.795   9.719  0.8181  0.2284  0.0217
  189MPD1     C 2926   3.120   2.963   1.670 -0.3981  0.8314 -0.0107
  189MPD1    C1 2927   3.086   2.856   1.591 -0.5396 -0.5287  0.5209
  189MPD1    C2 2928   3.172   2.818   1.483 -0.7315 -0.5233  0.6498
  189MPD1    C3 2929   3.290   2.886   1.474  0.4874  0.6493 -0.5290
  189MPD1    C4 2930   3.317   3.001   1.547  0.6745 -0.1265 -0.4748
  189MPD1    C5 2931   3.233   3.033   1.647 -0.4820  0.4437  0.0725
  189MPD1     H 2932   3.151   2.736   1.416  1.8348  0.4898 -1.3851
  189MPD1    H1 2933   3.404   3.064   1.535  0.5805  0.3172  1.1940
  189MPD1    H2 2934   3.063   3.013   1.748  0.0134 -0.4383  1.0873
  189MPD1    H3 2935   3.255   3.122   1.706  1.1843 -0.3395  0.6255
  189MPD1     N 2936   3.382   2.842   1.373 -0.0672  0.1253  0.6553
  189MPD1    H5 2937   3.346   2.763   1.321 -1.6048  0.2587  1.4913
  189MPD1    N1 2938   2.961   2.798   1.603 -0.0540 -0.0063  0.3349
  189MPD1    H6 2939   2.916   2.799   1.694 -1.5329  2.2248 -0.4283
  189MPD1    H7 2940   2.959   2.701   1.572  2.7910 -0.0058  0.1199
  190MPD1     C 2941   2.334   4.320  14.652 -0.8815  0.5715  0.1915
  190MPD1    C1 2942   2.446   4.251  14.659 -0.2593  0.1132  0.0701
  190MPD1    C2 2943   2.517   4.251  14.782 -0.2165  0.2384  0.4359
  190MPD1    C3 2944   2.496   4.351  14.876  1.3603 -0.3812  0.3700
  190MPD1    C4 2945   2.387   4.436  14.860  0.1339  0.0337  0.3329
  190MPD1    C5 2946   2.307   4.413  14.750 -1.1380  0.7784  0.3416
  190MPD1     H 2947   2.589   4.173  14.803  0.0331  0.2438 -0.3882
  190MPD1    H1 2948   2.360   4.512  14.933  2.2960  0.4458  0.6995
  190MPD1    H2 2949   2.276   4.314  14.560  0.6270 -0.5854 -0.6957
  190MPD1    H3 2950   2.222   4.480  14.741 -1.5366  0.3821  1.1502
  190MPD1     N 2951   2.586   4.367  14.985  0.2297  0.4656  0.4531
  190MPD1    H5 2952   2.657   4.294  14.991  1.8128  1.9022 -0.6419
  190MPD1    N1 2953   2.480   4.152  14.560  0.5550  0.3793  0.3494
  190MPD1    H6 2954   2.475   4.193  14.467  0.5229  0.1818  0.2649
  190MPD1    H7 2955   2.570   4.107  14.575  0.7389  0.7130  0.2559
  191MPD1     C 2956   1.590   0.611  12.725 -1.1223 -0.4390  0.3055
  191MPD1    C1 2957   1.463   0.574  12.693  0.0877 -0.2505 -0.3264
  191MPD1    C2 2958   1.369   0.678  12.668  0.0522  0.7084  0.9319
  191MPD1    C3 2959   1.408   0.811  12.690 -0.0728 -0.0283  0.9879
  191MPD1    C4 2960   1.540   0.844  12.725 -0.1389  0.1646 -0.5353
  191MPD1    C5 2961   1.628   0.739  12.745  0.7725  0.0570 -0.0490
  191MPD1     H 2962   1.269   0.656  12.633 -0.1054 -2.1403  3.0959
  191MPD1    H1 2963   1.573   0.946  12.742  1.9645 -0.4556 -0.9035
  191MPD1    H2 2964   1.663   0.532  12.721 -0.4277  0.0394  3.5710
  191MPD1    H3 2965   1.728   0.751  12.784 -0.4192  0.0333  3.0031
  191MPD1     N 2966   1.309   0.915  12.668 -0.3451  0.2599 -0.1771
  191MPD1    H5 2967   1.219   0.886  12.631  0.2450 -0.4969 -1.0232
  191MPD1    N1 2968   1.433   0.442  12.646 -0.6537 -0.0420  0.2996
  191MPD1    H6 2969   1.488   0.368  12.689 -0.9690 -1.0126 -0.9381
  191MPD1    H7 2970   1.334   0.421  12.657 -0.5695 -0.5760  0.0421
  192MPD1     C 2971   0.521   0.911  12.303  0.1075  0.3897 -0.0892
  192MPD1    C1 2972   0.545   1.040  12.357  0.4950  0.5614 -0.1516
  192MPD1    C2 2973   0.676   1.073  12.381  0.4117  0.0745  0.3699
  192MPD1    C3 2974   0.784   0.991  12.362 -0.5924  0.0539  0.2113
  192MPD1    C4 2975   0.758   0.860  12.320  0.2672  0.2006  0.2586
  192MPD1    C5 2976   0.628   0.825  12.283 -0.2427 -0.3696  0.0694
  192MPD1     H 2977   0.698   1.175  12.412 -1.5322  0.6862 -0.2543
  192MPD1    H1 2978   0.837   0.789  12.297 -0.7538 -0.8015 -0.1697
  192MPD1    H2 2979   0.424   0.865  12.284  0.1576 -0.1417  0.9610
  192MPD1    H3 2980   0.616   0.728  12.237 -0.2947 -1.0054  1.4323
  192MPD1     N 2981   0.918   1.042  12.375 -0.3089 -0.2315 -0.1943
  192MPD1    H5 2982   0.987   0.967  12.374  1.0661  1.0396  0.3562
  192MPD1    N1 2983   0.438   1.127  12.365 -0.4656  0.3038 -0.2088
  192MPD1    H6 2984   0.341   1.097  12.375 -0.3320 -0.1972 -0.4115
  192MPD1    H7 2985   0.454   1.212  12.418  0.6383 -0.5613  0.8419
  193MPD1     C 2986   1.594   2.028  17.561 -0.7367 -0.0910  0.5179
  193MPD1    C1 2987   1.520   2.131  17.504  0.5056  0.2723 -0.4973
  193MPD1    C2 2988   1.559   2.171  17.376  0.0614  0.3697  0.3418
  193MPD1    C3 2989   1.651   2.099  17.302 -0.4162 -0.6205  0.0314
  193MPD1    C4 2990   1.721   1.999  17.359 -0.8370  0.3275 -0.3233
  193MPD1    C5 2991   1.689   1.969  17.485 -0.3087  0.1775 -0.4477
  193MPD1     H 2992   1.522   2.265  17.336  1.1324  0.9980  0.8471
  193MPD1    H1 2993   1.804   1.949  17.310 -0.3892 -0.9506  1.7116
  193MPD1    H2 2994   1.579   1.998  17.664 -0.7608  0.6599  0.7359
  193MPD1    H3 2995   1.734   1.881  17.529  1.6880  1.7898  0.7256
  193MPD1     N 2996   1.689   2.135  17.171  0.1488  0.0650 -0.1148
  193MPD1    H5 2997   1.751   2.066  17.132 -0.6982 -0.4479 -0.5612
  193MPD1    N1 2998   1.439   2.212  17.582 -0.4939 -0.2486 -0.3919
  193MPD1    H6 2999   1.371   2.274  17.538 -2.1503 -0.4659  1.8735
  193MPD1    H7 3000   1.374   2.154  17.635  0.3686 -0.4708  0.4313
  194MPD1     C 3001   3.557   4.029   0.260 -0.4379  0.4091 -0.0764
  194MPD1    C1 3002   3.681   3.986   0.300 -0.1758 -0.8213 -0.0972
  194MPD1    C2 3003   3.750   3.925   0.204  0.7009 -0.7550  0.0131
  194MPD1    C3 3004   3.690   3.883   0.084  0.1646 -0.5334 -0.0213
  194MPD1    C4 3005   3.565   3.919   0.056 -0.0188  0.0839  0.2894
  194MPD1    C5 3006   3.500   4.003   0.145  0.2423  0.1725  0.7457
  194MPD1     H 3007   3.854   3.900   0.223  0.2409 -0.7889  2.5110
  194MPD1    H1 3008   3.504   3.889  17.732  0.2075  1.0605 -0.2123
  194MPD1    H2 3009   3.504   4.102   0.320 -0.2051 -0.6833  1.4495
  194MPD1    H3 3010   3.400   4.034   0.115  0.1572 -1.0390 -0.2379
  194MPD1     N 3011   3.765   3.801  17.759 -0.1298  0.6757  0.3266
  194MPD1    H5 3012   3.862   3.795   0.028  0.1631 -0.2741 -0.8222
  194MPD1    N1 3013   3.739   4.057   0.402  0.0523 -0.4699  0.0317
  194MPD1    H6 3014   3.820   4.013   0.444  0.3163 -0.6346 -0.6432
  194MPD1    H7 3015   3.673   4.077   0.476  0.1975 -2.8571  0.8140
  195MPD1     C 3016   0.612   1.355   0.207  0.4277  0.1278  0.1577
  195MPD1    C1 3017   0.696   1.442   0.152  0.3720 -0.4210 -0.3824
  195MPD1    C2 3018   0.826   1.400   0.110  0.4479  0.3928  0.7003
  195MPD1    C3 3019   0.867   1.274   0.136  1.0197  0.7481 -0.0866
  195MPD1    C4 3020   0.781   1.188   0.199 -0.5028 -0.3276  1.0371
  195MPD1    C5 3021   0.659   1.230   0.240 -0.8578 -0.2044 -0.4366
  195MPD1     H 3022   0.888   1.471   0.056 -0.4873  0.2050 -0.6186
  195MPD1    H1 3023   0.819   1.088   0.218  0.1062 -0.5305 -1.3076
  195MPD1    H2 3024   0.514   1.393   0.234  1.2513  2.8183 -0.6709
  195MPD1    H3 3025   0.598   1.167   0.303  2.4185  1.2031  4.0937
  195MPD1     N 3026   1.000   1.231   0.106  0.4511  0.1495  0.1711
  195MPD1    H5 3027   1.025   1.133   0.115  3.1729  0.7772 -0.7055
  195MPD1    N1 3028   0.644   1.556   0.097 -0.0424 -0.3158  0.2593
  195MPD1    H6 3029   0.573   1.605   0.150 -0.4955 -0.1161 -0.5373
  195MPD1    H7 3030   0.714   1.630   0.105 -1.6419  1.1175  0.9651
  196MPD1     C 3031   1.577   0.907   0.219  0.0114  0.1841 -0.3919
  196MPD1    C1 3032   1.488   0.811   0.269  0.6416 -0.5528 -0.1869
  196MPD1    C2 3033   1.415   0.848   0.380 -0.3151  0.7222  0.3133
  196MPD1    C3 3034   1.429   0.977   0.432  0.1238 -0.2440 -0.3854
  196MPD1    C4 3035   1.508   1.074   0.366 -0.1929 -0.0335 -0.1643
  196MPD1    C5 3036   1.586   1.035   0.258  0.4597 -0.3266  0.2996
  196MPD1     H 3037   1.359   0.770   0.431  0.1312  0.2087  0.0232
  196MPD1    H1 3038   1.524   1.175   0.402  0.2789  0.3197 -1.3803
  196MPD1    H2 3039   1.632   0.876   0.131  0.0943  0.1905 -0.3417
  196MPD1    H3 3040   1.663   1.104   0.225 -0.2995 -0.1814 -1.1708
  196MPD1     N 3041   1.353   1.032   0.538 -0.3166 -0.3829 -0.6189
  196MPD1    H5 3042   1.384   1.125   0.564 -0.6196 -0.0752 -1.3536
  196MPD1    N1 3043   1.482   0.670   0.223 -0.3784 -0.3016  0.5899
  196MPD1    H6 3044   1.499   0.668   0.123  1.7725 -1.7833  0.9936
  196MPD1    H7 3045   1.403   0.607   0.240 -0.6327  0.3838  1.9865
  197MPD1     C 3046   0.209   1.987  17.506  0.0530 -0.2656 -0.2144
  197MPD1    C1 3047   0.250   2.105  17.571  0.0373 -0.2392 -0.5265
  197MPD1    C2 3048   0.265   2.226  17.505  0.1202  0.0990  0.5333
  197MPD1    C3 3049   0.208   2.230  17.380 -0.4101  0.4110 -0.7718
  197MPD1    C4 3050   0.149   2.116  17.321 -0.0264 -0.0023 -0.4656
  197MPD1    C5 3051   0.167   1.995  17.378 -0.0280  0.3137  0.4120
  197MPD1     H 3052   0.310   2.311  17.554 -0.8834  1.0282 -0.1562
  197MPD1    H1 3053   0.126   2.113  17.215 -1.4555  0.3063 -0.1711
  197MPD1    H2 3054   0.222   1.891  17.554 -1.9100 -0.6396 -0.4198
  197MPD1    H3 3055   0.134   1.898  17.340  0.3290 -0.6349  2.5505
  197MPD1     N 3056   0.199   2.336  17.286 -0.2833 -0.1512  0.2534
  197MPD1    H5 3057   0.149   2.320  17.199  0.3384 -1.0108  0.0488
  197MPD1    N1 3058   0.300   2.081  17.703 -0.8848  0.0526  0.3833
  197MPD1    H6 3059   0.245   2.008  17.749  0.7351 -1.3125  0.1234
  197MPD1    H7 3060   0.282   2.162   0.002 -1.1089  1.2983 -1.3943
  198MPD1     C 3061   2.146   0.571  14.769  0.2702 -0.0693 -0.4464
  198MPD1    C1 3062   2.252   0.542  14.851 -0.1744 -0.4534 -0.3755
  198MPD1    C2 3063   2.282   0.613  14.963  0.0764 -0.1105  0.5454
  198MPD1    C3 3064   2.224   0.738  14.979  0.0967 -0.4902  0.1750
  198MPD1    C4 3065   2.119   0.773  14.896 -0.0572  0.2524  0.1684
  198MPD1    C5 3066   2.080   0.691  14.795  0.2857 -0.3477  1.0528
  198MPD1     H 3067   2.357   0.599  15.041  0.3581 -3.6487 -0.3706
  198MPD1    H1 3068   2.060   0.861  14.915  1.7082  1.0797  1.8836
  198MPD1    H2 3069   2.119   0.510  14.683 -2.1226  1.4923 -0.8038
  198MPD1    H3 3070   1.993   0.727  14.741  0.5143  0.2431  1.0695
  198MPD1     N 3071   2.264   0.811  15.097 -0.4218  0.2779 -0.1271
  198MPD1    H5 3072   2.327   0.770  15.165 -0.5868  2.8186  1.5714
  198MPD1    N1 3073   2.327   0.428  14.821 -0.3436  0.7220 -0.0912
  198MPD1    H6 3074   2.323   0.403  14.722  0.8236 -0.3174  0.1128
  198MPD1    H7 3075   2.423   0.443  14.853 -1.0255 -0.4242  2.4735
  199MPD1     C 3076   4.079   2.194   9.763  0.7165  0.0771 -0.3162
  199MPD1    C1 3077   4.122   2.327   9.736  0.0254  0.0637 -0.2190
  199MPD1    C2 3078   4.028   2.427   9.729  0.6468 -0.1009  0.9222
  199MPD1    C3 3079   3.898   2.400   9.769  0.6783 -0.2937  0.6051
  199MPD1    C4 3080   3.869   2.274   9.825  0.2813  0.0358 -0.3306
  199MPD1    C5 3081   3.957   2.168   9.821 -0.4465  0.2989  1.0628
  199MPD1     H 3082   4.056   2.523   9.688  1.3149 -0.1032  1.3673
  199MPD1    H1 3083   3.765   2.258   9.851  0.3764 -0.5252 -0.2930
  199MPD1    H2 3084   4.141   2.105   9.760  1.0612  0.2708  1.4072
  199MPD1    H3 3085   3.920   2.071   9.851 -0.1547 -0.9771 -2.6046
  199MPD1     N 3086   3.790   2.495   9.787 -1.4805 -0.1627  0.2850
  199MPD1    H5 3087   3.710   2.457   9.837 -1.5001  0.3482  0.6401
  199MPD1    N1 3088   4.258   2.354   9.691  0.2416 -0.2470  0.0250
  199MPD1    H6 3089   4.296   2.438   9.734 -0.0425 -0.4959  0.7714
  199MPD1    H7 3090   4.322   2.278   9.710 -0.0670 -1.0007 -1.9399
  200MPD1     C 3091   3.106   1.721  15.340 -0.3251 -0.2198 -0.0199
  200MPD1    C1 3092   3.146   1.836  15.409 -0.2955 -0.1377 -0.1873
  200MPD1    C2 3093   3.224   1.928  15.344 -0.2875 -0.2131 -0.3445
  200MPD1    C3 3094   3.258   1.921  15.214  0.1085 -0.0961  0.0799
  200MPD1    C4 3095   3.221   1.808  15.148  0.7052  0.5496  0.3668
  200MPD1    C5 3096   3.144   1.714  15.211 -0.2119  0.3714  0.1473
  200MPD1     H 3097   3.247   2.020  15.395  1.5374 -0.9737  0.1903
  200MPD1    H1 3098   3.248   1.799  15.044  1.3413 -0.2271  0.5964
  200MPD1    H2 3099   3.033   1.647  15.371  1.2315 -0.3551  3.2977
  200MPD1    H3 3100   3.109   1.632  15.150  1.3330  0.2260 -0.5349
  200MPD1     N 3101   3.333   2.028  15.155  0.6897 -0.4623 -0.3181
  200MPD1    H5 3102   3.358   2.100  15.221  0.5815  0.2143 -1.0220
  200MPD1    N1 3103   3.099   1.865  15.539 -0.1534  0.4207 -0.0915
  200MPD1    H6 3104   3.153   1.938  15.586 -0.5741  0.1520  0.8188
  200MPD1    H7 3105   3.074   1.784  15.595  0.1659  0.3585 -0.0343
  201MPD1     C 3106   0.984   1.317  12.783  0.5302 -0.0708  0.5485
  201MPD1    C1 3107   1.049   1.258  12.891 -0.3025 -0.3004 -0.2219
  201MPD1    C2 3108   1.036   1.119  12.913  0.2899  0.3549  0.1395
  201MPD1    C3 3109   0.942   1.050  12.832  0.1329  0.0530 -0.3098
  201MPD1    C4 3110   0.877   1.115  12.733 -0.4242 -0.5264 -0.3404
  201MPD1    C5 3111   0.890   1.251  12.716 -0.0626  0.5690  0.8102
  201MPD1     H 3112   1.086   1.073  12.998  0.1265 -1.6794 -0.8620
  201MPD1    H1 3113   0.799   1.064  12.677 -0.8407 -0.3794  0.1034
  201MPD1    H2 3114   0.997   1.418  12.747  0.2804 -1.0317 -2.1973
  201MPD1    H3 3115   0.840   1.308  12.638 -0.9917 -1.3901 -0.0186
  201MPD1     N 3116   0.923   0.915  12.860 -0.3380  0.8259 -0.2438
  201MPD1    H5 3117   0.976   0.880  12.939 -0.0718  0.4804 -0.5753
  201MPD1    N1 3118   1.147   1.329  12.963 -0.1767  0.0710  0.3145
  201MPD1    H6 3119   1.142   1.429  12.948 -1.1839  0.1426  1.1057
  201MPD1    H7 3120   1.169   1.294  13.057 -0.5047 -1.0894 -0.0424
  202MPD1     C 3121   0.502   0.702   9.109  0.4257 -0.2183 -0.1865
  202MPD1    C1 3122   0.598   0.668   9.202  0.5616 -0.3645  0.0440
  202MPD1    C2 3123   0.553   0.639   9.333 -0.2840  0.3280  1.1781
  202MPD1    C3 3124   0.430   0.687   9.382  0.1615 -0.1518  0.7786
  202MPD1    C4 3125   0.344   0.734   9.287  0.5791 -0.3047 -0.1411
  202MPD1    C5 3126   0.371   0.733   9.151  0.4773  0.4614 -0.2260
  202MPD1     H 3127   0.624   0.610   9.409 -0.4582 -1.5792  0.6213
  202MPD1    H1 3128   0.242   0.751   9.318  0.4455  1.2835 -1.3956
  202MPD1    H2 3129   0.525   0.702   9.003 -0.5488  1.9532 -0.3995
  202MPD1    H3 3130   0.295   0.758   9.078 -2.0056 -2.4752  1.3697
  202MPD1     N 3131   0.390   0.682   9.520 -0.7549  0.1884  0.0053
  202MPD1    H5 3132   0.296   0.714   9.542 -0.5245  0.2139  0.9524
  202MPD1    N1 3133   0.709   0.593   9.158 -0.3128 -0.3732  0.0783
  202MPD1    H6 3134   0.745   0.635   9.073  0.6835 -3.2726 -0.9495
  202MPD1    H7 3135   0.777   0.583   9.233 -1.7869  0.9731  1.5728
  203MPD1     C 3136   4.493   1.865  12.559  0.5373  0.0326  0.1586
  203MPD1    C1 3137   4.485   1.795  12.443 -0.1778  0.2041 -0.1230
  203MPD1    C2 3138   4.484   1.654  12.458 -0.4693  0.2547 -0.3295
  203MPD1    C3 3139   4.521   1.589  12.579  0.4173 -0.1858 -0.2577
  203MPD1    C4 3140   4.543   1.675  12.687  0.6629 -0.5530  0.6730
  203MPD1    C5 3141   4.528   1.808  12.676  0.1842 -0.1126 -0.5596
  203MPD1     H 3142   4.454   1.591  12.375  0.9204 -1.5475  0.5466
  203MPD1    H1 3143   4.574   1.644  12.786  0.3644 -0.3088  0.8423
  203MPD1    H2 3144   4.467   1.970  12.560 -0.8852 -0.3228  0.2967
  203MPD1    H3 3145   4.548   1.876  12.757  3.6350 -2.4421  0.5514
  203MPD1     N 3146   4.535   1.451  12.582  0.1305 -0.4836 -0.0829
  203MPD1    H5 3147   4.524   1.398  12.496  0.7128 -4.3505  2.2282
  203MPD1    N1 3148   4.434   1.854  12.329  0.1601  0.1597  0.7995
  203MPD1    H6 3149   4.478   1.804  12.251 -1.4656  0.5696 -0.3851
  203MPD1    H7 3150   4.468   1.950  12.326 -0.5113  0.3213 -1.7559
  204MPD1     C 3151   4.195   3.068  17.746 -0.4503  0.2567  0.5310
  204MPD1    C1 3152   4.092   3.065  17.652  1.2267  0.0389  0.2099
  204MPD1    C2 3153   4.019   2.951  17.636 -0.5575 -0.3683  1.0092
  204MPD1    C3 3154   4.060   2.833  17.696  0.8896 -1.0655  0.6072
  204MPD1    C4 3155   4.164   2.834   0.029 -0.6131 -0.2894  0.2171
  204MPD1    C5 3156   4.237   2.948   0.045 -0.6748  0.4903 -0.0941
  204MPD1     H 3157   3.946   2.944  17.556  0.1625  2.0110  0.1240
  204MPD1    H1 3158   4.185   2.743   0.084  1.0132 -0.2512 -0.3338
  204MPD1    H2 3159   4.244   3.162   0.011 -0.2367  0.6615 -1.3613
  204MPD1    H3 3160   4.312   2.947   0.123 -0.7294  1.8696 -0.0324
  204MPD1     N 3161   3.989   2.713  17.655  0.3570  0.0422 -0.1070
  204MPD1    H5 3162   3.925   2.720  17.576  1.3803  0.1721 -0.9277
  204MPD1    N1 3163   4.049   3.191  17.599  0.0698 -0.4418  0.1630
  204MPD1    H6 3164   4.127   3.255  17.595  0.5307 -0.9475  1.1511
  204MPD1    H7 3165   4.008   3.181  17.506  1.4034 -0.9516 -0.3659
  205MPD1     C 3166   4.231   1.372  17.173  0.6825 -0.1484  0.5020
  205MPD1    C1 3167   4.103   1.408  17.139  0.4937  0.0215  0.0704
  205MPD1    C2 3168   4.006   1.383  17.231 -0.6483 -0.4604  0.4583
  205MPD1    C3 3169   4.036   1.354  17.363  0.5251 -0.0831  0.7735
  205MPD1    C4 3170   4.162   1.321  17.394  0.1008  0.3648  0.5572
  205MPD1    C5 3171   4.256   1.323  17.298  0.1442  0.7206 -0.0834
  205MPD1     H 3172   3.906   1.400  17.194 -0.2085  2.1656  0.4916
  205MPD1    H1 3173   4.190   1.282  17.492 -2.2821  0.6166  1.3361
  205MPD1    H2 3174   4.310   1.370  17.099 -0.0993  0.6364 -0.3550
  205MPD1    H3 3175   4.356   1.294  17.327  0.3813  0.4448 -1.1756
  205MPD1     N 3176   3.931   1.346  17.457  0.4582  0.4142 -0.1307
  205MPD1    H5 3177   3.954   1.310  17.549  0.9811  0.2741 -0.3157
  205MPD1    N1 3178   4.070   1.419  17.003 -0.2467 -0.2729 -0.1182
  205MPD1    H6 3179   3.984   1.473  16.990 -1.1036 -1.5132  0.4098
  205MPD1    H7 3180   4.144   1.472  16.959 -0.2173 -0.8013 -0.6915
  206MPD1     C 3181   4.142   3.452  16.701 -0.2935  0.6399 -0.2201
  206MPD1    C1 3182   4.204   3.571  16.711  0.1986  0.8199 -0.5639
  206MPD1    C2 3183   4.159   3.677  16.630  0.5460 -0.2858 -0.5735
  206MPD1    C3 3184   4.072   3.657  16.523  0.1928  0.1891  0.3124
  206MPD1    C4 3185   4.018   3.530  16.512 -0.2730 -0.4415  0.5815
  206MPD1    C5 3186   4.058   3.430  16.603  0.0879  0.6621  0.5298
  206MPD1     H 3187   4.210   3.772  16.643 -0.9325  0.5074 -0.6656
  206MPD1    H1 3188   3.962   3.496  16.426 -0.8388  1.6015  0.1415
  206MPD1    H2 3189   4.164   3.373  16.773 -0.9417  0.4019 -0.2838
  206MPD1    H3 3190   4.019   3.329  16.596  1.2749  0.2778 -0.3878
  206MPD1     N 3191   4.063   3.762  16.422  0.1873 -0.0268 -0.0985
  206MPD1    H5 3192   4.022   3.741  16.332  1.8837  1.7533 -1.2867
  206MPD1    N1 3193   4.279   3.614  16.820 -0.2544 -0.2413 -0.1669
  206MPD1    H6 3194   4.336   3.698  16.806 -0.2851  0.1752  2.1514
  206MPD1    H7 3195   4.336   3.536  16.851  0.5268  1.4137  2.6359
  207MPD1     C 3196   0.729   2.201   9.973  0.0160  0.7742 -0.7177
  207MPD1    C1 3197   0.805   2.084   9.957 -0.0933 -0.2957  0.2071
  207MPD1    C2 3198   0.898   2.045  10.052 -0.6406 -0.8142  0.2114
  207MPD1    C3 3199   0.918   2.136  10.158 -0.2216  0.5424  0.1076
  207MPD1    C4 3200   0.839   2.247  10.172  0.9418  0.2114 -0.7913
  207MPD1    C5 3201   0.746   2.282  10.079  0.0614 -0.0832 -0.0127
  207MPD1     H 3202   0.963   1.959  10.048  2.0672  1.1739  1.2768
  207MPD1    H1 3203   0.866   2.311  10.255  0.5278 -0.2830 -0.2787
  207MPD1    H2 3204   0.657   2.231   9.898  0.4387  0.4117 -1.2589
  207MPD1    H3 3205   0.685   2.370  10.092 -0.8833 -0.4622 -1.9160
  207MPD1     N 3206   1.031   2.133  10.245 -0.3007  0.5717 -0.4553
  207MPD1    H5 3207   1.060   2.215  10.297 -0.8853  0.3344  0.2352
  207MPD1    N1 3208   0.786   2.010   9.842  0.1029 -0.6086 -0.2153
  207MPD1    H6 3209   0.818   1.914   9.839 -0.1242 -0.6964  0.3022
  207MPD1    H7 3210   0.689   2.017   9.811  0.4077  0.6928 -0.8807
  208MPD1     C 3211   0.363   1.034  17.507 -0.3277 -0.4605  0.4929
  208MPD1    C1 3212   0.395   1.090  17.626 -0.0512 -0.5587  0.0756
  208MPD1    C2 3213   0.312   1.086  17.733  0.4006 -0.0981  0.5406
  208MPD1    C3 3214   0.192   1.016  17.722  0.3662 -1.0233  0.2838
  208MPD1    C4 3215   0.158   0.947  17.607 -0.6080 -0.6509  0.1878
  208MPD1    C5 3216   0.240   0.977  17.495  0.0404 -0.8943  0.5287
  208MPD1     H 3217   0.347   1.134   0.063  0.9260 -0.2460  0.4165
  208MPD1    H1 3218   0.063   0.899  17.587 -0.9654  1.6010 -3.4323
  208MPD1    H2 3219   0.424   1.047  17.418 -2.3152  1.4783 -0.6025
  208MPD1    H3 3220   0.216   0.936  17.398  0.9795  0.2356 -0.1859
  208MPD1     N 3221   0.100   1.036   0.059 -0.4693 -0.5754 -0.2402
  208MPD1    H5 3222   0.127   1.095   0.137  1.2810 -1.0066 -0.5114
  208MPD1    N1 3223   0.527   1.150  17.650  0.3536  0.4027  0.0054
  208MPD1    H6 3224   0.517   1.239  17.698  1.4615  0.2670  0.4829
  208MPD1    H7 3225   0.573   1.171  17.562  0.1652 -0.6366 -0.3398
  209MPD1     C 3226   1.634   0.548  10.858  0.2100 -0.3055  0.2114
  209MPD1    C1 3227   1.596   0.636  10.763 -0.4257  0.6193  0.0915
  209MPD1    C2 3228   1.656   0.757  10.774  0.0068 -0.3503 -0.5112
  209MPD1    C3 3229   1.736   0.803  10.882 -0.0293 -0.6018 -0.7465
  209MPD1    C4 3230   1.766   0.713  10.978 -0.3668 -0.9243  0.1191
  209MPD1    C5 3231   1.711   0.583  10.966  0.2046 -0.0778 -0.5097
  209MPD1     H 3232   1.649   0.828  10.693 -0.7122 -0.6365 -0.6986
  209MPD1    H1 3233   1.819   0.739  11.069  1.4964  0.4592 -1.3708
  209MPD1    H2 3234   1.588   0.450  10.864  0.6953 -0.4636  1.4999
  209MPD1    H3 3235   1.754   0.506  11.029 -1.9340  0.0439  1.0753
  209MPD1     N 3236   1.784   0.939  10.871  0.0311 -0.8385 -0.2541
  209MPD1    H5 3237   1.752   1.001  10.797 -0.7491 -0.9666 -0.0187
  209MPD1    N1 3238   1.541   0.588  10.641  0.8918  0.6112  0.3429
  209MPD1    H6 3239   1.475   0.656  10.604 -1.2937 -1.1799  0.9454
  209MPD1    H7 3240   1.489   0.500  10.638  1.6948  0.1707 -0.9604
  210MPD1     C 3241   2.050   1.772  11.532 -0.5258 -0.4350 -0.8176
  210MPD1    C1 3242   2.115   1.652  11.513 -0.1694  0.1041  0.0086
  210MPD1    C2 3243   2.076   1.566  11.412  1.2574  0.9009  0.4519
  210MPD1    C3 3244   1.982   1.612  11.315  0.8073  0.1042 -0.1129
  210MPD1    C4 3245   1.934   1.743  11.327 -0.1859  0.4122  0.0092
  210MPD1    C5 3246   1.961   1.815  11.437 -0.5944 -0.6302 -0.6921
  210MPD1     H 3247   2.105   1.462  11.421  1.7814  1.1694  1.8203
  210MPD1    H1 3248   1.875   1.790  11.249 -0.9540 -1.1761 -0.3591
  210MPD1    H2 3249   2.071   1.822  11.625  2.0306  0.9338 -2.1369
  210MPD1    H3 3250   1.923   1.917  11.438 -0.0906 -0.4404 -0.7200
  210MPD1     N 3251   1.951   1.529  11.212  0.6489  0.3053  0.3113
  210MPD1    H5 3252   1.888   1.559  11.138 -0.1904  0.5615  1.1350
  210MPD1    N1 3253   2.189   1.608  11.620  0.2329  0.1463 -0.7883
  210MPD1    H6 3254   2.247   1.530  11.590  0.7599  0.1985  0.1034
  210MPD1    H7 3255   2.251   1.684  11.647  0.1016 -0.3873  1.0324
  211MPD1     C 3256   4.146   0.504  16.442  0.0478  0.0123  0.0964
  211MPD1    C1 3257   4.253   0.587  16.426 -0.4605 -0.1645 -0.3180
  211MPD1    C2 3258   4.231   0.719  16.402 -0.2714  0.8069 -0.7883
  211MPD1    C3 3259   4.100   0.768  16.379  0.2008  0.0526 -0.4931
  211MPD1    C4 3260   3.996   0.675  16.391  0.4127  0.4571  0.2779
  211MPD1    C5 3261   4.018   0.542  16.422 -0.2211  0.2676  0.3954
  211MPD1     H 3262   4.311   0.791  16.389 -0.4355  0.9969 -0.7327
  211MPD1    H1 3263   3.896   0.714  16.376  0.7594  1.4819  0.6497
  211MPD1    H2 3264   4.154   0.399  16.465  2.4164  0.4279  1.1393
  211MPD1    H3 3265   3.936   0.471  16.429  0.8855 -0.7242  3.2245
  211MPD1     N 3266   4.083   0.911  16.371  0.2910  0.0778  0.4236
  211MPD1    H5 3267   4.161   0.974  16.385  0.3025  0.0522  0.4780
  211MPD1    N1 3268   4.381   0.539  16.464  0.3063  0.2677  0.1869
  211MPD1    H6 3269   4.446   0.586  16.401 -1.3870  0.8266 -1.1393
  211MPD1    H7 3270   4.373   0.443  16.428  3.4472 -0.3533  1.1030
  212MPD1     C 3271   3.792   3.808  16.658 -0.4730 -0.6040 -0.4332
  212MPD1    C1 3272   3.746   3.868  16.771  0.5010  0.0228  0.3484
  212MPD1    C2 3273   3.607   3.870  16.794  0.2210 -0.1366  0.0377
  212MPD1    C3 3274   3.519   3.836  16.688 -0.3255  0.4250  0.2202
  212MPD1    C4 3275   3.572   3.784  16.572 -0.2209  0.3612  0.1475
  212MPD1    C5 3276   3.705   3.771  16.557 -0.2741  0.6014 -0.7779
  212MPD1     H 3277   3.577   3.902  16.893  2.3725 -0.6082  0.8310
  212MPD1    H1 3278   3.513   3.751  16.487 -2.7004  0.3444  1.9105
  212MPD1    H2 3279   3.898   3.788  16.646 -0.3146  0.2678 -0.5092
  212MPD1    H3 3280   3.756   3.738  16.467  1.0703  2.4240 -0.6953
  212MPD1     N 3281   3.380   3.837  16.692  0.1834  0.6227 -0.1091
  212MPD1    H5 3282   3.331   3.796  16.613  1.8411  3.2328 -2.4765
  212MPD1    N1 3283   3.843   3.903  16.866  0.1475 -0.2058 -0.5877
  212MPD1    H6 3284   3.815   3.988  16.913  1.7054 -0.3419  0.6022
  212MPD1    H7 3285   3.932   3.920  16.820  0.3466 -0.1871 -0.2011
  213MPD1     C 3286   1.749   4.257  16.024  0.1742 -0.3329 -0.4027
  213MPD1    C1 3287   1.727   4.228  15.891 -0.2091 -0.1652 -0.2024
  213MPD1    C2 3288   1.674   4.334  15.820  0.4197  0.4415 -0.3148
  213MPD1    C3 3289   1.688   4.467  15.845  0.2357  0.1533  0.1068
  213MPD1    C4 3290   1.724   4.501  15.980 -0.1901 -0.1007 -0.1315
  213MPD1    C5 3291   1.751   4.392  16.066 -0.0535 -0.2337 -0.1365
  213MPD1     H 3292   1.630   4.309  15.724  1.4557 -1.3010 -0.3342
  213MPD1    H1 3293   1.751   4.602  16.008 -2.5088  0.7677 -1.0666
  213MPD1    H2 3294   1.731   4.182  16.100 -0.6860 -0.0451 -0.3275
  213MPD1    H3 3295   1.775   4.414  16.169  0.9017 -0.5323 -0.2951
  213MPD1     N 3296   1.649   4.544  15.742  0.1010 -0.5168 -0.3649
  213MPD1    H5 3297   1.622   4.491  15.660  0.0606  0.4356 -0.9729
  213MPD1    N1 3298   1.684   4.098  15.856  0.2279  0.0660 -0.5369
  213MPD1    H6 3299   1.679   4.085  15.755 -0.2712 -1.8768 -0.2595
  213MPD1    H7 3300   1.756   4.035  15.888  0.1056 -0.2330 -0.8466
  214MPD1     C 3301   1.374   4.175  15.010  0.2038  0.5856  0.7854
  214MPD1    C1 3302   1.334   4.156  15.146  0.3857 -0.8087 -0.4982
  214MPD1    C2 3303   1.364   4.264  15.225 -0.0874  0.2469  0.0207
  214MPD1    C3 3304   1.446   4.367  15.191 -0.0909  0.2918 -0.3568
  214MPD1    C4 3305   1.501   4.371  15.062 -0.2230  0.0837  0.3878
  214MPD1    C5 3306   1.454   4.274  14.974 -0.4941 -0.3241 -0.3686
  214MPD1     H 3307   1.335   4.260  15.330  0.7454  0.4473  0.2576
  214MPD1    H1 3308   1.566   4.449  15.023 -0.9638 -0.5517 -2.1227
  214MPD1    H2 3309   1.341   4.104  14.936  0.0003  2.1041 -0.5760
  214MPD1    H3 3310   1.517   4.267  14.885 -1.4406  0.6978 -1.1121
  214MPD1     N 3311   1.482   4.463  15.285  0.2511  0.3607 -0.1996
  214MPD1    H5 3312   1.452   4.448  15.381 -0.2041  0.7800 -0.2745
  214MPD1    N1 3313   1.235   4.066  15.191  0.3221  0.0995 -0.2333
  214MPD1    H6 3314   1.260   4.031  15.283 -2.1951  2.1563  1.2171
  214MPD1    H7 3315   1.230   3.976  15.143 -0.3200 -1.0652  2.0344
  215MPD1     C 3316   1.268   0.787  10.391 -0.8873 -0.6786 -0.2061
  215MPD1    C1 3317   1.167   0.874  10.421 -0.2793  0.3414 -0.3275
  215MPD1    C2 3318   1.188   0.972  10.511  0.5180  0.2842  0.0552
  215MPD1    C3 3319   1.317   1.000  10.563  0.3578  0.2908  0.1681
  215MPD1    C4 3320   1.415   0.910  10.529  0.2844  0.3888 -0.4130
  215MPD1    C5 3321   1.387   0.800  10.451 -1.2349 -0.7461 -0.0737
  215MPD1     H 3322   1.105   1.039  10.532  1.4481  0.4620  3.1002
  215MPD1    H1 3323   1.515   0.928  10.568 -0.3474  0.3295  1.2462
  215MPD1    H2 3324   1.249   0.701  10.328  0.7329  0.2912 -2.0225
  215MPD1    H3 3325   1.466   0.728  10.437 -0.3399  0.7114 -2.5040
  215MPD1     N 3326   1.334   1.106  10.653  0.1289  0.3419 -0.4104
  215MPD1    H5 3327   1.245   1.147  10.681  0.4857  0.1488  1.0510
  215MPD1    N1 3328   1.037   0.860  10.366  0.4503 -0.5002  0.0222
  215MPD1    H6 3329   1.032   0.785  10.298  0.7609 -0.8978  0.4365
  215MPD1    H7 3330   1.005   0.941  10.314  0.6129  0.7308  1.8453
  216MPD1     C 3331   2.480   3.790   0.180  0.2376  0.6954  0.8455
  216MPD1    C1 3332   2.562   3.680   0.163  0.5688  0.0291 -0.1172
  216MPD1    C2 3333   2.695   3.693   0.187 -0.4742 -0.0813  0.3970
  216MPD1    C3 3334   2.749   3.807   0.237  0.2512 -0.0109 -0.7435
  216MPD1    C4 3335   2.664   3.915   0.251  0.2751 -0.2605 -0.4931
  216MPD1    C5 3336   2.531   3.903   0.231 -0.5438 -0.6499 -0.0207
  216MPD1     H 3337   2.744   3.600   0.159  1.6922  1.1070  0.2272
  216MPD1    H1 3338   2.712   4.007   0.281  0.9801 -0.1861 -1.8040
  216MPD1    H2 3339   2.374   3.774   0.160  0.9418 -0.9918 -1.5203
  216MPD1    H3 3340   2.466   3.989   0.243 -0.7853 -0.4006 -3.0844
  216MPD1     N 3341   2.891   3.809   0.250  0.1027  0.2880  1.1274
  216MPD1    H5 3342   2.938   3.727   0.214 -2.5206 -1.8711  2.5724
  216MPD1    N1 3343   2.509   3.556   0.107 -0.3143  0.1872 -0.1997
  216MPD1    H6 3344   2.568   3.477   0.128 -0.8771 -0.2432 -0.2316
  216MPD1    H7 3345   2.409   3.543   0.121 -0.4914  0.3736 -1.2712
  217MPD1     C 3346   3.243   0.622   8.403 -0.1794 -0.8554 -1.1933
  217MPD1    C1 3347   3.364   0.567   8.445 -0.8729  0.0537  0.1929
  217MPD1    C2 3348   3.403   0.592   8.577  0.0382 -0.0125 -0.1099
  217MPD1    C3 3349   3.312   0.631   8.669  0.5953 -0.1438 -0.9142
  217MPD1    C4 3350   3.184   0.671   8.623  0.7239 -0.3137  0.2013
  217MPD1    C5 3351   3.157   0.671   8.491  0.2977 -0.8363 -0.2465
  217MPD1     H 3352   3.501   0.559   8.611  0.1094 -0.0671 -0.3712
  217MPD1    H1 3353   3.112   0.706   8.696 -1.6730 -0.3336 -2.1825
  217MPD1    H2 3354   3.214   0.637   8.300  0.8176  1.2164 -1.1695
  217MPD1    H3 3355   3.066   0.711   8.449  0.8841 -1.9177 -2.5749
  217MPD1     N 3356   3.336   0.646   8.803  0.6924 -0.0872  0.0794
  217MPD1    H5 3357   3.261   0.689   8.855 -0.7384  0.6097 -2.5357
  217MPD1    N1 3358   3.461   0.528   8.352 -0.7147 -0.0687 -0.5305
  217MPD1    H6 3359   3.529   0.465   8.393 -0.4770 -1.0264 -2.4137
  217MPD1    H7 3360   3.434   0.486   8.263 -0.9995  0.9539 -0.9300
  218MPD1     C 3361   0.904   0.434  12.504 -0.1468  1.1389 -0.9647
  218MPD1    C1 3362   1.032   0.380  12.491  0.2132  0.3307  0.5655
  218MPD1    C2 3363   1.134   0.462  12.442 -0.4431  0.2502  0.7935
  218MPD1    C3 3364   1.116   0.594  12.412  0.3756  0.4462  0.5827
  218MPD1    C4 3365   0.996   0.645  12.453  0.3502  0.5136 -0.1457
  218MPD1    C5 3366   0.889   0.571  12.491 -0.1200  0.5453 -0.1965
  218MPD1     H 3367   1.231   0.419  12.418 -1.4227 -1.6929  0.2719
  218MPD1    H1 3368   0.977   0.752  12.461  1.5411  0.7323 -0.3611
  218MPD1    H2 3369   0.811   0.386  12.533  1.2777 -1.7738 -1.1313
  218MPD1    H3 3370   0.795   0.619  12.516 -0.1794  0.5582 -0.4457
  218MPD1     N 3371   1.227   0.673  12.370 -0.1328 -0.2654 -0.3623
  218MPD1    H5 3372   1.314   0.628  12.346 -0.5828 -1.4169  0.1235
  218MPD1    N1 3373   1.056   0.241  12.505 -0.3465 -0.0422  0.0035
  218MPD1    H6 3374   1.143   0.217  12.553 -0.8225 -0.4923  0.6557
  218MPD1    H7 3375   0.980   0.203  12.562 -0.6072  0.6029  0.0776
  219MPD1     C 3376   1.595   1.626  11.920 -0.1908 -0.2795  0.0251
  219MPD1    C1 3377   1.464   1.582  11.935  0.4162 -0.3595  0.0106
  219MPD1    C2 3378   1.442   1.470  12.014  0.3942  0.6962  0.2659
  219MPD1    C3 3379   1.552   1.399  12.063  0.4533 -0.2735 -0.3444
  219MPD1    C4 3380   1.680   1.456  12.051 -0.5366  0.0822  0.0103
  219MPD1    C5 3381   1.703   1.567  11.983 -0.2478  0.7665  0.1833
  219MPD1     H 3382   1.342   1.428  12.020  1.2947 -1.4530  0.5193
  219MPD1    H1 3383   1.767   1.404  12.088  0.3567 -0.3690 -2.7314
  219MPD1    H2 3384   1.620   1.717  11.867 -0.1060 -0.6351 -0.5495
  219MPD1    H3 3385   1.794   1.625  11.983 -0.3312  0.8998  1.8950
  219MPD1     N 3386   1.545   1.271  12.121  0.0915  0.4317 -0.1372
  219MPD1    H5 3387   1.637   1.228  12.124 -0.1228 -0.0069  0.1829
  219MPD1    N1 3388   1.359   1.666  11.893 -0.6537 -0.3998  0.1381
  219MPD1    H6 3389   1.384   1.718  11.809 -2.0410  0.5774  0.3249
  219MPD1    H7 3390   1.274   1.610  11.881 -1.0756  0.7565 -2.2583
  220MPD1     C 3391   1.287   1.765   9.728 -0.6227  0.3528 -0.0061
  220MPD1    C1 3392   1.319   1.714   9.856  0.2441 -0.0632 -0.5309
  220MPD1    C2 3393   1.207   1.670   9.933  0.1765  0.0972  0.0816
  220MPD1    C3 3394   1.084   1.717   9.898 -0.0631  0.4407  0.2210
  220MPD1    C4 3395   1.061   1.798   9.784  0.5058 -0.5287  0.1443
  220MPD1    C5 3396   1.163   1.816   9.701  0.3069 -0.0346 -0.2205
  220MPD1     H 3397   1.222   1.618  10.027 -1.1780  1.3857  1.0195
  220MPD1    H1 3398   0.965   1.834   9.751  0.3898  0.7773  1.8880
  220MPD1    H2 3399   1.367   1.790   9.660 -1.4748 -1.1315 -1.5822
  220MPD1    H3 3400   1.151   1.872   9.609 -2.7206 -1.4428 -0.6858
  220MPD1     N 3401   0.982   1.670   9.981  0.1544  0.2531  0.4043
  220MPD1    H5 3402   1.008   1.637  10.073 -0.7887  0.6801  0.8225
  220MPD1    N1 3403   1.448   1.665   9.879 -0.2446 -0.1500  0.6690
  220MPD1    H6 3404   1.515   1.709   9.817 -0.2820 -1.1237 -0.0658
  220MPD1    H7 3405   1.460   1.678   9.979 -2.0081  0.0886  0.8526
  221MPD1     C 3406   4.138   0.964  15.839  0.0388 -0.0681  0.5141
  221MPD1    C1 3407   4.081   0.868  15.751  0.1214  0.2649 -0.7129
  221MPD1    C2 3408   4.067   0.738  15.797  0.6055 -0.5205 -0.3000
  221MPD1    C3 3409   4.106   0.704  15.927 -0.2190  0.0728 -0.1212
  221MPD1    C4 3410   4.170   0.791  16.007 -0.2233 -0.2211 -0.0404
  221MPD1    C5 3411   4.182   0.915  15.961  0.1700  0.0012  0.1914
  221MPD1     H 3412   4.024   0.665  15.729 -0.3852 -0.1488 -0.0650
  221MPD1    H1 3413   4.208   0.779  16.108 -0.9888  0.9895  0.3874
  221MPD1    H2 3414   4.166   1.063  15.806 -0.8669 -0.2845 -0.9562
  221MPD1    H3 3415   4.232   0.991  16.021  0.3692  1.3173 -1.6364
  221MPD1     N 3416   4.097   0.570  15.980  0.3061 -0.4444  0.3981
  221MPD1    H5 3417   4.136   0.551  16.072  1.4871  0.0343 -0.0062
  221MPD1    N1 3418   4.073   0.907  15.612 -0.1961  0.2528  0.4906
  221MPD1    H6 3419   4.067   1.007  15.599 -3.5217  0.0462  0.5060
  221MPD1    H7 3420   3.985   0.877  15.571  1.7042 -0.0250 -3.3461
  222MPD1     C 3421   3.077   4.422   0.604 -0.7206 -0.2072 -0.1736
  222MPD1    C1 3422   3.193   4.464   0.659  0.2600 -0.1192 -0.4079
  222MPD1    C2 3423   3.244   4.588   0.628 -0.5745 -0.1188  0.2201
  222MPD1    C3 3424   3.173   4.673   0.542  0.2944 -0.0528 -0.4253
  222MPD1    C4 3425   3.056   4.622   0.488  0.2011 -0.4542 -0.0614
  222MPD1    C5 3426   3.016   4.498   0.516  0.2874 -0.7019  0.1850
  222MPD1     H 3427   3.340   4.619   0.667 -0.4595  0.1532 -0.2703
  222MPD1    H1 3428   2.997   4.687   0.425 -2.5248 -1.4111  1.4766
  222MPD1    H2 3429   3.037   4.324   0.629 -2.6517  0.7163  0.3370
  222MPD1    H3 3430   2.918   4.466   0.480  0.4943  0.4760 -1.4612
  222MPD1     N 3431   3.215   0.062   0.501  0.6475  0.0292 -0.2104
  222MPD1    H5 3432   3.163   0.105   0.425  0.1404  0.5067  0.4130
  222MPD1    N1 3433   3.271   4.371   0.728  0.1986 -0.2470  0.3151
  222MPD1    H6 3434   3.219   4.310   0.791  1.2709  0.9462  2.3525
  222MPD1    H7 3435   3.341   4.412   0.790 -0.4307 -0.0952  0.9202
  223MPD1     C 3436   3.309   0.251  17.469 -0.3103  0.0296  0.3575
  223MPD1    C1 3437   3.208   0.189  17.540  0.1799  0.5260 -0.2099
  223MPD1    C2 3438   3.194   0.223  17.672 -0.4371  0.5440 -0.0462
  223MPD1    C3 3439   3.271   0.326  17.727  0.9834 -0.6810  0.1313
  223MPD1    C4 3440   3.353   0.402  17.643 -0.4395  0.1885  0.1361
  223MPD1    C5 3441   3.368   0.361  17.515 -0.3336  0.2248 -0.2613
  223MPD1     H 3442   3.138   0.156  17.735 -0.1388 -0.2883 -0.6634
  223MPD1    H1 3443   3.406   0.492  17.674  0.9166 -0.1523 -1.2069
  223MPD1    H2 3444   3.331   0.225  17.366 -1.5549  1.3896 -0.2500
  223MPD1    H3 3445   3.436   0.417  17.452 -0.5551  0.2887 -0.4488
  223MPD1     N 3446   3.266   0.342   0.109 -0.1853 -0.3413  0.2331
  223MPD1    H5 3447   3.199   0.289   0.163 -1.5858  0.5377 -0.6563
  223MPD1    N1 3448   3.145   0.073  17.492  0.7807 -0.1338 -0.3585
  223MPD1    H6 3449   3.056   0.051  17.535  1.3894  0.4556  1.1925
  223MPD1    H7 3450   3.134   0.066  17.391 -1.9424 -1.1262  0.0311
  224MPD1     C 3451   3.336   1.002   9.037 -0.2734  0.1191 -0.0203
  224MPD1    C1 3452   3.470   1.047   9.053  0.4377 -0.1563 -1.0239
  224MPD1    C2 3453   3.505   1.133   9.153 -0.1431 -0.3567 -0.3963
  224MPD1    C3 3454   3.414   1.212   9.218 -0.3266  0.4858 -0.2328
  224MPD1    C4 3455   3.282   1.178   9.206 -0.2639  0.2952  0.4336
  224MPD1    C5 3456   3.252   1.069   9.122  0.1916  0.1705  0.3926
  224MPD1     H 3457   3.610   1.156   9.164 -0.2515  0.9188 -2.0905
  224MPD1    H1 3458   3.195   1.218   9.257  0.8714  1.2457  1.6180
  224MPD1    H2 3459   3.292   0.930   8.968  0.2873  0.9310 -1.2290
  224MPD1    H3 3460   3.147   1.044   9.115 -0.1634  1.9320 -0.6161
  224MPD1     N 3461   3.465   1.295   9.324  0.3329 -0.3435 -0.0091
  224MPD1    H5 3462   3.565   1.292   9.340  0.4566  0.0235 -0.6679
  224MPD1    N1 3463   3.568   0.982   8.971  0.5396 -0.0098 -0.0056
  224MPD1    H6 3464   3.634   1.048   8.931 -0.2250  0.9648  0.3622
  224MPD1    H7 3465   3.522   0.942   8.889  0.7839 -0.3551  0.0225
  225MPD1     C 3466   0.574   1.308  13.075  0.3851  0.1249 -0.2812
  225MPD1    C1 3467   0.623   1.246  12.964  0.7034 -0.5537 -0.1620
  225MPD1    C2 3468   0.594   1.300  12.842  0.6508  0.1422  0.2704
  225MPD1    C3 3469   0.545   1.434  12.833  0.4061 -0.8416  0.1223
  225MPD1    C4 3470   0.513   1.503  12.948 -0.5757  0.1159 -0.4224
  225MPD1    C5 3471   0.533   1.438  13.064 -0.2075  0.5285 -0.8238
  225MPD1     H 3472   0.621   1.243  12.754 -3.4287 -0.3386 -0.6633
  225MPD1    H1 3473   0.479   1.605  12.954 -0.5066  0.0679  0.9292
  225MPD1    H2 3474   0.589   1.258  13.170 -0.2601 -2.9861 -1.8244
  225MPD1    H3 3475   0.500   1.486  13.155  1.9659  0.1177  0.1764
  225MPD1     N 3476   0.521   1.503  12.712  0.2219  0.1824  0.1909
  225MPD1    H5 3477   0.488   1.599  12.709  0.2262  0.2993  4.2291
  225MPD1    N1 3478   0.652   1.112  12.969  0.0922  0.1253 -0.7563
  225MPD1    H6 3479   0.689   1.092  13.062  0.2661  2.6075 -0.3034
  225MPD1    H7 3480   0.721   1.073  12.906  0.7199  0.4160 -0.2492
  226MPD1     C 3481   2.583   2.023   8.749 -0.1180  0.5529  0.1559
  226MPD1    C1 3482   2.590   1.890   8.729  0.0917 -0.2247  0.1392
  226MPD1    C2 3483   2.683   1.822   8.796  1.4093 -0.1583 -0.3455
  226MPD1    C3 3484   2.781   1.885   8.868 -0.8720  0.2831 -0.9589
  226MPD1    C4 3485   2.785   2.019   8.882  0.1781 -0.0800  0.1560
  226MPD1    C5 3486   2.680   2.090   8.825  0.5129 -0.0481  0.7894
  226MPD1     H 3487   2.686   1.714   8.788  2.2450 -0.2161  0.7011
  226MPD1    H1 3488   2.847   2.070   8.954 -1.3208  3.1930 -0.8771
  226MPD1    H2 3489   2.500   2.079   8.709  0.5328  0.2253 -1.6555
  226MPD1    H3 3490   2.668   2.197   8.837  1.4873 -0.1095  2.4000
  226MPD1     N 3491   2.876   1.800   8.931 -0.1755  0.3635 -0.3368
  226MPD1    H5 3492   2.870   1.704   8.899  0.7195 -0.3800  1.7162
  226MPD1    N1 3493   2.471   1.835   8.679 -0.4982 -0.1339 -0.0366
  226MPD1    H6 3494   2.488   1.744   8.636 -1.5079 -0.1801 -0.3299
  226MPD1    H7 3495   2.419   1.896   8.617 -0.2976  0.3560  0.2682
  227MPD1     C 3496   3.422   1.043   8.640 -0.1918  0.6141 -0.3804
  227MPD1    C1 3497   3.520   1.111   8.709 -0.1962  0.4350 -0.0490
  227MPD1    C2 3498   3.473   1.221   8.782 -0.4820 -0.3761 -0.3295
  227MPD1    C3 3499   3.338   1.254   8.792  0.1352 -0.3958 -0.3603
  227MPD1    C4 3500   3.247   1.194   8.711 -0.3531 -0.3625 -0.7589
  227MPD1    C5 3501   3.295   1.093   8.628  0.1068 -0.0139 -0.2752
  227MPD1     H 3502   3.547   1.281   8.833 -1.0095 -0.7075  0.8267
  227MPD1    H1 3503   3.141   1.216   8.708 -1.1251 -3.9150 -0.0069
  227MPD1    H2 3504   3.445   0.960   8.574 -3.7699 -1.6058  1.1994
  227MPD1    H3 3505   3.229   1.028   8.573  1.3527 -2.1247  0.7290
  227MPD1     N 3506   3.301   1.372   8.866  0.0179  0.0706  0.0455
  227MPD1    H5 3507   3.379   1.433   8.887 -0.7698  1.3912 -0.8313
  227MPD1    N1 3508   3.653   1.100   8.685  0.3423  0.2436 -0.7210
  227MPD1    H6 3509   3.691   1.141   8.770 -0.5132 -0.3817 -0.0407
  227MPD1    H7 3510   3.682   1.004   8.669 -0.0769  0.0767 -0.4897
  228MPD1     C 3511   2.994   4.649  12.573 -0.1292 -0.2189 -0.4769
  228MPD1    C1 3512   2.929   0.008  12.504  0.0620  0.3822 -0.4522
  228MPD1    C2 3513   2.795   4.739  12.488 -0.1673  0.5347 -0.1633
  228MPD1    C3 3514   2.715   4.647  12.559  0.1074  0.2409  0.7690
  228MPD1    C4 3515   2.781   4.548  12.633 -0.9208 -0.1647 -0.1532
  228MPD1    C5 3516   2.919   4.555  12.641  0.3418  0.0667  0.5351
  228MPD1     H 3517   2.752   0.081  12.432 -2.4235 -0.3734  0.2248
  228MPD1    H1 3518   2.727   4.468  12.682 -0.6774  0.2476  0.7907
  228MPD1    H2 3519   3.102   4.650  12.586 -0.1986 -4.1844  0.3987
  228MPD1    H3 3520   2.969   4.475  12.694  0.6059  0.2057  0.4913
  228MPD1     N 3521   2.576   4.653  12.550  0.2532  0.2605  0.3197
  228MPD1    H5 3522   2.537   4.704  12.471  3.5565  1.7334 -0.3643
  228MPD1    N1 3523   2.999   0.107  12.429 -0.5419  0.0242  0.2689
  228MPD1    H6 3524   2.954   0.192  12.397  0.2295 -0.1264 -1.1853
  228MPD1    H7 3525   3.093   0.128  12.461 -0.9317  1.9092  0.1881
  229MPD1     C 3526   2.119   3.374  14.257  0.8459 -0.3666  0.1761
  229MPD1    C1 3527   2.059   3.415  14.374  0.6656  0.0397  0.0936
  229MPD1    C2 3528   2.108   3.361  14.492  0.4987 -0.0701 -0.3615
  229MPD1    C3 3529   2.200   3.262  14.498 -0.1934 -0.5268  0.1628
  229MPD1    C4 3530   2.249   3.210  14.380  0.1470 -0.8356 -0.7827
  229MPD1    C5 3531   2.214   3.274  14.263  0.4153  0.0213 -0.4458
  229MPD1     H 3532   2.066   3.388  14.588  0.7564  1.5899 -0.7096
  229MPD1    H1 3533   2.324   3.133  14.368  0.6757 -0.3012 -0.9101
  229MPD1    H2 3534   2.093   3.405  14.157  1.8408 -1.4335 -0.4181
  229MPD1    H3 3535   2.244   3.260  14.160  1.0900  0.6600 -0.3356
  229MPD1     N 3536   2.259   3.205  14.609  0.3796 -0.0869 -0.5090
  229MPD1    H5 3537   2.342   3.151  14.590 -0.3416 -0.5647 -2.3224
  229MPD1    N1 3538   1.966   3.516  14.375  0.2774  0.5096 -0.6608
  229MPD1    H6 3539   2.002   3.600  14.420  0.2335 -1.0280  2.2409
  229MPD1    H7 3540   1.933   3.551  14.286 -0.1525  1.0718 -0.2864
  230MPD1     C 3541   2.472   3.676  15.489 -0.5810  0.1117 -0.0462
  230MPD1    C1 3542   2.397   3.716  15.385  0.2604  0.7295  0.9001
  230MPD1    C2 3543   2.379   3.628  15.284 -0.6299 -0.5111  0.0852
  230MPD1    C3 3544   2.442   3.503  15.281 -0.6455 -0.1311 -0.1779
  230MPD1    C4 3545   2.516   3.468  15.391  0.0464 -0.5418 -0.4671
  230MPD1    C5 3546   2.529   3.551  15.495 -0.3778  0.1404  0.4851
  230MPD1     H 3547   2.313   3.652  15.201  1.9727  1.1322 -1.4934
  230MPD1    H1 3548   2.542   3.364  15.406 -0.5453 -0.1761  2.9492
  230MPD1    H2 3549   2.474   3.743  15.574  0.1336  1.8168 -1.3847
  230MPD1    H3 3550   2.586   3.526  15.584 -2.0833 -1.8517  0.9999
  230MPD1     N 3551   2.436   3.432  15.157 -0.1026  0.2782 -0.2024
  230MPD1    H5 3552   2.383   3.473  15.081  1.3065  0.9453 -0.8063
  230MPD1    N1 3553   2.326   3.839  15.386 -0.4815  0.8015 -0.3420
  230MPD1    H6 3554   2.377   3.919  15.422  1.0186 -0.0842 -0.5282
  230MPD1    H7 3555   2.293   3.854  15.291 -1.8818 -1.0535 -0.1632
  231MPD1     C 3556   0.470   0.162  15.579 -0.0224 -0.5709 -0.4680
  231MPD1    C1 3557   0.506   0.125  15.454 -0.2867  0.3536  0.1825
  231MPD1    C2 3558   0.624   0.170  15.398 -0.1858  0.0906 -0.2304
  231MPD1    C3 3559   0.711   0.262  15.466 -0.1280  0.4248  0.1657
  231MPD1    C4 3560   0.657   0.318  15.579  0.1049  0.2474 -0.0426
  231MPD1    C5 3561   0.542   0.264  15.635  0.4879  0.7819 -0.3226
  231MPD1     H 3562   0.647   0.125  15.302 -2.4282 -0.3653 -0.5707
  231MPD1    H1 3563   0.711   0.392  15.638  2.9114 -0.3372 -1.8480
  231MPD1    H2 3564   0.379   0.120  15.621  0.4795 -2.7591 -1.5837
  231MPD1    H3 3565   0.510   0.307  15.729  0.6656 -0.0046  0.0917
  231MPD1     N 3566   0.838   0.290  15.411 -0.2079  0.0360  0.5722
  231MPD1    H5 3567   0.861   0.225  15.337  1.9294  0.3992  0.9236
  231MPD1    N1 3568   0.431   0.016  15.396  0.3352  0.1112 -0.1442
  231MPD1    H6 3569   0.429   0.025  15.295 -1.8440 -0.6663 -0.1671
  231MPD1    H7 3570   0.333   0.027  15.421  0.7524  1.0958  1.1041
  232MPD1     C 3571   3.880   3.146   0.563 -0.1626  0.0495 -0.2244
  232MPD1    C1 3572   3.819   3.258   0.629  0.7717 -0.3291 -0.6092
  232MPD1    C2 3573   3.681   3.274   0.621 -0.0072  0.7600  0.5230
  232MPD1    C3 3574   3.601   3.177   0.557 -0.2339 -0.6692 -0.3371
  232MPD1    C4 3575   3.666   3.061   0.510  0.2916  0.3025 -0.2202
  232MPD1    C5 3576   3.801   3.047   0.517  0.5591 -0.2784 -0.9810
  232MPD1     H 3577   3.625   3.357   0.663  0.6588  0.7235  1.4865
  232MPD1    H1 3578   3.614   2.985   0.453  2.3637 -3.4122  2.8080
  232MPD1    H2 3579   3.987   3.136   0.550 -0.0570 -0.1050  0.7310
  232MPD1    H3 3580   3.841   2.962   0.464 -4.4244 -1.7493 -2.3879
  232MPD1     N 3581   3.455   3.192   0.555  0.5014 -0.1761  0.0636
  232MPD1    H5 3582   3.417   3.271   0.606 -1.6188 -0.8855 -0.4148
  232MPD1    N1 3583   3.897   3.359   0.685  0.0187 -0.3065  0.6454
  232MPD1    H6 3584   3.989   3.326   0.712 -0.3467 -1.9965 -0.1764
  232MPD1    H7 3585   3.855   3.400   0.768 -0.1452 -2.8494  1.8321
  233MPD1     C 3586   3.295   1.768   1.491 -0.3244 -0.3861  0.4351
  233MPD1    C1 3587   3.315   1.827   1.611  0.6788  0.0327  0.3152
  233MPD1    C2 3588   3.441   1.816   1.659  0.1958  0.5020  0.1024
  233MPD1    C3 3589   3.546   1.771   1.576  0.1659  0.3218  0.1692
  233MPD1    C4 3590   3.517   1.735   1.449 -0.0326 -0.2707 -0.2849
  233MPD1    C5 3591   3.385   1.719   1.409 -0.3304  0.6018 -0.0164
  233MPD1     H 3592   3.453   1.836   1.765 -0.2422 -1.5467  0.5344
  233MPD1    H1 3593   3.597   1.707   1.382 -0.6869  0.4024 -1.3352
  233MPD1    H2 3594   3.195   1.786   1.451  0.0562  2.4028  0.6848
  233MPD1    H3 3595   3.364   1.673   1.313 -1.3206 -3.9150  2.4035
  233MPD1     N 3596   3.678   1.764   1.607  0.0619  0.7074 -0.2445
  233MPD1    H5 3597   3.743   1.738   1.534 -0.3514  1.3326 -0.8346
  233MPD1    N1 3598   3.211   1.871   1.695  0.4173 -0.4520 -0.0986
  233MPD1    H6 3599   3.132   1.902   1.639  0.1977  0.3504  0.6703
  233MPD1    H7 3600   3.238   1.957   1.743 -0.7744 -0.6908  1.0063
  234MPD1     C 3601   0.116   0.449  10.248 -0.1872  0.3632 -0.0129
  234MPD1    C1 3602   0.050   0.559  10.303  0.2527 -0.1090 -0.0590
  234MPD1    C2 3603   4.688   0.613  10.230 -0.3902 -0.5149  0.4906
  234MPD1    C3 3604   4.662   0.577  10.101 -0.5236 -0.0294 -0.0271
  234MPD1    C4 3605   4.733   0.475  10.045  0.0768  0.9355  0.5027
  234MPD1    C5 3606   0.085   0.416  10.120  0.0646  0.2389 -0.9670
  234MPD1     H 3607   4.625   0.693  10.267 -1.1520 -0.4415 -0.9771
  234MPD1    H1 3608   4.725   0.437   9.943 -0.8022  0.3166  0.8079
  234MPD1    H2 3609   0.194   0.396  10.301  0.7665  0.9814 -0.8038
  234MPD1    H3 3610   0.136   0.332  10.075 -0.5825  0.4151 -2.0302
  234MPD1     N 3611   4.552   0.637  10.038  0.1619 -0.9460  0.2674
  234MPD1    H5 3612   4.501   0.704  10.094  0.3553  0.8991 -1.7571
  234MPD1    N1 3613   0.078   0.588  10.439  0.2947  0.0393 -0.6500
  234MPD1    H6 3614   0.173   0.571  10.472  0.6224  1.6198 -0.7475
  234MPD1    H7 3615   0.060   0.688  10.449 -1.0502 -0.4091  1.3815
  235MPD1     C 3616   1.326   2.450  10.787 -0.2908  0.2767  0.3499
  235MPD1    C1 3617   1.301   2.444  10.651  0.0584  0.6737 -0.8257
  235MPD1    C2 3618   1.382   2.517  10.572  0.0522  0.0370 -0.2076
  235MPD1    C3 3619   1.513   2.557  10.610  0.2169  0.5705 -0.2434
  235MPD1    C4 3620   1.542   2.539  10.744 -0.7681 -0.8247 -0.6369
  235MPD1    C5 3621   1.454   2.477  10.824  0.0962  0.0765 -0.2203
  235MPD1     H 3622   1.346   2.537  10.472  2.1138  1.3698 -0.6877
  235MPD1    H1 3623   1.622   2.587  10.799 -0.5782 -1.7705 -0.0871
  235MPD1    H2 3624   1.260   2.409  10.862 -0.8603  2.6848  1.1581
  235MPD1    H3 3625   1.467   2.485  10.931  0.9807 -0.5495 -0.2825
  235MPD1     N 3626   1.576   2.650  10.521 -0.4604 -0.4780  0.0768
  235MPD1    H5 3627   1.532   2.652  10.430  0.2229  0.5880 -0.2363
  235MPD1    N1 3628   1.172   2.396  10.612 -0.5954 -0.5129  0.0968
  235MPD1    H6 3629   1.163   2.375  10.513  0.1745  1.1659 -0.3246
  235MPD1    H7 3630   1.150   2.310  10.661  0.3932 -1.1754 -0.6212
  236MPD1     C 3631   0.175   4.294  10.325 -1.0204 -0.0982  0.0741
  236MPD1    C1 3632   0.229   4.292  10.201  0.0701 -0.1604  0.2088
  236MPD1    C2 3633   0.345   4.218  10.182  0.2887 -0.0354 -0.3514
  236MPD1    C3 3634   0.370   4.116  10.268 -0.3661  0.3006 -0.1270
  236MPD1    C4 3635   0.302   4.102  10.393  0.5275  0.1915  0.0384
  236MPD1    C5 3636   0.207   4.198  10.415  0.9477  0.4843 -0.1398
  236MPD1     H 3637   0.410   4.243  10.100  0.1821 -2.2050 -1.0765
  236MPD1    H1 3638   0.326   4.026  10.466  2.2358 -0.1905 -0.9216
  236MPD1    H2 3639   0.098   4.362  10.360 -0.8215  0.2924 -0.2580
  236MPD1    H3 3640   0.150   4.203  10.507  0.5839 -0.7751 -0.2959
  236MPD1     N 3641   0.473   4.021  10.258  0.1174  0.9444 -0.4292
  236MPD1    H5 3642   0.502   3.968  10.340 -1.0023  0.6646 -0.2100
  236MPD1    N1 3643   0.196   4.383  10.105  0.1180  0.1292 -0.1479
  236MPD1    H6 3644   0.098   4.409  10.114  0.4358  1.0086  0.7354
  236MPD1    H7 3645   0.214   4.343  10.013 -0.1185  0.2480 -0.2446
  237MPD1     C 3646   1.059   1.242  15.301 -0.1112 -1.2294  0.2493
  237MPD1    C1 3647   0.964   1.156  15.353  0.0540  0.0467  0.0816
  237MPD1    C2 3648   0.842   1.161  15.291  0.2108  0.2199  0.0723
  237MPD1    C3 3649   0.811   1.241  15.175  0.3290 -0.1701 -0.6155
  237MPD1    C4 3650   0.912   1.318  15.125  0.3219  0.2769 -0.0061
  237MPD1    C5 3651   1.034   1.321  15.189  0.2249  0.6588 -0.1712
  237MPD1     H 3652   0.768   1.103  15.345  1.3717 -0.9212  0.4321
  237MPD1    H1 3653   0.893   1.380  15.038  0.3874  1.8263  1.0719
  237MPD1    H2 3654   1.154   1.246  15.353 -0.5843  0.6999  0.9795
  237MPD1    H3 3655   1.106   1.387  15.142 -0.8123  0.2089 -2.3735
  237MPD1     N 3656   0.690   1.248  15.103  0.6064  0.4582  0.1089
  237MPD1    H5 3657   0.693   1.306  15.019  0.0147 -0.4935 -0.5668
  237MPD1    N1 3658   0.982   1.109  15.483  0.7489 -0.1936 -0.2646
  237MPD1    H6 3659   0.918   1.030  15.491  0.0405  0.6936  2.8495
  237MPD1    H7 3660   1.076   1.077  15.505  0.1947 -1.4251  0.3340
  238MPD1     C 3661   2.994   4.708  15.078 -0.3989  1.3510 -0.1135
  238MPD1    C1 3662   2.894   0.010  15.162  0.4167  0.4879 -0.3796
  238MPD1    C2 3663   2.775   0.049  15.100  0.0045  0.3106  0.0626
  238MPD1    C3 3664   2.752   0.017  14.964 -0.1220 -1.1249  0.4743
  238MPD1    C4 3665   2.857   4.705  14.894 -0.1402  0.2410  0.0279
  238MPD1    C5 3666   2.972   4.661  14.957 -0.1288 -1.0717  0.9119
  238MPD1     H 3667   2.692   0.078  15.162 -0.0413  1.5399 -0.5651
  238MPD1    H1 3668   2.840   4.680  14.790  0.7428 -1.5372  0.3146
  238MPD1    H2 3669   3.094   4.684  15.113 -1.3055 -0.2437  1.3958
  238MPD1    H3 3670   3.054   4.613  14.904  0.3749  1.6091 -0.7193
  238MPD1     N 3671   2.631   0.019  14.891  0.5311 -0.3790 -0.1146
  238MPD1    H5 3672   2.641   4.721  14.798  0.9211 -1.1612  0.2586
  238MPD1    N1 3673   2.918   0.058  15.290 -0.3197 -0.4750  0.0094
  238MPD1    H6 3674   2.984   4.736  15.336 -0.1221  0.2036  0.6454
  238MPD1    H7 3675   2.837   0.062  15.352  1.4980 -1.3192  2.4268
  239MPD1     C 3676   2.530   0.730  14.644 -0.5642 -0.9414  0.4716
  239MPD1    C1 3677   2.601   0.760  14.528  0.2187  0.5607 -0.2923
  239MPD1    C2 3678   2.535   0.833  14.433 -0.3794  0.5102 -0.7779
  239MPD1    C3 3679   2.408   0.882  14.449 -0.2217  1.1181  0.0723
  239MPD1    C4 3680   2.348   0.858  14.570 -0.8466 -0.7582  0.3078
  239MPD1    C5 3681   2.407   0.785  14.661  0.1991  0.3265 -0.8571
  239MPD1     H 3682   2.588   0.864  14.344  2.3970  0.1785  0.7359
  239MPD1    H1 3683   2.245   0.886  14.588 -0.3782  1.1911 -0.0508
  239MPD1    H2 3684   2.567   0.679  14.732  0.8603 -0.0051  0.4161
  239MPD1    H3 3685   2.356   0.769  14.755  2.1833 -0.4489  0.1018
  239MPD1     N 3686   2.329   0.948  14.353  0.3562 -0.1910 -0.1198
  239MPD1    H5 3687   2.234   0.976  14.374  0.7614  1.2490 -0.2383
  239MPD1    N1 3688   2.723   0.704  14.504  0.0094 -0.5070 -0.5091
  239MPD1    H6 3689   2.759   0.644  14.578 -0.9696 -0.3413  0.0988
  239MPD1    H7 3690   2.803   0.763  14.483  0.7579 -1.7337 -1.1253
  240MPD1     C 3691   2.734   0.359  13.631  0.2356 -0.0036  0.6180
  240MPD1    C1 3692   2.794   0.381  13.756 -0.2418  0.8352  0.1445
  240MPD1    C2 3693   2.712   0.384  13.870 -0.2632  0.5938  0.8823
  240MPD1    C3 3694   2.585   0.334  13.864  0.2954  0.5764  0.3915
  240MPD1    C4 3695   2.533   0.295  13.744 -0.1302  0.0060 -0.0687
  240MPD1    C5 3696   2.605   0.301  13.632 -0.2068  0.1640  0.4075
  240MPD1     H 3697   2.751   0.419  13.965 -0.9133  0.4815  1.1900
  240MPD1    H1 3698   2.428   0.272  13.727 -0.0636  0.1301 -0.6471
  240MPD1    H2 3699   2.790   0.377  13.539  0.1708  0.6669  0.7092
  240MPD1    H3 3700   2.562   0.274  13.536  2.4098 -3.9961  0.3979
  240MPD1     N 3701   2.499   0.346  13.975  0.3081 -0.2007  0.0302
  240MPD1    H5 3702   2.552   0.363  14.061 -0.4553 -0.0119  0.4604
  240MPD1    N1 3703   2.907   0.465  13.752  0.0519  0.7023  0.5716
  240MPD1    H6 3704   2.957   0.470  13.841 -0.0181  0.5691  0.6181
  240MPD1    H7 3705   2.977   0.442  13.681  0.2858  0.2050  0.9581
  241MPD1     C 3706   2.911   0.155  14.664 -0.1476  0.2481 -0.0160
  241MPD1    C1 3707   2.818   0.243  14.718 -0.2361 -1.1236 -0.7161
  241MPD1    C2 3708   2.709   0.278  14.641  0.5963 -0.0076 -0.2341
  241MPD1    C3 3709   2.688   0.225  14.517  0.1188  0.5551 -0.1429
  241MPD1    C4 3710   2.789   0.149  14.462  0.0263 -1.0007 -0.3889
  241MPD1    C5 3711   2.895   0.112  14.537 -0.1918 -0.0295 -0.1438
  241MPD1     H 3712   2.644   0.355  14.679  1.1077 -0.2137  1.0573
  241MPD1    H1 3713   2.778   0.102  14.365 -0.5603  0.1164 -0.8585
  241MPD1    H2 3714   2.998   0.128  14.722  0.8529 -0.7068 -1.9774
  241MPD1    H3 3715   2.968   0.048  14.488  0.3546  0.8899 -0.5388
  241MPD1     N 3716   2.583   0.256  14.431  0.2933  0.2629  0.6349
  241MPD1    H5 3717   2.584   0.216  14.338 -0.0920 -0.8558  1.1140
  241MPD1    N1 3718   2.853   0.323  14.832 -0.2573 -0.0524 -0.7139
  241MPD1    H6 3719   2.774   0.357  14.888  1.2004 -1.0359  1.9451
  241MPD1    H7 3720   2.918   0.274  14.892 -0.7084  0.2783  0.0480
  242MPD1     C 3721   1.944   3.770  15.763 -0.6876  0.2516  0.4094
  242MPD1    C1 3722   2.011   3.881  15.712  0.3275 -0.3220  0.4953
  242MPD1    C2 3723   2.025   3.902  15.579 -1.1283  0.2019 -0.2951
  242MPD1    C3 3724   1.974   3.813  15.489 -0.3064  0.1233  0.0573
  242MPD1    C4 3725   1.905   3.703  15.537  0.1660  1.0151 -0.2850
  242MPD1    C5 3726   1.890   3.690  15.669 -0.3064  0.1244  0.5042
  242MPD1     H 3727   2.087   3.989  15.561  0.4522 -0.7467  0.6003
  242MPD1    H1 3728   1.866   3.622  15.476  3.1218  0.3931 -1.3464
  242MPD1    H2 3729   1.957   3.747  15.868  0.2356 -1.1313 -0.0099
  242MPD1    H3 3730   1.848   3.598  15.708 -0.9849 -1.0474 -2.9699
  242MPD1     N 3731   1.988   3.831  15.350 -0.5862  0.2865 -0.4037
  242MPD1    H5 3732   1.959   3.755  15.289  1.5264 -0.1087 -0.9419
  242MPD1    N1 3733   2.069   3.969  15.804  0.2933  0.0905  0.4671
  242MPD1    H6 3734   2.061   4.069  15.786 -0.2083  0.0305  0.3706
  242MPD1    H7 3735   2.032   3.955  15.897  0.3539 -2.6665  0.0645
  243MPD1     C 3736   3.856   3.547   0.348 -0.0452 -0.0116 -0.4485
  243MPD1    C1 3737   3.929   3.435   0.326 -0.3711  0.1494  0.3718
  243MPD1    C2 3738   3.920   3.371   0.203 -0.3621  0.3803 -0.2028
  243MPD1    C3 3739   3.809   3.404   0.115 -0.4283  0.0860  0.3815
  243MPD1    C4 3740   3.718   3.498   0.152 -0.5950  0.0362  0.0253
  243MPD1    C5 3741   3.745   3.571   0.264 -0.2310 -0.5510  0.3977
  243MPD1     H 3742   3.980   3.281   0.189 -1.3391 -0.2293 -0.4208
  243MPD1    H1 3743   3.629   3.512   0.092 -0.7875  2.1670  0.8096
  243MPD1    H2 3744   3.872   3.620   0.427 -1.1367  0.2251 -0.4509
  243MPD1    H3 3745   3.670   3.645   0.291  0.1695  0.5092 -1.4526
  243MPD1     N 3746   3.799   3.320  17.760  0.6029  0.5259  0.3520
  243MPD1    H5 3747   3.876   3.253  17.758 -0.2213 -0.4379  1.0565
  243MPD1    N1 3748   4.020   3.398   0.422 -0.1481  0.1145  0.4598
  243MPD1    H6 3749   4.065   3.307   0.416 -0.7884 -0.3575  3.0317
  243MPD1    H7 3750   3.985   3.413   0.516 -1.7709 -1.5155  0.1241
  244MPD1     C 3751   3.629   2.506   0.158  0.2824  0.1821 -0.1905
  244MPD1    C1 3752   3.638   2.629   0.229  0.0959 -0.3196 -0.0839
  244MPD1    C2 3753   3.659   2.742   0.156  0.4901 -0.4011  0.5738
  244MPD1    C3 3754   3.656   2.738   0.023  0.0243  0.4901 -0.7243
  244MPD1    C4 3755   3.635   2.618  17.717 -0.2707  0.1256 -0.6456
  244MPD1    C5 3756   3.628   2.500   0.025 -0.3592 -0.3028 -0.6305
  244MPD1     H 3757   3.682   2.831   0.214 -0.0259 -0.2652  0.5667
  244MPD1    H1 3758   3.624   2.609  17.609  1.5395  0.7329 -0.8783
  244MPD1    H2 3759   3.620   2.411   0.209 -4.5835 -0.0347 -1.5058
  244MPD1    H3 3760   3.619   2.409  17.725 -1.5212 -2.1747  2.3820
  244MPD1     N 3761   3.675   2.859  17.716 -0.0074 -0.2105 -0.4062
  244MPD1    H5 3762   3.654   2.941   0.011 -0.3979 -1.1704  0.8609
  244MPD1    N1 3763   3.648   2.626   0.368 -0.1785 -0.4509 -0.4097
  244MPD1    H6 3764   3.595   2.708   0.397 -1.3367 -1.6941  1.0326
  244MPD1    H7 3765   3.597   2.546   0.407  0.2985 -0.6605 -0.2158
  245MPD1     C 3766   1.585   2.843  12.770  0.3868 -0.3509 -0.8583
  245MPD1    C1 3767   1.474   2.925  12.777  0.2364 -0.5251  0.0077
  245MPD1    C2 3768   1.418   2.951  12.896  0.2440 -0.8250  0.2816
  245MPD1    C3 3769   1.466   2.897  13.015 -0.3288  0.5168 -0.1090
  245MPD1    C4 3770   1.570   2.803  13.008  1.0129  0.2150  0.0013
  245MPD1    C5 3771   1.637   2.782  12.886 -0.0358  0.0035 -0.0255
  245MPD1     H 3772   1.329   3.012  12.893  0.8352  0.1375  2.2308
  245MPD1    H1 3773   1.620   2.762  13.095 -1.3602  2.0343  2.1872
  245MPD1    H2 3774   1.628   2.817  12.674  1.6712 -0.5178 -0.2398
  245MPD1    H3 3775   1.725   2.721  12.871 -2.6743 -3.9364  0.5040
  245MPD1     N 3776   1.405   2.940  13.133  0.2810  0.0356  0.7943
  245MPD1    H5 3777   1.353   3.027  13.125 -1.0523 -0.8911 -0.6590
  245MPD1    N1 3778   1.412   2.962  12.661  0.7361  0.0982 -0.7798
  245MPD1    H6 3779   1.344   3.037  12.673  0.7322 -0.1224  0.5444
  245MPD1    H7 3780   1.475   2.982  12.583  3.4037 -0.1543  1.3326
  246MPD1     C 3781   2.422   4.094   9.183  0.2381 -0.3968 -0.4029
  246MPD1    C1 3782   2.311   4.060   9.263 -0.2805 -0.5535  0.3716
  246MPD1    C2 3783   2.231   4.163   9.318  0.5808  0.4350  0.8811
  246MPD1    C3 3784   2.271   4.293   9.305  0.0762  0.2671  0.8201
  246MPD1    C4 3785   2.382   4.319   9.224  0.0841  0.8312 -0.4194
  246MPD1    C5 3786   2.465   4.223   9.178  0.1426  0.4703  0.4640
  246MPD1     H 3787   2.146   4.126   9.374  1.0518 -0.9367  0.6944
  246MPD1    H1 3788   2.417   4.422   9.221 -0.4605  1.0708  1.1220
  246MPD1    H2 3789   2.473   4.026   9.115 -0.7492 -2.8858  1.3350
  246MPD1    H3 3790   2.546   4.255   9.114 -1.3667  1.3828 -1.0019
  246MPD1     N 3791   2.179   4.392   9.352 -0.4633  0.0529 -0.8198
  246MPD1    H5 3792   2.103   4.352   9.406  1.1666 -1.3212  0.4301
  246MPD1    N1 3793   2.258   3.932   9.254 -0.0831 -0.6685 -0.2545
  246MPD1    H6 3794   2.324   3.860   9.229  1.5692  0.4255  0.9308
  246MPD1    H7 3795   2.205   3.903   9.336 -1.5253 -0.5373 -1.1516
  247MPD1     C 3796   0.099   3.212  16.545  0.4984 -0.2864  0.2777
  247MPD1    C1 3797   0.087   3.079  16.526 -0.2631  0.0184  0.5773
  247MPD1    C2 3798   0.064   3.027  16.404  0.1140  0.0753 -0.1650
  247MPD1    C3 3799   0.029   3.104  16.296  0.4343 -0.3748 -0.1454
  247MPD1    C4 3800   0.049   3.238  16.312 -0.0529  0.1888 -0.3309
  247MPD1    C5 3801   0.074   3.295  16.436  0.0692 -0.1049 -0.4571
  247MPD1     H 3802   0.059   2.919  16.394  1.4491 -0.1976  1.9434
  247MPD1    H1 3803   0.024   3.309  16.234  0.5028  0.5214 -0.2118
  247MPD1    H2 3804   0.113   3.254  16.644 -2.2490  1.3414 -0.0252
  247MPD1    H3 3805   0.102   3.400  16.444 -0.0712 -0.1541  0.6738
  247MPD1     N 3806   4.735   3.053  16.165 -0.0676  0.5238  0.0394
  247MPD1    H5 3807   4.697   3.117  16.095  0.4904  1.0461  0.2089
  247MPD1    N1 3808   0.126   2.998  16.633 -0.0286 -0.0718 -0.1405
  247MPD1    H6 3809   0.088   2.904  16.631 -0.5598  0.2051 -3.0416
  247MPD1    H7 3810   0.119   3.035  16.728 -0.7124 -2.0059  0.5515
  248MPD1     C 3811   1.222   2.637   0.094 -0.1846 -0.0482 -0.1486
  248MPD1    C1 3812   1.092   2.679   0.058 -0.1266 -0.3553 -1.1790
  248MPD1    C2 3813   1.029   2.771   0.144 -0.6499 -0.0496 -0.3798
  248MPD1    C3 3814   1.088   2.826   0.258  0.4720  0.3753 -0.4043
  248MPD1    C4 3815   1.218   2.784   0.283  0.2409  0.2600 -0.2149
  248MPD1    C5 3816   1.285   2.693   0.207  0.6869  0.0558 -1.0896
  248MPD1     H 3817   0.928   2.803   0.122 -0.8573 -0.6266 -0.2430
  248MPD1    H1 3818   1.281   2.801   0.370 -1.0523 -1.4049  1.0497
  248MPD1    H2 3819   1.272   2.552   0.049  1.0859 -0.6236  2.3623
  248MPD1    H3 3820   1.384   2.662   0.239  0.7915  1.5651 -0.0141
  248MPD1     N 3821   1.018   2.922   0.334 -0.6044 -0.3350  0.2600
  248MPD1    H5 3822   0.931   2.949   0.290  0.0590  1.6816  0.1547
  248MPD1    N1 3823   1.020   2.608  17.715 -0.0047  0.0333 -0.1034
  248MPD1    H6 3824   1.080   2.596  17.633  1.6765 -0.6328  1.2371
  248MPD1    H7 3825   0.943   2.667  17.684  1.1634  1.3020 -0.5827
  249MPD1     C 3826   1.311   2.177   9.928  0.2901 -0.2401 -0.1750
  249MPD1    C1 3827   1.434   2.226   9.957  0.0707 -0.2674 -0.7889
  249MPD1    C2 3828   1.529   2.150  10.016  0.0953  0.4217  0.1207
  249MPD1    C3 3829   1.498   2.022  10.059  0.0001 -0.3221  0.5459
  249MPD1    C4 3830   1.368   1.980  10.056  0.4743 -0.5060  0.5618
  249MPD1    C5 3831   1.280   2.055   9.981  0.1015  0.1559  0.5401
  249MPD1     H 3832   1.630   2.182  10.037  0.1513 -0.9180  1.9336
  249MPD1    H1 3833   1.339   1.883  10.095 -0.1408 -1.0801 -1.3000
  249MPD1    H2 3834   1.243   2.238   9.870  0.4498  0.6862  0.5998
  249MPD1    H3 3835   1.183   2.020   9.948  0.9252 -0.4163 -1.2569
  249MPD1     N 3836   1.600   1.952  10.132 -0.2632 -0.3077 -0.5047
  249MPD1    H5 3837   1.691   1.998  10.133 -0.5504  0.2704 -1.5169
  249MPD1    N1 3838   1.464   2.351   9.900 -0.5732  0.5341  0.0365
  249MPD1    H6 3839   1.545   2.387   9.950  0.3193 -0.3504 -0.7672
  249MPD1    H7 3840   1.391   2.421   9.913 -0.5833  0.5864 -0.2921
  250MPD2     C 3841   3.296   1.417  12.958 -0.6198  0.1620  0.5990
  250MPD2    C1 3842   3.431   1.426  12.976 -0.3264 -0.8831 -0.2779
  250MPD2    C2 3843   3.518   1.394  12.868  0.1645 -0.1234 -0.5489
  250MPD2    C3 3844   3.466   1.365  12.744  0.1640  0.6283 -0.0579
  250MPD2    C4 3845   3.331   1.348  12.727 -0.1268 -0.2532 -0.5901
  250MPD2    C5 3846   3.247   1.371  12.836 -0.9782  0.1485  0.6347
  250MPD2     H 3847   3.624   1.388  12.893  0.2208  1.8481 -0.3116
  250MPD2    H1 3848   3.287   1.325  12.631 -2.6572 -2.3634  1.0576
  250MPD2    H2 3849   3.226   1.445  13.036 -1.7685  1.0883 -0.7455
  250MPD2    H3 3850   3.140   1.359  12.824 -1.0788  0.2343  1.4349
  250MPD2     N 3851   3.541   1.317  12.637 -0.4498 -0.0371 -0.4220
  250MPD2    H5 3852   3.490   1.283  12.556 -0.3507  0.3066 -0.6300
  250MPD2    N1 3853   3.486   1.484  13.098 -0.1994  0.6621  0.0029
  250MPD2    H7 3854   3.424   1.483  13.178 -0.2936 -0.0235 -0.0786
  251TMC3    C1 3855   3.640   1.563  13.261 -0.3199 -0.3940  0.0943
  251TMC3    C2 3856   3.549   1.648  13.318 -0.5649  0.2040 -0.0285
  251TMC3    C3 3857   3.584   1.724  13.423  0.0208 -0.4264 -0.2698
  251TMC3    C4 3858   3.770   1.559  13.308 -0.1000 -0.0276 -0.1098
  251TMC3    C5 3859   3.788   1.617  13.423 -0.3450 -0.8342  0.1009
  251TMC3    C6 3860   3.709   1.710  13.482  0.4012  0.4331 -0.0381
  251TMC3     C 3861   3.619   1.513  13.133  0.2665 -0.3072  0.4977
  251TMC3     O 3862   3.719   1.492  13.063  0.6279 -0.3463  0.1794
  251TMC3     H 3863   3.447   1.664  13.284  0.1806 -1.1981 -2.9543
  251TMC3    H1 3864   3.852   1.506  13.260  0.5481 -1.4672  2.6155
  251TMC3    H2 3865   3.720   1.737  13.586  1.6847 -0.4471  0.0555
  251TMC3    C7 3866   3.927   1.640  13.460  0.1781  0.2160  0.5654
  251TMC3    C8 3867   3.479   1.806  13.480 -0.3571  0.2486 -0.7445
  251TMC3    O1 3868   4.007   1.552  13.426 -0.4979  0.3024 -0.2537
  251TMC3    O2 3869   3.366   1.761  13.478  0.4640 -0.4051  0.0945
  252TMC3    C1 3870   3.660   3.959   9.674 -0.3548  0.1814 -0.4672
  252TMC3    C2 3871   3.793   3.922   9.707  0.3415 -0.4172  0.0584
  252TMC3    C3 3872   3.809   3.804   9.775  0.1670 -0.1900 -0.5223
  252TMC3    C4 3873   3.560   3.870   9.691 -0.1378  0.6039 -0.2300
  252TMC3    C5 3874   3.583   3.754   9.762  0.1002  0.1854 -0.3336
  252TMC3    C6 3875   3.710   3.720   9.808  0.0073 -0.3343 -0.0139
  252TMC3     C 3876   3.626   4.068   9.584  0.6122  0.9294  1.0433
  252TMC3     O 3877   3.514   4.115   9.582  0.5732 -0.0513  0.1826
  252TMC3     H 3878   3.870   3.998   9.717 -1.6424  1.3908  1.5941
  252TMC3    H1 3879   3.465   3.876   9.639 -1.5246 -0.2600  2.1851
  252TMC3    H2 3880   3.721   3.639   9.880  0.6882 -0.2836 -0.0684
  252TMC3    C7 3881   3.471   3.677   9.810 -0.4120 -0.0500  0.4718
  252TMC3    C8 3882   3.941   3.785   9.832  0.2049 -0.9785 -0.1507
  252TMC3    O1 3883   3.361   3.705   9.765  0.2550  0.1873 -0.5952
  252TMC3    O2 3884   4.027   3.872   9.806  0.0834 -0.9338  0.1867
  253MPD2     C 3885   0.435   1.536  15.167 -0.8377  0.0659  0.0873
  253MPD2    C1 3886   0.302   1.566  15.168  0.2939  0.2765  0.6286
  253MPD2    C2 3887   0.223   1.561  15.281  0.3225 -0.5493  0.4592
  253MPD2    C3 3888   0.284   1.542  15.402 -0.2811  0.0846  0.0930
  253MPD2    C4 3889   0.419   1.515  15.402 -0.1472  0.2469  0.0055
  253MPD2    C5 3890   0.492   1.515  15.287  0.1829  0.5528  0.1116
  253MPD2     H 3891   0.116   1.573  15.273  0.4821  1.5230  1.1352
  253MPD2    H1 3892   0.478   1.515  15.493  0.3084  0.6242 -0.2894
  253MPD2    H2 3893   0.493   1.532  15.076  0.0004  2.3221  0.5253
  253MPD2    H3 3894   0.598   1.495  15.292  0.1370  0.0038 -1.0986
  253MPD2     N 3895   0.223   1.556  15.527  0.2694  0.3498  0.6306
  253MPD2    H5 3896   0.277   1.541  15.612  0.6439 -0.6206  0.2260
  253MPD2    N1 3897   0.230   1.584  15.050  0.5789  0.1363 -0.4883
  253MPD2    H7 3898   0.129   1.591  15.060  0.5929  1.7194 -1.5357
  254TMC3    C1 3899   0.036   1.562  15.672  0.2698 -0.3422 -0.3578
  254TMC3    C2 3900   4.657   1.620  15.705  0.4473 -0.9284 -0.2697
  254TMC3    C3 3901   4.617   1.613  15.834 -0.0310  0.8059 -0.2278
  254TMC3    C4 3902   0.115   1.511  15.766 -0.4958  0.0683  0.4042
  254TMC3    C5 3903   0.071   1.515  15.898 -0.0883 -0.3753  0.5091
  254TMC3    C6 3904   4.699   1.571  15.936  0.0836 -0.0297  0.3674
  254TMC3     C 3905   0.096   1.601  15.541 -0.1151 -0.0273  0.0615
  254TMC3     O 3906   0.027   1.669  15.465 -0.9119 -0.3934 -0.0504
  254TMC3     H 3907   4.594   1.659  15.626 -0.1194 -0.0237  0.6280
  254TMC3    H1 3908   0.215   1.470  15.754 -1.7218 -2.5037 -1.0423
  254TMC3    H2 3909   4.655   1.556  16.034  0.4499 -0.6690  0.4377
  254TMC3    C7 3910   0.116   1.399  15.972 -0.5358  0.2554  0.5748
  254TMC3    C8 3911   4.479   1.660  15.856 -0.8865  0.0206  0.4202
  254TMC3    O1 3912   0.174   1.310  15.912  0.1177 -0.3608  0.5798
  254TMC3    O2 3913   4.395   1.663  15.765  0.0418  0.1199  0.5253
  255MPD2     C 3914   3.055   0.110  11.242  0.0802 -0.4116 -0.4459
  255MPD2    C1 3915   3.077   0.196  11.133 -0.4311 -0.6524  0.8482
  255MPD2    C2 3916   3.083   0.143  11.007  0.1458  0.1252 -0.2712
  255MPD2    C3 3917   3.036   0.014  10.982 -0.3022 -0.0716  0.2427
  255MPD2    C4 3918   3.011   4.670  11.087  0.0532 -0.7364 -0.1480
  255MPD2    C5 3919   3.018   4.724  11.213 -0.0019  0.4545 -0.1885
  255MPD2     H 3920   3.087   0.206  10.919 -0.4773  0.0318 -0.3666
  255MPD2    H1 3921   2.984   4.565  11.077  0.2125 -0.8030  0.1179
  255MPD2    H2 3922   3.072   0.140  11.345 -0.5161 -1.8020  0.0559
  255MPD2    H3 3923   2.993   4.665  11.300  0.5511  1.6511  0.7802
  255MPD2     N 3924   3.033   4.716  10.850  0.5141  0.1492  0.8213
  255MPD2    H5 3925   3.052   0.043  10.776  0.6412 -1.8775 -0.9954
  255MPD2    N1 3926   3.107   0.332  11.147 -0.3254  0.5074 -0.6587
  255MPD2    H7 3927   3.078   0.381  11.231  0.9272 -0.8233  0.5533
  256TMC3    C1 3928   3.111   0.553  11.060  0.2636  0.2484 -0.0660
  256TMC3    C2 3929   3.180   0.627  10.972 -0.7796 -0.0648 -0.0537
  256TMC3    C3 3930   3.126   0.680  10.853 -0.3415  0.4930  0.6037
  256TMC3    C4 3931   2.983   0.541  11.028 -0.6181 -0.9205 -0.6726
  256TMC3    C5 3932   2.919   0.603  10.926 -0.6463 -0.4000  0.0097
  256TMC3    C6 3933   2.994   0.676  10.835 -0.4120 -0.1671  0.3242
  256TMC3     C 3934   3.161   0.414  11.054 -0.0089  0.3235 -0.0514
  256TMC3     O 3935   3.250   0.387  10.972 -0.0118 -0.0691  0.4060
  256TMC3     H 3936   3.287   0.634  10.989 -0.8594  1.2855 -0.0784
  256TMC3    H1 3937   2.925   0.477  11.093 -1.6803 -1.3008 -1.9931
  256TMC3    H2 3938   2.948   0.745  10.765 -0.0917  0.4330  0.7072
  256TMC3    C7 3939   2.812   0.529  10.865  0.1615  0.5637 -0.2579
  256TMC3    C8 3940   3.220   0.745  10.756 -0.1717 -0.2753 -0.6593
  256TMC3    O1 3941   2.788   0.416  10.893 -0.3772 -0.0043  0.0747
  256TMC3    O2 3942   3.332   0.779  10.796 -0.5244 -0.6108  1.2144
  257MPD2     C 3943   2.350   0.836  12.456  0.0360 -0.1861 -0.0334
  257MPD2    C1 3944   2.354   0.904  12.575 -0.2570  0.3081  0.1680
  257MPD2    C2 3945   2.419   0.847  12.683 -0.0008  0.6518 -0.9147
  257MPD2    C3 3946   2.493   0.725  12.665 -0.3480  0.2130  0.0975
  257MPD2    C4 3947   2.501   0.658  12.545 -0.4612 -0.0236  0.5077
  257MPD2    C5 3948   2.417   0.718  12.446  0.5007 -0.5614  0.6748
  257MPD2     H 3949   2.427   0.894  12.780 -0.0822 -2.1288  0.4364
  257MPD2    H1 3950   2.556   0.567  12.525 -1.0003 -0.5950  1.6314
  257MPD2    H2 3951   2.286   0.871  12.376  2.5878  0.5060 -1.7894
  257MPD2    H3 3952   2.403   0.660  12.356  2.5701  1.1037 -0.7136
  257MPD2     N 3953   2.556   0.677  12.782  0.3677  0.5644 -0.0969
  257MPD2    H5 3954   2.557   0.734  12.866  3.3766  3.1723 -1.8566
  257MPD2    N1 3955   2.288   1.032  12.583 -0.5183  0.4835  0.1259
  257MPD2    H7 3956   2.246   1.060  12.495 -1.6970 -0.7820  0.3038
  258TMC3    C1 3957   2.724   0.597  12.909 -0.8385 -0.0648 -0.1305
  258TMC3    C2 3958   2.654   0.611  13.028  0.4197 -0.4944 -0.2596
  258TMC3    C3 3959   2.725   0.615  13.141 -0.2769 -0.7996  0.3123
  258TMC3    C4 3960   2.863   0.606  12.902 -0.5401  0.2720 -0.4724
  258TMC3    C5 3961   2.926   0.625  13.021  0.1853  0.7919  0.9374
  258TMC3    C6 3962   2.860   0.633  13.145 -0.2100  0.0393  0.5011
  258TMC3     C 3963   2.656   0.582  12.785 -0.4219  0.1125 -0.2834
  258TMC3     O 3964   2.720   0.507  12.708 -0.7398 -0.4893 -0.1740
  258TMC3     H 3965   2.547   0.593  13.036  0.1091  1.7636  0.6557
  258TMC3    H1 3966   2.918   0.587  12.811  0.0190  0.8467 -0.2517
  258TMC3    H2 3967   2.915   0.618  13.237  1.7015 -1.5182 -0.8850
  258TMC3    C7 3968   3.062   0.666  13.023 -0.4295 -0.0807  0.7479
  258TMC3    C8 3969   2.654   0.593  13.267 -0.1837  0.0268 -0.5337
  258TMC3    O1 3970   3.125   0.642  12.917  0.2344  0.0972  0.4942
  258TMC3    O2 3971   2.711   0.634  13.371 -0.7699 -0.0820  0.0083
  259MPD2     C 3972   1.698   3.424   0.103 -0.3106 -0.4271  0.2662
  259MPD2    C1 3973   1.766   3.343   0.191  0.8462  1.0461  0.7769
  259MPD2    C2 3974   1.848   3.243   0.149  0.7368  0.5613 -0.8512
  259MPD2    C3 3975   1.890   3.243   0.017  0.4964 -0.0203 -0.2793
  259MPD2    C4 3976   1.827   3.320  17.683  0.5829 -0.0442 -0.0495
  259MPD2    C5 3977   1.729   3.408  17.725  0.0781 -0.4909  0.3178
  259MPD2     H 3978   1.897   3.180   0.222 -1.2649 -0.0015  0.0100
  259MPD2    H1 3979   1.841   3.312  17.575  1.1613 -0.3538  0.0473
  259MPD2    H2 3980   1.629   3.497   0.144  1.2990  1.9717 -1.3253
  259MPD2    H3 3981   1.687   3.470  17.647 -1.0537 -1.6237  0.0163
  259MPD2     N 3982   2.003   3.160   0.006 -0.4704 -0.3116  0.8098
  259MPD2    H5 3983   2.046   3.117   0.087  1.9263  0.4220 -0.0666
  259MPD2    N1 3984   1.746   3.371   0.327 -0.2237  0.4195  0.2553
  259MPD2    H7 3985   1.691   3.456   0.340 -0.5557  0.4063 -1.1000
  260TMC3    C1 3986   2.162   3.024  17.660  0.3029  0.3904  0.2462
  260TMC3    C2 3987   2.268   3.014  17.576  0.1103 -0.2616  0.9096
  260TMC3    C3 3988   2.368   2.933  17.614  0.2192 -0.5882  0.5679
  260TMC3    C4 3989   2.158   2.954   0.018 -0.0146  0.3200 -0.5524
  260TMC3    C5 3990   2.262   2.867   0.054 -0.0037  0.3011  0.1087
  260TMC3    C6 3991   2.366   2.860  17.726  0.3092 -0.0538 -0.4058
  260TMC3     C 3992   2.065   3.133  17.646  0.4341 -0.6624  0.7796
  260TMC3     O 3993   2.057   3.187  17.538 -0.0407  0.0106 -0.1278
  260TMC3     H 3994   2.270   3.074  17.486  1.4159  1.6047  2.1881
  260TMC3    H1 3995   2.059   2.932   0.056 -0.3524  2.5732 -0.1484
  260TMC3    H2 3996   2.434   2.775  17.733 -1.4409 -1.4133  0.0323
  260TMC3    C7 3997   2.215   2.742   0.108  0.2720 -0.9262  0.0379
  260TMC3    C8 3998   2.502   2.968  17.573  0.5755  0.0538 -0.1197
  260TMC3    O1 3999   2.247   2.639   0.051 -0.1474 -0.0430  0.9279
  260TMC3    O2 4000   2.521   3.015  17.461  0.0036  0.3604  0.1132
  261MPD2     C 4001   3.383   1.305  11.955 -0.2499 -0.0288  0.2874
  261MPD2    C1 4002   3.427   1.411  12.038  0.1355 -0.9993  0.3535
  261MPD2    C2 4003   3.375   1.537  12.014  0.4856 -0.3369  0.0663
  261MPD2    C3 4004   3.281   1.566  11.919  0.2844  0.5237  0.2567
  261MPD2    C4 4005   3.228   1.455  11.857 -0.5138 -0.2139  0.4811
  261MPD2    C5 4006   3.280   1.329  11.874  0.2563 -0.3832  0.3266
  261MPD2     H 4007   3.414   1.623  12.068  0.1458  0.7568 -1.4438
  261MPD2    H1 4008   3.152   1.477  11.784 -0.2597  1.2403  0.6514
  261MPD2    H2 4009   3.399   1.202  11.984 -2.2755 -0.1351  1.0363
  261MPD2    H3 4010   3.228   1.245  11.829  1.2648 -1.4610  1.1634
  261MPD2     N 4011   3.240   1.699  11.898 -0.3659  0.0784 -0.3241
  261MPD2    H5 4012   3.310   1.770  11.921 -0.5825  0.1718  0.0535
  261MPD2    N1 4013   3.521   1.398  12.140  0.2890 -0.0504 -0.3311
  261MPD2    H7 4014   3.544   1.475  12.201 -1.0688  0.3576 -0.3305
  262TMC3    C1 4015   3.134   1.873  11.795  0.7055 -0.7431  0.2157
  262TMC3    C2 4016   3.024   1.956  11.807 -0.4227  0.4181  0.0640
  262TMC3    C3 4017   3.025   2.085  11.775 -0.1157  0.6581 -0.9326
  262TMC3    C4 4018   3.247   1.917  11.730 -0.6426 -0.9034  0.2352
  262TMC3    C5 4019   3.237   2.050  11.682  0.1485  0.6106  0.7243
  262TMC3    C6 4020   3.130   2.134  11.699 -0.1094  0.3129 -0.7554
  262TMC3     C 4021   3.125   1.733  11.838 -0.0648  0.2778 -0.4108
  262TMC3     O 4022   3.012   1.681  11.846  0.7684  0.3164  0.0096
  262TMC3     H 4023   2.943   1.910  11.862 -1.5148  1.4091 -0.7172
  262TMC3    H1 4024   3.332   1.853  11.710  2.0149  1.7678  2.8865
  262TMC3    H2 4025   3.135   2.242  11.693 -0.7250  0.4720  1.4603
  262TMC3    C7 4026   3.362   2.096  11.613 -0.0921  1.0632 -0.0618
  262TMC3    C8 4027   2.921   2.179  11.819 -0.0127  0.4128 -0.0421
  262TMC3    O1 4028   3.449   2.011  11.596  0.5506  0.0747 -0.2433
  262TMC3    O2 4029   2.936   2.300  11.805  0.0557  0.1291 -0.3109
  263MPD2     C 4030   4.077   0.795  11.247  0.2827  0.1665  0.5502
  263MPD2    C1 4031   4.116   0.889  11.337 -0.2278 -0.4668  0.6096
  263MPD2    C2 4032   4.043   1.009  11.343 -0.5795 -0.3432  0.5124
  263MPD2    C3 4033   3.942   1.048  11.257  0.8243  0.2509 -0.0646
  263MPD2    C4 4034   3.909   0.950  11.162 -1.0173  0.1463 -0.1110
  263MPD2    C5 4035   3.980   0.829  11.159  0.2346  0.4482  0.3593
  263MPD2     H 4036   4.084   1.088  11.405 -0.2046 -0.4451  0.3936
  263MPD2    H1 4037   3.844   0.972  11.078 -0.7989 -0.7218 -0.5127
  263MPD2    H2 4038   4.132   0.702  11.241 -2.2426 -1.1358 -1.9424
  263MPD2    H3 4039   3.961   0.741  11.098  2.4845  1.1084 -1.2981
  263MPD2     N 4040   3.875   1.171  11.257 -0.0094  0.8410 -0.5137
  263MPD2    H5 4041   3.921   1.236  11.321  1.5140 -0.7027 -0.0261
  263MPD2    N1 4042   4.239   0.861  11.397 -0.0059 -0.0725 -0.1340
  263MPD2    H7 4043   4.269   0.767  11.375 -1.2407 -0.7878  1.1706
  264TMC3    C1 4044   3.773   1.361  11.150  0.1344  0.4602  0.4852
  264TMC3    C2 4045   3.789   1.449  11.250 -0.2554  0.0597 -0.5911
  264TMC3    C3 4046   3.771   1.578  11.227  0.3785  0.2565 -0.1883
  264TMC3    C4 4047   3.737   1.396  11.022 -0.2494  0.4850  0.1613
  264TMC3    C5 4048   3.741   1.529  10.998  0.2176  0.2071  0.2084
  264TMC3    C6 4049   3.746   1.618  11.099  0.6852  0.0848  0.7447
  264TMC3     C 4050   3.782   1.217  11.159 -0.1954  0.4300  0.5911
  264TMC3     O 4051   3.718   1.149  11.075 -0.3730 -0.0445 -0.1892
  264TMC3     H 4052   3.800   1.417  11.353  0.8545 -1.4065 -1.1622
  264TMC3    H1 4053   3.727   1.321  10.944  1.1524  1.1989 -0.6944
  264TMC3    H2 4054   3.759   1.722  11.071 -0.4287 -0.2360 -0.9779
  264TMC3    C7 4055   3.760   1.571  10.863 -0.2181 -0.6398 -0.1931
  264TMC3    C8 4056   3.867   1.651  11.303 -0.0432 -0.1631  0.4754
  264TMC3    O1 4057   3.747   1.694  10.838 -0.6970  0.0551 -0.3343
  264TMC3    O2 4058   3.935   1.723  11.230 -0.8500 -0.2420 -0.5509
  265MPD2     C 4059   1.269   1.176  15.649  0.0511  0.2514 -0.0983
  265MPD2    C1 4060   1.341   1.286  15.597 -0.3041 -0.0717  0.0507
  265MPD2    C2 4061   1.420   1.275  15.489  0.6203 -0.8065 -0.0411
  265MPD2    C3 4062   1.439   1.147  15.433  0.2827  0.5881 -0.3693
  265MPD2    C4 4063   1.369   1.039  15.488 -0.0513  0.7578  0.4418
  265MPD2    C5 4064   1.284   1.054  15.587 -0.1061 -0.9846  0.3562
  265MPD2     H 4065   1.465   1.366  15.452 -0.3313 -0.5005 -0.4466
  265MPD2    H1 4066   1.382   0.938  15.450 -3.5721  0.7139 -0.6276
  265MPD2    H2 4067   1.197   1.182  15.729  1.9956 -0.6098  1.7322
  265MPD2    H3 4068   1.227   0.970  15.626  0.5965 -1.2447  0.8252
  265MPD2     N 4069   1.518   1.118  15.316 -0.5012 -0.0909  0.6485
  265MPD2    H5 4070   1.538   1.020  15.300 -0.2749  0.1962 -0.7874
  265MPD2    N1 4071   1.327   1.413  15.657  0.3469 -0.0261  0.2191
  265MPD2    H7 4072   1.355   1.496  15.606  1.3280 -1.6642 -1.9363
  266TMC3    C1 4073   1.301   1.586  15.826  0.1026  0.1525 -0.0573
  266TMC3    C2 4074   1.352   1.608  15.950 -0.6647 -0.1809  0.3079
  266TMC3    C3 4075   1.372   1.737  15.989  0.8046 -0.1564 -0.4485
  266TMC3    C4 4076   1.258   1.686  15.739 -0.1672  0.7410  0.2783
  266TMC3    C5 4077   1.295   1.811  15.774  0.3487  0.0574  0.3280
  266TMC3    C6 4078   1.345   1.840  15.899 -0.4801  0.0046 -0.1592
  266TMC3     C 4079   1.283   1.441  15.783  0.1867  0.4517 -0.3206
  266TMC3     O 4080   1.256   1.369  15.880  0.0508  0.2863 -0.2518
  266TMC3     H 4081   1.404   1.535  16.010 -1.0167  0.3852  1.3053
  266TMC3    H1 4082   1.213   1.676  15.641 -0.7038 -0.8624  0.6799
  266TMC3    H2 4083   1.383   1.940  15.920  0.0340  0.0149 -1.1753
  266TMC3    C7 4084   1.283   1.925  15.686 -0.6683  0.1892  0.1717
  266TMC3    C8 4085   1.474   1.757  16.100 -0.3062  0.7931 -0.3520
  266TMC3    O1 4086   1.238   2.027  15.732 -0.0094  0.1816 -0.4365
  266TMC3    O2 4087   1.517   1.659  16.146  0.5683  0.3509 -0.5015
  267MPD2     C 4088   3.789   4.050   0.848 -0.0264 -0.7921  0.0012
  267MPD2    C1 4089   3.801   3.923   0.804 -0.3732  0.2489  0.5747
  267MPD2    C2 4090   3.689   3.871   0.734  0.8232 -1.0071 -0.1373
  267MPD2    C3 4091   3.574   3.944   0.705 -0.3140  0.4859 -0.3899
  267MPD2    C4 4092   3.567   4.065   0.766  0.2530  0.4673 -0.0219
  267MPD2    C5 4093   3.675   4.121   0.832  1.0634  0.5164 -0.4889
  267MPD2     H 4094   3.693   3.765   0.711  1.9655 -1.0364  0.2426
  267MPD2    H1 4095   3.475   4.120   0.756 -0.1244 -0.4783 -1.7968
  267MPD2    H2 4096   3.870   4.100   0.899  0.8987 -0.9579 -1.2790
  267MPD2    H3 4097   3.662   4.225   0.859 -1.2585  0.1989 -0.3211
  267MPD2     N 4098   3.476   3.884   0.628  0.2133 -0.2502 -0.2680
  267MPD2    H5 4099   3.505   3.793   0.594  2.7446  0.9596 -1.3820
  267MPD2    N1 4100   3.922   3.853   0.827  0.1885 -0.5051 -0.0104
  267MPD2    H7 4101   3.982   3.908   0.888  0.2663 -0.2045 -0.3646
  268TMC3    C1 4102   4.068   3.676   0.816 -0.1752 -0.2587 -0.3776
  268TMC3    C2 4103   4.144   3.613   0.719 -0.6775  0.2004 -0.0685
  268TMC3    C3 4104   4.279   3.595   0.733  0.3830 -0.2160  0.7512
  268TMC3    C4 4105   4.136   3.726   0.927 -0.0176 -0.5085  0.3710
  268TMC3    C5 4106   4.274   3.713   0.928  0.4436  0.4361 -0.0331
  268TMC3    C6 4107   4.350   3.649   0.836  0.1397  0.1052 -0.5446
  268TMC3     C 4108   3.947   3.730   0.775 -0.1440 -0.1739 -0.3660
  268TMC3     O 4109   3.890   3.679   0.677 -0.0481  0.3162  0.1748
  268TMC3     H 4110   4.089   3.559   0.642  0.8594 -1.2747 -0.1463
  268TMC3    H1 4111   4.084   3.773   1.010 -0.9136  0.4069 -0.7022
  268TMC3    H2 4112   4.455   3.627   0.847 -0.0887 -0.4037  0.6280
  268TMC3    C7 4113   4.330   3.772   1.051  0.1392 -0.5037  0.3305
  268TMC3    C8 4114   4.347   3.531   0.628 -0.3768 -0.6105  0.0665
  268TMC3    O1 4115   4.277   3.874   1.096 -0.5938  0.3532  0.1069
  268TMC3    O2 4116   4.434   3.447   0.654 -0.2934  0.0573  0.5967
  269MPD2     C 4117   3.990   1.858  15.718  0.4324 -0.3741  0.4908
  269MPD2    C1 4118   3.881   1.922  15.673  0.3868 -0.5766 -0.1499
  269MPD2    C2 4119   3.895   2.038  15.600  0.5965 -0.3148 -0.5969
  269MPD2    C3 4120   4.018   2.090  15.578 -0.6682  0.1343 -0.0320
  269MPD2    C4 4121   4.136   2.016  15.606 -0.1062 -0.0358  0.9954
  269MPD2    C5 4122   4.117   1.903  15.689  0.4939  0.6764 -0.2330
  269MPD2     H 4123   3.816   2.108  15.574 -0.0088 -0.2613  1.3419
  269MPD2    H1 4124   4.235   2.053  15.582 -0.3462 -0.2113 -0.2869
  269MPD2    H2 4125   3.977   1.769  15.779 -0.4620  0.4633  1.5309
  269MPD2    H3 4126   4.199   1.843  15.725  0.4018  1.5782  1.5125
  269MPD2     N 4127   4.022   2.227  15.531  0.5903 -0.0458 -0.0809
  269MPD2    H5 4128   3.927   2.262  15.520  0.4183 -0.7055 -0.6496
  269MPD2    N1 4129   3.758   1.861  15.703  0.3793 -0.1096  0.3087
  269MPD2    H7 4130   3.759   1.770  15.747  0.5169 -0.1216  0.2813
  270TMC3    C1 4131   3.537   1.800  15.682 -0.1187  0.7233  0.4697
  270TMC3    C2 4132   3.495   1.743  15.566  0.6870  0.1116  0.7568
  270TMC3    C3 4133   3.481   1.613  15.556 -0.3305  0.5160  0.3523
  270TMC3    C4 4134   3.559   1.730  15.797  0.2358 -0.2683 -0.0196
  270TMC3    C5 4135   3.551   1.598  15.782  0.0532  0.1373 -0.3976
  270TMC3    C6 4136   3.503   1.539  15.672  0.5359  0.3225 -0.5672
  270TMC3     C 4137   3.635   1.905  15.669 -0.4266  0.4572  0.0623
  270TMC3     O 4138   3.599   2.011  15.614 -0.1769  0.5005  0.0307
  270TMC3     H 4139   3.483   1.807  15.479 -1.0667  0.7513  1.4566
  270TMC3    H1 4140   3.601   1.773  15.887  1.6553  0.7992 -1.2020
  270TMC3    H2 4141   3.521   1.433  15.660  0.8891  0.6878 -3.2862
  270TMC3    C7 4142   3.661   1.536  15.853 -0.8080 -0.4028 -0.1482
  270TMC3    C8 4143   3.503   1.558  15.420  0.0982 -0.4803 -1.0138
  270TMC3    O1 4144   3.748   1.614  15.899 -0.2244 -0.3341  0.5232
  270TMC3    O2 4145   3.559   1.631  15.338  0.4507 -0.7047  0.3033
  271MPD2     C 4146   3.001   1.386  13.866 -0.0205 -0.3030  0.0561
  271MPD2    C1 4147   2.978   1.443  13.987 -0.1953 -0.0697 -0.5071
  271MPD2    C2 4148   2.854   1.466  14.031  0.1448  0.6612  0.5034
  271MPD2    C3 4149   2.746   1.416  13.963  0.4301 -0.2109  0.7050
  271MPD2    C4 4150   2.766   1.339  13.843 -0.4924 -0.2305 -0.0383
  271MPD2    C5 4151   2.896   1.329  13.794 -0.6266 -0.8709 -0.7157
  271MPD2     H 4152   2.840   1.532  14.116 -0.4116  1.2245 -0.0241
  271MPD2    H1 4153   2.685   1.295  13.786  0.7934 -2.5656 -0.0633
  271MPD2    H2 4154   3.100   1.372  13.824  0.0122 -2.3653  0.8268
  271MPD2    H3 4155   2.913   1.275  13.702 -0.4182 -0.1702 -1.0881
  271MPD2     N 4156   2.609   1.428  14.007 -0.9083 -0.3692  0.1273
  271MPD2    H5 4157   2.544   1.377  13.947  0.2380 -0.9241 -0.6467
  271MPD2    N1 4158   3.086   1.483  14.073  0.7290 -0.3998  0.1597
  271MPD2    H7 4159   3.060   1.525  14.162 -0.4289 -2.4378  0.7969
  272TMC3    C1 4160   3.302   1.469  14.162 -0.8579 -0.5472  0.0957
  272TMC3    C2 4161   3.435   1.443  14.144 -0.5413  0.6578 -0.6674
  272TMC3    C3 4162   3.518   1.392  14.243 -0.0355  0.8557 -0.0072
  272TMC3    C4 4163   3.252   1.455  14.288 -0.0771  0.5170  0.1616
  272TMC3    C5 4164   3.337   1.408  14.391  0.1305  0.3981  0.2505
  272TMC3    C6 4165   3.464   1.362  14.366  1.0343  0.0731  0.7507
  272TMC3     C 4166   3.215   1.454  14.048  0.1338 -0.0900 -0.3461
  272TMC3     O 4167   3.264   1.456  13.936  0.3642 -0.4136 -0.1255
  272TMC3     H 4168   3.479   1.455  14.046  0.1253 -0.8786 -0.5557
  272TMC3    H1 4169   3.151   1.492  14.307 -0.5901 -0.4286 -0.7420
  272TMC3    H2 4170   3.531   1.326  14.443  1.2517  0.4520  0.7424
  272TMC3    C7 4171   3.289   1.427  14.523 -0.0945 -0.7459 -0.0682
  272TMC3    C8 4172   3.652   1.350  14.201  0.2160  0.2331  0.1842
  272TMC3    O1 4173   3.172   1.404  14.545  0.0267 -0.6021  0.1591
  272TMC3    O2 4174   3.692   1.383  14.092  0.3747 -0.4298  0.7762
  273MPD2     C 4175   4.722   4.023  11.381 -0.0960  0.4451  1.5898
  273MPD2    C1 4176   0.036   4.142  11.426 -0.3909 -0.6108 -0.0027
  273MPD2    C2 4177   0.020   4.248  11.342 -0.2936 -0.6783  0.1606
  273MPD2    C3 4178   4.697   4.239  11.212  0.5995 -0.1113  0.1477
  273MPD2    C4 4179   4.666   4.113  11.168  0.2220  0.0556 -0.1158
  273MPD2    C5 4180   4.667   4.006  11.256 -0.9102  0.2521 -0.1741
  273MPD2     H 4181   0.059   4.343  11.377  0.2798 -0.4753 -1.0231
  273MPD2    H1 4182   4.608   4.099  11.076  0.4284  1.4749 -0.4620
  273MPD2    H2 4183   4.731   3.934  11.442 -0.0512 -1.2403 -0.8517
  273MPD2    H3 4184   4.635   3.904  11.235  0.4518 -0.3942  0.8503
  273MPD2     N 4185   4.664   4.361  11.150 -0.0231 -0.2620  0.1154
  273MPD2    H5 4186   4.693   4.445  11.199  0.9675 -0.3448 -0.3223
  273MPD2    N1 4187   0.072   4.170  11.557  0.1993  0.6302  0.1947
  273MPD2    H7 4188   0.102   4.264  11.581  2.1900  0.9990 -3.8018
  274TMC3    C1 4189   4.540   4.515  11.024 -0.0434  0.1190 -0.6157
  274TMC3    C2 4190   4.453   4.534  10.923 -0.3748 -0.4644  0.4052
  274TMC3    C3 4191   4.370   4.641  10.933  0.2131 -0.1283 -0.0724
  274TMC3    C4 4192   4.572   4.621  11.111 -0.0850  0.0824 -0.0345
  274TMC3    C5 4193   4.500   4.740  11.103  0.2751  0.2838 -0.4181
  274TMC3    C6 4194   4.399   0.004  11.012  0.1887 -0.3573 -0.0288
  274TMC3     C 4195   4.582   4.378  11.041 -0.3783  0.4154  0.5063
  274TMC3     O 4196   4.550   4.302  10.952 -0.0506 -0.8851 -0.1379
  274TMC3     H 4197   4.439   4.457  10.848  0.3104  0.0504 -0.2594
  274TMC3    H1 4198   4.660   4.625  11.174 -0.5994 -3.1212  0.8897
  274TMC3    H2 4199   4.326   0.080  11.040  1.7386  0.4448  1.7940
  274TMC3    C7 4200   4.537   0.105  11.189  0.3225  0.0610  0.1160
  274TMC3    C8 4201   4.237   4.624  10.871 -0.5124  1.6371 -0.2404
  274TMC3    O1 4202   4.483   0.211  11.167  0.6364 -0.1128 -0.3281
  274TMC3    O2 4203   4.217   4.510  10.829 -0.2035 -1.1157  0.5580
  275MPD2     C 4204   4.548   2.922  14.363  0.0173 -0.4331  0.1152
  275MPD2    C1 4205   4.574   2.802  14.432  0.2802 -0.5986  0.1832
  275MPD2    C2 4206   4.483   2.700  14.430  0.5090 -0.6756 -0.2158
  275MPD2    C3 4207   4.370   2.715  14.353 -0.1592  0.1487  0.1837
  275MPD2    C4 4208   4.339   2.835  14.302 -0.0224 -0.1428 -0.3558
  275MPD2    C5 4209   4.425   2.939  14.304  0.3189 -0.2071  0.1729
  275MPD2     H 4210   4.490   2.602  14.478  1.8729 -0.9624 -1.0019
  275MPD2    H1 4211   4.241   2.858  14.260  0.9978  1.3725 -1.8995
  275MPD2    H2 4212   4.609   3.012  14.365  0.5751 -0.8439  1.7683
  275MPD2    H3 4213   4.389   3.033  14.263  1.4910 -0.9849 -2.6000
  275MPD2     N 4214   4.265   2.622  14.348  0.7502  0.1179 -0.1226
  275MPD2    H5 4215   4.191   2.656  14.287  1.7150  0.4264 -1.1391
  275MPD2    N1 4216   4.697   2.782  14.507 -0.1780 -0.1543  0.0881
  275MPD2    H7 4217   4.720   2.686  14.531 -2.2691  0.1070  3.1391
  276TMC3    C1 4218   0.177   2.823  14.566 -0.0760 -0.1738  1.0241
  276TMC3    C2 4219   0.205   2.689  14.558  0.4558  0.6530  0.9405
  276TMC3    C3 4220   0.334   2.648  14.527  0.0989  0.2737 -0.1644
  276TMC3    C4 4221   0.277   2.908  14.562  0.1245  0.1351 -0.9753
  276TMC3    C5 4222   0.407   2.859  14.552  0.3147 -0.4002 -0.0937
  276TMC3    C6 4223   0.440   2.732  14.520 -0.5589  0.5904 -0.3028
  276TMC3     C 4224   0.054   2.878  14.522  0.1203 -0.7538 -0.2735
  276TMC3     O 4225   0.040   2.998  14.508 -0.1610 -0.2413 -0.4148
  276TMC3     H 4226   0.120   2.623  14.565  0.5108  0.6815  1.9780
  276TMC3    H1 4227   0.252   3.013  14.576 -0.3467 -0.2518  1.1052
  276TMC3    H2 4228   0.541   2.694  14.505 -0.6378  0.1707  0.2682
  276TMC3    C7 4229   0.504   2.935  14.627  0.3170  0.3405 -0.2245
  276TMC3    C8 4230   0.348   2.515  14.466  0.2893  0.0926  0.3493
  276TMC3    O1 4231   0.464   3.018  14.705  0.1471  0.1860  0.3577
  276TMC3    O2 4232   0.433   2.513  14.378 -0.1972  0.0904 -0.2860
  277MPD2     C 4233   1.974   1.515  12.814  0.9883  1.1014 -0.4296
  277MPD2    C1 4234   1.844   1.494  12.846 -0.0212 -0.4591  0.2340
  277MPD2    C2 4235   1.817   1.391  12.933 -0.8491 -0.6161 -0.4006
  277MPD2    C3 4236   1.921   1.325  12.998  0.7475 -0.1798 -0.9036
  277MPD2    C4 4237   2.055   1.354  12.972 -0.3866  0.3646  0.2285
  277MPD2    C5 4238   2.075   1.457  12.878 -0.6404  0.8593 -0.2113
  277MPD2     H 4239   1.719   1.374  12.976 -1.9992  0.3566 -2.6302
  277MPD2    H1 4240   2.140   1.323  13.031  0.3515  1.3441 -0.3188
  277MPD2    H2 4241   1.994   1.596  12.745 -0.5175  0.9209 -1.0924
  277MPD2    H3 4242   2.177   1.479  12.848 -0.2893 -2.9588 -1.8708
  277MPD2     N 4243   1.867   1.237  13.088  0.2757  0.1048 -0.4415
  277MPD2    H5 4244   1.765   1.228  13.090  0.1424  1.4043 -2.5354
  277MPD2    N1 4245   1.740   1.565  12.778 -0.1638 -0.2462 -0.3593
  277MPD2    H7 4246   1.755   1.658  12.740 -2.8408  0.6839  0.8535
  278TMC3    C1 4247   1.844   1.052  13.235 -0.2822 -0.2390 -0.2405
  278TMC3    C2 4248   1.854   0.917  13.227  0.4925  0.3955 -0.0804
  278TMC3    C3 4249   1.753   0.837  13.273 -0.0187 -0.1915 -0.1059
  278TMC3    C4 4250   1.734   1.113  13.294 -0.4854 -0.8607  0.8246
  278TMC3    C5 4251   1.636   1.031  13.353  0.3506 -0.9194  0.7548
  278TMC3    C6 4252   1.649   0.889  13.353  0.3183 -0.0869 -0.1481
  278TMC3     C 4253   1.930   1.129  13.151 -0.1771  0.2045  0.0267
  278TMC3     O 4254   2.046   1.094  13.128 -0.1110  0.4505 -0.7188
  278TMC3     H 4255   1.933   0.872  13.168 -1.2846 -0.3705 -1.8533
  278TMC3    H1 4256   1.725   1.221  13.293 -1.4711 -0.9893 -4.0044
  278TMC3    H2 4257   1.574   0.823  13.395  0.4000  1.2154  2.0558
  278TMC3    C7 4258   1.506   1.085  13.384 -0.5606  0.7463 -0.4828
  278TMC3    C8 4259   1.729   0.712  13.207  0.3966 -0.4398  0.1704
  278TMC3    O1 4260   1.419   1.017  13.439  0.3353  0.4468 -0.2251
  278TMC3    O2 4261   1.823   0.640  13.181  0.2330 -0.2588  0.1422
  279MPD2     C 4262   1.130   2.079  17.553 -0.2162 -0.3127  0.4784
  279MPD2    C1 4263   1.080   2.201  17.591  0.3514  0.2150  0.5486
  279MPD2    C2 4264   1.028   2.279  17.489 -0.4752  0.0424 -0.1556
  279MPD2    C3 4265   1.031   2.239  17.357 -0.6533  0.4244 -0.2506
  279MPD2    C4 4266   1.085   2.124  17.318 -0.4431  0.2215 -0.1814
  279MPD2    C5 4267   1.130   2.040  17.420  0.7724  0.1703 -1.0376
  279MPD2     H 4268   0.994   2.378  17.517 -3.3449 -0.6477 -1.1864
  279MPD2    H1 4269   1.086   2.092  17.214 -0.7738 -1.5537  0.3548
  279MPD2    H2 4270   1.159   2.004  17.626 -1.3823 -1.8258 -0.6212
  279MPD2    H3 4271   1.165   1.940  17.401  2.0844  0.9568 -2.7553
  279MPD2     N 4272   0.982   2.321  17.254 -0.0693  0.1299  0.5735
  279MPD2    H5 4273   0.999   2.290  17.159  1.4763  0.0012  0.8885
  279MPD2    N1 4274   1.084   2.251  17.723 -0.2646  0.2526  0.3968
  279MPD2    H7 4275   1.038   2.339  17.738 -0.3384  0.5763 -1.7051
  280TMC3    C1 4276   1.122   2.250   0.201  0.0045  1.0332 -0.4497
  280TMC3    C2 4277   1.143   2.165   0.306 -0.0332  0.1751  0.1913
  280TMC3    C3 4278   1.078   2.193   0.428  0.6536  0.0398  0.6367
  280TMC3    C4 4279   1.037   2.360   0.218  0.0932  0.3211  0.2257
  280TMC3    C5 4280   0.980   2.381   0.338  0.0366 -0.3220  0.5248
  280TMC3    C6 4281   0.998   2.306   0.447  0.8882  1.0016  0.2516
  280TMC3     C 4282   1.156   2.194   0.072  0.6923 -0.0223  0.1016
  280TMC3     O 4283   1.230   2.094   0.077 -0.0848  0.0307  0.5157
  280TMC3     H 4284   1.181   2.066   0.284  2.6164  1.8378 -2.7358
  280TMC3    H1 4285   1.025   2.426   0.133 -0.1614 -2.0337 -1.5864
  280TMC3    H2 4286   0.948   2.327   0.541  0.6347 -1.3073  0.6228
  280TMC3    C7 4287   0.895   2.493   0.363  0.6679 -0.6865 -0.6033
  280TMC3    C8 4288   1.039   2.078   0.514 -0.3400 -0.2947 -0.2951
  280TMC3    O1 4289   0.883   2.531   0.478 -0.1451 -0.2987 -0.8672
  280TMC3    O2 4290   0.929   2.091   0.570 -0.0412  0.1733 -0.5077
  281TMC3    C1 4291   0.059   1.831  13.317  1.0605 -0.4362 -0.3672
  281TMC3    C2 4292   4.680   1.830  13.379 -0.5044 -1.2030 -0.0506
  281TMC3    C3 4293   4.623   1.705  13.416  0.9104 -0.4081  0.1840
  281TMC3    C4 4294   0.135   1.722  13.306  0.3506 -0.5383 -0.2749
  281TMC3    C5 4295   0.076   1.604  13.346  0.1025 -0.1616 -0.4228
  281TMC3    C6 4296   4.696   1.597  13.409  0.1582  0.8519  0.3554
  281TMC3     C 4297   0.112   1.955  13.270  0.1783 -0.4792 -0.8902
  281TMC3     O 4298   0.224   1.951  13.214  0.1447 -0.5939  0.3427
  281TMC3     H 4299   4.607   1.908  13.360  0.2710 -0.2368  0.9346
  281TMC3    H1 4300   0.205   1.717  13.223 -0.7995  2.0949 -1.3852
  281TMC3    H2 4301   4.656   1.501  13.437 -1.5648  0.9006 -1.9508
  281TMC3    C7 4302   0.169   1.489  13.318  0.3858 -0.2017  0.5229
  281TMC3    C8 4303   4.485   1.696  13.463  0.4203  0.0276  0.3342
  281TMC3    O1 4304   0.266   1.505  13.247  0.7965 -0.4085  0.0203
  281TMC3    O2 4305   4.432   1.584  13.459  0.4116 -0.2098 -0.0845
  282MPD2     C 4306   1.441   3.096  14.877 -0.1131  0.1884  0.4329
  282MPD2    C1 4307   1.364   2.999  14.938 -0.1973  0.0999  0.0915
  282MPD2    C2 4308   1.309   2.900  14.852 -0.0269  0.1009 -0.2555
  282MPD2    C3 4309   1.335   2.899  14.716 -0.8025  0.4442 -0.1621
  282MPD2    C4 4310   1.415   2.996  14.667 -0.6279  0.5755  0.2013
  282MPD2    C5 4311   1.466   3.093  14.744  0.2378 -0.4213  0.5606
  282MPD2     H 4312   1.247   2.824  14.898  1.3246  0.6581  2.4776
  282MPD2    H1 4313   1.442   2.999  14.562  2.1847 -1.3450  0.8721
  282MPD2    H2 4314   1.492   3.174  14.934  3.9538 -1.3386 -1.1543
  282MPD2    H3 4315   1.525   3.169  14.694  1.3906 -3.1645 -2.2757
  282MPD2     N 4316   1.286   2.788  14.640 -0.1200  0.4958  0.6929
  282MPD2    H5 4317   1.252   2.706  14.689  2.4233 -0.8573  0.1643
  282MPD2    N1 4318   1.335   3.001  15.074  0.1549  0.0745  0.6527
  282MPD2    H7 4319   1.284   2.920  15.108 -1.5178  1.0055  0.3674
  283TMC3    C1 4320   1.320   3.092  15.291 -0.2981  0.6246 -0.2907
  283TMC3    C2 4321   1.394   3.170  15.374 -0.0187 -0.6180 -0.2189
  283TMC3    C3 4322   1.365   3.170  15.508 -1.3396  0.1614  0.3936
  283TMC3    C4 4323   1.222   3.006  15.338  0.2734 -0.0723  0.3924
  283TMC3    C5 4324   1.202   3.009  15.471  0.1379 -0.2691 -0.0735
  283TMC3    C6 4325   1.270   3.087  15.558 -0.3048  0.0428  0.4070
  283TMC3     C 4326   1.353   3.109  15.153  0.6000  0.8099  0.3261
  283TMC3     O 4327   1.402   3.220  15.136 -0.6162  0.4876 -0.8185
  283TMC3     H 4328   1.482   3.229  15.350 -0.3729 -0.6546 -1.5919
  283TMC3    H1 4329   1.153   2.957  15.271 -0.4076  0.8446  0.4326
  283TMC3    H2 4330   1.257   3.081  15.665  1.5238  0.2125  0.6487
  283TMC3    C7 4331   1.085   2.956  15.530 -0.2739  0.8405  0.2382
  283TMC3    C8 4332   1.426   3.263  15.602  0.4204 -0.5550 -0.7421
  283TMC3    O1 4333   1.052   3.010  15.637  0.2572  0.4858 -0.5241
  283TMC3    O2 4334   1.412   3.240  15.721 -0.5945  0.9163  0.3914
  284MPD2     C 4335   4.280   2.644  12.409  0.2658 -0.5201 -0.7585
  284MPD2    C1 4336   4.335   2.614  12.284 -0.0148  0.0453 -0.6308
  284MPD2    C2 4337   4.456   2.536  12.281 -0.5395  0.0208  0.3074
  284MPD2    C3 4338   4.518   2.496  12.392 -0.3030  0.6137  0.3532
  284MPD2    C4 4339   4.462   2.536  12.519 -0.0145 -0.2042 -0.0927
  284MPD2    C5 4340   4.349   2.615  12.520  0.2602  0.4099 -0.2412
  284MPD2     H 4341   4.509   2.509  12.190 -0.3620 -2.2845  1.1071
  284MPD2    H1 4342   4.514   2.503  12.608  0.6758  0.3234 -0.3002
  284MPD2    H2 4343   4.191   2.704  12.420  0.9373  0.0348  1.6799
  284MPD2    H3 4344   4.305   2.647  12.614  1.7591 -1.5224  1.1022
  284MPD2     N 4345   4.639   2.424  12.386  0.0847  0.3585 -0.0007
  284MPD2    H5 4346   4.677   2.407  12.293  1.3131  1.9361  0.2125
  284MPD2    N1 4347   4.280   2.650  12.161 -0.1810 -0.2369  0.1496
  284MPD2    H7 4348   4.340   2.619  12.084  0.6640 -0.6791  0.9834
  285TMC3    C1 4349   4.166   2.757  11.993  0.2862  0.1823 -0.3710
  285TMC3    C2 4350   4.220   2.669  11.900  0.0697 -0.3597  0.7955
  285TMC3    C3 4351   4.229   2.716  11.775  0.6104 -0.8945 -0.0327
  285TMC3    C4 4352   4.114   2.885  11.965 -0.2726  0.5223 -0.1132
  285TMC3    C5 4353   4.117   2.926  11.832  0.5614  0.1396 -0.2860
  285TMC3    C6 4354   4.184   2.837  11.741 -1.0561  0.2423  0.5621
  285TMC3     C 4355   4.170   2.726  12.136  0.6789 -0.8849  0.1598
  285TMC3     O 4356   4.087   2.788  12.204  0.2286  0.3899 -0.0342
  285TMC3     H 4357   4.255   2.570  11.927 -2.0068 -0.8623  1.5923
  285TMC3    H1 4358   4.069   2.946  12.042 -1.6632 -1.5926  0.7536
  285TMC3    H2 4359   4.191   2.871  11.638  1.9598  0.5226  0.8689
  285TMC3    C7 4360   4.127   3.073  11.801 -0.3044 -0.6268  0.1260
  285TMC3    C8 4361   4.280   2.628  11.670  0.2617  0.3200  0.0595
  285TMC3    O1 4362   4.195   3.109  11.705  0.0194  0.1301 -0.0876
  285TMC3    O2 4363   4.291   2.513  11.705  0.4767 -0.3247  0.1971
  286MPD2     C 4364   0.043   2.013   1.544 -0.6591  0.2424  0.1909
  286MPD2    C1 4365   0.049   1.985   1.405  0.0449  0.2317  0.2603
  286MPD2    C2 4366   0.167   1.931   1.347  0.0025 -0.2387  0.8511
  286MPD2    C3 4367   0.262   1.891   1.435  0.2738 -0.2477  0.0450
  286MPD2    C4 4368   0.251   1.911   1.567  0.1246  0.5850  0.4571
  286MPD2    C5 4369   0.144   1.973   1.621 -0.1910 -0.2377  0.0854
  286MPD2     H 4370   0.180   1.925   1.240  3.0356 -1.3409  1.2921
  286MPD2    H1 4371   0.322   1.868   1.637 -1.8552 -2.1706  0.7491
  286MPD2    H2 4372   4.706   2.054   1.608 -1.3894 -0.2241 -0.3866
  286MPD2    H3 4373   0.142   1.994   1.728 -3.7946  0.9027 -0.2030
  286MPD2     N 4374   0.385   1.844   1.392  0.2081  0.0216  0.3910
  286MPD2    H5 4375   0.449   1.849   1.471 -0.1756 -1.6884  0.8100
  286MPD2    N1 4376   4.702   2.032   1.306  0.2989  0.0794 -0.7052
  286MPD2    H7 4377   4.715   2.017   1.207 -2.4770  0.5916 -1.1503
  287TMC3    C1 4378   0.547   1.732   1.265  0.1763  0.3666  0.5189
  287TMC3    C2 4379   0.572   1.649   1.162  0.5353 -0.5889 -0.1370
  287TMC3    C3 4380   0.704   1.625   1.129  0.0870  0.9896  0.9360
  287TMC3    C4 4381   0.649   1.798   1.318  0.0838 -0.5401  0.5702
  287TMC3    C5 4382   0.777   1.785   1.278  0.7552 -0.2424 -0.0751
  287TMC3    C6 4383   0.813   1.695   1.184 -0.0742  0.0318 -0.2639
  287TMC3     C 4384   0.416   1.789   1.271 -0.2437 -0.8149  0.3086
  287TMC3     O 4385   0.343   1.769   1.175  0.2032  0.1991 -0.1075
  287TMC3     H 4386   0.496   1.580   1.127 -0.2302  0.8240 -1.2438
  287TMC3    H1 4387   0.622   1.857   1.405  0.1916 -4.6582  3.4009
  287TMC3    H2 4388   0.915   1.668   1.160  0.2292  1.2402 -0.3197
  287TMC3    C7 4389   0.886   1.850   1.347  0.0739 -0.6582  0.0791
  287TMC3    C8 4390   0.725   1.507   1.051 -0.5545 -0.1516 -0.2990
  287TMC3    O1 4391   1.002   1.809   1.328 -0.2883  0.2829 -0.0791
  287TMC3    O2 4392   0.637   1.423   1.063  0.0229  0.1183  0.0730
  288TMC3    C1 4393   1.635   0.982  14.404  0.1173  0.0986 -0.1106
  288TMC3    C2 4394   1.598   1.003  14.536  1.0140 -0.1537 -0.3478
  288TMC3    C3 4395   1.488   1.082  14.558 -0.2403  0.0751 -0.1819
  288TMC3    C4 4396   1.591   1.053  14.299 -0.8509 -0.0421 -0.3249
  288TMC3    C5 4397   1.488   1.139  14.331 -0.6379  0.1477  0.7179
  288TMC3    C6 4398   1.440   1.156  14.459  0.8159 -0.8016  0.4388
  288TMC3     C 4399   1.758   0.903  14.393 -0.3338  0.2443 -1.0730
  288TMC3     O 4400   1.827   0.887  14.492  0.1430  0.5488  0.6371
  288TMC3     H 4401   1.651   0.965  14.623 -0.6096  0.5545  0.9464
  288TMC3    H1 4402   1.640   1.051  14.202 -1.0727 -1.2372 -0.4067
  288TMC3    H2 4403   1.356   1.223  14.469  1.5298  0.1243  0.1661
  288TMC3    C7 4404   1.436   1.232  14.233  0.1873 -0.4720  1.2621
  288TMC3    C8 4405   1.420   1.101  14.684  0.6137 -0.4145  0.3914
  288TMC3    O1 4406   1.339   1.300  14.255  0.0030  0.4106 -0.3242
  288TMC3    O2 4407   1.353   1.205  14.693 -0.2996 -0.6612  0.4159
  289MPD2     C 4408   1.908   4.668  14.096  0.3646 -0.2597  0.2659
  289MPD2    C1 4409   1.910   0.015  14.199 -0.7010  0.2829  0.1442
  289MPD2    C2 4410   1.805   0.018  14.288  0.2551  0.7496  0.4465
  289MPD2    C3 4411   1.693   4.674  14.273  0.2796  0.5808 -0.3259
  289MPD2    C4 4412   1.698   4.580  14.174 -0.7768 -0.2957  0.6991
  289MPD2    C5 4413   1.804   4.576  14.092 -0.1648  0.1195  0.2211
  289MPD2     H 4414   1.804   0.096  14.364 -0.8248 -1.5333  2.7641
  289MPD2    H1 4415   1.614   4.514  14.158 -0.9605 -0.1339  1.0027
  289MPD2    H2 4416   1.987   4.664  14.022 -1.4767 -0.3972 -1.6635
  289MPD2    H3 4417   1.820   4.495  14.022  0.9748 -0.3215  0.9763
  289MPD2     N 4418   1.572   4.688  14.352 -0.0402 -0.4307  0.5049
  289MPD2    H5 4419   1.489   4.630  14.337 -0.9015  0.8919  0.1446
  289MPD2    N1 4420   2.023   0.092  14.208 -0.4306 -0.3528  0.4721
  289MPD2    H7 4421   2.100   0.083  14.143 -1.3286 -0.6497 -0.5518
  290TMC3    C1 4422   1.398   0.061  14.456 -0.3035  0.0299  0.5011
  290TMC3    C2 4423   1.341   0.190  14.457 -0.2480  0.5150  0.3872
  290TMC3    C3 4424   1.203   0.199  14.449  1.0573  0.0833 -0.2168
  290TMC3    C4 4425   1.326   4.684  14.459  0.1196 -0.6643 -0.9390
  290TMC3    C5 4426   1.187   4.704  14.470  0.3299  0.0166  0.4783
  290TMC3    C6 4427   1.124   0.084  14.456  0.0169  0.2607  0.6799
  290TMC3     C 4428   1.540   0.062  14.420  0.1523  0.2558  0.2002
  290TMC3     O 4429   1.604   0.165  14.448 -0.4070  0.3381 -0.0429
  290TMC3     H 4430   1.392   0.282  14.431  0.5846  0.5371  2.1041
  290TMC3    H1 4431   1.375   4.591  14.485  0.0477 -1.0336 -2.1105
  290TMC3    H2 4432   1.015   0.087  14.453  0.0389  1.2126  0.7139
  290TMC3    C7 4433   1.092   4.597  14.488  0.4497  0.4368  0.8315
  290TMC3    C8 4434   1.148   0.294  14.356  0.5919 -0.4339  0.5013
  290TMC3    O1 4435   0.972   4.620  14.471 -0.0056  0.3112 -0.0608
  290TMC3    O2 4436   1.080   0.240  14.266  0.0917 -0.6534  0.8177
  291MPD2     C 4437   1.475   0.408  17.614  0.0010 -0.4758  0.2498
  291MPD2    C1 4438   1.363   0.446  17.680 -0.8582 -0.2181  0.0865
  291MPD2    C2 4439   1.338   0.581  17.706  0.2986  0.4029 -0.0712
  291MPD2    C3 4440   1.420   0.677  17.646  0.5008  0.3597  0.4683
  291MPD2    C4 4441   1.527   0.638  17.570 -0.4283  0.1388 -0.3893
  291MPD2    C5 4442   1.559   0.504  17.559 -0.1794  0.0705 -0.0996
  291MPD2     H 4443   1.250   0.610   0.002  0.5913  2.5217 -0.7049
  291MPD2    H1 4444   1.589   0.709  17.517  0.6808 -0.1357  0.5487
  291MPD2    H2 4445   1.505   0.305  17.599  2.0788  0.3111 -0.9707
  291MPD2    H3 4446   1.649   0.466  17.511  1.7767  1.9075  2.1051
  291MPD2     N 4447   1.401   0.816  17.668 -0.1196 -0.3256 -0.0727
  291MPD2    H5 4448   1.472   0.872  17.620 -0.1796 -0.1785  0.0089
  291MPD2    N1 4449   1.259   0.360  17.719  0.1087 -0.2742 -0.5944
  291MPD2    H7 4450   1.183   0.408   0.005 -0.2204 -0.6907 -0.7064
  292TMC3    C1 4451   1.140   0.158  17.757  0.8260 -0.8692  0.1237
  292TMC3    C2 4452   1.026   0.236   0.015 -0.1611  0.3145 -0.1667
  292TMC3    C3 4453   0.910   0.164   0.033 -0.0972 -0.0262 -0.2026
  292TMC3    C4 4454   1.136   0.018  17.747  0.7072  0.2161  0.8306
  292TMC3    C5 4455   1.014   4.701  17.758 -0.5151  0.0131 -0.3630
  292TMC3    C6 4456   0.900   0.028   0.019  0.3367  0.1138 -0.4589
  292TMC3     C 4457   1.254   0.222  17.698  0.5754 -0.5749 -0.8524
  292TMC3     O 4458   1.336   0.155  17.639 -0.4673  0.1283 -0.4089
  292TMC3     H 4459   1.022   0.343   0.026  0.3761  0.5603 -2.3031
  292TMC3    H1 4460   1.215   4.685  17.743 -2.0919 -2.6922 -0.2900
  292TMC3    H2 4461   0.802   4.724   0.003  0.9578 -1.1469 -0.7048
  292TMC3    C7 4462   1.000   4.559  17.715  0.2709  0.1676 -0.7726
  292TMC3    C8 4463   0.805   0.235   0.107 -0.3317 -1.2531 -0.5433
  292TMC3    O1 4464   1.102   4.487  17.695 -0.6377 -0.5850 -0.1593
  292TMC3    O2 4465   0.812   0.358   0.119  0.5318  0.3623  0.2854
  293MPD2     C 4466   2.908   1.562  12.475  0.4284  0.0299  0.3189
  293MPD2    C1 4467   2.800   1.487  12.510 -0.0464  0.0432  0.3961
  293MPD2    C2 4468   2.786   1.442  12.637  0.9125 -0.0495 -0.2311
  293MPD2    C3 4469   2.871   1.469  12.736  0.1292  0.0538 -0.3650
  293MPD2    C4 4470   2.979   1.546  12.698 -0.5528  0.6531  0.2499
  293MPD2    C5 4471   3.005   1.589  12.571 -0.9825 -0.7593  0.2270
  293MPD2     H 4472   2.702   1.380  12.666 -0.9828  2.0275 -1.2910
  293MPD2    H1 4473   3.048   1.576  12.775  1.0956  0.8729 -1.3001
  293MPD2    H2 4474   2.929   1.600  12.375 -3.7654 -0.2901 -0.6776
  293MPD2    H3 4475   3.094   1.648  12.553 -1.7179 -0.2201 -1.6169
  293MPD2     N 4476   2.828   1.442  12.868  0.1327 -0.0115  0.2677
  293MPD2    H5 4477   2.742   1.391  12.886 -0.2269  1.0594  1.5811
  293MPD2    N1 4478   2.705   1.454  12.411  0.1098 -0.2621 -0.1259
  293MPD2    H7 4479   2.705   1.507  12.325 -1.0165 -0.1201 -0.0269
  294TMC3    C1 4480   2.513   1.363  12.315  0.0523  0.6110 -0.3868
  294TMC3    C2 4481   2.428   1.261  12.319  0.3421 -0.3599 -0.2051
  294TMC3    C3 4482   2.344   1.243  12.216  0.6793 -0.0061  0.8488
  294TMC3    C4 4483   2.511   1.466  12.227 -0.1315  0.3028  0.1984
  294TMC3    C5 4484   2.422   1.440  12.124  0.5775  0.8506 -0.4146
  294TMC3    C6 4485   2.341   1.334  12.110 -0.1067 -0.2855 -0.6792
  294TMC3     C 4486   2.606   1.360  12.427 -0.9406  0.3616 -0.0838
  294TMC3     O 4487   2.601   1.268  12.508  0.0984  0.0132  0.0024
  294TMC3     H 4488   2.430   1.193  12.404 -1.3171 -0.5566 -0.3207
  294TMC3    H1 4489   2.590   1.539  12.223 -1.4960  1.7944  0.2988
  294TMC3    H2 4490   2.269   1.332  12.029 -0.6620  1.3779 -0.2145
  294TMC3    C7 4491   2.418   1.524  12.003 -0.0527 -0.5130  0.5518
  294TMC3    C8 4492   2.238   1.148  12.232 -0.3602 -0.5347 -0.1481
  294TMC3    O1 4493   2.384   1.468  11.898  0.4252 -0.5897  0.7785
  294TMC3    O2 4494   2.229   1.111  12.345 -0.2264 -0.0977 -0.4543
  295MPD2     C 4495   3.137   1.448   1.327 -0.1057  0.1104 -1.2133
  295MPD2    C1 4496   3.092   1.381   1.215 -0.4662 -0.3284 -0.1230
  295MPD2    C2 4497   2.962   1.333   1.205  0.0875 -0.2678 -0.6278
  295MPD2    C3 4498   2.873   1.355   1.314  0.0422  0.0508 -0.4123
  295MPD2    C4 4499   2.915   1.431   1.425 -0.2865 -0.7805  0.1813
  295MPD2    C5 4500   3.049   1.471   1.429 -0.1930 -0.4275  0.0471
  295MPD2     H 4501   2.937   1.268   1.122 -3.0675  2.1088 -1.5187
  295MPD2    H1 4502   2.855   1.450   1.513 -2.6142  1.4481 -1.8739
  295MPD2    H2 4503   3.239   1.480   1.344  0.8356 -2.7927 -1.4164
  295MPD2    H3 4504   3.079   1.515   1.523  0.5983  1.1957 -0.9550
  295MPD2     N 4505   2.732   1.322   1.303  0.4052 -0.4898  0.4263
  295MPD2    H5 4506   2.678   1.341   1.386  1.1917  2.9423  0.1527
  295MPD2    N1 4507   3.185   1.371   1.112 -0.0837 -0.0113  0.1187
  295MPD2    H7 4508   3.181   1.287   1.055 -2.2376  0.1352  0.0765
  296TMC3    C1 4509   2.531   1.247   1.206 -0.1188  0.8608 -0.9250
  296TMC3    C2 4510   2.457   1.338   1.282  0.2040  0.1167  0.3108
  296TMC3    C3 4511   2.324   1.311   1.298 -0.2908  0.3082  0.2860
  296TMC3    C4 4512   2.468   1.138   1.147 -0.1585 -1.0670  0.0715
  296TMC3    C5 4513   2.338   1.120   1.175  0.3817 -0.0694  0.4662
  296TMC3    C6 4514   2.260   1.202   1.250 -0.4028  0.3662  0.6817
  296TMC3     C 4515   2.675   1.252   1.200 -0.5820  0.0163 -0.3382
  296TMC3     O 4516   2.728   1.177   1.120 -0.0159  0.3009 -0.7498
  296TMC3     H 4517   2.503   1.433   1.306 -2.5673  0.8811  2.5680
  296TMC3    H1 4518   2.519   1.077   1.073 -0.2090 -0.5052 -0.4285
  296TMC3    H2 4519   2.153   1.194   1.267 -0.2207  1.3211  2.2883
  296TMC3    C7 4520   2.275   0.993   1.123 -0.0964 -0.4996  0.3160
  296TMC3    C8 4521   2.244   1.408   1.378  0.3598  0.5172 -0.0502
  296TMC3    O1 4522   2.161   1.006   1.087 -0.2630  0.3116 -0.2696
  296TMC3    O2 4523   2.123   1.391   1.385  0.1570 -0.0709  0.3655
  297MPD2     C 4524   0.432   2.274  16.630  0.9871 -1.3314  0.1367
  297MPD2    C1 4525   0.408   2.290  16.496 -0.0896 -0.4391 -0.2428
  297MPD2    C2 4526   0.503   2.363  16.424  0.5109 -0.0351  0.0085
  297MPD2    C3 4527   0.627   2.396  16.483  0.6374 -0.2348 -0.2408
  297MPD2    C4 4528   0.648   2.369  16.620  0.9384  0.4621 -0.1373
  297MPD2    C5 4529   0.544   2.314  16.695  0.4442 -0.1223 -0.2523
  297MPD2     H 4530   0.492   2.386  16.318 -1.5225  0.3896  0.3071
  297MPD2    H1 4531   0.741   2.392  16.671 -0.0926 -1.3444  2.5254
  297MPD2    H2 4532   0.359   2.223  16.691  0.8076 -1.6451 -0.3366
  297MPD2    H3 4533   0.565   2.296  16.800 -2.3126 -0.1686  0.2861
  297MPD2     N 4534   0.724   2.458  16.403 -0.4653  0.0582  0.4986
  297MPD2    H5 4535   0.698   2.476  16.306  0.8905 -0.5863  0.0129
  297MPD2    N1 4536   0.284   2.249  16.432 -0.1337  0.4067  0.1781
  297MPD2    H7 4537   0.268   2.284  16.338  1.3788 -0.0391 -0.2396
  298TMC3    C1 4538   0.085   2.138  16.418  0.8385 -0.0617  0.5105
  298TMC3    C2 4539   0.108   2.146  16.287 -0.4603  0.3837  0.3435
  298TMC3    C3 4540   4.739   2.169  16.206  0.3127  0.1306 -0.5146
  298TMC3    C4 4541   4.707   2.162  16.481 -0.2132  0.1356  0.7836
  298TMC3    C5 4542   4.597   2.201  16.397  0.4045 -0.7362 -0.2026
  298TMC3    C6 4543   4.613   2.188  16.261  0.3441  0.4234  0.1307
  298TMC3     C 4544   0.195   2.167  16.495  0.0414 -0.3986 -0.0647
  298TMC3     O 4545   0.202   2.109  16.603  0.0113  0.1400 -0.0802
  298TMC3     H 4546   0.207   2.116  16.252  0.2838 -0.5624  3.2660
  298TMC3    H1 4547   4.702   2.153  16.589  1.0121  2.1174  1.0022
  298TMC3    H2 4548   4.529   2.212  16.197 -1.2623 -0.2336  2.0335
  298TMC3    C7 4549   4.490   2.276  16.456 -0.2174  0.0155  0.7968
  298TMC3    C8 4550   0.013   2.102  16.081 -0.0464  0.0294  0.0892
  298TMC3    O1 4551   4.504   2.303  16.577 -0.3109  0.2481  0.3138
  298TMC3    O2 4552   0.116   2.046  16.062  0.5494 -0.1876 -0.3299
  299MPD2     C 4553   0.233   1.625  10.427 -0.1194 -0.2221  0.6976
  299MPD2    C1 4554   0.231   1.754  10.379  0.2085 -0.7305 -0.0922
  299MPD2    C2 4555   0.114   1.807  10.323 -0.6715  0.2879  0.7197
  299MPD2    C3 4556   0.007   1.716  10.308  0.7068 -0.0595  0.8745
  299MPD2    C4 4557   0.018   1.584  10.347  0.2627 -0.3502  0.2294
  299MPD2    C5 4558   0.131   1.538  10.405 -0.9174 -0.2393  0.2060
  299MPD2     H 4559   0.112   1.914  10.306  1.6460  0.4700  1.5163
  299MPD2    H1 4560   4.671   1.520  10.341  0.3724 -0.3774 -1.0405
  299MPD2    H2 4561   0.323   1.590  10.476 -0.7142 -2.3966  0.2448
  299MPD2    H3 4562   0.144   1.436  10.439 -0.5492 -0.3144 -0.1607
  299MPD2     N 4563   4.614   1.757  10.268 -0.0658  0.3925 -0.6568
  299MPD2    H5 4564   4.534   1.702  10.298  1.8716  0.4148  4.5718
  299MPD2    N1 4565   0.343   1.825  10.410  0.6709 -0.0548 -0.1331
  299MPD2    H7 4566   0.407   1.789  10.480  1.8768 -0.9321 -1.6789
  300TMC3    C1 4567   4.459   1.914  10.211 -0.6151  0.5905 -0.4982
  300TMC3    C2 4568   4.435   2.032  10.150 -0.0485 -0.1904  0.0383
  300TMC3    C3 4569   4.332   2.109  10.192 -0.6203  0.7036  0.2131
  300TMC3    C4 4570   4.380   1.860  10.311  1.2570  0.8336 -0.0529
  300TMC3    C5 4571   4.265   1.934  10.336  0.0182  0.3516  0.1453
  300TMC3    C6 4572   4.236   2.057  10.278 -0.4675  0.6829  0.2224
  300TMC3     C 4573   4.595   1.875  10.198 -0.1415  0.2507 -0.0511
  300TMC3     O 4574   4.677   1.953  10.156  0.4808  0.5380  0.2796
  300TMC3     H 4575   4.517   2.072  10.092 -1.1022  0.4172 -1.0163
  300TMC3    H1 4576   4.402   1.769  10.366 -0.3132  0.9268  0.7306
  300TMC3    H2 4577   4.157   2.125  10.310  1.1005  1.5208  2.2843
  300TMC3    C7 4578   4.185   1.898  10.454  0.3237 -0.0108  0.7217
  300TMC3    C8 4579   4.326   2.246  10.141 -0.2001  0.8270 -0.7026
  300TMC3    O1 4580   4.064   1.917  10.458 -0.2992  0.2760 -0.3044
  300TMC3    O2 4581   4.213   2.297  10.139  0.0137 -0.4360  0.2975
  301MPD2     C 4582   3.441   4.400   1.247  0.0481  0.1291  0.2130
  301MPD2    C1 4583   3.355   4.331   1.170 -0.3197  0.2492  0.5701
  301MPD2    C2 4584   3.374   4.204   1.131 -0.3703 -0.3659  0.0653
  301MPD2    C3 4585   3.475   4.128   1.170  0.9488  0.7207  0.1857
  301MPD2    C4 4586   3.561   4.188   1.258  0.5332  0.0971  0.2649
  301MPD2    C5 4587   3.543   4.319   1.299 -0.1683  0.3397 -0.8929
  301MPD2     H 4588   3.302   4.168   1.058  0.7311 -0.4181 -1.0043
  301MPD2    H1 4589   3.647   4.131   1.291  0.9801  0.7991  0.2844
  301MPD2    H2 4590   3.436   4.507   1.266 -0.5535 -0.7718  5.2108
  301MPD2    H3 4591   3.615   4.366   1.365  1.7199 -0.5770 -2.3039
  301MPD2     N 4592   3.502   3.995   1.126  0.5710  0.3250  0.0529
  301MPD2    H5 4593   3.582   3.943   1.161 -0.1810 -0.7363  0.2125
  301MPD2    N1 4594   3.253   4.397   1.103  0.5860  0.3686  0.5060
  301MPD2    H7 4595   3.199   4.340   1.039 -1.1996  4.3289 -1.5316
  302TMC3    C1 4596   3.467   3.795   0.988  0.1164 -0.0525  0.0989
  302TMC3    C2 4597   3.574   3.733   1.033  0.4833 -0.3261 -0.0474
  302TMC3    C3 4598   3.601   3.615   0.973  0.4568  0.1962  0.0728
  302TMC3    C4 4599   3.381   3.735   0.899  0.2911 -0.2740  0.1152
  302TMC3    C5 4600   3.406   3.604   0.865 -0.8019 -0.3752  0.1506
  302TMC3    C6 4601   3.524   3.542   0.890  0.0602  0.2540 -0.1733
  302TMC3     C 4602   3.421   3.930   1.030 -0.2085  0.8290  0.1188
  302TMC3     O 4603   3.311   3.962   0.985  0.4911  0.9387 -0.4133
  302TMC3     H 4604   3.644   3.789   1.095  1.4386 -1.2051 -0.3311
  302TMC3    H1 4605   3.291   3.784   0.863  0.4886 -0.6720 -0.9457
  302TMC3    H2 4606   3.558   3.456   0.834 -0.0009  0.2986 -0.2779
  302TMC3    C7 4607   3.320   3.543   0.764  0.4017  0.1625 -0.1358
  302TMC3    C8 4608   3.728   3.547   0.998  0.6931 -0.0444 -0.2468
  302TMC3    O1 4609   3.343   3.433   0.718 -0.4145 -0.2151  0.5774
  302TMC3    O2 4610   3.759   3.459   0.922 -0.0704  0.7109 -0.0204
  303MPD2     C 4611   2.770   1.254   9.211 -0.4645 -1.1581  0.0302
  303MPD2    C1 4612   2.722   1.295   9.335  0.3972 -0.6156  0.1975
  303MPD2    C2 4613   2.797   1.384   9.410 -0.4783  0.2098 -0.1503
  303MPD2    C3 4614   2.921   1.427   9.368 -0.2455 -0.2371 -0.2910
  303MPD2    C4 4615   2.956   1.404   9.241  0.2091  0.7513  0.5642
  303MPD2    C5 4616   2.885   1.312   9.165  0.2380 -0.0258 -0.0763
  303MPD2     H 4617   2.761   1.395   9.512 -0.5994  0.3554 -0.2086
  303MPD2    H1 4618   3.053   1.436   9.206  0.4916  0.2593  0.8936
  303MPD2    H2 4619   2.721   1.177   9.151 -0.1464 -0.6008 -0.9537
  303MPD2    H3 4620   2.930   1.276   9.073 -1.8530 -1.4061 -0.5516
  303MPD2     N 4621   3.013   1.503   9.446  0.4410 -0.3170 -0.2137
  303MPD2    H5 4622   3.099   1.530   9.399  1.5604 -0.2275  1.8454
  303MPD2    N1 4623   2.602   1.232   9.374  0.4353 -0.1754  0.4700
  303MPD2    H7 4624   2.576   1.151   9.318  1.5173 -1.2634  1.5402
  304TMC3    C1 4625   2.410   1.196   9.499 -0.4919 -0.2576 -0.3550
  304TMC3    C2 4626   2.436   1.067   9.541  0.5091  0.2750  0.1836
  304TMC3    C3 4627   2.349   1.008   9.622 -0.5274 -0.7591 -0.0994
  304TMC3    C4 4628   2.297   1.257   9.534 -0.6916  0.1570  0.7880
  304TMC3    C5 4629   2.214   1.198   9.623 -0.5266  0.1258  0.1386
  304TMC3    C6 4630   2.230   1.068   9.658 -0.0155 -0.2785 -0.2510
  304TMC3     C 4631   2.518   1.281   9.471 -0.6271  0.3244  0.3312
  304TMC3     O 4632   2.512   1.392   9.522  0.2709 -0.4915 -0.1132
  304TMC3     H 4633   2.535   1.024   9.535  0.2470 -0.3252  0.2140
  304TMC3    H1 4634   2.285   1.361   9.506 -0.7548  0.2249  1.0660
  304TMC3    H2 4635   2.151   1.008   9.701 -2.4507  0.8333 -3.1359
  304TMC3    C7 4636   2.154   1.278   9.729  0.1332 -0.5776 -0.1790
  304TMC3    C8 4637   2.395   0.948   9.743 -0.5528 -0.4250 -0.0192
  304TMC3    O1 4638   2.131   1.397   9.713  0.1133 -0.0123 -0.0700
  304TMC3    O2 4639   2.321   0.958   9.837  0.2367  0.4009  0.0393
  305MPD2     C 4640   1.858   3.075  13.660 -0.3392 -0.2825 -0.6236
  305MPD2    C1 4641   1.766   3.157  13.724 -0.0811 -0.6653 -0.3681
  305MPD2    C2 4642   1.664   3.211  13.653 -0.3931  0.1939 -0.1997
  305MPD2    C3 4643   1.655   3.177  13.517 -0.0465 -0.4816 -0.6834
  305MPD2    C4 4644   1.737   3.079  13.464  0.5095 -0.4838 -0.6220
  305MPD2    C5 4645   1.846   3.032  13.529  0.4577  0.9941  0.2323
  305MPD2     H 4646   1.590   3.277  13.697  0.6390  1.4496 -0.3397
  305MPD2    H1 4647   1.725   3.052  13.360  0.2763 -0.3190 -0.6378
  305MPD2    H2 4648   1.945   3.045  13.717 -3.2798 -1.9617  2.9767
  305MPD2    H3 4649   1.926   2.975  13.483 -1.5359  0.4846 -2.6099
  305MPD2     N 4650   1.562   3.231  13.427  0.6528  0.4495  0.3206
  305MPD2    H5 4651   1.568   3.189  13.335 -0.3993  1.5032 -0.2214
  305MPD2    N1 4652   1.786   3.194  13.860  0.1672  0.0761  0.3282
  305MPD2    H7 4653   1.873   3.160  13.901 -0.1520 -1.8357 -0.5688
  306TMC3    C1 4654   1.732   3.212  14.084  0.3243 -0.2015  0.1442
  306TMC3    C2 4655   1.820   3.115  14.113 -0.1146 -0.2042 -0.4251
  306TMC3    C3 4656   1.851   3.104  14.248  0.3846 -0.1592  0.8549
  306TMC3    C4 4657   1.677   3.292  14.182 -0.1425  0.1521  0.1001
  306TMC3    C5 4658   1.715   3.277  14.317 -0.6617 -0.1063  0.0474
  306TMC3    C6 4659   1.807   3.184  14.354  0.4664  0.0618 -0.7711
  306TMC3     C 4660   1.701   3.258  13.950 -0.4332 -0.3124  0.2592
  306TMC3     O 4661   1.602   3.321  13.918  0.0454 -0.1125 -0.0286
  306TMC3     H 4662   1.860   3.046  14.039  0.4029 -0.1752 -0.1735
  306TMC3    H1 4663   1.598   3.358  14.149 -0.5940 -0.2445  0.3780
  306TMC3    H2 4664   1.824   3.154  14.456  0.1001 -1.1929 -1.0810
  306TMC3    C7 4665   1.638   3.340  14.412  0.3268  0.6319 -0.9110
  306TMC3    C8 4666   1.909   2.977  14.287  0.0054  0.4771 -0.5501
  306TMC3    O1 4667   1.518   3.352  14.413  0.4341  0.6285 -0.5002
  306TMC3    O2 4668   1.896   2.893  14.194 -0.0790  0.3175 -0.3870
  307MPD2     C 4669   3.983   1.526   0.208  0.4838 -0.0331  0.3221
  307MPD2    C1 4670   3.993   1.657   0.187  0.0649  0.2827  0.7575
  307MPD2    C2 4671   3.938   1.747   0.277 -0.5365 -0.6553 -0.6513
  307MPD2    C3 4672   3.881   1.701   0.394 -0.2431  0.5220  0.9569
  307MPD2    C4 4673   3.852   1.567   0.408 -0.0396 -0.4273 -0.0975
  307MPD2    C5 4674   3.899   1.490   0.307  0.8152  0.1781 -0.2626
  307MPD2     H 4675   3.951   1.853   0.262 -2.0662 -0.5122 -0.9446
  307MPD2    H1 4676   3.797   1.520   0.490 -1.3942 -0.0150 -0.7587
  307MPD2    H2 4677   4.030   1.452   0.145 -1.4349 -0.6249 -0.4119
  307MPD2    H3 4678   3.887   1.383   0.313 -1.8563  0.5485  1.3134
  307MPD2     N 4679   3.841   1.794   0.491 -0.2564  0.4069  0.2968
  307MPD2    H5 4680   3.856   1.892   0.469  0.5726  0.6353  1.8325
  307MPD2    N1 4681   4.061   1.717   0.079  0.3226 -0.3952 -0.6325
  307MPD2    H7 4682   4.054   1.818   0.074 -1.4179 -0.5034 -0.4916
  308TMC3    C1 4683   3.610   1.990   0.843 -0.6291  0.4431 -0.0042
  308TMC3    C2 4684   3.695   2.101   0.844 -0.1423  0.6202  0.4603
  308TMC3    C3 4685   3.810   2.084   0.767 -0.7379 -0.0958 -0.6108
  308TMC3    C4 4686   3.630   1.884   0.765  0.1663 -0.7390 -0.2821
  308TMC3    C5 4687   3.738   1.889   0.679  0.4603  0.7365 -0.6597
  308TMC3    C6 4688   3.830   1.986   0.677 -0.2624 -0.1118 -0.0077
  308TMC3     C 4689   3.482   2.008   0.899 -0.2296 -1.2515  0.2381
  308TMC3     O 4690   3.429   1.900   0.927  0.2999 -0.0004 -0.1035
  308TMC3     H 4691   3.691   2.181   0.917 -1.1153  3.7945 -3.0409
  308TMC3    H1 4692   3.566   1.796   0.766 -0.0116 -0.6188 -0.7900
  308TMC3    H2 4693   3.926   1.970   0.629 -0.7742  0.8438 -1.3640
  308TMC3    C7 4694   3.752   1.773   0.594 -0.2096  0.1368  0.2719
  308TMC3    C8 4695   3.918   2.180   0.762 -0.0788 -0.3666 -0.2146
  308TMC3    O1 4696   3.678   1.683   0.621  0.4178  0.0667 -0.0065
  308TMC3    O2 4697   3.982   2.182   0.657  0.7653 -0.5004  0.5111
  309MPD2     C 4698   3.591   2.155  17.507 -0.4764  0.1935  0.7762
  309MPD2    C1 4699   3.568   2.226  17.391  0.3483 -0.6384  0.4853
  309MPD2    C2 4700   3.466   2.318  17.390 -0.3609 -0.1070 -0.1335
  309MPD2    C3 4701   3.384   2.336  17.503 -0.1464 -0.8045 -0.7423
  309MPD2    C4 4702   3.403   2.263  17.613 -0.6391 -0.5519  0.4782
  309MPD2    C5 4703   3.504   2.168  17.612  0.0372 -0.1149  0.0922
  309MPD2     H 4704   3.456   2.384  17.304 -1.2584  0.1379  0.1589
  309MPD2    H1 4705   3.335   2.266  17.698  0.2352 -0.8356  1.1984
  309MPD2    H2 4706   3.682   2.096  17.516 -0.6809 -0.2686 -0.1940
  309MPD2    H3 4707   3.516   2.112  17.704 -0.1638  0.8109  0.6830
  309MPD2     N 4708   3.273   2.433  17.511 -1.0012 -0.1048 -0.1101
  309MPD2    H5 4709   3.217   2.437  17.596 -1.6285  0.5984 -0.5517
  309MPD2    N1 4710   3.640   2.205  17.271  0.3226  0.0074  0.2940
  309MPD2    H7 4711   3.598   2.252  17.191  0.2035  1.7897  1.3784
  310TMC3    C1 4712   3.774   2.109  17.107  0.2878  0.4239 -0.3512
  310TMC3    C2 4713   3.689   2.176  17.021 -0.1986 -0.0611  0.0771
  310TMC3    C3 4714   3.714   2.184  16.893 -0.1481  0.4468  0.6432
  310TMC3    C4 4715   3.874   2.031  17.060  0.0244  0.8622  1.0189
  310TMC3    C5 4716   3.902   2.033  16.925  0.3003  0.2494  0.1396
  310TMC3    C6 4717   3.820   2.110  16.841 -0.5028  0.5558  0.0995
  310TMC3     C 4718   3.743   2.118  17.247 -0.7159 -0.1580  0.4401
  310TMC3     O 4719   3.807   2.056  17.330  0.3383  0.2958  0.2435
  310TMC3     H 4720   3.599   2.228  17.054  0.3025  0.4898  0.5739
  310TMC3    H1 4721   3.927   1.978  17.138  0.3808 -0.4093 -0.0726
  310TMC3    H2 4722   3.850   2.122  16.738 -1.0879  1.9871  0.0877
  310TMC3    C7 4723   3.974   1.932  16.857 -0.8435 -0.2950 -0.3379
  310TMC3    C8 4724   3.621   2.264  16.812 -0.2152  0.4651  0.3800
  310TMC3    O1 4725   3.924   1.905  16.748 -0.7394 -0.0943  0.1632
  310TMC3    O2 4726   3.510   2.288  16.858 -0.5188  0.4283  0.5123
  311MPD2     C 4727   0.469   2.803  12.740  0.1061  0.4275  0.2870
  311MPD2    C1 4728   0.425   2.929  12.731  0.2365  0.7949  0.2225
  311MPD2    C2 4729   0.337   2.972  12.823 -0.3948 -0.1033 -0.9292
  311MPD2    C3 4730   0.292   2.883  12.921 -0.2669 -0.3227  0.3189
  311MPD2    C4 4731   0.332   2.755  12.927 -0.6821  0.6817 -0.1304
  311MPD2    C5 4732   0.428   2.713  12.839  0.0052 -0.5008  0.7629
  311MPD2     H 4733   0.299   3.073  12.813  1.3093  0.8660  2.2828
  311MPD2    H1 4734   0.299   2.683  13.001 -0.9823  0.5819 -0.3628
  311MPD2    H2 4735   0.535   2.757  12.666 -1.0690  1.3269 -1.3110
  311MPD2    H3 4736   0.454   2.609  12.827 -1.0762 -0.7046  0.2206
  311MPD2     N 4737   0.190   2.935  13.006  0.2927  0.2112 -0.2944
  311MPD2    H5 4738   0.170   3.033  12.992 -0.2776  0.5200  2.8719
  311MPD2    N1 4739   0.450   3.021  12.625 -0.3992 -0.5554  0.1260
  311MPD2    H7 4740   0.405   3.112  12.628  0.2451 -0.1755 -1.6558
  312TMC3    C1 4741   0.016   2.964  13.154 -0.6523 -0.5351  0.1845
  312TMC3    C2 4742   4.627   2.961  13.100 -0.2418 -0.1549  0.6778
  312TMC3    C3 4743   4.558   3.075  13.081 -0.3892  0.6127  0.6420
  312TMC3    C4 4744   0.076   3.088  13.171 -0.2441 -0.1937 -0.5831
  312TMC3    C5 4745   0.002   3.204  13.147  0.6967 -0.0806 -0.2193
  312TMC3    C6 4746   4.611   3.201  13.105 -0.2411 -0.2679  0.2947
  312TMC3     C 4747   0.109   2.870  13.088 -0.2199 -1.0642 -0.3318
  312TMC3     O 4748   0.086   2.755  13.106  0.0561  0.0106  0.2327
  312TMC3     H 4749   4.583   2.863  13.087  1.9221 -1.2623  1.7404
  312TMC3    H1 4750   0.183   3.093  13.189 -0.1589  1.9849 -1.7167
  312TMC3    H2 4751   4.545   3.286  13.091 -1.7022 -1.7190 -1.6219
  312TMC3    C7 4752   0.076   3.325  13.123 -0.4463  0.7861  0.4100
  312TMC3    C8 4753   4.424   3.058  13.035  0.0494 -0.0385  0.6890
  312TMC3    O1 4754   0.049   3.394  13.027 -0.1003 -0.1934  0.1594
  312TMC3    O2 4755   4.368   2.958  13.069 -0.4616 -0.2358 -0.8680
  313MPD2     C 4756   3.884   2.811  11.574  0.3512  0.4780  0.1999
  313MPD2    C1 4757   3.966   2.814  11.466 -0.6677 -0.1938  0.1641
  313MPD2    C2 4758   4.022   2.701  11.415 -0.8654  0.0879 -0.2443
  313MPD2    C3 4759   3.981   2.580  11.460 -0.3526  0.8744  0.6540
  313MPD2    C4 4760   3.894   2.575  11.570  0.3344  0.6674  0.6552
  313MPD2    C5 4761   3.847   2.688  11.628 -0.1481 -0.6194 -0.1185
  313MPD2     H 4762   4.088   2.710  11.330  1.9616  1.4960  2.1161
  313MPD2    H1 4763   3.858   2.478  11.602  0.2385 -0.4855 -2.9152
  313MPD2    H2 4764   3.845   2.899  11.622  0.9473  0.3362  0.9431
  313MPD2    H3 4765   3.771   2.679  11.704  0.6334 -2.8417  0.4222
  313MPD2     N 4766   4.038   2.464  11.395  0.2237 -0.3567  0.7866
  313MPD2    H5 4767   4.098   2.479  11.314 -0.5269 -0.3353  0.2255
  313MPD2    N1 4768   4.019   2.937  11.413 -0.4195  0.2972  0.3436
  313MPD2    H7 4769   4.093   2.929  11.344 -1.1520 -2.8362 -0.0941
  314TMC3    C1 4770   4.044   3.174  11.367 -0.5199 -0.0183 -0.9782
  314TMC3    C2 4771   4.180   3.178  11.362  0.1136  0.5662 -0.5822
  314TMC3    C3 4772   4.240   3.258  11.269 -0.0029  0.0157  0.1001
  314TMC3    C4 4773   3.962   3.249  11.284 -0.1486  1.0923 -0.0663
  314TMC3    C5 4774   4.023   3.338  11.200  0.1420 -0.3911  0.6524
  314TMC3    C6 4775   4.160   3.336  11.185  0.0628 -0.3821 -0.7665
  314TMC3     C 4776   3.976   3.065  11.444  0.4257 -0.6296 -0.1639
  314TMC3     O 4777   3.882   3.097  11.505  0.1680  0.8848 -0.1843
  314TMC3     H 4778   4.243   3.116  11.425 -0.5657 -0.3071 -0.7666
  314TMC3    H1 4779   3.857   3.227  11.276  0.4822 -2.5458  1.6710
  314TMC3    H2 4780   4.196   3.402  11.107 -0.4004 -0.4720 -1.0593
  314TMC3    C7 4781   3.951   3.351  11.079  0.9875  0.0061  0.0156
  314TMC3    C8 4782   4.382   3.253  11.235 -0.2724  0.4475  0.3790
  314TMC3    O1 4783   3.834   3.384  11.103 -0.6257  0.2028  0.0430
  314TMC3    O2 4784   4.424   3.342  11.162  1.2863  0.2232  0.7616
  315MPD2     C 4785   0.076   2.011   0.279  0.4099  0.0970 -0.4453
  315MPD2    C1 4786   0.165   2.111   0.315 -0.4279  0.1687 -0.0488
  315MPD2    C2 4787   0.162   2.236   0.258  0.1925 -0.4316  0.0407
  315MPD2    C3 4788   0.075   2.247   0.143  0.0200  0.8582 -0.1954
  315MPD2    C4 4789   4.730   2.147   0.105 -0.5292 -0.1288  0.5238
  315MPD2    C5 4790   4.728   2.032   0.182 -0.3539  0.9265 -0.2572
  315MPD2     H 4791   0.230   2.315   0.288 -0.0893  0.1035 -0.7417
  315MPD2    H1 4792   4.666   2.149   0.017  1.7745  0.6396 -1.1451
  315MPD2    H2 4793   0.072   1.915   0.330 -2.9700  0.7780  0.5741
  315MPD2    H3 4794   4.663   1.949   0.159 -0.1939  1.5388 -3.0419
  315MPD2     N 4795   0.081   2.373   0.072 -0.5743  0.0012 -0.5730
  315MPD2    H5 4796   0.154   2.438   0.102 -0.8953  0.7083 -1.3086
  315MPD2    N1 4797   0.249   2.097   0.422  0.1485 -0.4559 -0.1227
  315MPD2    H7 4798   0.300   2.179   0.453  1.9238 -2.0969  1.2635
  316TMC3    C1 4799   0.067   2.546  17.677 -0.4912  0.3124 -0.3800
  316TMC3    C2 4800   0.187   2.586  17.726  0.4341  0.4319  0.2491
  316TMC3    C3 4801   0.217   2.716  17.694 -0.2968 -0.7389 -0.7305
  316TMC3    C4 4802   4.714   2.617  17.606  0.1610  0.2200 -0.3312
  316TMC3    C5 4803   0.005   2.748  17.591  0.2030  0.0214  0.0838
  316TMC3    C6 4804   0.124   2.804  17.635 -0.4519 -0.4118 -0.3597
  316TMC3     C 4805   0.012   2.417  17.721 -0.2309  0.0274  0.1955
  316TMC3     O 4806   4.666   2.356  17.660  0.1028 -0.3301 -0.2014
  316TMC3     H 4807   0.260   2.517   0.006  0.0954 -0.5424 -0.7965
  316TMC3    H1 4808   4.615   2.577  17.588  0.4316 -0.1722 -0.9711
  316TMC3    H2 4809   0.158   2.904  17.613  0.6175 -0.9325 -1.1130
  316TMC3    C7 4810   4.656   2.847  17.535  0.2726 -0.1759  0.4236
  316TMC3    C8 4811   0.306   2.779   0.029  0.2130 -0.7990 -0.9101
  316TMC3    O1 4812   4.695   2.962  17.530 -0.4405  0.4380  0.2319
  316TMC3    O2 4813   0.277   2.893   0.069  0.1859  0.3612  0.6634
  317MPD2     C 4814   1.376   0.113  12.194 -0.3830  0.1396 -0.1173
  317MPD2    C1 4815   1.456   0.005  12.197 -0.2107  0.0752  0.0640
  317MPD2    C2 4816   1.518   4.709  12.318 -0.6589  0.2397  0.0742
  317MPD2    C3 4817   1.510   0.050  12.424 -0.3146  0.0699  0.6564
  317MPD2    C4 4818   1.450   0.174  12.413  0.0136  0.1408 -0.1069
  317MPD2    C5 4819   1.386   0.204  12.299  0.2649 -0.3200  0.0444
  317MPD2     H 4820   1.569   4.613  12.320  1.1649  1.1909 -0.5825
  317MPD2    H1 4821   1.432   0.240  12.497 -2.8891 -0.4801 -0.2627
  317MPD2    H2 4822   1.329   0.163  12.110 -2.7136 -0.8570  0.5991
  317MPD2    H3 4823   1.340   0.302  12.289  2.4734  0.8332  1.1308
  317MPD2     N 4824   1.578   0.019  12.544 -0.3239 -0.1381  0.5513
  317MPD2    H5 4825   1.627   4.671  12.543 -1.0430 -0.4831 -3.3494
  317MPD2    N1 4826   1.490   4.667  12.087  0.0682  0.7456 -0.4161
  317MPD2    H7 4827   1.564   4.598  12.095  0.3172  1.5366  3.8048
  318TMC3    C1 4828   1.636   0.007  12.764  0.0521  0.5866 -0.0164
  318TMC3    C2 4829   1.577   4.619  12.773 -0.7972 -0.3357  0.5296
  318TMC3    C3 4830   1.627   4.547  12.873  0.5883 -0.1571 -0.1314
  318TMC3    C4 4831   1.741   0.050  12.835 -0.6464  0.1273  0.2311
  318TMC3    C5 4832   1.800   4.705  12.925 -0.2881  0.0329 -0.0396
  318TMC3    C6 4833   1.743   4.583  12.942 -0.4104 -0.0074 -0.3961
  318TMC3     C 4834   1.581   0.091  12.660 -0.1113  0.2188  0.3086
  318TMC3     O 4835   1.565   0.212  12.672 -0.4639 -0.1285 -0.0711
  318TMC3     H 4836   1.493   4.590  12.710  0.2290 -1.6134 -0.2542
  318TMC3    H1 4837   1.776   0.150  12.814 -1.5256  0.0028 -1.8698
  318TMC3    H2 4838   1.770   4.519  13.025  0.2743 -0.0690 -0.6694
  318TMC3    C7 4839   1.939   4.733  12.950 -0.3161 -0.4487 -0.0194
  318TMC3    C8 4840   1.562   4.426  12.923  0.8491 -0.3721  0.1546
  318TMC3    O1 4841   1.972   0.097  12.894  0.5106  0.1158 -0.5906
  318TMC3    O2 4842   1.632   4.352  12.988  0.4329  0.1067 -0.6818
  319MPD2     C 4843   2.762   1.335  16.521  0.0432  0.0762 -0.4242
  319MPD2    C1 4844   2.691   1.230  16.588  0.2267  0.1384  0.0935
  319MPD2    C2 4845   2.595   1.161  16.514 -0.1060 -0.7647  0.3541
  319MPD2    C3 4846   2.562   1.208  16.388  0.9204  0.4883 -0.4477
  319MPD2    C4 4847   2.614   1.325  16.332  0.7289  0.4241 -0.8314
  319MPD2    C5 4848   2.716   1.383  16.399 -0.8995  0.3861  0.3531
  319MPD2     H 4849   2.550   1.073  16.558 -2.0009 -1.0173 -2.0710
  319MPD2    H1 4850   2.590   1.340  16.228  1.4393  1.0848 -0.8989
  319MPD2    H2 4851   2.847   1.382  16.570  0.0440  0.1041 -0.4528
  319MPD2    H3 4852   2.772   1.454  16.341 -2.5755  0.6762 -0.8850
  319MPD2     N 4853   2.464   1.151  16.308 -0.0638 -0.2677  0.2398
  319MPD2    H5 4854   2.439   1.199  16.222  1.9284  2.3573  1.1064
  319MPD2    N1 4855   2.716   1.201  16.725 -0.5286 -0.1952  0.1704
  319MPD2    H7 4856   2.659   1.127  16.764 -1.1952  0.0939 -0.2608
  320TMC3    C1 4857   2.299   0.995  16.235 -0.3155 -0.3685 -0.1708
  320TMC3    C2 4858   2.221   1.101  16.202 -0.7508 -0.2941 -0.2931
  320TMC3    C3 4859   2.121   1.083  16.112 -0.3399  0.8658  0.0705
  320TMC3    C4 4860   2.290   0.872  16.181  0.6289  0.4282 -0.4431
  320TMC3    C5 4861   2.189   0.859  16.086  0.7691 -0.0281  0.4423
  320TMC3    C6 4862   2.104   0.960  16.053 -0.4574 -0.4417  0.1147
  320TMC3     C 4863   2.410   1.023  16.322  0.6453  0.1630 -0.7661
  320TMC3     O 4864   2.456   0.928  16.384  0.4533 -0.0293 -0.4546
  320TMC3     H 4865   2.240   1.197  16.248 -0.8249 -0.8895  0.9811
  320TMC3    H1 4866   2.371   0.802  16.196  0.5918  0.7170  1.0641
  320TMC3    H2 4867   2.027   0.943  15.979 -0.8790  1.5349  0.0780
  320TMC3    C7 4868   2.185   0.738  16.007  0.2389  0.4932  0.1220
  320TMC3    C8 4869   2.041   1.200  16.068  0.5457 -0.7202  0.0551
  320TMC3    O1 4870   2.104   0.737  15.916  0.4575  0.2105  0.1318
  320TMC3    O2 4871   2.070   1.305  16.122  0.4933 -0.1135  0.3492
  321TMC3    C1 4872   2.828   1.188  16.935  0.0801 -0.5113 -0.7970
  321TMC3    C2 4873   2.954   1.158  16.982 -0.1959  0.5574 -0.2014
  321TMC3    C3 4874   2.964   1.126  17.117 -0.5528 -0.1455 -0.3906
  321TMC3    C4 4875   2.712   1.169  16.999 -0.5327  0.4125 -0.6541
  321TMC3    C5 4876   2.724   1.126  17.131 -0.1828  0.4041  0.1060
  321TMC3    C6 4877   2.844   1.110  17.192  0.3785  0.4781  0.6622
  321TMC3     C 4878   2.827   1.249  16.809  0.4261 -0.0678 -0.4616
  321TMC3     O 4879   2.923   1.324  16.778 -0.2699 -0.0271 -0.3496
  321TMC3     H 4880   3.034   1.176  16.912 -1.2985  2.7229 -0.9051
  321TMC3    H1 4881   2.622   1.219  16.967 -1.0377 -1.0125 -1.5002
  321TMC3    H2 4882   2.842   1.060  17.288  2.7986 -1.1904 -0.1645
  321TMC3    C7 4883   2.643   1.208  17.218  1.0164 -0.1652  0.3644
  321TMC3    C8 4884   3.060   1.203  17.191 -0.2481  0.3981 -0.7830
  321TMC3    O1 4885   2.530   1.237  17.188  0.3302  0.1326 -0.0027
  321TMC3    O2 4886   3.018   1.229  17.302 -0.2391  0.0203  0.3002
  322MPD2     C 4887   1.589   2.423  13.099 -0.1067  0.4803  1.1116
  322MPD2    C1 4888   1.550   2.396  13.223 -0.3240 -0.8724  0.4916
  322MPD2    C2 4889   1.520   2.268  13.263  0.1621  0.1922 -0.2782
  322MPD2    C3 4890   1.528   2.166  13.174 -0.2892  0.0795 -0.2795
  322MPD2    C4 4891   1.553   2.197  13.043 -0.0408  0.4956 -0.3250
  322MPD2    C5 4892   1.586   2.329  13.001 -0.0468  0.1852  0.5607
  322MPD2     H 4893   1.506   2.237  13.366  1.7672 -1.1464 -0.4556
  322MPD2    H1 4894   1.548   2.117  12.970  1.8112 -0.4212  0.5570
  322MPD2    H2 4895   1.604   2.521  13.056 -1.1972 -0.2622 -0.9864
  322MPD2    H3 4896   1.624   2.359  12.904  0.0315 -1.3210  0.1210
  322MPD2     N 4897   1.526   2.032  13.217  0.2076 -0.1775  0.5100
  322MPD2    H5 4898   1.515   2.016  13.317 -1.7935  1.8925  0.6238
  322MPD2    N1 4899   1.551   2.497  13.315 -0.2509  0.1979  0.0421
  322MPD2    H7 4900   1.590   2.588  13.291 -0.5237  0.6058  1.1660
  323TMC3    C1 4901   1.544   2.591  13.526  0.7552 -0.6604  0.9872
  323TMC3    C2 4902   1.669   2.635  13.510  0.0841  0.2352  0.0944
  323TMC3    C3 4903   1.735   2.666  13.625 -0.0190  0.2729  0.0464
  323TMC3    C4 4904   1.477   2.597  13.642 -0.7832 -0.1586 -0.0044
  323TMC3    C5 4905   1.546   2.634  13.757  0.0139  0.4445 -0.4608
  323TMC3    C6 4906   1.680   2.660  13.749 -0.4247  0.8631 -0.0527
  323TMC3     C 4907   1.503   2.482  13.440  0.0789 -0.6095  1.0225
  323TMC3     O 4908   1.413   2.411  13.480  0.5722 -0.6795  0.1543
  323TMC3     H 4909   1.709   2.648  13.410 -0.9223 -1.1829 -0.4947
  323TMC3    H1 4910   1.369   2.585  13.647 -0.6720 -1.0515  0.2373
  323TMC3    H2 4911   1.739   2.678  13.839 -0.4922 -0.7346  0.3086
  323TMC3    C7 4912   1.481   2.603  13.882 -0.6806 -0.2356 -0.0541
  323TMC3    C8 4913   1.880   2.695  13.623 -0.2241 -0.6942 -0.1495
  323TMC3    O1 4914   1.404   2.506  13.884  0.0815 -0.2876 -0.1809
  323TMC3    O2 4915   1.929   2.737  13.725 -0.0708 -0.4550  0.1412
  324MPD2     C 4916   3.228   3.175  14.278  0.4473 -0.1915 -0.5140
  324MPD2    C1 4917   3.239   3.308  14.235  0.1750 -0.1481 -0.6136
  324MPD2    C2 4918   3.126   3.371  14.204 -0.3263 -0.4137  0.2612
  324MPD2    C3 4919   3.000   3.319  14.234  0.3426  0.0769  0.3950
  324MPD2    C4 4920   2.990   3.187  14.276 -0.0104 -0.0956 -0.3801
  324MPD2    C5 4921   3.106   3.115  14.307 -0.8152 -0.4187 -0.2324
  324MPD2     H 4922   3.141   3.460  14.144 -1.5794 -2.2686 -2.7759
  324MPD2    H1 4923   2.893   3.138  14.285  2.1805 -4.3434  0.2246
  324MPD2    H2 4924   3.312   3.110  14.302  0.9351  0.4172 -0.5916
  324MPD2    H3 4925   3.095   3.017  14.351 -1.5504  0.4082  1.4501
  324MPD2     N 4926   2.884   3.398  14.222 -0.6397  0.2552  0.0424
  324MPD2    H5 4927   2.796   3.349  14.235 -0.4932  0.0503  0.2678
  324MPD2    N1 4928   3.365   3.382  14.214 -0.1823 -0.1079  0.3110
  324MPD2    H7 4929   3.352   3.476  14.177 -1.6229 -0.7561 -0.8224
  325TMC3    C1 4930   2.752   3.582  14.141  0.0625 -0.3459  0.0018
  325TMC3    C2 4931   2.656   3.503  14.086 -0.5268 -0.1629  0.1901
  325TMC3    C3 4932   2.534   3.565  14.054  0.2472  0.3201 -0.1854
  325TMC3    C4 4933   2.720   3.706  14.195 -0.0145 -0.3057  0.0891
  325TMC3    C5 4934   2.596   3.759  14.176 -0.5777 -0.1988  0.4971
  325TMC3    C6 4935   2.500   3.691  14.098  0.0422  0.0157  0.9924
  325TMC3     C 4936   2.876   3.530  14.182 -0.4669 -0.5773  0.1338
  325TMC3     O 4937   2.961   3.618  14.176 -0.1177 -0.2254 -0.2257
  325TMC3     H 4938   2.662   3.396  14.072 -0.6457 -0.1105 -0.2787
  325TMC3    H1 4939   2.801   3.760  14.244 -1.3885  3.1326 -1.3886
  325TMC3    H2 4940   2.402   3.732  14.078 -0.0705 -1.1518 -0.9370
  325TMC3    C7 4941   2.582   3.902  14.224  0.2988  0.4032  0.1980
  325TMC3    C8 4942   2.442   3.484  13.970 -0.2703  0.1185 -0.5876
  325TMC3    O1 4943   2.675   3.978  14.231  0.0945  0.0957 -0.0999
  325TMC3    O2 4944   2.503   3.419  13.887  0.5743  0.4813  0.1272
  326MPD2     C 4945   3.942   0.419  11.218 -0.5446 -1.0884 -0.0052
  326MPD2    C1 4946   3.944   0.441  11.085  0.1959 -0.2950 -0.0321
  326MPD2    C2 4947   4.058   0.415  11.012  0.5248 -0.3562 -0.4353
  326MPD2    C3 4948   4.175   0.373  11.078 -0.4087 -0.2478 -0.0235
  326MPD2    C4 4949   4.169   0.371  11.214  0.7319 -0.0878  0.1392
  326MPD2    C5 4950   4.053   0.379  11.287 -0.5737  0.5409  0.0248
  326MPD2     H 4951   4.061   0.426  10.904 -1.9793 -0.8606 -0.5556
  326MPD2    H1 4952   4.267   0.363  11.260  0.4079  0.2928  0.8922
  326MPD2    H2 4953   3.854   0.425  11.280 -0.7236 -0.2796 -0.3436
  326MPD2    H3 4954   4.045   0.364  11.394  2.8733 -0.0145  0.2072
  326MPD2     N 4955   4.289   0.339  11.006  0.8073  0.4350 -0.3191
  326MPD2    H5 4956   4.367   0.307  11.063  0.4633  1.3373  0.6648
  326MPD2    N1 4957   3.839   0.487  11.007  0.7476 -0.6873  0.2500
  326MPD2    H7 4958   3.865   0.504  10.910  0.6592 -0.5740  0.2462
  327TMC3    C1 4959   3.627   0.530  10.938  0.6860  0.8256  0.3080
  327TMC3    C2 4960   3.660   0.628  10.848  0.1468  0.4484  0.4988
  327TMC3    C3 4961   3.651   0.593  10.715  0.2656  0.0547  0.2125
  327TMC3    C4 4962   3.575   0.406  10.910 -0.5528  0.2123  0.6655
  327TMC3    C5 4963   3.573   0.375  10.779  0.6289 -0.1980  0.2271
  327TMC3    C6 4964   3.601   0.468  10.680  0.0035  0.3326  0.4919
  327TMC3     C 4965   3.714   0.526  11.052  0.2513  0.1204 -0.1381
  327TMC3     O 4966   3.664   0.518  11.165 -0.4614 -0.1348 -0.8425
  327TMC3     H 4967   3.709   0.722  10.870  1.7293  0.2032 -1.9890
  327TMC3    H1 4968   3.565   0.324  10.980  1.8467  0.4711  1.3173
  327TMC3    H2 4969   3.613   0.432  10.579 -2.0558  2.7207 -0.6140
  327TMC3    C7 4970   3.614   0.240  10.754  0.3261 -0.6306  0.4785
  327TMC3    C8 4971   3.687   0.690  10.620 -0.0314 -0.1166 -0.1691
  327TMC3    O1 4972   3.522   0.161  10.780 -0.1978  0.0079  0.1249
  327TMC3    O2 4973   3.687   0.805  10.662 -0.1512  0.0879  0.2327
  328MPD2     C 4974   2.384   0.799  17.096 -0.0384  0.1226 -0.1006
  328MPD2    C1 4975   2.303   0.700  17.148  0.7029 -0.2381 -0.3815
  328MPD2    C2 4976   2.226   0.629  17.055  0.8188  0.4405  0.0777
  328MPD2    C3 4977   2.210   0.675  16.922  0.8834  0.5029  0.0239
  328MPD2    C4 4978   2.294   0.775  16.875 -0.3971  0.0546  0.3782
  328MPD2    C5 4979   2.376   0.834  16.962 -0.8991 -0.0342  0.7259
  328MPD2     H 4980   2.162   0.546  17.085 -0.3542  1.5468  0.6541
  328MPD2    H1 4981   2.281   0.805  16.772  1.4332 -0.2297  0.0658
  328MPD2    H2 4982   2.440   0.868  17.157 -0.9946  0.3190  0.5553
  328MPD2    H3 4983   2.436   0.915  16.923  1.1405 -1.9600 -0.1770
  328MPD2     N 4984   2.110   0.613  16.842  0.7319  0.5359  0.8685
  328MPD2    H5 4985   2.056   0.541  16.889 -1.0244  1.2883  0.0080
  328MPD2    N1 4986   2.286   0.689  17.289 -0.3803  0.7097  0.2203
  328MPD2    H7 4987   2.351   0.746  17.343  1.4105 -0.5125 -0.6402
  329TMC3    C1 4988   2.191   0.626  17.484  0.0190 -0.7485 -0.3872
  329TMC3    C2 4989   2.188   0.758  17.536  0.6223  0.2711 -0.0881
  329TMC3    C3 4990   2.207   0.777  17.670 -0.2570 -0.5241 -0.1798
  329TMC3    C4 4991   2.196   0.517  17.566  0.1065 -0.4494 -0.4457
  329TMC3    C5 4992   2.227   0.543  17.700  0.0378 -0.3139 -0.2256
  329TMC3    C6 4993   2.228   0.668  17.749  0.2601 -0.0100 -0.5974
  329TMC3     C 4994   2.204   0.602  17.346 -0.7935 -0.1680  0.1589
  329TMC3     O 4995   2.153   0.503  17.300 -0.0507 -0.4543  0.0198
  329TMC3     H 4996   2.173   0.835  17.462  1.3419  0.7950  0.3101
  329TMC3    H1 4997   2.207   0.418  17.524  0.4163  0.1374 -1.7169
  329TMC3    H2 4998   2.267   0.689   0.087  1.0573  0.3252 -0.9893
  329TMC3    C7 4999   2.190   0.441   0.040  0.7533  0.2040  0.0957
  329TMC3    C8 5000   2.183   0.906  17.728  0.4995 -0.4043  0.0900
  329TMC3    O1 5001   2.148   0.499   0.137  0.3368  0.4651  0.9511
  329TMC3    O2 5002   2.247   0.931   0.071 -0.2019 -0.7525  0.2642
  330TMC3    C1 5003   3.568   0.114   9.199 -0.2321 -0.1372  0.5060
  330TMC3    C2 5004   3.508   0.013   9.270  0.1954 -0.4281 -0.2557
  330TMC3    C3 5005   3.592   4.694   9.367  0.3705 -0.5851 -0.1274
  330TMC3    C4 5006   3.699   0.149   9.220 -0.0615  0.9279  0.4050
  330TMC3    C5 5007   3.779   0.076   9.308 -0.0564  0.0877  0.5942
  330TMC3    C6 5008   3.724   4.718   9.382 -0.5622 -0.1784  0.3932
  330TMC3     C 5009   3.481   0.196   9.121  0.5372  0.6844  0.1811
  330TMC3     O 5010   3.538   0.267   9.039 -0.2537 -0.4441  0.0258
  330TMC3     H 5011   3.405   4.722   9.263  0.0616  0.9789 -4.6655
  330TMC3    H1 5012   3.731   0.243   9.177 -0.6605  1.0358  0.1951
  330TMC3    H2 5013   3.784   4.676   9.462  3.6734  1.7318 -1.7769
  330TMC3    C7 5014   3.907   0.139   9.345 -0.5160 -0.2165  0.2587
  330TMC3    C8 5015   3.517   4.628   9.473 -0.5883 -0.2825  0.2411
  330TMC3    O1 5016   3.923   0.250   9.293  0.1919  0.6860 -0.0722
  330TMC3    O2 5017   3.396   4.653   9.473 -0.2384  0.1087  0.0242
  331MPD2     C 5018   2.080   3.458  12.712 -0.6990  0.5099  0.1039
  331MPD2    C1 5019   2.185   3.484  12.631 -0.5326 -0.4831 -0.3014
  331MPD2    C2 5020   2.266   3.375  12.598 -1.0013 -0.9378 -0.2388
  331MPD2    C3 5021   2.243   3.248  12.636  0.1683  0.3912  0.2031
  331MPD2    C4 5022   2.134   3.219  12.719 -0.1665 -0.0142  0.0038
  331MPD2    C5 5023   2.056   3.328  12.760 -0.1951 -0.3608  0.5145
  331MPD2     H 5024   2.352   3.383  12.532 -0.0128 -1.1318  1.0207
  331MPD2    H1 5025   2.102   3.126  12.764 -1.0288 -0.1846 -0.9654
  331MPD2    H2 5026   2.000   3.528  12.734 -2.6220 -1.6782  0.1070
  331MPD2    H3 5027   1.978   3.320  12.835 -0.5056  1.1994  0.3609
  331MPD2     N 5028   2.333   3.147  12.587 -0.8824  0.5832  0.0052
  331MPD2    H5 5029   2.412   3.188  12.539 -1.0653 -0.8042 -1.4801
  331MPD2    N1 5030   2.215   3.618  12.593 -0.4939  0.1255 -0.7594
  331MPD2    H7 5031   2.136   3.681  12.597 -1.5377 -1.2802  0.7841
  332TMC3    C1 5032   2.445   2.958  12.553 -0.0250  0.6738 -0.0894
  332TMC3    C2 5033   2.506   3.026  12.449  0.1346 -1.0599 -0.0373
  332TMC3    C3 5034   2.631   2.987  12.423  0.3334  0.3690 -0.3176
  332TMC3    C4 5035   2.506   2.863  12.626  0.1848  0.3595  0.4414
  332TMC3    C5 5036   2.638   2.831  12.604 -0.7006 -0.4925 -0.3043
  332TMC3    C6 5037   2.704   2.898  12.501  0.3809 -0.3696  1.1275
  332TMC3     C 5038   2.328   3.014  12.611 -0.9120  0.1820  0.7390
  332TMC3     O 5039   2.250   2.950  12.684  0.1852  1.0094 -0.8846
  332TMC3     H 5040   2.444   3.081  12.379 -1.5018 -1.9854  0.6592
  332TMC3    H1 5041   2.452   2.815  12.707 -0.5693  2.5042  1.2149
  332TMC3    H2 5042   2.807   2.875  12.476  0.2502  2.5847 -2.0893
  332TMC3    C7 5043   2.713   2.749  12.697 -0.0569  0.0195 -0.2736
  332TMC3    C8 5044   2.720   3.062  12.331 -0.0829  0.8924  0.1077
  332TMC3    O1 5045   2.640   2.693  12.779 -0.1692 -0.0333  0.3650
  332TMC3    O2 5046   2.832   3.085  12.373 -0.7390  0.2936  0.4239
  333MPD2     C 5047   2.534   3.420  11.100  0.1204 -0.8061 -0.1476
  333MPD2    C1 5048   2.595   3.323  11.029  0.0387  0.2099  0.2454
  333MPD2    C2 5049   2.564   3.191  11.055 -0.2556 -0.0382 -0.3464
  333MPD2    C3 5050   2.460   3.156  11.137  0.8026 -0.9999 -0.5792
  333MPD2    C4 5051   2.400   3.255  11.212 -0.6139  0.0431 -0.1972
  333MPD2    C5 5052   2.433   3.390  11.190 -0.0074 -0.1500  0.3103
  333MPD2     H 5053   2.625   3.109  11.018 -0.1702  0.3694 -1.1208
  333MPD2    H1 5054   2.310   3.247  11.273  0.3058  1.4518  1.3361
  333MPD2    H2 5055   2.564   3.522  11.079  0.6354 -1.0968 -0.8502
  333MPD2    H3 5056   2.385   3.467  11.251 -0.9833 -1.9699  1.8451
  333MPD2     N 5057   2.432   3.024  11.159 -0.2928 -0.4257 -0.4472
  333MPD2    H5 5058   2.485   2.962  11.100  1.0015  0.5053 -0.2775
  333MPD2    N1 5059   2.700   3.357  10.934 -0.0657  0.6063 -0.5085
  333MPD2    H7 5060   2.711   3.458  10.925 -1.2039  0.5694 -2.4106
  334TMC3    C1 5061   2.873   3.324  10.776 -0.1614  0.3165 -0.7403
  334TMC3    C2 5062   2.981   3.243  10.740 -0.2051 -0.3245 -0.1645
  334TMC3    C3 5063   3.094   3.308  10.705 -0.5816  0.4627 -0.1899
  334TMC3    C4 5064   2.870   3.463  10.748  0.2207 -0.4404  0.6393
  334TMC3    C5 5065   2.985   3.519  10.697  0.3149  0.6626 -0.0747
  334TMC3    C6 5066   3.097   3.444  10.683  0.1755  0.3362 -0.4174
  334TMC3     C 5067   2.789   3.271  10.875 -0.5556  0.3543  0.0481
  334TMC3     O 5068   2.815   3.157  10.904  0.3918 -0.5251 -0.5216
  334TMC3     H 5069   2.988   3.140  10.771 -0.3416  0.0615  1.1666
  334TMC3    H1 5070   2.781   3.521  10.768 -1.6668 -3.5526  1.1005
  334TMC3    H2 5071   3.182   3.495  10.640  0.0077  1.5501  0.7071
  334TMC3    C7 5072   3.007   3.663  10.703  0.4557  0.0634 -0.5625
  334TMC3    C8 5073   3.199   3.227  10.659 -0.1365 -0.3421  0.2531
  334TMC3    O1 5074   3.122   3.703  10.690  0.2560 -0.6832  0.3925
  334TMC3    O2 5075   3.164   3.120  10.611 -0.0144 -0.3238  0.0138
  335TMC3    C1 5076   2.967   0.439  17.484  0.3754  0.1021 -0.1324
  335TMC3    C2 5077   2.910   0.381  17.375  0.0071  0.1187 -0.2405
  335TMC3    C3 5078   2.963   0.413  17.251 -0.4936 -0.1714  0.0081
  335TMC3    C4 5079   3.074   0.523  17.465 -0.1286 -0.8695  0.8580
  335TMC3    C5 5080   3.121   0.549  17.341 -0.4438  0.5197 -0.0482
  335TMC3    C6 5081   3.065   0.501  17.232  0.3786 -0.4032 -0.0332
  335TMC3     C 5082   2.920   0.389  17.612 -0.3661 -0.2519 -0.1911
  335TMC3     O 5083   2.869   0.280  17.611 -0.3587  0.3570 -0.7267
  335TMC3     H 5084   2.847   0.295  17.390  0.3652 -0.2414 -0.7852
  335TMC3    H1 5085   3.135   0.562  17.545 -0.4875 -2.2682  1.8210
  335TMC3    H2 5086   3.088   0.525  17.128  0.8542 -0.2798  0.1013
  335TMC3    C7 5087   3.243   0.626  17.330 -0.1572 -0.2560  0.5938
  335TMC3    C8 5088   2.894   0.333  17.140 -0.8107 -0.8459  0.3765
  335TMC3    O1 5089   3.267   0.730  17.393  0.7696  0.1161 -0.2492
  335TMC3    O2 5090   2.779   0.301  17.161  0.1999  0.7500  0.1292
  336MPD2     C 5091   2.569   2.359  16.207  0.2386  0.2466  0.3700
  336MPD2    C1 5092   2.524   2.297  16.090  0.3200 -0.8315  0.1518
  336MPD2    C2 5093   2.506   2.159  16.090 -0.2940 -0.1537  0.4713
  336MPD2    C3 5094   2.537   2.084  16.203  0.3116  0.4930  0.4505
  336MPD2    C4 5095   2.596   2.142  16.317 -0.4843 -0.7782 -0.1508
  336MPD2    C5 5096   2.594   2.279  16.317  0.2803  0.9483  0.4374
  336MPD2     H 5097   2.454   2.104  16.011  1.2726 -0.5088 -0.3065
  336MPD2    H1 5098   2.648   2.085  16.393  2.2970 -0.2077 -1.6256
  336MPD2    H2 5099   2.578   2.466  16.217 -0.0730  0.0882  2.3922
  336MPD2    H3 5100   2.632   2.324  16.408  1.0613 -0.3664  0.7709
  336MPD2     N 5101   2.515   1.945  16.204  0.0544  0.7149 -0.3497
  336MPD2    H5 5102   2.529   1.897  16.293  0.6845 -1.1821 -1.4806
  336MPD2    N1 5103   2.455   2.366  15.988 -0.8041  0.5402 -0.1653
  336MPD2    H7 5104   2.400   2.314  15.920  1.9601 -2.1453 -0.3329
  337TMC3    C1 5105   2.358   2.552  15.892  0.3304 -0.4678  0.1830
  337TMC3    C2 5106   2.250   2.459  15.873 -0.1719  0.1429 -0.4414
  337TMC3    C3 5107   2.135   2.514  15.832  0.0908  0.0308  0.5131
  337TMC3    C4 5108   2.334   2.690  15.899  0.1115  0.1415 -0.6630
  337TMC3    C5 5109   2.204   2.732  15.863 -0.4432 -0.5233 -0.0077
  337TMC3    C6 5110   2.110   2.643  15.816 -0.0069 -0.2738 -0.9039
  337TMC3     C 5111   2.466   2.502  15.976  0.3868  0.6793  0.2851
  337TMC3     O 5112   2.520   2.588  16.046 -0.6844  0.4364  0.0405
  337TMC3     H 5113   2.262   2.352  15.863 -1.2406  0.0624 -0.8381
  337TMC3    H1 5114   2.415   2.754  15.933  0.8369 -0.4558 -1.2758
  337TMC3    H2 5115   2.007   2.674  15.809  0.2577  0.8445  0.3273
  337TMC3    C7 5116   2.168   2.872  15.844 -0.0381  0.0549 -0.2109
  337TMC3    C8 5117   2.040   2.416  15.776 -0.2207  0.0548  0.0766
  337TMC3    O1 5118   2.047   2.892  15.846  0.3362  0.0763  0.0651
  337TMC3    O2 5119   2.041   2.313  15.839 -0.3230 -0.3838 -0.1973
  338MPD2     C 5120   3.467   3.115   0.934 -0.8469  0.2955  1.0609
  338MPD2    C1 5121   3.350   3.095   1.002 -0.7357 -0.3207  0.1770
  338MPD2    C2 5122   3.327   3.170   1.116 -0.9754 -0.1988 -0.3396
  338MPD2    C3 5123   3.421   3.240   1.178  0.2452  0.7193  0.2310
  338MPD2    C4 5124   3.526   3.264   1.104  0.1179  0.4392 -0.4718
  338MPD2    C5 5125   3.550   3.207   0.985 -0.5457 -0.4644 -0.9720
  338MPD2     H 5126   3.237   3.154   1.174  0.2513  1.2935  1.9684
  338MPD2    H1 5127   3.605   3.332   1.135 -1.1599  0.9999  1.5319
  338MPD2    H2 5128   3.499   3.049   0.854  3.0688  1.4388  1.6703
  338MPD2    H3 5129   3.639   3.223   0.925 -0.4239 -2.4746 -1.3295
  338MPD2     N 5130   3.398   3.307   1.302  0.4351  0.4750 -0.1701
  338MPD2    H5 5131   3.304   3.295   1.338  0.4040  1.0109 -0.0742
  338MPD2    N1 5132   3.252   3.001   0.958 -0.0126  0.3023  0.3300
  338MPD2    H7 5133   3.170   3.003   1.017 -0.8495 -2.0030 -0.7401
  339TMC3    C1 5134   3.435   3.493   1.430 -0.7850  0.2426  0.1677
  339TMC3    C2 5135   3.375   3.472   1.548  0.3834 -0.0154 -0.1948
  339TMC3    C3 5136   3.241   3.490   1.556 -0.5032 -0.6034 -0.2886
  339TMC3    C4 5137   3.368   3.552   1.328  0.7492  0.3668  0.7497
  339TMC3    C5 5138   3.236   3.592   1.344 -0.4211 -0.2593  0.5348
  339TMC3    C6 5139   3.166   3.554   1.456 -0.0530 -0.0099  0.5106
  339TMC3     C 5140   3.495   3.380   1.371 -0.7009 -0.6018  0.4958
  339TMC3     O 5141   3.618   3.375   1.361  0.2063 -0.4263  0.3647
  339TMC3     H 5142   3.422   3.401   1.616 -1.5783 -0.0791  1.0962
  339TMC3    H1 5143   3.403   3.552   1.225 -0.2958 -1.2411  0.3989
  339TMC3    H2 5144   3.062   3.579   1.474  0.5323  1.0745  2.3119
  339TMC3    C7 5145   3.165   3.587   1.214  1.2178  0.4543  0.2474
  339TMC3    C8 5146   3.172   3.430   1.670  0.0686  0.4162  0.5401
  339TMC3    O1 5147   3.223   3.619   1.109  0.1154  0.3762 -0.2756
  339TMC3    O2 5148   3.215   3.406   1.778 -0.0737  0.0035 -0.6647
  340MPD2     C 5149   2.507   0.509  10.456 -0.4263  0.5732 -0.2753
  340MPD2    C1 5150   2.565   0.403  10.523  0.0652 -0.2169 -0.7062
  340MPD2    C2 5151   2.634   0.432  10.640  0.0598  0.1844  0.4068
  340MPD2    C3 5152   2.648   0.568  10.678  0.0942  0.0658  0.4923
  340MPD2    C4 5153   2.586   0.667  10.611  0.2386 -0.4826  0.2758
  340MPD2    C5 5154   2.516   0.639  10.500  0.4861 -0.8985 -0.1690
  340MPD2     H 5155   2.681   0.350  10.693  0.4504  0.9710  1.2848
  340MPD2    H1 5156   2.583   0.770  10.644 -1.8315 -0.5884  0.3936
  340MPD2    H2 5157   2.448   0.496  10.366  0.9302 -0.0725 -1.0722
  340MPD2    H3 5158   2.460   0.723  10.461 -1.3124 -0.8020  2.6073
  340MPD2     N 5159   2.741   0.605  10.781  0.6475  0.2467 -0.3767
  340MPD2    H5 5160   2.769   0.703  10.775  1.5425  0.2134  3.6716
  340MPD2    N1 5161   2.560   0.271  10.461  0.0966  0.3825 -0.0938
  340MPD2    H7 5162   2.535   0.283  10.363 -1.7580 -1.7586  0.1334
  341TMC3    C1 5163   2.599   0.041  10.427  0.8682  0.3233  0.7145
  341TMC3    C2 5164   2.585   4.654  10.470 -0.2263  0.2190 -0.0066
  341TMC3    C3 5165   2.642   4.556  10.388  0.0369 -0.7213 -0.2792
  341TMC3    C4 5166   2.669   0.072  10.313  0.2469 -0.4063 -0.2739
  341TMC3    C5 5167   2.717   4.716  10.237 -0.3074  0.3800 -0.1675
  341TMC3    C6 5168   2.705   4.584  10.275 -0.7448  0.1331  1.0877
  341TMC3     C 5169   2.571   0.150  10.521  0.0064 -0.1624 -0.9363
  341TMC3     O 5170   2.557   0.116  10.637  0.1701 -0.2533 -0.9190
  341TMC3     H 5171   2.520   4.636  10.555 -2.3260  1.7147 -1.2858
  341TMC3    H1 5172   2.695   0.174  10.288  1.1508  0.1601  2.9365
  341TMC3    H2 5173   2.738   4.509  10.204  1.5347  1.5863  0.6029
  341TMC3    C7 5174   2.787   0.002  10.107 -0.1672 -0.2443  0.3275
  341TMC3    C8 5175   2.603   4.418  10.408 -0.2502  0.9287 -0.2292
  341TMC3    O1 5176   2.871   4.663  10.071 -0.1183 -0.0676 -0.0562
  341TMC3    O2 5177   2.508   4.396  10.479  0.1748  0.3043 -0.4469
  342MPD2     C 5178   0.797   3.516  16.597 -0.5864  0.1440  0.2340
  342MPD2    C1 5179   0.813   3.425  16.701 -0.0247 -0.3380  0.8847
  342MPD2    C2 5180   0.827   3.484  16.830  0.6098 -0.2330 -0.1020
  342MPD2    C3 5181   0.844   3.626  16.846  0.1930 -0.1119  0.3044
  342MPD2    C4 5182   0.806   3.700  16.741 -0.5612 -0.6722  0.1281
  342MPD2    C5 5183   0.784   3.651  16.616  0.5835 -0.2574 -0.3162
  342MPD2     H 5184   0.845   3.414  16.910 -0.4323  0.7444  0.9987
  342MPD2    H1 5185   0.803   3.807  16.756  0.0228 -0.6165 -0.1571
  342MPD2    H2 5186   0.789   3.478  16.496  0.9389  1.4449 -0.3840
  342MPD2    H3 5187   0.757   3.718  16.535  0.7079 -0.1986 -0.3099
  342MPD2     N 5188   0.888   3.686  16.965 -0.0431 -0.1114 -0.1703
  342MPD2    H5 5189   0.884   3.787  16.967  0.9007 -0.0478 -1.1080
  342MPD2    N1 5190   0.817   3.281  16.696 -0.0949 -0.4648 -0.2300
  342MPD2    H7 5191   0.828   3.221  16.777  0.4865 -0.3812 -0.2460
  343TMC3    C1 5192   0.857   3.078  16.597 -0.6983 -0.1447  0.0305
  343TMC3    C2 5193   0.954   3.016  16.516 -0.1946  0.4811 -0.0126
  343TMC3    C3 5194   0.985   2.885  16.530  0.4253  0.2575 -0.2168
  343TMC3    C4 5195   0.789   3.006  16.694 -1.0480  0.4832 -0.1568
  343TMC3    C5 5196   0.826   2.872  16.713  1.0497 -0.7023  0.5200
  343TMC3    C6 5197   0.923   2.815  16.632  0.4521 -0.0750 -0.4100
  343TMC3     C 5198   0.833   3.220  16.575  0.4084  0.2100 -0.2738
  343TMC3     O 5199   0.854   3.264  16.462 -0.1387  0.2771  0.7652
  343TMC3     H 5200   1.000   3.078  16.440  0.1859  1.0406  0.6802
  343TMC3    H1 5201   0.716   3.062  16.751 -1.0859 -1.3167  1.5509
  343TMC3    H2 5202   0.953   2.712  16.647  0.9575  0.4018  1.8874
  343TMC3    C7 5203   0.759   2.796  16.813 -0.5992  0.5029  0.2251
  343TMC3    C8 5204   1.109   2.849  16.472 -0.2286 -0.3673  0.2668
  343TMC3    O1 5205   0.760   2.676  16.799  0.2046 -0.1203  0.0954
  343TMC3    O2 5206   1.135   2.912  16.368  0.4097 -0.5800  0.3800
  344MPD2     C 5207   0.583   2.619  10.175 -0.5695  0.8595 -0.4566
  344MPD2    C1 5208   0.652   2.578  10.288 -0.1413 -0.5233  0.2760
  344MPD2    C2 5209   0.768   2.645  10.333 -0.2219  0.9761 -0.1390
  344MPD2    C3 5210   0.812   2.765  10.266  1.1424 -0.4766  0.8741
  344MPD2    C4 5211   0.728   2.813  10.167  0.8200 -0.5016 -0.8560
  344MPD2    C5 5212   0.613   2.745  10.133 -0.3980 -0.1380  0.0051
  344MPD2     H 5213   0.822   2.599  10.414 -1.2036  0.9515  0.5066
  344MPD2    H1 5214   0.756   2.897  10.105  0.4034  3.6460  4.5455
  344MPD2    H2 5215   0.499   2.562  10.134  0.7517 -0.5533 -1.1938
  344MPD2    H3 5216   0.575   2.790  10.043 -1.1890 -0.0572  0.3768
  344MPD2     N 5217   0.931   2.832  10.295 -0.5693 -0.3339  0.0566
  344MPD2    H5 5218   0.951   2.917  10.243  0.3471 -2.1200 -2.5130
  344MPD2    N1 5219   0.628   2.457  10.352  0.2732 -0.0977  0.9961
  344MPD2    H7 5220   0.693   2.434  10.427  0.2387  1.5612  1.5248
  345TMC3    C1 5221   1.145   2.871  10.370 -0.5369 -0.1128 -0.1527
  345TMC3    C2 5222   1.244   2.859  10.466  0.4427 -0.0196 -0.1287
  345TMC3    C3 5223   1.355   2.934  10.448  0.3945  0.1998 -0.0824
  345TMC3    C4 5224   1.157   2.955  10.257  0.9618  0.0330  0.4939
  345TMC3    C5 5225   1.274   3.029  10.246 -0.1224 -0.2932  0.4281
  345TMC3    C6 5226   1.377   3.012  10.332 -0.4079  0.9010 -0.2655
  345TMC3     C 5227   1.028   2.789  10.383  0.7462 -0.1210 -0.4397
  345TMC3     O 5228   1.028   2.693  10.453  0.5943  0.1072  0.1927
  345TMC3     H 5229   1.235   2.791  10.550  0.2362 -1.0559 -0.9884
  345TMC3    H1 5230   1.075   2.975  10.189  3.3893 -1.3302 -2.8286
  345TMC3    H2 5231   1.461   3.080  10.320 -0.1859  0.7610  0.4895
  345TMC3    C7 5232   1.270   3.150  10.163 -0.1425 -0.0003 -0.5652
  345TMC3    C8 5233   1.442   2.965  10.554  0.4947 -0.5384 -0.1656
  345TMC3    O1 5234   1.361   3.222  10.202  0.4319  0.0848  0.2812
  345TMC3    O2 5235   1.548   3.020  10.518  0.0073 -0.4882 -0.1501
  346MPD2     C 5236   1.300   3.910  13.777 -0.6001 -0.0059 -0.1658
  346MPD2    C1 5237   1.398   4.006  13.752  0.0289 -0.5447 -0.5990
  346MPD2    C2 5238   1.462   4.062  13.858 -0.3393 -0.3538  0.2303
  346MPD2    C3 5239   1.436   4.035  13.987 -0.2826  0.6735 -0.0576
  346MPD2    C4 5240   1.341   3.937  14.010  0.1580  0.4427 -0.0446
  346MPD2    C5 5241   1.269   3.878  13.909  0.4318 -0.5545 -0.1413
  346MPD2     H 5242   1.527   4.146  13.839 -1.1130  0.5567  1.6073
  346MPD2    H1 5243   1.314   3.910  14.111  2.1045 -0.1775  0.3077
  346MPD2    H2 5244   1.228   3.877  13.703 -1.1194 -0.6449  0.6221
  346MPD2    H3 5245   1.202   3.797  13.936  0.8094 -0.9697 -0.4440
  346MPD2     N 5246   1.514   4.104  14.081 -0.1786 -0.0340  0.2191
  346MPD2    H5 5247   1.596   4.156  14.050 -0.3787 -0.9710 -1.8987
  346MPD2    N1 5248   1.408   4.070  13.627  0.8697 -0.5534  0.2300
  346MPD2    H7 5249   1.468   4.152  13.622 -0.1108  0.1436 -0.1439
  347TMC3    C1 5250   1.601   4.124  14.298 -1.3582 -0.1241  0.1279
  347TMC3    C2 5251   1.725   4.102  14.249  0.2269  0.5196 -0.1467
  347TMC3    C3 5252   1.826   4.182  14.305  0.4264 -0.3044  0.5343
  347TMC3    C4 5253   1.583   4.209  14.408  0.4350 -0.6163  0.4974
  347TMC3    C5 5254   1.687   4.288  14.447 -0.3424  0.5571 -0.0510
  347TMC3    C6 5255   1.820   4.277  14.405 -0.3124  0.5737 -0.4232
  347TMC3     C 5256   1.488   4.092  14.208  0.7065  0.9194 -0.3969
  347TMC3     O 5257   1.380   4.073  14.265  0.3778  0.3750 -0.1582
  347TMC3     H 5258   1.748   4.025  14.177 -0.4699  1.5555 -1.4649
  347TMC3    H1 5259   1.480   4.233  14.433  0.0316 -1.3303 -0.4327
  347TMC3    H2 5260   1.905   4.321  14.456 -0.2124  0.1224 -0.1936
  347TMC3    C7 5261   1.652   4.383  14.554  0.7715 -0.0297  0.4395
  347TMC3    C8 5262   1.963   4.145  14.273 -0.0640  0.3579 -0.1503
  347TMC3    O1 5263   1.541   4.375  14.606 -0.4942  0.1640  0.2435
  347TMC3    O2 5264   1.973   4.036  14.217  0.2070  0.1940 -0.1250
  348MPD2     C 5265   0.123   3.611  12.013 -0.1480 -0.0043 -0.0855
  348MPD2    C1 5266   0.092   3.516  11.924 -0.2673  0.2303  0.2784
  348MPD2    C2 5267   0.110   3.533  11.787 -0.6778 -0.6733 -0.3661
  348MPD2    C3 5268   0.163   3.648  11.734  0.2535  0.6248 -0.9374
  348MPD2    C4 5269   0.174   3.754  11.828  0.2638  0.3627 -0.0600
  348MPD2    C5 5270   0.149   3.735  11.963  0.1719  0.6420 -0.0089
  348MPD2     H 5271   0.105   3.450  11.717 -1.3795  0.5323 -1.7337
  348MPD2    H1 5272   0.199   3.854  11.794 -0.0573  0.6374  0.5244
  348MPD2    H2 5273   0.125   3.610  12.122 -0.0579  0.7116 -0.0774
  348MPD2    H3 5274   0.150   3.820  12.030  0.9421 -0.1984  1.0439
  348MPD2     N 5275   0.184   3.664  11.594 -0.5019 -0.0672  0.2944
  348MPD2    H5 5276   0.166   3.583  11.536 -2.1367  0.1527  0.4759
  348MPD2    N1 5277   0.044   3.394  11.967  0.3292  0.2601 -0.0757
  348MPD2    H7 5278   0.026   3.333  11.888 -0.0721  2.8909 -2.0277
  349TMC3    C1 5279   0.057   3.199  12.081  0.8085  0.3066 -0.3701
  349TMC3    C2 5280   0.172   3.124  12.089  0.3861  0.2970 -0.8559
  349TMC3    C3 5281   0.187   3.018  12.015 -0.3449  0.4315 -0.4590
  349TMC3    C4 5282   4.700   3.161  11.999  0.1813  0.2533 -0.2962
  349TMC3    C5 5283   4.725   3.055  11.914  0.4331 -0.1309  0.2904
  349TMC3    C6 5284   0.101   2.984  11.917 -0.5513  0.4094 -0.3239
  349TMC3     C 5285   0.080   3.337  12.088  0.2839 -1.2134  0.4210
  349TMC3     O 5286   0.165   3.380  12.163 -0.4187  0.4245 -0.4761
  349TMC3     H 5287   0.237   3.144  12.173  0.3414 -0.3246 -0.6751
  349TMC3    H1 5288   4.601   3.203  12.007  0.5923  1.2269 -0.3510
  349TMC3    H2 5289   0.129   2.913  11.840  0.4261  0.1981  0.2295
  349TMC3    C7 5290   4.671   3.091  11.782 -0.2846 -0.0913 -0.1749
  349TMC3    C8 5291   0.293   2.938  12.053 -0.8809 -0.0526 -0.7078
  349TMC3    O1 5292   4.552   3.116  11.762  0.0218  0.3376  0.2326
  349TMC3    O2 5293   0.386   2.992  12.109 -0.0725  0.2637  0.4119
  350MPD2     C 5294   4.109   2.324  10.516 -0.4257 -0.0918  0.0781
  350MPD2    C1 5295   3.988   2.273  10.570 -0.9249  0.9002  0.1461
  350MPD2    C2 5296   3.994   2.234  10.705 -0.3987  0.5471 -0.1714
  350MPD2    C3 5297   4.112   2.241  10.785  0.1242 -0.2721 -0.3008
  350MPD2    C4 5298   4.218   2.299  10.725 -0.0919 -0.5158  0.6811
  350MPD2    C5 5299   4.221   2.348  10.596 -0.2441  0.4079  0.2178
  350MPD2     H 5300   3.901   2.205  10.753  0.2045 -1.6536 -0.3426
  350MPD2    H1 5301   4.307   2.322  10.782 -0.1108 -1.4315  1.0776
  350MPD2    H2 5302   4.113   2.343  10.409 -0.9381 -0.4171  0.0006
  350MPD2    H3 5303   4.316   2.387  10.560  0.2797 -0.2224  0.9241
  350MPD2     N 5304   4.104   2.207  10.920 -0.0022  0.6922 -0.1251
  350MPD2    H5 5305   4.017   2.162  10.944 -0.6043  2.0162  0.2104
  350MPD2    N1 5306   3.869   2.265  10.490 -0.3140 -0.1968 -0.4516
  350MPD2    H7 5307   3.792   2.243  10.553 -1.4926 -0.0721 -1.8646
  351TMC3    C1 5308   3.705   2.293  10.316  0.2754 -0.6989  0.8983
  351TMC3    C2 5309   3.665   2.337  10.190 -0.6532 -0.3281  0.1518
  351TMC3    C3 5310   3.545   2.291  10.142 -0.2820 -0.6673  0.7602
  351TMC3    C4 5311   3.626   2.209  10.395 -0.4804  0.0408 -0.0749
  351TMC3    C5 5312   3.504   2.176  10.343 -0.1392  0.1721 -0.6372
  351TMC3    C6 5313   3.463   2.214  10.220 -0.5801 -0.0274  0.2054
  351TMC3     C 5314   3.847   2.304  10.358  0.0626 -0.7807  0.4629
  351TMC3     O 5315   3.930   2.323  10.270 -0.0339 -0.3930  0.4347
  351TMC3     H 5316   3.726   2.381  10.112  1.2609 -2.0613  0.6643
  351TMC3    H1 5317   3.653   2.159  10.487 -1.6587  0.0937  0.2911
  351TMC3    H2 5318   3.363   2.191  10.185  0.2047 -2.0969 -0.6855
  351TMC3    C7 5319   3.409   2.109  10.430  0.6607 -0.1061 -0.2059
  351TMC3    C8 5320   3.546   2.283  10.000 -0.0167  0.1363  0.9624
  351TMC3    O1 5321   3.458   2.075  10.540 -0.0908  0.1261  0.3008
  351TMC3    O2 5322   3.587   2.377   9.934 -0.1007 -0.1715  0.8522
  352MPD2     C 5323   3.012   0.562   0.782 -0.4422  0.7910  0.5814
  352MPD2    C1 5324   2.917   0.478   0.723 -0.2910 -0.0446 -0.2121
  352MPD2    C2 5325   2.934   0.342   0.739 -1.0166 -0.1524  0.3967
  352MPD2    C3 5326   3.033   0.291   0.817  0.5443 -0.1176  0.4174
  352MPD2    C4 5327   3.129   0.381   0.872 -0.0521  0.0478 -0.1833
  352MPD2    C5 5328   3.119   0.513   0.852 -0.2213  0.2976 -0.0780
  352MPD2     H 5329   2.864   0.278   0.687 -1.0633 -0.5212  0.9163
  352MPD2    H1 5330   3.219   0.346   0.921  0.4066  0.8342 -0.4700
  352MPD2    H2 5331   3.004   0.670   0.782  1.2651  0.9101 -0.0562
  352MPD2    H3 5332   3.192   0.575   0.904 -0.9069 -0.8094  2.2097
  352MPD2     N 5333   3.046   0.157   0.846  0.1521  1.1551  0.3598
  352MPD2    H5 5334   3.131   0.135   0.897 -0.8861  1.2552  2.1199
  352MPD2    N1 5335   2.813   0.521   0.631 -0.5892 -0.1414 -0.2607
  352MPD2    H7 5336   2.758   0.445   0.593  1.7771 -0.2589 -3.3939
  353TMC3    C1 5337   2.998   4.673   0.873 -0.5520 -0.4146 -0.1753
  353TMC3    C2 5338   3.093   4.663   0.975 -0.7335 -0.2107  0.0770
  353TMC3    C3 5339   3.106   4.541   1.038  0.4697  0.6031 -0.7488
  353TMC3    C4 5340   2.924   4.557   0.836  0.0107 -0.4541 -0.4842
  353TMC3    C5 5341   2.929   4.451   0.916  0.4880 -0.2677  0.0960
  353TMC3    C6 5342   3.022   4.432   1.009  0.4781  0.3920  0.5160
  353TMC3     C 5343   2.962   0.055   0.816 -0.1718  0.0156 -0.7526
  353TMC3     O 5344   2.864   0.062   0.741  0.0744 -0.3653  0.0271
  353TMC3     H 5345   3.157   0.008   0.994  0.3401 -0.9990  0.0528
  353TMC3    H1 5346   2.859   4.562   0.750 -0.7100 -0.0433  0.0788
  353TMC3    H2 5347   3.017   4.348   1.078  1.1419  0.8033  1.0612
  353TMC3    C7 5348   2.842   4.338   0.896  0.0944  0.3508 -0.6231
  353TMC3    C8 5349   3.209   4.523   1.133  0.1434  0.5938  0.0623
  353TMC3    O1 5350   2.866   4.227   0.942  0.2124  0.5330 -0.1048
  353TMC3    O2 5351   3.262   4.623   1.182 -0.3858 -0.5199  0.1948
  354TMC3    C1 5352   4.286   0.147  13.444 -0.5738 -0.4541 -0.4104
  354TMC3    C2 5353   4.327   0.276  13.433 -0.2576 -0.3225  0.0532
  354TMC3    C3 5354   4.358   0.329  13.315 -0.0984  0.8789  0.2488
  354TMC3    C4 5355   4.264   0.079  13.329  0.2699  0.7434 -0.3963
  354TMC3    C5 5356   4.304   0.135  13.206 -0.1207  0.2471  0.1948
  354TMC3    C6 5357   4.346   0.267  13.196  0.0384  0.7173  0.1396
  354TMC3     C 5358   4.243   0.086  13.571  0.3174  0.2409  0.9538
  354TMC3     O 5359   4.195   4.715  13.563 -0.3618 -0.2155 -0.3537
  354TMC3     H 5360   4.310   0.341  13.517  1.4299  0.2685 -0.0656
  354TMC3    H1 5361   4.203   4.730  13.323 -1.9951  2.3429 -1.3343
  354TMC3    H2 5362   4.332   0.317  13.101 -2.9079 -1.5686 -0.6397
  354TMC3    C7 5363   4.304   0.049  13.089  0.0824 -1.1867 -0.2561
  354TMC3    C8 5364   4.403   0.468  13.328 -0.8876  0.3624 -0.3177
  354TMC3    O1 5365   4.247   4.682  13.096  0.2613 -0.4002  0.0027
  354TMC3    O2 5366   4.421   0.514  13.438 -0.6524  0.4174 -0.3763
  355MPD2     C 5367   4.158   1.372  11.133 -0.2077 -0.3694 -0.5155
  355MPD2    C1 5368   4.260   1.354  11.040 -0.6738  0.6331 -0.3609
  355MPD2    C2 5369   4.389   1.388  11.062  0.1767 -0.5012 -0.5455
  355MPD2    C3 5370   4.412   1.437  11.191  0.0870 -0.2728  0.5113
  355MPD2    C4 5371   4.311   1.447  11.282  0.1448  0.2889  0.5902
  355MPD2    C5 5372   4.185   1.408  11.262 -0.0781 -0.8317  0.0261
  355MPD2     H 5373   4.473   1.366  10.997  0.7275 -0.7240  0.2328
  355MPD2    H1 5374   4.329   1.469  11.387  0.2018  0.0173  0.6365
  355MPD2    H2 5375   4.060   1.335  11.105 -0.2199  0.6560 -1.8186
  355MPD2    H3 5376   4.101   1.413  11.331  1.7187  3.6311  1.8404
  355MPD2     N 5377   4.540   1.474  11.241  0.2450 -0.2851  0.0167
  355MPD2    H5 5378   4.543   1.501  11.338 -0.7583  3.9278 -1.1211
  355MPD2    N1 5379   4.209   1.305  10.917  0.6904 -0.4984 -0.1780
  355MPD2    H7 5380   4.118   1.261  10.921  1.4370 -1.8504  2.0676
  356TMC3    C1 5381   0.038   1.449  11.255  0.6639  0.2390  0.2370
  356TMC3    C2 5382   0.159   1.509  11.222 -0.1765  0.3710 -0.3960
  356TMC3    C3 5383   0.261   1.497  11.303 -0.8014 -0.0338 -0.3709
  356TMC3    C4 5384   0.025   1.379  11.374 -0.7892 -0.3775 -0.3679
  356TMC3    C5 5385   0.134   1.367  11.453  0.8835 -0.0699 -1.0481
  356TMC3    C6 5386   0.251   1.427  11.422  0.0812  0.2130  0.5954
  356TMC3     C 5387   4.661   1.469  11.167  0.2795  0.0795 -0.0059
  356TMC3     O 5388   4.674   1.477  11.045 -0.2822  0.0897 -0.0563
  356TMC3     H 5389   0.155   1.581  11.141 -0.0585 -0.2315 -0.9436
  356TMC3    H1 5390   4.673   1.337  11.411 -0.2464 -0.3427  1.0490
  356TMC3    H2 5391   0.331   1.416  11.494  1.3837 -0.8203 -1.0107
  356TMC3    C7 5392   0.127   1.292  11.578  0.6157  0.3509 -0.1499
  356TMC3    C8 5393   0.368   1.593  11.279  0.3090  0.6061 -0.1820
  356TMC3    O1 5394   0.036   1.210  11.579  0.3331 -0.2860  0.3461
  356TMC3    O2 5395   0.407   1.626  11.170 -0.3781  0.8898 -0.5836
  357MPD2     C 5396   4.298   1.687   1.066  0.4540  0.0236 -0.1351
  357MPD2    C1 5397   4.375   1.704   1.178  0.0141 -0.0317 -0.3635
  357MPD2    C2 5398   4.318   1.733   1.297 -0.1479 -0.3671 -0.2604
  357MPD2    C3 5399   4.179   1.739   1.312 -0.2542  0.1265 -0.2150
  357MPD2    C4 5400   4.104   1.703   1.208 -0.4453  0.2834 -0.3105
  357MPD2    C5 5401   4.163   1.680   1.088 -0.2685  0.2966 -0.7290
  357MPD2     H 5402   4.379   1.730   1.387  0.2527  1.5496 -0.4755
  357MPD2    H1 5403   3.995   1.705   1.208 -0.5208 -2.4852 -1.7685
  357MPD2    H2 5404   4.338   1.664   0.968 -0.8003 -0.1678 -0.6126
  357MPD2    H3 5405   4.096   1.658   1.006 -1.0760 -1.3146  0.3475
  357MPD2     N 5406   4.115   1.781   1.430  0.3233  0.6934 -0.0428
  357MPD2    H5 5407   4.014   1.769   1.431  0.1825  1.9847  1.4974
  357MPD2    N1 5408   4.512   1.695   1.158 -0.2417  0.3991 -0.3942
  357MPD2    H7 5409   4.535   1.669   1.062 -2.5769  0.4801 -0.9723
  358TMC3    C1 5410   4.733   1.610   1.220  0.0987  0.1126 -0.1621
  358TMC3    C2 5411   0.003   1.544   1.106 -0.8002 -0.1713  0.6630
  358TMC3    C3 5412   0.120   1.475   1.082  0.5315 -0.3967 -0.4363
  358TMC3    C4 5413   0.088   1.602   1.315 -0.3772  0.4302  0.5634
  358TMC3    C5 5414   0.196   1.527   1.297 -0.4441  0.2280 -0.0016
  358TMC3    C6 5415   0.216   1.465   1.175  0.0711  0.7858 -0.1094
  358TMC3     C 5416   4.605   1.673   1.262 -0.5622  0.5717  0.3416
  358TMC3     O 5417   4.590   1.677   1.383 -0.3950 -0.1298 -0.6475
  358TMC3     H 5418   4.667   1.549   1.030 -0.5899  1.1068  0.5385
  358TMC3    H1 5419   0.067   1.654   1.407  0.4128 -0.1846  1.1000
  358TMC3    H2 5420   0.280   1.379   1.161 -1.0587  0.1145 -1.2444
  358TMC3    C7 5421   0.284   1.498   1.402 -0.4760  0.5614 -0.0598
  358TMC3    C8 5422   0.125   1.400   0.956 -0.7500  0.2203  0.2081
  358TMC3    O1 5423   0.380   1.432   1.370 -0.3520 -0.0019 -0.5272
  358TMC3    O2 5424   0.024   1.374   0.901 -0.0339 -0.4705 -0.4481
  359MPD2     C 5425   4.599   3.929  12.338  0.1982  0.1610  0.1040
  359MPD2    C1 5426   4.556   3.995  12.225 -0.5137  0.0080  0.4725
  359MPD2    C2 5427   4.425   3.994  12.193  0.5816 -0.1807 -0.3619
  359MPD2    C3 5428   4.331   3.931  12.274  0.3976 -0.3346  0.8345
  359MPD2    C4 5429   4.377   3.860  12.382  0.6088 -0.4077 -0.5814
  359MPD2    C5 5430   4.509   3.862  12.413 -0.1253  0.2878  0.4855
  359MPD2     H 5431   4.395   4.054  12.108  0.9680 -0.2066 -0.5159
  359MPD2    H1 5432   4.312   3.824  12.461  2.3163  1.1687  1.5412
  359MPD2    H2 5433   4.703   3.925  12.371  0.2332  0.3494  0.0201
  359MPD2    H3 5434   4.549   3.810  12.500  1.0183 -0.6495 -0.6127
  359MPD2     N 5435   4.191   3.958  12.265 -0.2583 -0.0962  0.3581
  359MPD2    H5 5436   4.139   3.917  12.341 -2.1849 -0.9577 -1.4391
  359MPD2    N1 5437   4.640   4.057  12.130 -0.9742  0.0578 -0.5049
  359MPD2    H7 5438   4.598   4.085  12.041 -1.5650 -0.7535 -0.4767
  360TMC3    C1 5439   0.100   4.100  12.017  0.0290 -0.1184  0.0818
  360TMC3    C2 5440   0.216   4.168  12.027 -0.3081  0.4157  0.6397
  360TMC3    C3 5441   0.263   4.224  11.911 -0.1281 -0.2915 -0.3920
  360TMC3    C4 5442   0.036   4.073  11.903 -0.5003 -0.3191 -0.3029
  360TMC3    C5 5443   0.090   4.133  11.791  0.4645  0.7228 -0.0160
  360TMC3    C6 5444   0.202   4.212  11.795  0.0414  0.3210  0.2915
  360TMC3     C 5445   0.035   4.079  12.144  0.3613  0.0588  0.0347
  360TMC3     O 5446   0.104   4.072  12.244  0.1148  0.3685 -0.5774
  360TMC3     H 5447   0.263   4.191  12.122 -0.4959 -1.1108  1.1071
  360TMC3    H1 5448   4.697   3.999  11.901 -0.5226 -0.2787 -1.0075
  360TMC3    H2 5449   0.233   4.276  11.713 -1.1436  0.6649  0.1156
  360TMC3    C7 5450   0.048   4.080  11.662 -0.6436  0.1082 -0.0055
  360TMC3    C8 5451   0.349   4.343  11.937  0.5262 -0.1731 -0.5734
  360TMC3    O1 5452   4.719   3.982  11.648 -0.4556  0.0502 -0.1227
  360TMC3    O2 5453   0.320   4.424  12.025 -0.3078  0.6468  0.0679
  361MPD2     C 5454   1.800   3.524  16.535  0.0049 -0.4561  0.2621
  361MPD2    C1 5455   1.764   3.567  16.665 -0.4952  0.6345 -0.3138
  361MPD2    C2 5456   1.869   3.586  16.765  0.4823  0.6934  0.3133
  361MPD2    C3 5457   2.000   3.561  16.739  0.9061  0.2483 -0.0318
  361MPD2    C4 5458   2.032   3.519  16.609  0.5214  0.0766 -0.1687
  361MPD2    C5 5459   1.938   3.505  16.509 -0.3003 -0.3309  0.5528
  361MPD2     H 5460   1.838   3.616  16.864  0.9275 -0.0266  0.6662
  361MPD2    H1 5461   2.136   3.499  16.587  0.8078  1.5575 -0.1364
  361MPD2    H2 5462   1.728   3.506  16.456  0.5692 -0.5306 -0.2352
  361MPD2    H3 5463   1.966   3.460  16.415  0.5028  0.0811  0.5957
  361MPD2     N 5464   2.100   3.557  16.842 -0.5472 -0.9484  0.2183
  361MPD2    H5 5465   2.188   3.514  16.816  0.4747  0.9357  0.5741
  361MPD2    N1 5466   1.633   3.580  16.705 -0.2482 -0.1912 -0.9234
  361MPD2    H7 5467   1.621   3.596  16.805  1.0536 -1.7755 -0.5177
  362TMC3    C1 5468   1.398   3.598  16.702 -0.0448 -0.7525 -0.1356
  362TMC3    C2 5469   1.404   3.645  16.829  0.5871 -0.2649 -0.1758
  362TMC3    C3 5470   1.302   3.712  16.876 -0.2069  0.3058  0.3935
  362TMC3    C4 5471   1.293   3.611  16.620  0.3416  0.9399 -0.0708
  362TMC3    C5 5472   1.189   3.685  16.672 -0.0591 -0.8875 -0.3528
  362TMC3    C6 5473   1.194   3.739  16.797 -0.5091 -0.1003  0.3831
  362TMC3     C 5474   1.521   3.566  16.628 -0.3691 -0.1415  0.2462
  362TMC3     O 5475   1.518   3.527  16.510 -0.0852 -0.2897  0.2379
  362TMC3     H 5476   1.484   3.607  16.892 -0.9522 -0.5896  1.5944
  362TMC3    H1 5477   1.295   3.568  16.520 -1.4054  0.2294  0.1861
  362TMC3    H2 5478   1.117   3.808  16.831 -0.2556  0.1809  0.3833
  362TMC3    C7 5479   1.102   3.759  16.586 -0.2179  0.5900  0.2671
  362TMC3    C8 5480   1.327   3.796  16.990  0.3980  0.1366 -0.6248
  362TMC3    O1 5481   1.087   3.873  16.624 -0.2959  0.3797 -0.4832
  362TMC3    O2 5482   1.440   3.793  17.033 -0.5783  0.3129 -0.0473
  363TMC3    C1 5483   4.132   1.003   9.242 -0.4722 -0.0687  0.3453
  363TMC3    C2 5484   4.220   1.023   9.347 -0.0171 -0.1129  0.0660
  363TMC3    C3 5485   4.193   1.122   9.433 -0.3459 -0.2112  0.0338
  363TMC3    C4 5486   4.029   1.098   9.216 -0.3167 -0.3662 -0.1198
  363TMC3    C5 5487   4.015   1.200   9.308  0.8646 -1.4312 -0.0178
  363TMC3    C6 5488   4.093   1.208   9.425  0.3480 -0.1177 -0.6489
  363TMC3     C 5489   4.159   0.913   9.137  1.0599  0.0139  0.3041
  363TMC3     O 5490   4.277   0.896   9.114  0.2231  0.6659  0.7620
  363TMC3     H 5491   4.283   0.939   9.373  0.9308  0.2748 -0.9831
  363TMC3    H1 5492   3.964   1.090   9.129  0.8817  1.2946 -1.1694
  363TMC3    H2 5493   4.073   1.285   9.498  1.5782 -1.9311  1.5804
  363TMC3    C7 5494   3.902   1.289   9.286  0.0819 -0.7244  0.4453
  363TMC3    C8 5495   4.256   1.123   9.559  0.1027 -0.8095 -0.0469
  363TMC3    O1 5496   3.824   1.267   9.191 -0.5772 -0.0582  0.3838
  363TMC3    O2 5497   4.186   1.156   9.653  0.5469  0.0378  0.4227
  364MPD2     C 5498   3.838   0.834  10.153  0.0488 -0.0913 -0.1297
  364MPD2    C1 5499   3.784   0.911  10.254  0.1829  0.0057  0.0129
  364MPD2    C2 5500   3.764   0.849  10.376  0.1438  0.0158  0.7281
  364MPD2    C3 5501   3.783   0.715  10.395  0.3123 -0.2141  0.0794
  364MPD2    C4 5502   3.843   0.642  10.296 -0.0464  0.1718 -0.3430
  364MPD2    C5 5503   3.880   0.702  10.172  0.3555 -0.6859  0.3206
  364MPD2     H 5504   3.711   0.903  10.453 -0.5874 -2.5947  2.0714
  364MPD2    H1 5505   3.875   0.538  10.304  0.6284  0.4591  0.6694
  364MPD2    H2 5506   3.859   0.876  10.056 -3.3058  2.1254  0.0916
  364MPD2    H3 5507   3.911   0.639  10.089 -0.6792 -1.0789  0.2287
  364MPD2     N 5508   3.740   0.637  10.506  0.2013 -0.1745  0.2915
  364MPD2    H5 5509   3.753   0.537  10.509 -0.2041 -0.2405 -0.2735
  364MPD2    N1 5510   3.736   1.045  10.230  0.0661  0.1952 -0.2912
  364MPD2    H7 5511   3.726   1.063  10.130  2.1664  1.4903 -0.2530
  365TMC3    C1 5512   3.609   1.239  10.255  0.4224 -0.3139  0.6892
  365TMC3    C2 5513   3.542   1.212  10.140  0.1041  0.7195  0.3520
  365TMC3    C3 5514   3.463   1.322  10.091 -0.1034 -0.2189  0.0028
  365TMC3    C4 5515   3.601   1.360  10.324  0.8361  0.2379 -0.3221
  365TMC3    C5 5516   3.530   1.461  10.270  0.0573 -0.6655  1.0691
  365TMC3    C6 5517   3.466   1.446  10.152 -0.1079  0.5000  0.2047
  365TMC3     C 5518   3.679   1.134  10.317 -0.2136  0.7022 -0.4770
  365TMC3     O 5519   3.718   1.154  10.430  0.3668  0.2699  0.1431
  365TMC3     H 5520   3.544   1.113  10.096 -2.5354  0.9503 -0.3067
  365TMC3    H1 5521   3.653   1.372  10.418  1.3812  1.6113 -0.7938
  365TMC3    H2 5522   3.408   1.530  10.115 -1.0088  0.2657  1.0861
  365TMC3    C7 5523   3.482   1.571  10.352 -0.3975 -0.0923  0.2664
  365TMC3    C8 5524   3.404   1.314   9.958 -0.8658  0.1615 -0.4380
  365TMC3    O1 5525   3.491   1.683  10.300 -0.1336  0.2234 -0.2812
  365TMC3    O2 5526   3.330   1.414   9.935  0.4490 -0.0075  0.3411
  366MPD2     C 5527   2.287   2.102  15.723 -0.2827  0.7302  0.5401
  366MPD2    C1 5528   2.231   2.160  15.605 -0.4081 -0.7235 -0.1408
  366MPD2    C2 5529   2.140   2.088  15.533 -0.4272  0.2856  0.1543
  366MPD2    C3 5530   2.107   1.961  15.573 -0.0488  0.2434 -0.1390
  366MPD2    C4 5531   2.166   1.899  15.679  0.5716 -0.4410  0.0118
  366MPD2    C5 5532   2.260   1.968  15.749 -0.0644  0.3952  0.2910
  366MPD2     H 5533   2.104   2.139  15.445  1.0964 -1.2311 -1.3482
  366MPD2    H1 5534   2.149   1.795  15.706  0.2697 -0.5076 -0.4234
  366MPD2    H2 5535   2.360   2.153  15.786 -0.2442  0.4031  0.7590
  366MPD2    H3 5536   2.312   1.930  15.836  1.5775 -0.0860 -0.8812
  366MPD2     N 5537   2.012   1.889  15.497 -0.1075 -0.1420  0.6318
  366MPD2    H5 5538   1.977   1.941  15.418 -0.1428 -2.4234 -0.8487
  366MPD2    N1 5539   2.269   2.289  15.554 -0.0946  0.2981 -0.7399
  366MPD2    H7 5540   2.229   2.319  15.466 -2.2689  0.8285  0.3991
  367TMC3    C1 5541   2.404   2.498  15.544 -0.0906 -0.4555  0.2233
  367TMC3    C2 5542   2.520   2.562  15.573 -0.1811 -0.8187  0.0976
  367TMC3    C3 5543   2.514   2.697  15.565  0.4712 -0.4183  0.2078
  367TMC3    C4 5544   2.284   2.560  15.521 -0.1719  0.0023 -0.4864
  367TMC3    C5 5545   2.285   2.700  15.514  0.5387  0.5982  0.3328
  367TMC3    C6 5546   2.397   2.771  15.539 -0.0494  0.6077  0.3061
  367TMC3     C 5547   2.380   2.361  15.596 -0.3022  0.3121 -0.0553
  367TMC3     O 5548   2.447   2.328  15.692  0.6689 -0.8957 -0.1078
  367TMC3     H 5549   2.609   2.503  15.595  1.3973  1.4049 -0.2943
  367TMC3    H1 5550   2.193   2.501  15.512 -0.4831  0.7164 -1.9704
  367TMC3    H2 5551   2.415   2.877  15.528  1.6694  0.5462  2.4477
  367TMC3    C7 5552   2.169   2.760  15.457 -0.0372  0.7340  0.6792
  367TMC3    C8 5553   2.598   2.754  15.671 -0.0443 -0.5039  0.6758
  367TMC3    O1 5554   2.057   2.723  15.502  0.1814 -0.0907  0.5266
  367TMC3    O2 5555   2.542   2.827  15.754  0.3734  0.4338 -0.5759
  368MPD2     C 5556   3.020   3.500  13.057 -0.5161 -0.0235  0.0675
  368MPD2    C1 5557   3.044   3.635  13.085 -0.3556  0.4297  0.1813
  368MPD2    C2 5558   3.174   3.680  13.120  0.0895  0.1538  0.2126
  368MPD2    C3 5559   3.271   3.587  13.119 -0.0604 -1.2161 -0.4318
  368MPD2    C4 5560   3.250   3.456  13.098  0.1672 -1.3288  0.4961
  368MPD2    C5 5561   3.125   3.412  13.067 -0.0699 -0.0135 -0.0162
  368MPD2     H 5562   3.203   3.784  13.123  0.2245  0.1635 -1.8280
  368MPD2    H1 5563   3.320   3.373  13.103  1.2650 -0.6848 -3.4635
  368MPD2    H2 5564   2.929   3.452  13.025 -0.5567 -0.2723  0.5506
  368MPD2    H3 5565   3.099   3.309  13.046 -0.4576  0.7733 -3.3113
  368MPD2     N 5566   3.409   3.622  13.145 -0.8512  0.0046 -0.4917
  368MPD2    H5 5567   3.483   3.553  13.137  0.2953  1.0759  0.8552
  368MPD2    N1 5568   2.933   3.727  13.090  0.1740 -0.0387  0.5236
  368MPD2    H7 5569   2.843   3.699  13.052  0.7232 -1.0802 -0.0216
  369TMC3    C1 5570   2.823   3.938  13.117  0.4283  0.6150 -0.0137
  369TMC3    C2 5571   2.868   4.064  13.114 -0.3761 -0.6886 -0.5627
  369TMC3    C3 5572   2.850   4.142  12.999 -0.2539 -0.3394 -0.4972
  369TMC3    C4 5573   2.737   3.899  13.018  0.8747 -0.4207 -0.2858
  369TMC3    C5 5574   2.728   3.961  12.899 -0.7777 -0.0360  0.5827
  369TMC3    C6 5575   2.784   4.092  12.891  0.2417  0.0622 -0.3342
  369TMC3     C 5576   2.939   3.854  13.144 -1.1423  0.1047  0.2133
  369TMC3     O 5577   3.033   3.913  13.199 -0.1595 -0.5053 -0.4198
  369TMC3     H 5578   2.906   4.107  13.205  0.8819 -1.3567 -0.7742
  369TMC3    H1 5579   2.692   3.802  13.037  0.5022  0.4293  3.2889
  369TMC3    H2 5580   2.791   4.142  12.795 -0.5421  1.0202  0.1097
  369TMC3    C7 5581   2.608   3.937  12.822  0.8523 -0.2914  0.1360
  369TMC3    C8 5582   2.972   4.206  12.963 -0.1921  0.0154  0.3662
  369TMC3    O1 5583   2.557   4.020  12.746  0.1272 -0.3444  0.2907
  369TMC3    O2 5584   2.974   4.259  12.852  0.1567 -0.0640 -0.2485
  370TMC3    C1 5585   2.858   4.539  15.876  0.0017  0.0229 -0.3154
  370TMC3    C2 5586   2.785   4.483  15.977  0.2188  0.2245 -0.4570
  370TMC3    C3 5587   2.755   4.348  15.975  0.3903 -0.1415  0.0027
  370TMC3    C4 5588   2.914   4.456  15.783  1.0442  0.4431 -0.7684
  370TMC3    C5 5589   2.884   4.326  15.789 -0.2914  1.2252 -0.2178
  370TMC3    C6 5590   2.806   4.265  15.886  0.6323 -1.0594 -0.0262
  370TMC3     C 5591   2.929   4.665  15.916 -0.4760 -0.2597 -0.4458
  370TMC3     O 5592   2.938   4.680  16.036 -0.3890  0.0489  0.5620
  370TMC3     H 5593   2.758   4.546  16.062 -2.3545  0.2453 -1.3025
  370TMC3    H1 5594   2.974   4.500  15.704 -1.6735  0.8315 -2.5951
  370TMC3    H2 5595   2.767   4.164  15.890 -1.1678 -0.4483 -2.2446
  370TMC3    C7 5596   2.941   4.237  15.686 -0.4345  0.3411  0.1265
  370TMC3    C8 5597   2.726   4.294  16.104  0.3200  0.8537 -0.2590
  370TMC3    O1 5598   2.984   4.299  15.588 -0.0956  0.0167 -0.4426
  370TMC3    O2 5599   2.654   4.198  16.112  0.1154  0.2128  0.3247
  371TMC3    C1 5600   4.076   2.449  15.500 -0.1870  0.4583 -0.2207
  371TMC3    C2 5601   3.947   2.485  15.542 -0.2109 -0.0312 -0.8092
  371TMC3    C3 5602   3.926   2.618  15.564 -0.3027 -0.3561  0.5080
  371TMC3    C4 5603   4.178   2.540  15.476 -0.3703  0.0238 -0.3937
  371TMC3    C5 5604   4.140   2.672  15.493 -0.0568 -0.6676 -0.6993
  371TMC3    C6 5605   4.020   2.706  15.541  0.5851  1.4782  0.7155
  371TMC3     C 5606   4.122   2.315  15.516 -0.1137 -0.0196 -0.4171
  371TMC3     O 5607   4.243   2.294  15.523 -0.4730  0.4543 -0.4203
  371TMC3     H 5608   3.893   2.405  15.591 -1.1505  0.9080 -0.3135
  371TMC3    H1 5609   4.280   2.522  15.445 -0.5780 -0.7114 -0.6577
  371TMC3    H2 5610   4.005   2.813  15.553  1.5257  1.6461  0.4062
  371TMC3    C7 5611   4.235   2.771  15.453 -0.1019  0.5308  0.1921
  371TMC3    C8 5612   3.856   2.642  15.692  0.5825 -0.0462  0.1974
  371TMC3    O1 5613   4.222   2.880  15.509  0.3386 -0.1076  0.1260
  371TMC3    O2 5614   3.878   2.562  15.781 -0.0213 -0.3368  0.3574
  372MPD2     C 5615   3.491   3.767  13.611  0.8454  0.2298 -0.5627
  372MPD2    C1 5616   3.620   3.721  13.641 -0.2156  0.1330  0.0261
  372MPD2    C2 5617   3.630   3.593  13.705 -0.4817  0.5908 -0.2964
  372MPD2    C3 5618   3.523   3.513  13.729  0.3479 -0.0994  0.2521
  372MPD2    C4 5619   3.399   3.564  13.697 -0.6283  0.0355  0.2453
  372MPD2    C5 5620   3.387   3.686  13.636 -0.2364  0.3243 -0.0668
  372MPD2     H 5621   3.725   3.573  13.751  0.3210 -1.4980 -2.8509
  372MPD2    H1 5622   3.303   3.515  13.709 -1.0176  0.6642 -0.3299
  372MPD2    H2 5623   3.467   3.868  13.580 -1.9230 -0.3003 -0.2092
  372MPD2    H3 5624   3.296   3.726  13.591 -1.6351 -1.1940  1.4037
  372MPD2     N 5625   3.541   3.385  13.786  0.1771 -0.3801 -0.3048
  372MPD2    H5 5626   3.635   3.352  13.805  1.7102  3.9592 -0.5160
  372MPD2    N1 5627   3.729   3.804  13.636 -0.0283 -0.2136 -0.5120
  372MPD2    H7 5628   3.815   3.761  13.668  0.9023  1.3729 -0.8901
  373TMC3    C1 5629   3.477   3.163  13.838  0.0303  0.3414 -0.4321
  373TMC3    C2 5630   3.401   3.090  13.917 -0.1649  0.0951 -0.1404
  373TMC3    C3 5631   3.407   2.950  13.898 -0.4013  0.0735 -0.0877
  373TMC3    C4 5632   3.585   3.108  13.777  0.0067 -0.4025 -0.1915
  373TMC3    C5 5633   3.594   2.970  13.761  0.0232 -0.4620  0.1351
  373TMC3    C6 5634   3.496   2.886  13.814 -0.1032  0.5182  0.0612
  373TMC3     C 5635   3.440   3.303  13.829 -0.3967  0.4415  0.4348
  373TMC3     O 5636   3.327   3.335  13.856 -0.5525  0.2602  0.2418
  373TMC3     H 5637   3.325   3.138  13.977 -0.7693  0.1627 -0.9567
  373TMC3    H1 5638   3.653   3.170  13.719  0.8352 -0.5969  0.5755
  373TMC3    H2 5639   3.502   2.778  13.813  0.8604  0.5749 -0.0390
  373TMC3    C7 5640   3.705   2.904  13.691  0.6910 -0.2163  0.3966
  373TMC3    C8 5641   3.317   2.877  13.983 -0.2825 -0.1341  0.5373
  373TMC3    O1 5642   3.813   2.954  13.713  0.7591  0.1956 -0.3613
  373TMC3    O2 5643   3.203   2.910  13.980  0.4294 -0.0935 -0.1454
  374TMC3    C1 5644   3.584   4.665  10.178  0.1299 -0.2579 -0.7997
  374TMC3    C2 5645   3.706   4.618  10.124  0.5763 -0.2902  0.0326
  374TMC3    C3 5646   3.752   4.693  10.017 -0.5649  0.2061 -0.0738
  374TMC3    C4 5647   3.498   0.000  10.104  0.0860  0.2397  0.1821
  374TMC3    C5 5648   3.555   0.069  10.003  0.1247 -0.7792  0.4071
  374TMC3    C6 5649   3.679   0.046   9.954 -0.0390 -0.2277 -0.4135
  374TMC3     C 5650   3.519   4.574  10.270 -0.4913 -0.1288 -0.9240
  374TMC3     O 5651   3.558   4.456  10.283  0.0349  0.0755 -0.3357
  374TMC3     H 5652   3.757   4.537  10.175  1.2167  2.0278  3.0917
  374TMC3    H1 5653   3.400   0.031  10.139 -0.8525 -1.4280 -0.9926
  374TMC3    H2 5654   3.730   0.103   9.877  0.6745 -0.2649  0.0338
  374TMC3    C7 5655   3.463   0.121   9.903  0.1320 -0.0108  0.7534
  374TMC3    C8 5656   3.886   4.669   9.959  0.6788 -0.1546 -0.1354
  374TMC3    O1 5657   3.355   0.161   9.946 -0.3595 -0.1020  0.0073
  374TMC3    O2 5658   3.924   4.734   9.864 -0.1163 -0.7734 -0.3591
  375MPD2     C 5659   4.320   4.688  16.850  0.4848  0.1271 -0.6625
  375MPD2    C1 5660   4.258   4.699  16.728  0.1555  0.1088  0.4103
  375MPD2    C2 5661   4.287   4.601  16.630 -0.3078  0.1794  0.2213
  375MPD2    C3 5662   4.377   4.500  16.659 -0.0407 -0.5361  0.2407
  375MPD2    C4 5663   4.450   4.499  16.781 -0.4583  0.1251 -0.3349
  375MPD2    C5 5664   4.412   4.592  16.879  0.6531  0.5752 -0.7965
  375MPD2     H 5665   4.246   4.606  16.529  0.0171 -0.5534  0.0570
  375MPD2    H1 5666   4.520   4.420  16.806  1.9023  1.4876 -2.6950
  375MPD2    H2 5667   4.284   0.002  16.937 -0.1692 -0.4691 -0.5604
  375MPD2    H3 5668   4.440   4.571  16.982  2.2643  0.1193 -1.3290
  375MPD2     N 5669   4.408   4.398  16.567 -0.3587 -0.5967  0.2543
  375MPD2    H5 5670   4.489   4.338  16.578  0.7932  0.7434 -0.8128
  375MPD2    N1 5671   4.165   0.065  16.700  0.2190 -0.3575  0.3261
  375MPD2    H7 5672   4.120   0.055  16.610 -0.2408  1.7794  0.3012
  376TMC3    C1 5673   4.395   4.260  16.376  0.5409 -0.2519  0.8358
  376TMC3    C2 5674   4.525   4.223  16.404 -0.3888 -0.2389  0.8552
  376TMC3    C3 5675   4.592   4.162  16.303  0.1011  0.3555  0.4203
  376TMC3    C4 5676   4.345   4.249  16.249 -0.1070 -0.2641  0.3869
  376TMC3    C5 5677   4.423   4.199  16.149 -0.2493 -1.1375 -0.2985
  376TMC3    C6 5678   4.550   4.161  16.175  0.3112  0.5362  0.0138
  376TMC3     C 5679   4.325   4.356  16.467  0.0419  0.5222  0.1336
  376TMC3     O 5680   4.212   4.393  16.432 -0.4508  0.6084  0.3223
  376TMC3     H 5681   4.563   4.214  16.505  1.5175  1.9289  0.3353
  376TMC3    H1 5682   4.246   4.279  16.217  0.2822  0.4255 -0.1921
  376TMC3    H2 5683   4.613   4.117  16.099 -0.8020 -1.0767  0.0316
  376TMC3    C7 5684   4.415   4.296  16.045 -0.6351 -0.3334 -0.2862
  376TMC3    C8 5685   4.732   4.183  16.310  0.1112  1.1471  0.2467
  376TMC3    O1 5686   4.345   4.395  16.061 -0.5461 -0.3917  0.0926
  376TMC3    O2 5687   0.033   4.260  16.222 -0.0099 -0.0637  0.6420
  377MPD2     C 5688   1.650   4.229  11.749 -0.1197 -0.3936  0.3156
  377MPD2    C1 5689   1.711   4.239  11.864  0.1990 -1.1759 -0.1047
  377MPD2    C2 5690   1.633   4.238  11.983  0.6101 -0.3067 -0.1800
  377MPD2    C3 5691   1.497   4.243  11.978  0.8028 -0.3274  0.1814
  377MPD2    C4 5692   1.435   4.223  11.851 -0.6118  0.2238 -0.1874
  377MPD2    C5 5693   1.516   4.213  11.739  0.7252  0.3723  0.2904
  377MPD2     H 5694   1.691   4.257  12.073 -2.3258  0.6624  1.5066
  377MPD2    H1 5695   1.327   4.215  11.840 -0.8660  0.2619  2.1711
  377MPD2    H2 5696   1.703   4.230  11.654  3.6114  0.7179  2.3848
  377MPD2    H3 5697   1.474   4.207  11.640  1.2027  3.1117 -0.0983
  377MPD2     N 5698   1.411   4.246  12.096 -0.4056 -0.2260 -0.0242
  377MPD2    H5 5699   1.313   4.225  12.079 -0.1334  1.4062 -3.6330
  377MPD2    N1 5700   1.855   4.259  11.864  0.3333 -0.5576  0.4277
  377MPD2    H7 5701   1.895   4.233  11.775 -0.6250  0.9421 -0.4394
  378TMC3    C1 5702   2.267   4.314  11.816 -0.4745  0.4131  0.5383
  378TMC3    C2 5703   2.128   4.306  11.822 -0.4606 -0.3596  0.0652
  378TMC3    C3 5704   2.073   4.295  11.952  0.1994  0.0215  0.0022
  378TMC3    C4 5705   2.353   4.318  11.924 -0.4025  0.2653 -0.3278
  378TMC3    C5 5706   2.294   4.298  12.047  0.3165  0.2219  0.0172
  378TMC3    C6 5707   2.157   4.288  12.060  0.4107  0.6272 -0.5193
  378TMC3     C 5708   2.318   4.350  11.684  0.0018 -0.1554  0.0428
  378TMC3     O 5709   2.232   4.376  11.599 -0.4892 -0.8428 -0.0711
  378TMC3     H 5710   2.069   4.317  11.732 -0.3430  0.6419  0.1129
  378TMC3    H1 5711   2.460   4.311  11.914 -0.7590  1.4464 -4.7145
  378TMC3    H2 5712   2.115   4.270  12.159  2.1472  2.4717  0.5521
  378TMC3    C7 5713   2.369   4.282  12.166  0.4858  0.0851 -0.5761
  378TMC3    C8 5714   1.930   4.279  11.977 -0.8738  0.6809 -0.3070
  378TMC3    O1 5715   2.311   4.274  12.269 -0.4701 -0.5084  0.1312
  378TMC3    O2 5716   1.896   4.307  12.089 -0.0105 -0.7188 -0.3832
  379MPD2     C 5717   3.526   2.555  16.395 -0.0758 -0.8798 -0.4733
  379MPD2    C1 5718   3.442   2.506  16.491 -0.0645 -0.1923  0.4041
  379MPD2    C2 5719   3.497   2.421  16.590 -0.1961 -0.5881 -0.2399
  379MPD2    C3 5720   3.631   2.402  16.600  0.4318 -0.0294  0.0824
  379MPD2    C4 5721   3.720   2.450  16.507  0.0145  0.4909 -0.4407
  379MPD2    C5 5722   3.664   2.528  16.402  0.0685 -0.0561  0.4586
  379MPD2     H 5723   3.435   2.394  16.675 -0.8373  0.2871 -0.4268
  379MPD2    H1 5724   3.827   2.448  16.524  0.0011 -0.6067 -0.5133
  379MPD2    H2 5725   3.488   2.622  16.319  1.1062 -0.4539 -0.6951
  379MPD2    H3 5726   3.729   2.572  16.327 -1.1925 -1.0832 -1.2300
  379MPD2     N 5727   3.686   2.313  16.700 -0.1329  1.0214 -0.0884
  379MPD2    H5 5728   3.784   2.288  16.706 -0.5246 -0.3133  0.5724
  379MPD2    N1 5729   3.306   2.539  16.483  0.1063 -0.0542  0.0467
  379MPD2    H7 5730   3.268   2.570  16.394  0.5375  2.4004  0.7127
  380TMC3    C1 5731   3.077   2.518  16.492 -0.2375 -0.5427 -0.4339
  380TMC3    C2 5732   3.007   2.400  16.461  0.3266 -0.2579  0.5685
  380TMC3    C3 5733   2.916   2.403  16.356  0.8294 -0.3283  0.3836
  380TMC3    C4 5734   3.068   2.624  16.409  0.7890 -0.0254 -0.5165
  380TMC3    C5 5735   2.991   2.621  16.295  0.2513  0.0796  0.3711
  380TMC3    C6 5736   2.913   2.514  16.273 -0.0818  0.1233  0.2213
  380TMC3     C 5737   3.205   2.489  16.561 -0.0393  0.8075  0.6169
  380TMC3     O 5738   3.221   2.418  16.659  0.0770  0.2693 -0.1055
  380TMC3     H 5739   3.033   2.307  16.510 -1.0954 -0.8265  0.2220
  380TMC3    H1 5740   3.129   2.710  16.435  1.6108 -0.5267 -0.8095
  380TMC3    H2 5741   2.835   2.511  16.198 -0.1658 -0.9892  0.3586
  380TMC3    C7 5742   3.025   2.713  16.193  0.4627 -1.0568 -0.5813
  380TMC3    C8 5743   2.909   2.270  16.289  0.0486  0.1208 -0.2807
  380TMC3    O1 5744   3.144   2.737  16.189  0.0692  0.6163  0.0509
  380TMC3    O2 5745   2.929   2.166  16.355  0.2991  0.2147 -0.0868
  381TMC3    C1 5746   2.574   3.671  15.944  0.0305  0.5583  0.6221
  381TMC3    C2 5747   2.669   3.771  15.935  0.0942 -0.5935 -0.0511
  381TMC3    C3 5748   2.666   3.875  16.018  0.3067  0.1895 -0.4126
  381TMC3    C4 5749   2.463   3.692  16.015 -0.1550 -0.0628  0.7077
  381TMC3    C5 5750   2.458   3.792  16.104  0.1608 -0.2587 -0.5308
  381TMC3    C6 5751   2.563   3.882  16.115 -0.2435  0.0705 -0.5450
  381TMC3     C 5752   2.600   3.536  15.912 -0.5707 -0.2293  0.1987
  381TMC3     O 5753   2.526   3.448  15.961 -0.8875  0.1726  0.5131
  381TMC3     H 5754   2.759   3.773  15.874  0.6246 -1.3470  0.7137
  381TMC3    H1 5755   2.392   3.610  16.016 -2.3318  1.7715 -1.8218
  381TMC3    H2 5756   2.566   3.961  16.188 -0.6828 -0.7785  0.3997
  381TMC3    C7 5757   2.351   3.784  16.213 -0.3214  0.0011 -0.4489
  381TMC3    C8 5758   2.794   3.935  16.059 -0.5846  0.3883  0.2867
  381TMC3    O1 5759   2.305   3.678  16.247 -0.6523  0.1878 -0.4363
  381TMC3    O2 5760   2.884   3.936  15.979  0.5155  0.0601  0.0380
  382MPD2     C 5761   2.345   1.238  16.735  0.2359  0.0025 -0.7484
  382MPD2    C1 5762   2.340   1.263  16.866  0.1915  0.0010 -0.3256
  382MPD2    C2 5763   2.269   1.178  16.948  0.1169 -0.3910  0.6336
  382MPD2    C3 5764   2.185   1.081  16.903 -0.5894  0.1573  1.0253
  382MPD2    C4 5765   2.191   1.059  16.765 -0.5303 -0.6514 -0.2576
  382MPD2    C5 5766   2.274   1.133  16.682  0.3020  0.0932 -0.3143
  382MPD2     H 5767   2.289   1.184  17.054 -0.3452 -0.3492  0.7191
  382MPD2    H1 5768   2.115   0.995  16.721 -0.7742 -0.5182 -0.0326
  382MPD2    H2 5769   2.396   1.299  16.662  0.2398  0.1843 -0.5951
  382MPD2    H3 5770   2.278   1.109  16.576 -1.5200 -3.3192  0.3868
  382MPD2     N 5771   2.085   1.012  16.975  0.1420  0.0984 -0.1682
  382MPD2    H5 5772   2.020   0.951  16.927  0.6989  1.6504 -2.9029
  382MPD2    N1 5773   2.401   1.379  16.913  0.2885  0.4202 -0.5163
  382MPD2    H7 5774   2.377   1.396  17.010 -0.7112 -0.1183 -0.6762
  383TMC3    C1 5775   1.937   0.953  17.142  0.5935 -0.0550 -0.6078
  383TMC3    C2 5776   1.927   0.837  17.071 -0.5195  0.5897 -0.3292
  383TMC3    C3 5777   1.802   0.792  17.051  0.1447 -0.1158  0.6309
  383TMC3    C4 5778   1.827   1.024  17.176 -0.3270 -0.4091 -0.2815
  383TMC3    C5 5779   1.704   0.985  17.129  0.0065  0.7103 -1.0238
  383TMC3    C6 5780   1.689   0.868  17.071 -0.5597  0.3743  0.8593
  383TMC3     C 5781   2.043   1.039  17.108 -0.0984 -0.5943 -0.5565
  383TMC3     O 5782   2.074   1.128  17.185  0.1013 -0.0878  0.5434
  383TMC3     H 5783   2.012   0.780  17.034 -0.6824  0.2489 -0.1757
  383TMC3    H1 5784   1.841   1.113  17.236  0.3457  0.2995 -1.5056
  383TMC3    H2 5785   1.587   0.830  17.064 -0.1778 -0.4559 -0.1204
  383TMC3    C7 5786   1.592   1.061  17.180  0.0369  0.6077 -0.3190
  383TMC3    C8 5787   1.779   0.658  17.020  0.5431  0.5098  0.1231
  383TMC3    O1 5788   1.499   1.011  17.242  0.4271  0.4916 -0.2972
  383TMC3    O2 5789   1.875   0.588  17.044  0.4067  0.6234  0.4705
  384MPD2     C 5790   3.226   2.394  11.983  0.2333 -0.0673  0.0051
  384MPD2    C1 5791   3.207   2.264  12.028  0.4460 -0.6204 -0.6830
  384MPD2    C2 5792   3.300   2.166  11.994  0.4181 -0.5256  0.4691
  384MPD2    C3 5793   3.415   2.205  11.922  0.4759  0.2293 -0.3886
  384MPD2    C4 5794   3.429   2.337  11.883 -0.4387  0.6631  0.2015
  384MPD2    C5 5795   3.329   2.432  11.906 -0.3849  0.3685 -0.1318
  384MPD2     H 5796   3.294   2.066  12.035  0.3758 -1.7220 -2.4776
  384MPD2    H1 5797   3.521   2.371  11.838 -0.2801  0.4131  0.3379
  384MPD2    H2 5798   3.143   2.464  11.994 -1.1356 -1.7292  0.2687
  384MPD2    H3 5799   3.343   2.533  11.870  0.7321  0.3820  0.3461
  384MPD2     N 5800   3.533   2.121  11.905  0.3924 -0.5871  0.5964
  384MPD2    H5 5801   3.619   2.158  11.868  0.3164 -0.9583  0.0582
  384MPD2    N1 5802   3.096   2.241  12.121  0.2945  0.2532 -0.6812
  384MPD2    H7 5803   3.036   2.318  12.147 -0.8595 -0.9537  0.2233
  385TMC3    C1 5804   3.663   1.935  11.963 -0.9138  0.7457  0.0350
  385TMC3    C2 5805   3.667   1.803  11.933 -0.6908  0.7588  0.2940
  385TMC3    C3 5806   3.746   1.725  12.011 -0.2561 -0.2467 -0.6570
  385TMC3    C4 5807   3.734   1.997  12.058  0.1816 -0.1981 -0.4313
  385TMC3    C5 5808   3.806   1.909  12.142  0.8060  0.5546 -0.1068
  385TMC3    C6 5809   3.818   1.778  12.119  0.0448  0.3924 -0.8942
  385TMC3     C 5810   3.532   1.989  11.943  0.6598 -0.4648 -0.2669
  385TMC3     O 5811   3.443   1.906  11.954 -0.8578 -0.1720 -0.4451
  385TMC3     H 5812   3.613   1.767  11.846  0.0482 -0.6315  0.4033
  385TMC3    H1 5813   3.715   2.103  12.070  0.8055 -0.2691  1.2695
  385TMC3    H2 5814   3.875   1.707  12.178 -1.9964 -0.4089  0.1470
  385TMC3    C7 5815   3.761   1.953  12.278  0.5072  0.4643  0.2902
  385TMC3    C8 5816   3.769   1.589  11.971  0.5338 -0.2508 -0.8386
  385TMC3    O1 5817   3.716   2.066  12.288  0.1197 -0.2376 -0.5739
  385TMC3    O2 5818   3.842   1.518  12.039 -0.1711  0.1310 -0.4551
  386TMC3    C1 5819   4.118   4.188  11.710  0.0376 -0.0561  0.0295
  386TMC3    C2 5820   4.108   4.244  11.591 -1.5021 -0.2409  0.1195
  386TMC3    C3 5821   4.002   4.326  11.578 -0.1911  0.2055  0.2137
  386TMC3    C4 5822   4.025   4.188  11.811  0.1921 -0.5459 -0.1547
  386TMC3    C5 5823   3.914   4.261  11.778  0.1626  0.1205  0.7784
  386TMC3    C6 5824   3.897   4.333  11.662  1.0751  0.3359  0.1256
  386TMC3     C 5825   4.241   4.109  11.730  0.4601 -1.4283 -0.4344
  386TMC3     O 5826   4.344   4.141  11.670 -0.1187 -0.5857  0.5984
  386TMC3     H 5827   4.182   4.242  11.511 -1.9624  1.6776 -0.3504
  386TMC3    H1 5828   4.045   4.145  11.908  1.1730 -2.6418 -1.2910
  386TMC3    H2 5829   3.822   4.407  11.634 -0.7339 -1.2628  0.8055
  386TMC3    C7 5830   3.816   4.283  11.884 -0.3103 -0.6643 -0.2924
  386TMC3    C8 5831   3.961   4.346  11.438  0.5546  0.6425 -0.8001
  386TMC3    O1 5832   3.838   4.238  11.999 -0.3171 -0.0508 -0.0522
  386TMC3    O2 5833   3.903   4.450  11.418 -0.0959 -0.1240 -0.4772
  387MPD2     C 5834   1.275   4.693  10.302 -0.4768 -0.0101  0.4915
  387MPD2    C1 5835   1.392   4.630  10.294 -0.4469 -0.3702  0.2133
  387MPD2    C2 5836   1.392   4.495  10.251  0.0419 -0.7567  0.4370
  387MPD2    C3 5837   1.276   4.419  10.231 -0.1641 -0.1967  0.2186
  387MPD2    C4 5838   1.159   4.492  10.238 -0.3081 -1.1226 -0.5020
  387MPD2    C5 5839   1.154   4.626  10.279 -0.6640  0.0101  0.3112
  387MPD2     H 5840   1.489   4.446  10.254 -0.6013 -1.9965  0.8977
  387MPD2    H1 5841   1.065   4.450  10.206 -1.4151  0.5012  0.6341
  387MPD2    H2 5842   1.271   0.055  10.336  0.0484 -1.5441  5.1100
  387MPD2    H3 5843   1.063   4.683  10.293  0.1467  1.1570  0.8445
  387MPD2     N 5844   1.290   4.286  10.200 -0.1755 -0.1949  0.5392
  387MPD2    H5 5845   1.384   4.247  10.209  0.1155  0.4094  0.1646
  387MPD2    N1 5846   1.519   4.684  10.324 -0.1372 -0.5148  0.2021
  387MPD2    H7 5847   1.597   4.619  10.320  0.6804  0.5082 -0.4667
  388TMC3    C1 5848   1.698   0.101  10.330 -0.4214  0.4019  0.2277
  388TMC3    C2 5849   1.733   0.224  10.273 -0.2909  0.2205 -0.8833
  388TMC3    C3 5850   1.839   0.235  10.187  0.2439 -0.7606 -0.4072
  388TMC3    C4 5851   1.772   4.729  10.297 -0.8350  0.1210  0.2368
  388TMC3    C5 5852   1.872   4.740  10.208 -0.5356 -0.1307  0.1609
  388TMC3    C6 5853   1.917   0.124  10.162 -0.5521 -0.4084  0.3579
  388TMC3     C 5854   1.556   0.074  10.343  0.1954  0.2989 -0.8074
  388TMC3     O 5855   1.484   0.171  10.357 -0.2480  0.2744  0.5130
  388TMC3     H 5856   1.673   0.311  10.298 -0.5944 -0.2338 -0.0075
  388TMC3    H1 5857   1.765   4.642  10.362 -1.5979  0.4206  0.5616
  388TMC3    H2 5858   2.006   0.121  10.100 -0.9697  1.9113 -0.3232
  388TMC3    C7 5859   1.897   4.630  10.117  0.0299  0.8928  0.1361
  388TMC3    C8 5860   1.860   0.349  10.111  0.0277  0.6434  0.6332
  388TMC3    O1 5861   1.956   4.655  10.011  0.4849  0.0745  0.0660
  388TMC3    O2 5862   1.907   0.325  10.000  0.1026 -0.6257  0.4867
  389MPD2     C 5863   0.667   2.672  10.766  0.7045  0.6285 -0.7387
  389MPD2    C1 5864   0.542   2.639  10.736  0.0415  0.0983  0.2377
  389MPD2    C2 5865   0.473   2.556  10.823  0.3015 -0.5282  0.4082
  389MPD2    C3 5866   0.533   2.511  10.945  0.2869 -0.4360 -0.0078
  389MPD2    C4 5867   0.658   2.550  10.965 -0.2208  0.3500 -0.4093
  389MPD2    C5 5868   0.726   2.626  10.879 -0.7166  0.1754 -0.2014
  389MPD2     H 5869   0.375   2.534  10.784  0.4234 -2.4036  1.1676
  389MPD2    H1 5870   0.722   2.498  11.036 -0.3533  1.2424  0.3656
  389MPD2    H2 5871   0.732   2.726  10.700  1.3987  0.7655  0.0572
  389MPD2    H3 5872   0.830   2.640  10.905 -0.4693 -1.5009 -0.3068
  389MPD2     N 5873   0.487   2.407  11.026  0.1419 -0.1129 -0.3749
  389MPD2    H5 5874   0.535   2.391  11.114 -0.0901  1.0033 -0.0490
  389MPD2    N1 5875   0.490   2.695  10.616 -0.3078 -0.1690  0.3357
  389MPD2    H7 5876   0.545   2.773  10.582  0.8878 -0.3021  1.9478
  390TMC3    C1 5877   0.374   2.217  11.096 -0.4177 -0.3132 -0.1974
  390TMC3    C2 5878   0.347   2.087  11.049  0.1863 -0.3925 -0.2706
  390TMC3    C3 5879   0.238   2.029  11.114 -0.3624 -0.2012  0.2255
  390TMC3    C4 5880   0.304   2.269  11.208 -0.2375 -0.1534 -0.0638
  390TMC3    C5 5881   0.216   2.187  11.276  0.0795 -0.0218 -0.2540
  390TMC3    C6 5882   0.176   2.065  11.229  0.0547  0.1520 -0.1258
  390TMC3     C 5883   0.389   2.317  10.993 -0.2028 -0.0846 -0.0280
  390TMC3     O 5884   0.329   2.299  10.890  0.1730  0.5466  0.0783
  390TMC3     H 5885   0.399   2.044  10.963  0.3813  0.7938 -0.7424
  390TMC3    H1 5886   0.327   2.368  11.245  3.4562  0.3966 -3.8084
  390TMC3    H2 5887   0.088   2.009  11.260  1.2418 -0.8859  1.3792
  390TMC3    C7 5888   0.123   2.247  11.360 -0.3155 -0.4435  0.4535
  390TMC3    C8 5889   0.153   1.947  11.028 -0.1913  0.0001  0.0869
  390TMC3    O1 5890   0.053   2.340  11.318  0.2975 -0.1250 -0.3045
  390TMC3    O2 5891   0.090   1.856  11.081 -0.7875  0.5307 -0.5014
  391MPD2     C 5892   4.569   3.662  10.971 -0.1349  0.0285  0.1305
  391MPD2    C1 5893   4.665   3.756  10.976 -0.3403 -0.4303 -0.1540
  391MPD2    C2 5894   4.646   3.875  10.912  0.3612  0.3968 -0.6650
  391MPD2    C3 5895   4.528   3.891  10.839  0.0285 -0.5985 -0.2704
  391MPD2    C4 5896   4.435   3.787  10.832  0.4311 -0.3515 -0.1701
  391MPD2    C5 5897   4.456   3.670  10.902  0.6092  1.1027 -0.4745
  391MPD2     H 5898   4.713   3.960  10.916 -0.3557  0.8301  1.7425
  391MPD2    H1 5899   4.346   3.796  10.771  0.1400  3.5099  0.8179
  391MPD2    H2 5900   4.578   3.572  11.031  0.0079 -0.2166 -0.2591
  391MPD2    H3 5901   4.386   3.588  10.890  0.0267  1.4485  0.5860
  391MPD2     N 5902   4.503   4.010  10.764  0.0508 -0.7558  0.0526
  391MPD2    H5 5903   4.576   4.078  10.783  0.9256 -1.5264 -0.5653
  391MPD2    N1 5904   0.039   3.731  11.058 -0.0346  0.3429  0.0753
  391MPD2    H7 5905   0.042   3.645  11.111  1.5622  0.2244 -0.2178
  392TMC3    C1 5906   4.435   4.165  10.611  0.1859  0.1329  0.5268
  392TMC3    C2 5907   4.354   4.185  10.503 -0.4305 -0.1994  0.4403
  392TMC3    C3 5908   4.401   4.273  10.411 -0.6069 -0.0027  0.8297
  392TMC3    C4 5909   4.551   4.237  10.635 -0.1852 -0.6539 -0.8363
  392TMC3    C5 5910   4.586   4.331  10.543  0.9734 -0.0228 -0.7013
  392TMC3    C6 5911   4.518   4.344  10.425 -0.0187  0.1259 -0.6778
  392TMC3     C 5912   4.403   4.046  10.687  0.9475  0.0692  0.5729
  392TMC3     O 5913   4.305   3.982  10.659 -0.6135 -0.1206 -0.1333
  392TMC3     H 5914   4.260   4.132  10.504  0.8346 -2.4615 -0.3605
  392TMC3    H1 5915   4.617   4.223  10.720  2.5236 -2.0485 -3.1647
  392TMC3    H2 5916   4.542   4.421  10.353  1.6718 -0.5627 -0.8599
  392TMC3    C7 5917   4.699   4.419  10.581  0.2740 -0.0584  1.2105
  392TMC3    C8 5918   4.308   4.325  10.312 -0.4258 -0.3488  0.1556
  392TMC3    O1 5919   0.033   4.393  10.672 -0.2923  0.7596 -0.1019
  392TMC3    O2 5920   4.194   4.334  10.358 -0.2147  0.4885  0.6032
  393TMC3    C1 5921   3.258   2.356  10.688  0.0763  1.0440  0.0301
  393TMC3    C2 5922   3.133   2.405  10.686 -0.7958 -0.0352  0.9028
  393TMC3    C3 5923   3.036   2.348  10.766 -0.1716 -0.9393 -0.8722
  393TMC3    C4 5924   3.283   2.242  10.752 -0.2279  0.3092  1.1355
  393TMC3    C5 5925   3.188   2.186  10.820  0.0235  0.0234  0.6248
  393TMC3    C6 5926   3.061   2.228  10.831 -0.0251 -0.1210 -0.3812
  393TMC3     C 5927   3.356   2.438  10.618 -0.1737  0.2271 -0.0109
  393TMC3     O 5928   3.311   2.518  10.536 -0.8823 -0.3473  0.8319
  393TMC3     H 5929   3.101   2.491  10.628  1.1279 -1.7785 -2.7616
  393TMC3    H1 5930   3.377   2.189  10.744  0.1784  0.9512  1.6643
  393TMC3    H2 5931   2.984   2.180  10.890 -0.4225  0.0206 -0.7886
  393TMC3    C7 5932   3.231   2.102  10.935  0.0477  0.6983  0.1592
  393TMC3    C8 5933   2.965   2.440  10.848 -0.6051  0.5155  0.1595
  393TMC3    O1 5934   3.151   2.089  11.024 -0.3561  0.7329 -0.1441
  393TMC3    O2 5935   3.001   2.556  10.823 -0.1443  0.4432  0.4045
  394TMC3    C1 5936   0.343   2.762  10.443 -0.8503  0.4456  0.1969
  394TMC3    C2 5937   0.225   2.733  10.374 -0.6061 -0.0843 -1.6351
  394TMC3    C3 5938   0.184   2.819  10.272 -0.1081  0.3457 -0.0829
  394TMC3    C4 5939   0.428   2.862  10.407 -0.0994 -0.3351  0.1023
  394TMC3    C5 5940   0.388   2.932  10.290 -0.9221  0.0590  0.5575
  394TMC3    C6 5941   0.265   2.916  10.227  0.7408  0.7379  0.4979
  394TMC3     C 5942   0.371   2.666  10.553 -0.0137 -0.3059 -0.0660
  394TMC3     O 5943   0.293   2.571  10.575  0.1963 -0.6100 -0.1474
  394TMC3     H 5944   0.154   2.657  10.406  0.2209 -1.4779 -3.1130
  394TMC3    H1 5945   0.525   2.870  10.453 -0.2245  1.9119  0.0027
  394TMC3    H2 5946   0.234   2.980  10.145 -0.8698 -0.6163  0.0635
  394TMC3    C7 5947   0.482   3.032  10.237  0.1193  0.1314 -0.1903
  394TMC3    C8 5948   0.065   2.804  10.193  0.0291  0.3529 -0.1919
  394TMC3    O1 5949   0.577   3.064  10.308  0.0686 -0.2345  0.1221
  394TMC3    O2 5950   0.030   2.900  10.125 -0.1204 -0.0150  0.5410
  395TMC3    C1 5951   0.655   4.219  14.799  0.8977  0.3367 -0.4600
  395TMC3    C2 5952   0.525   4.261  14.794  0.0580  0.3591  0.2489
  395TMC3    C3 5953   0.501   4.393  14.781  0.2065  0.5618  0.1348
  395TMC3    C4 5954   0.762   4.303  14.797 -0.1458 -0.1039 -0.1488
  395TMC3    C5 5955   0.728   4.437  14.788 -1.0702  0.1748  0.1200
  395TMC3    C6 5956   0.605   4.482  14.800 -0.1198 -0.4465 -0.1696
  395TMC3     C 5957   0.676   4.095  14.875  0.2777 -0.0914 -0.1863
  395TMC3     O 5958   0.757   4.008  14.845 -0.2902 -0.0978  0.2626
  395TMC3     H 5959   0.443   4.190  14.791 -2.3520  3.0124  3.0011
  395TMC3    H1 5960   0.863   4.264  14.807 -0.9361 -2.4961 -1.6476
  395TMC3    H2 5961   0.580   4.588  14.795  0.3499 -0.3872 -1.1754
  395TMC3    C7 5962   0.830   4.538  14.819  0.3103  0.2250 -0.4530
  395TMC3    C8 5963   0.361   4.445  14.786  0.5236 -0.7060 -0.0773
  395TMC3    O1 5964   0.787   4.653  14.809 -0.0839  0.2314 -0.0415
  395TMC3    O2 5965   0.333   4.534  14.860  0.4006 -0.6969 -0.1064
  396MPD2     C 5966   0.749   1.280  17.418  0.1907 -0.5346  0.0296
  396MPD2    C1 5967   0.682   1.198  17.331 -0.3389 -0.1806  0.0369
  396MPD2    C2 5968   0.624   1.254  17.213  0.0052  1.0387  0.3864
  396MPD2    C3 5969   0.636   1.391  17.194  1.4512  0.5285  0.4786
  396MPD2    C4 5970   0.688   1.471  17.289 -0.2190  0.5708 -0.3826
  396MPD2    C5 5971   0.746   1.414  17.398  0.0025 -0.2609 -0.0190
  396MPD2     H 5972   0.570   1.203  17.133  0.3238 -1.0963  1.5247
  396MPD2    H1 5973   0.694   1.579  17.285  0.0746  0.5490 -0.5947
  396MPD2    H2 5974   0.795   1.246  17.510 -0.7330 -1.4925  0.1492
  396MPD2    H3 5975   0.794   1.469  17.478 -0.4129 -0.7467  0.5726
  396MPD2     N 5976   0.596   1.454  17.077  0.2846 -0.4178 -0.1533
  396MPD2    H5 5977   0.608   1.554  17.079  1.1285 -0.5219  0.3393
  396MPD2    N1 5978   0.704   1.058  17.365  0.0665 -0.2888 -0.5469
  396MPD2    H7 5979   0.756   1.039  17.450 -1.8867 -1.0604  0.4707
  397TMC3    C1 5980   0.697   0.817  17.338 -0.0778 -0.2788 -0.1177
  397TMC3    C2 5981   0.718   0.739  17.229 -0.4023  0.3774 -0.9964
  397TMC3    C3 5982   0.651   0.619  17.218  0.0922  0.4235  0.3892
  397TMC3    C4 5983   0.623   0.788  17.444 -0.1198  0.5360  0.6046
  397TMC3    C5 5984   0.560   0.670  17.430 -0.0759 -0.4106 -0.1847
  397TMC3    C6 5985   0.576   0.580  17.322  0.0960  0.0094  0.6090
  397TMC3     C 5986   0.665   0.954  17.287  0.3526 -0.0686 -0.1094
  397TMC3     O 5987   0.605   0.962  17.179  0.1613 -0.1389 -0.0865
  397TMC3     H 5988   0.760   0.786  17.142  2.3964 -1.3965 -0.6028
  397TMC3    H1 5989   0.584   0.871  17.502  1.7810  0.7268  1.5938
  397TMC3    H2 5990   0.515   0.490  17.318 -0.6952  0.5743  0.0112
  397TMC3    C7 5991   0.454   0.641  17.528 -0.0677 -0.1461 -0.0543
  397TMC3    C8 5992   0.668   0.532  17.111 -0.4140  0.3007  1.3926
  397TMC3    O1 5993   0.362   0.565  17.492 -0.4002  0.4256 -0.1464
  397TMC3    O2 5994   0.591   0.436  17.094  1.2017 -0.5029  0.0870
  398MPD2     C 5995   4.044   3.139   0.873  0.0575 -0.4023 -0.0738
  398MPD2    C1 5996   4.027   3.001   0.859 -0.0024  0.3470  0.6038
  398MPD2    C2 5997   4.120   2.929   0.784 -0.1437  0.2437  0.8658
  398MPD2    C3 5998   4.222   2.991   0.720  0.2826  0.4885  0.5753
  398MPD2    C4 5999   4.237   3.125   0.725 -0.0510  0.0728 -0.0470
  398MPD2    C5 6000   4.153   3.199   0.809  0.1186  0.3928  0.0996
  398MPD2     H 6001   4.115   2.821   0.790 -2.5079  0.3260  0.2913
  398MPD2    H1 6002   4.321   3.179   0.683 -0.2034 -1.0468 -1.7421
  398MPD2    H2 6003   3.981   3.206   0.930  0.1255  1.5198 -2.2623
  398MPD2    H3 6004   4.160   3.307   0.817 -0.0677  0.4267 -0.2248
  398MPD2     N 6005   4.315   2.912   0.646  1.0462  0.2897  0.6120
  398MPD2    H5 6006   4.292   2.813   0.646 -1.5174  0.8939 -1.4803
  398MPD2    N1 6007   3.922   2.926   0.924 -0.3521 -0.4920 -0.1402
  398MPD2    H7 6008   3.918   2.826   0.910  0.7287 -0.5897  0.2469
  399TMC3    C1 6009   3.742   2.879   1.073  0.5018  0.0722  0.3457
  399TMC3    C2 6010   3.685   2.912   1.190  0.2491  0.0127 -0.3055
  399TMC3    C3 6011   3.556   2.875   1.212 -0.2808  0.1906  0.3256
  399TMC3    C4 6012   3.675   2.808   0.975 -0.4510 -0.0202 -0.5574
  399TMC3    C5 6013   3.546   2.766   1.006  0.5450  0.1379 -0.1133
  399TMC3    C6 6014   3.485   2.803   1.122  0.2672 -0.4704  0.7338
  399TMC3     C 6015   3.834   2.984   1.023 -0.5100  0.2565  1.0271
  399TMC3     O 6016   3.856   3.080   1.098 -0.0673  0.2071  0.4906
  399TMC3     H 6017   3.744   2.967   1.263  0.2917  1.3174 -1.3245
  399TMC3    H1 6018   3.706   2.808   0.871  2.4910  0.4872  0.3314
  399TMC3    H2 6019   3.382   2.779   1.146 -0.3510  0.3933 -1.0184
  399TMC3    C7 6020   3.481   2.674   0.911  0.4473 -0.0336 -0.2544
  399TMC3    C8 6021   3.496   2.911   1.340  0.3029  0.1022  0.2835
  399TMC3    O1 6022   3.364   2.651   0.924 -0.1211 -0.4351 -0.1135
  399TMC3    O2 6023   3.562   2.988   1.405 -0.4155  0.2808 -0.0175
  400TMC3    C1 6024   1.963   0.567  16.667 -0.9510 -0.4981 -0.1146
  400TMC3    C2 6025   1.965   0.433  16.673 -0.0655  0.1234 -1.1108
  400TMC3    C3 6026   1.858   0.369  16.615  0.5362  0.4021 -0.1172
  400TMC3    C4 6027   1.867   0.646  16.607 -0.2386 -0.2870  0.0943
  400TMC3    C5 6028   1.771   0.572  16.542 -0.3019 -0.3196 -0.7763
  400TMC3    C6 6029   1.764   0.435  16.552 -0.2259  0.6491  0.5052
  400TMC3     C 6030   2.076   0.650  16.712 -0.8280 -0.6600 -0.1776
  400TMC3     O 6031   2.112   0.757  16.663 -0.2531 -0.0506  0.0260
  400TMC3     H 6032   2.051   0.375  16.705  0.7531  2.0145  0.0757
  400TMC3    H1 6033   1.887   0.752  16.600  0.0695 -0.3552 -0.0703
  400TMC3    H2 6034   1.674   0.380  16.529  0.1259  0.8129 -1.3138
  400TMC3    C7 6035   1.660   0.646  16.480 -0.4402  0.5969 -0.3535
  400TMC3    C8 6036   1.857   0.226  16.614 -0.4705 -0.5039  0.0546
  400TMC3    O1 6037   1.593   0.571  16.412  0.0360  0.6669 -0.1086
  400TMC3    O2 6038   1.930   0.175  16.697 -0.2153 -0.3303 -0.2661
  401MPD2     C 6039   4.548   4.330   0.320  0.2594 -0.3801 -0.6414
  401MPD2    C1 6040   4.633   4.295   0.427 -0.2431  0.2411 -0.2475
  401MPD2    C2 6041   4.651   4.162   0.449 -0.5674  0.3371  0.4785
  401MPD2    C3 6042   4.590   4.066   0.376  0.1039  0.6584 -0.3829
  401MPD2    C4 6043   4.508   4.102   0.279 -0.9755  0.3039  0.5963
  401MPD2    C5 6044   4.491   4.229   0.249  0.5302  0.8779 -0.7187
  401MPD2     H 6045   4.720   4.132   0.526 -3.0112 -1.6533  1.8860
  401MPD2    H1 6046   4.453   4.035   0.215 -0.2199  0.1610  0.1002
  401MPD2    H2 6047   4.544   4.431   0.283 -1.9321  0.1995  1.1537
  401MPD2    H3 6048   4.426   4.258   0.167 -1.6079  0.0016  0.6715
  401MPD2     N 6049   4.631   3.934   0.410 -0.1963  0.7087 -0.1177
  401MPD2    H5 6050   4.684   3.910   0.493 -1.4661  1.6245  0.9655
  401MPD2    N1 6051   4.700   4.382   0.512  0.1935 -0.1452 -0.6530
  401MPD2    H7 6052   0.003   4.333   0.589 -0.9865  1.9858  1.3558
  402TMC3    C1 6053   4.641   3.699   0.375 -0.1466  0.0756  0.1201
  402TMC3    C2 6054   4.668   3.695   0.514  0.6661 -0.1177  0.0005
  402TMC3    C3 6055   4.717   3.577   0.559  0.2812  0.0363  0.0410
  402TMC3    C4 6056   4.681   3.595   0.289  0.0249  0.5420  0.3586
  402TMC3    C5 6057   4.734   3.482   0.342 -0.5027 -0.3871 -0.4274
  402TMC3    C6 6058   0.008   3.470   0.477 -0.3573  0.1334 -0.3057
  402TMC3     C 6059   4.612   3.825   0.320 -0.3624 -0.5928 -0.0257
  402TMC3     O 6060   4.593   3.830   0.199 -0.4504  0.1642 -0.4886
  402TMC3     H 6061   4.652   3.767   0.593  1.5977 -1.3846  1.3441
  402TMC3    H1 6062   4.662   3.603   0.182 -0.9981 -1.1442  0.4168
  402TMC3    H2 6063   0.037   3.373   0.518 -0.2537  0.7166  0.9976
  402TMC3    C7 6064   0.093   3.434   0.249  0.4484  0.2377 -0.5181
  402TMC3    C8 6065   0.078   3.594   0.666 -0.6208 -0.7158 -0.0166
  402TMC3    O1 6066   0.077   3.466   0.132 -0.0545 -0.5334 -0.1110
  402TMC3    O2 6067   0.167   3.514   0.666 -0.3693  0.2110 -0.3722
  403MPD2     C 6068   2.645   1.700  13.715  0.2922  0.3670 -0.4901
  403MPD2    C1 6069   2.765   1.663  13.654  0.1247  0.8517 -0.2577
  403MPD2    C2 6070   2.887   1.689  13.714  0.2589 -0.0063  0.6154
  403MPD2    C3 6071   2.901   1.758  13.825 -0.3112 -0.0619  0.3452
  403MPD2    C4 6072   2.785   1.793  13.892  0.1840  0.0027 -0.0586
  403MPD2    C5 6073   2.663   1.771  13.836 -0.5057 -0.0444  0.9796
  403MPD2     H 6074   2.976   1.643  13.672 -0.6265 -0.0284 -1.2451
  403MPD2    H1 6075   2.778   1.845  13.987 -0.1667  2.1584 -1.2557
  403MPD2    H2 6076   2.545   1.683  13.675 -0.0164 -0.2083  0.5281
  403MPD2    H3 6077   2.571   1.791  13.890 -2.5588 -0.4952 -2.2995
  403MPD2     N 6078   3.031   1.762  13.883 -0.4276  0.4712  0.4452
  403MPD2    H5 6079   3.103   1.715  13.830 -0.8211  0.0224  0.3082
  403MPD2    N1 6080   2.761   1.596  13.535  0.2467 -0.1757  0.6126
  403MPD2    H7 6081   2.667   1.567  13.514  0.1116  1.4803 -1.0152
  404TMC3    C1 6082   2.820   1.481  13.339 -0.2362  0.3521  0.4629
  404TMC3    C2 6083   2.723   1.383  13.356 -0.4611  0.2438 -0.1956
  404TMC3    C3 6084   2.690   1.311  13.242  0.9333  0.3085 -0.5622
  404TMC3    C4 6085   2.890   1.489  13.218  0.5591  0.1563  0.0547
  404TMC3    C5 6086   2.843   1.425  13.103 -0.1217  0.0308  0.1528
  404TMC3    C6 6087   2.748   1.328  13.117 -0.0611  0.0640 -0.4885
  404TMC3     C 6088   2.863   1.569  13.447 -0.0436  0.1722 -0.2190
  404TMC3     O 6089   2.972   1.622  13.427 -0.0480  0.0183  0.6498
  404TMC3     H 6090   2.678   1.379  13.454 -0.2122 -1.5666 -0.1635
  404TMC3    H1 6091   2.969   1.560  13.199  1.6434 -0.1964  3.1616
  404TMC3    H2 6092   2.709   1.272  13.033 -0.6455 -0.6372  0.2508
  404TMC3    C7 6093   2.896   1.475  12.977  0.5881 -0.2929 -0.2727
  404TMC3    C8 6094   2.576   1.223  13.253 -0.4614 -0.1464  0.6366
  404TMC3    O1 6095   2.992   1.555  12.986  0.3580 -0.3992 -0.5475
  404TMC3    O2 6096   2.532   1.178  13.149 -0.4696  0.4654 -0.0912
  405MPD2     C 6097   3.194   2.821  14.957 -0.1005  0.4016  0.1338
  405MPD2    C1 6098   3.172   2.685  14.960  0.3478  0.4137  0.3266
  405MPD2    C2 6099   3.040   2.640  14.966 -0.3564 -0.5001  0.4675
  405MPD2    C3 6100   2.935   2.723  14.944 -0.3001  0.3522  0.6433
  405MPD2    C4 6101   2.955   2.857  14.937  0.1931 -0.7481 -0.8466
  405MPD2    C5 6102   3.082   2.901  14.950 -0.4114  0.2264  0.4074
  405MPD2     H 6103   3.025   2.532  14.972  0.6471 -0.6581  0.1465
  405MPD2    H1 6104   2.880   2.929  14.907  0.9853 -0.8022 -2.9581
  405MPD2    H2 6105   3.293   2.859  14.977  0.1848  0.1426 -0.7689
  405MPD2    H3 6106   3.094   3.008  14.939  0.4056  0.1996  1.0587
  405MPD2     N 6107   2.816   2.661  14.899 -0.1078  0.4228 -0.0563
  405MPD2    H5 6108   2.816   2.560  14.911 -1.3319  0.3703 -0.5543
  405MPD2    N1 6109   3.283   2.598  14.975  0.3254 -0.3960  0.3543
  405MPD2    H7 6110   3.375   2.641  14.977  2.0559 -4.0093 -0.1663
  406TMC3    C1 6111   2.518   2.625  14.551 -0.3819 -0.9128 -0.0984
  406TMC3    C2 6112   2.575   2.505  14.514 -0.1833  0.0046  0.1465
  406TMC3    C3 6113   2.690   2.463  14.575  0.4972  0.2481 -0.3597
  406TMC3    C4 6114   2.548   2.681  14.676  0.2694 -0.1569 -0.8801
  406TMC3    C5 6115   2.650   2.624  14.739 -0.0425 -0.5614 -0.2208
  406TMC3    C6 6116   2.728   2.526  14.690 -0.2834 -0.0596  0.1827
  406TMC3     C 6117   2.457   2.716  14.449 -0.7394 -0.2626 -0.2377
  406TMC3     O 6118   2.442   2.833  14.479  0.5757  0.2724 -0.5101
  406TMC3     H 6119   2.553   2.464  14.416  1.9105 -1.0346  0.1163
  406TMC3    H1 6120   2.506   2.774  14.714  1.3568  0.8534 -2.1659
  406TMC3    H2 6121   2.809   2.478  14.743 -1.2559 -1.4088  0.4484
  406TMC3    C7 6122   2.711   2.719  14.831  0.4288  0.2656 -0.5106
  406TMC3    C8 6123   2.761   2.349  14.522  0.6228  1.6615 -0.3537
  406TMC3    O1 6124   2.696   2.837  14.809  0.1742  0.3533  0.0019
  406TMC3    O2 6125   2.703   2.265  14.450  0.4143  0.1480  0.3704
  407MPD2     C 6126   0.688   4.354   9.852  0.0259 -0.4083  0.7137
  407MPD2    C1 6127   0.788   4.318   9.945 -0.4326  0.2851  0.5818
  407MPD2    C2 6128   0.782   4.367  10.074  0.3205  0.0587 -0.3748
  407MPD2    C3 6129   0.674   4.441  10.119  0.2162  0.7849 -0.6779
  407MPD2    C4 6130   0.579   4.468  10.032  0.2593  0.1861 -0.2995
  407MPD2    C5 6131   0.583   4.426   9.901  0.1215  0.6781  0.3033
  407MPD2     H 6132   0.866   4.356  10.141  0.7213 -0.4834 -0.9708
  407MPD2    H1 6133   0.498   4.535  10.062  0.5522  0.8226 -0.9086
  407MPD2    H2 6134   0.703   4.327   9.748 -0.1129 -1.9558  1.0906
  407MPD2    H3 6135   0.506   4.468   9.837  1.6673 -1.2810 -2.8313
  407MPD2     N 6136   0.665   4.501  10.257  0.9525  0.1140  0.2414
  407MPD2    H5 6137   0.589   4.566  10.267  3.3467  2.7150  1.5372
  407MPD2    N1 6138   0.899   4.237   9.914 -0.8756  0.0504  0.3020
  407MPD2    H7 6139   0.954   4.227   9.999 -2.6376 -0.5205  1.3717
  408TMC3    C1 6140   1.070   4.127   9.792 -0.2746  0.6137  0.5125
  408TMC3    C2 6141   1.092   4.016   9.719  0.0173 -0.3419 -0.5870
  408TMC3    C3 6142   1.221   3.991   9.691  0.0371  0.0604  0.2012
  408TMC3    C4 6143   1.169   4.228   9.811  0.1628  0.3567  0.3541
  408TMC3    C5 6144   1.290   4.199   9.761 -0.1385  0.1195 -1.1956
  408TMC3    C6 6145   1.320   4.075   9.711  0.2825  0.1588 -0.0199
  408TMC3     C 6146   0.925   4.162   9.804 -0.7599  0.1411  0.3124
  408TMC3     O 6147   0.846   4.106   9.730  0.0839  0.2424 -0.1580
  408TMC3     H 6148   1.010   3.947   9.705  0.8971 -1.4622 -0.1117
  408TMC3    H1 6149   1.142   4.326   9.848 -1.7797 -0.6152  1.5367
  408TMC3    H2 6150   1.424   4.060   9.684  0.9637  1.2439  1.9901
  408TMC3    C7 6151   1.404   4.292   9.767 -0.4562 -0.8468 -1.1539
  408TMC3    C8 6152   1.262   3.863   9.640  0.4550 -0.3050 -0.0351
  408TMC3    O1 6153   1.511   4.261   9.712  0.8970 -0.1701 -0.0610
  408TMC3    O2 6154   1.169   3.799   9.593  0.3131  0.4991  0.2067
  409MPD2     C 6155   0.495   4.671  16.769  0.5264  0.0282 -0.0989
  409MPD2    C1 6156   0.623   4.652  16.811  0.6160  0.6463 -0.4091
  409MPD2    C2 6157   0.728   4.705  16.737  0.2086 -0.1860  0.5726
  409MPD2    C3 6158   0.705   0.061  16.635 -0.0533 -0.4609  0.8840
  409MPD2    C4 6159   0.578   0.099  16.615  0.2981 -0.5510  0.3166
  409MPD2    C5 6160   0.474   0.027  16.671 -0.1070  0.1555  0.4579
  409MPD2     H 6161   0.833   4.687  16.758 -0.2220  1.1837  3.9596
  409MPD2    H1 6162   0.552   0.172  16.539  0.6717  0.3722  1.0801
  409MPD2    H2 6163   0.405   4.623  16.807  0.8341 -1.4243 -1.1905
  409MPD2    H3 6164   0.373   0.046  16.636 -0.3478 -0.1993  0.9529
  409MPD2     N 6165   0.814   0.122  16.562  0.1135 -0.2726 -0.1939
  409MPD2    H5 6166   0.783   0.184  16.488 -0.5353 -0.4437 -0.0727
  409MPD2    N1 6167   0.652   4.587  16.930  0.5366  0.2900 -0.3019
  409MPD2    H7 6168   0.753   4.573  16.935  0.0408 -2.5724  1.8192
  410TMC3    C1 6169   1.037   0.206  16.523  0.2646 -0.4217 -0.0165
  410TMC3    C2 6170   1.144   0.260  16.581 -0.1479  0.1493  0.3259
  410TMC3    C3 6171   1.190   0.381  16.533  0.2010  0.1476 -0.0319
  410TMC3    C4 6172   0.987   0.257  16.403 -0.6197 -0.3289  0.0333
  410TMC3    C5 6173   1.051   0.360  16.344 -0.0914 -0.0726 -0.1917
  410TMC3    C6 6174   1.151   0.430  16.408  0.1861 -0.1999 -0.6891
  410TMC3     C 6175   0.949   0.120  16.604  0.5767  0.1681 -0.7944
  410TMC3     O 6176   0.998   0.071  16.701 -0.3958  0.4823  0.6998
  410TMC3     H 6177   1.173   0.229  16.681  0.2183 -1.2109 -0.1946
  410TMC3    H1 6178   0.908   0.204  16.351 -3.1279  3.1413  0.3412
  410TMC3    H2 6179   1.212   0.510  16.368 -1.5451  0.9405 -1.0214
  410TMC3    C7 6180   1.034   0.375  16.204 -0.1762 -0.0212  0.3708
  410TMC3    C8 6181   1.301   0.440  16.603 -0.5218  0.3452 -0.3117
  410TMC3    O1 6182   0.987   0.273  16.150  0.4040 -0.2559 -0.0965
  410TMC3    O2 6183   1.302   0.562  16.605 -0.1485 -0.0843 -0.0739
  411MPD2     C 6184   1.063   0.446  14.761  0.1538  0.2438  0.0191
  411MPD2    C1 6185   0.979   0.487  14.665  1.2552 -0.2934  0.4352
  411MPD2    C2 6186   0.884   0.393  14.627 -0.1530 -0.1890 -0.1619
  411MPD2    C3 6187   0.896   0.258  14.670 -0.4180 -0.7028  0.6669
  411MPD2    C4 6188   0.999   0.216  14.748 -0.2593 -0.2266 -0.2313
  411MPD2    C5 6189   1.071   0.320  14.799 -0.3240 -0.6764 -0.1561
  411MPD2     H 6190   0.817   0.414  14.544  1.4660  0.3862 -1.3166
  411MPD2    H1 6191   1.008   0.118  14.793 -0.1726  0.1693  0.6223
  411MPD2    H2 6192   1.130   0.519  14.804  0.7071  0.7830 -1.7319
  411MPD2    H3 6193   1.130   0.292  14.886  0.6756  3.8583  0.6339
  411MPD2     N 6194   0.794   0.170  14.642 -0.4636  0.7902 -0.3117
  411MPD2    H5 6195   0.813   0.076  14.678  2.9666  1.3702 -0.6156
  411MPD2    N1 6196   0.968   0.622  14.626 -0.8164 -0.1000 -0.4701
  411MPD2    H7 6197   1.007   0.697  14.681 -2.6557 -0.4430  1.2961
  412TMC3    C1 6198   0.595   0.069  14.563 -0.1762 -0.6011  0.3057
  412TMC3    C2 6199   0.455   0.073  14.579  0.0224  0.4207  0.9248
  412TMC3    C3 6200   0.391   4.701  14.544 -0.1819 -0.1451 -0.3450
  412TMC3    C4 6201   0.664   4.700  14.519  0.3366 -0.1637 -0.4905
  412TMC3    C5 6202   0.592   4.588  14.485  0.8377 -0.5853 -0.6427
  412TMC3    C6 6203   0.458   4.586  14.502 -0.6862  0.7788 -0.5256
  412TMC3     C 6204   0.667   0.194  14.593 -0.1237 -0.0104  0.6878
  412TMC3     O 6205   0.611   0.297  14.580 -0.4705 -0.2644  0.9513
  412TMC3     H 6206   0.399   0.158  14.616 -0.5029  0.3810  0.2101
  412TMC3    H1 6207   0.766   4.720  14.490 -0.3957 -0.4483 -3.2889
  412TMC3    H2 6208   0.407   4.494  14.477  0.0725 -0.6568  3.1877
  412TMC3    C7 6209   0.608   4.552  14.351 -0.1027  0.5176 -0.1596
  412TMC3    C8 6210   0.267   4.721  14.467 -0.2036  0.1899  0.0302
  412TMC3    O1 6211   0.521   4.483  14.292  0.3383 -0.2425  0.5636
  412TMC3    O2 6212   0.197   0.071  14.509 -0.2097 -0.0340 -0.1857
  413MPD2     C 6213   2.552   4.067  15.210  0.1160  0.2726  0.4553
  413MPD2    C1 6214   2.500   3.991  15.108 -0.1497  0.1913  0.0065
  413MPD2    C2 6215   2.565   3.870  15.081 -0.0908  0.1685  0.2287
  413MPD2    C3 6216   2.670   3.820  15.159  0.6838  0.5976 -0.3380
  413MPD2    C4 6217   2.717   3.900  15.269 -0.4150  0.7250 -0.0477
  413MPD2    C5 6218   2.657   4.024  15.288  0.6040 -0.6352 -0.4109
  413MPD2     H 6219   2.513   3.810  15.006  1.8111 -1.1268 -0.0623
  413MPD2    H1 6220   2.794   3.868  15.338 -0.5712 -1.2421 -0.7805
  413MPD2    H2 6221   2.507   4.163  15.233 -0.3256 -0.0479  0.9297
  413MPD2    H3 6222   2.696   4.083  15.370 -3.6831  1.9045 -0.1931
  413MPD2     N 6223   2.717   3.689  15.137  0.4213 -0.3823  0.1059
  413MPD2    H5 6224   2.672   3.638  15.062 -1.4018 -0.5465  1.2942
  413MPD2    N1 6225   2.382   4.033  15.047  0.0247 -0.0086  0.1419
  413MPD2    H7 6226   2.337   4.106  15.102  0.0160 -1.4211  2.0120
  414TMC3    C1 6227   2.844   3.502  15.142  0.6389  0.5766 -0.0241
  414TMC3    C2 6228   2.853   3.385  15.211 -0.5648 -0.0487 -0.2442
  414TMC3    C3 6229   2.849   3.266  15.135 -0.2363  0.0804  0.4012
  414TMC3    C4 6230   2.850   3.514  15.004  0.0056  1.0233 -0.4491
  414TMC3    C5 6231   2.870   3.392  14.943 -0.1663  0.2359 -0.1327
  414TMC3    C6 6232   2.846   3.266  15.001  0.4640 -0.2036  0.2668
  414TMC3     C 6233   2.805   3.616  15.216  0.4794  0.4254  0.3694
  414TMC3     O 6234   2.850   3.645  15.327 -0.6613  0.0282  0.3965
  414TMC3     H 6235   2.859   3.385  15.319 -1.4153 -3.2871 -0.1958
  414TMC3    H1 6236   2.842   3.607  14.950  0.0963  1.2713 -0.0393
  414TMC3    H2 6237   2.864   3.173  14.948  0.0013 -1.4218  2.2301
  414TMC3    C7 6238   2.968   3.391  14.838  0.1287  0.5643 -0.4857
  414TMC3    C8 6239   2.905   3.141  15.191 -0.1131 -0.1814 -0.4277
  414TMC3    O1 6240   2.996   3.283  14.786  0.0846  0.4965  0.1559
  414TMC3    O2 6241   2.845   3.041  15.152  0.2067  0.1588  0.1152
  415TMC3    C1 6242   3.096   1.608   9.646  0.1585 -0.2017  0.1459
  415TMC3    C2 6243   3.092   1.730   9.584 -0.5829  0.2011  0.2591
  415TMC3    C3 6244   3.123   1.840   9.663  0.0183 -0.0141  0.5682
  415TMC3    C4 6245   3.110   1.593   9.781 -0.6867  0.8085  0.0872
  415TMC3    C5 6246   3.129   1.707   9.859 -0.8131 -0.4612  0.2714
  415TMC3    C6 6247   3.148   1.828   9.795  0.4154 -0.2544 -0.4218
  415TMC3     C 6248   3.016   1.503   9.579  0.5118 -0.4682  0.4243
  415TMC3     O 6249   2.954   1.420   9.648  0.2142  0.1427 -0.7332
  415TMC3     H 6250   3.090   1.746   9.477 -2.3150 -0.1818  0.2249
  415TMC3    H1 6251   3.098   1.503   9.840  0.6848  0.8509  0.4089
  415TMC3    H2 6252   3.169   1.917   9.852  0.6977 -0.0430 -0.8582
  415TMC3    C7 6253   3.136   1.693  10.012 -0.4551 -0.0284  0.0603
  415TMC3    C8 6254   3.080   1.967   9.609  0.5057 -0.8878 -0.1793
  415TMC3    O1 6255   3.176   1.788  10.075  0.6038  0.1012  0.3806
  415TMC3    O2 6256   3.039   1.955   9.495 -0.2543 -0.1806  0.1924
  416MPD2     C 6257   0.122   0.343  11.507  0.0889  0.3591 -0.2821
  416MPD2    C1 6258   0.013   0.400  11.449 -0.2704 -0.0046  0.6287
  416MPD2    C2 6259   4.678   0.316  11.370 -0.2568  0.7075 -0.7490
  416MPD2    C3 6260   4.699   0.179  11.360 -0.6034 -0.5302  0.1136
  416MPD2    C4 6261   0.059   0.120  11.429  0.1968  0.2227  0.4220
  416MPD2    C5 6262   0.146   0.208  11.494  0.2305 -0.5845 -0.3384
  416MPD2     H 6263   4.590   0.363  11.327  0.9383  1.7893 -1.9921
  416MPD2    H1 6264   0.095   0.019  11.415  2.0966  0.9604 -0.0581
  416MPD2    H2 6265   0.186   0.404  11.569  0.4072 -0.8569  0.5858
  416MPD2    H3 6266   0.234   0.168  11.541 -0.2137  0.1975  1.1544
  416MPD2     N 6267   4.631   0.080  11.283  0.2272 -0.0449 -0.0423
  416MPD2    H5 6268   4.657   4.724  11.296  0.2428  0.1975  1.6355
  416MPD2    N1 6269   4.719   0.532  11.481 -0.3954  0.0993 -0.2654
  416MPD2    H7 6270   0.041   0.590  11.536 -0.5767  1.4979 -1.5410
  417TMC3    C1 6271   4.593   0.723  11.499  0.0853  0.2530  0.5174
  417TMC3    C2 6272   4.641   0.745  11.626 -0.3547 -0.2675  0.4409
  417TMC3    C3 6273   4.589   0.858  11.693  0.1694  0.0953 -0.2641
  417TMC3    C4 6274   4.498   0.792  11.440 -0.4498  0.0447  0.0374
  417TMC3    C5 6275   4.444   0.890  11.516 -0.2815  0.1388  0.1307
  417TMC3    C6 6276   4.484   0.924  11.641  0.0380 -0.1072 -0.5860
  417TMC3     C 6277   4.601   0.590  11.446 -0.9687 -1.0329 -0.7276
  417TMC3     O 6278   4.503   0.559  11.390  0.3180 -0.0213  0.0715
  417TMC3     H 6279   4.712   0.681  11.678  0.8350  0.1478 -0.6605
  417TMC3    H1 6280   4.464   0.766  11.340  0.0711  2.9352 -0.8824
  417TMC3    H2 6281   4.425   0.981  11.712  1.3796 -0.2808  0.6770
  417TMC3    C7 6282   4.316   0.942  11.481  0.5818 -0.5261  0.4104
  417TMC3    C8 6283   4.616   0.886  11.837  0.1474 -0.1251 -0.4980
  417TMC3    O1 6284   4.282   1.050  11.533  0.4997 -0.3621 -0.3558
  417TMC3    O2 6285   4.556   0.979  11.885 -0.4972 -0.1963 -0.4673
  418TMC3    C1 6286   4.435   2.699   0.337  0.0970 -0.0793 -0.0006
  418TMC3    C2 6287   4.483   2.822   0.387  0.8463 -0.1383  0.0425
  418TMC3    C3 6288   4.484   2.837   0.520  0.4389  0.0324 -0.4014
  418TMC3    C4 6289   4.416   2.586   0.423  0.7846  0.3686 -0.1383
  418TMC3    C5 6290   4.419   2.611   0.559  0.3622  0.3363 -0.4662
  418TMC3    C6 6291   4.458   2.733   0.604  0.2483 -0.5443 -0.4665
  418TMC3     C 6292   4.458   2.674   0.197 -0.5367 -0.7644 -0.0750
  418TMC3     O 6293   4.519   2.750   0.124 -0.8739 -0.5830  0.2618
  418TMC3     H 6294   4.490   2.902   0.314 -0.7939  0.0958  0.1371
  418TMC3    H1 6295   4.401   2.480   0.405 -1.6279  0.8999 -1.2093
  418TMC3    H2 6296   4.473   2.751   0.709 -4.4884 -1.5408  0.3845
  418TMC3    C7 6297   4.322   2.536   0.634 -0.0334  0.3340 -0.4344
  418TMC3    C8 6298   4.419   2.954   0.570 -0.1068  0.3943  0.7850
  418TMC3    O1 6299   4.257   2.460   0.567  0.4703 -0.1344  0.1519
  418TMC3    O2 6300   4.435   3.062   0.510  0.1774 -0.1995  0.1100
  419MPD2     C 6301   2.557   0.214  11.952  0.2167  0.7056 -1.1889
  419MPD2    C1 6302   2.434   0.280  11.958 -0.6955 -0.0643  0.4862
  419MPD2    C2 6303   2.375   0.293  12.075  0.4119 -0.8165  0.7561
  419MPD2    C3 6304   2.427   0.231  12.193 -0.3033 -0.7060  0.4744
  419MPD2    C4 6305   2.541   0.152  12.180  0.4486  0.2569  0.3376
  419MPD2    C5 6306   2.604   0.141  12.056 -0.6771 -0.2043 -0.2609
  419MPD2     H 6307   2.287   0.356  12.087  1.2007  0.7988 -1.9279
  419MPD2    H1 6308   2.585   0.096  12.262  1.8643  2.3046  0.9996
  419MPD2    H2 6309   2.625   0.218  11.868  0.1291  0.5223 -1.2668
  419MPD2    H3 6310   2.701   0.094  12.052 -0.7701 -0.1496 -2.7811
  419MPD2     N 6311   2.353   0.266  12.315 -0.0578  0.3759  0.0192
  419MPD2    H5 6312   2.278   0.334  12.308 -1.8271 -1.8166 -2.1387
  419MPD2    N1 6313   2.397   0.364  11.853  0.4531  0.0937 -0.4101
  419MPD2    H7 6314   2.307   0.410  11.867  0.1999 -0.5015 -0.0832
  420TMC3    C1 6315   2.329   0.306  12.551  0.0530 -0.5676  0.8099
  420TMC3    C2 6316   2.219   0.383  12.526  0.2904 -0.4925  0.9991
  420TMC3    C3 6317   2.171   0.448  12.639  0.4116  0.7179 -0.3596
  420TMC3    C4 6318   2.391   0.302  12.673  0.5592  0.6847 -0.1690
  420TMC3    C5 6319   2.323   0.355  12.780  0.1139 -0.1353  0.5985
  420TMC3    C6 6320   2.218   0.440  12.765  0.5685  0.1667  0.1096
  420TMC3     C 6321   2.402   0.240  12.441  0.7576 -0.5852 -0.1230
  420TMC3     O 6322   2.502   0.179  12.468  0.3069  0.0367  0.1938
  420TMC3     H 6323   2.168   0.385  12.430  0.1224  1.0343  1.1178
  420TMC3    H1 6324   2.468   0.227  12.689  0.8106  0.8108 -0.7931
  420TMC3    H2 6325   2.169   0.491  12.847  1.9843 -0.4871  1.3563
  420TMC3    C7 6326   2.359   0.326  12.914  0.3835  0.5831 -0.2242
  420TMC3    C8 6327   2.078   0.557  12.609  0.2495  0.0866 -0.3029
  420TMC3    O1 6328   2.278   0.350  13.002  0.1317  0.2678 -0.2330
  420TMC3    O2 6329   2.009   0.545  12.504  0.3031  0.0310  0.5068
  421TMC3    C1 6330   3.190   1.840  14.047 -0.1921  0.2420  1.1134
  421TMC3    C2 6331   3.212   1.944  14.138  0.3489 -0.4899  0.5287
  421TMC3    C3 6332   3.337   1.997  14.148 -0.1725 -0.3671 -0.1999
  421TMC3    C4 6333   3.294   1.789  13.972 -0.6342 -0.1782  0.0506
  421TMC3    C5 6334   3.414   1.856  13.978 -0.6724 -0.1569  0.7794
  421TMC3    C6 6335   3.437   1.955  14.065  0.3687 -0.3062 -0.0155
  421TMC3     C 6336   3.054   1.837  13.997  0.2820 -0.5171  0.1795
  421TMC3     O 6337   2.979   1.920  14.055 -0.2124 -0.5331 -0.3893
  421TMC3     H 6338   3.129   1.974  14.200  0.6308 -2.9059  2.0630
  421TMC3    H1 6339   3.280   1.697  13.916 -1.6650  0.0137 -0.0090
  421TMC3    H2 6340   3.535   1.999  14.076  0.0186  0.5408 -0.3459
  421TMC3    C7 6341   3.530   1.803  13.904  0.0586  0.2989  0.3499
  421TMC3    C8 6342   3.355   2.126  14.220 -0.2746 -0.7012 -0.2039
  421TMC3    O1 6343   3.642   1.852  13.921  0.5569  0.2285 -0.0898
  421TMC3    O2 6344   3.468   2.162  14.252 -0.0624  0.5628 -0.5436
  422TMC3    C1 6345   0.651   3.199  12.239  0.4534 -0.3222  0.0323
  422TMC3    C2 6346   0.618   3.324  12.266 -0.2659 -0.8270  0.0792
  422TMC3    C3 6347   0.546   3.340  12.374 -0.3378 -0.3684  0.3880
  422TMC3    C4 6348   0.610   3.085  12.306  0.7736 -0.1549  0.4195
  422TMC3    C5 6349   0.537   3.107  12.425 -0.5416 -0.2796 -0.0893
  422TMC3    C6 6350   0.506   3.239  12.460  1.0062  0.3945 -0.6042
  422TMC3     C 6351   0.733   3.183  12.124  0.7070 -0.4640  0.2917
  422TMC3     O 6352   0.797   3.285  12.090 -0.2474 -0.5256  0.1530
  422TMC3     H 6353   0.667   3.412  12.225 -1.4399 -0.6758 -1.0258
  422TMC3    H1 6354   0.629   2.989  12.260 -0.6108  0.5187 -1.5237
  422TMC3    H2 6355   0.440   3.261  12.544 -2.2066 -1.6467 -2.6069
  422TMC3    C7 6356   0.509   2.984  12.499 -0.5896  0.0315  0.1636
  422TMC3    C8 6357   0.487   3.469  12.397 -1.3681  0.5777  0.2072
  422TMC3    O1 6358   0.558   2.879  12.462 -0.2587 -0.0873 -0.3671
  422TMC3    O2 6359   0.455   3.495  12.512 -0.9012  0.2359 -0.2936
  423MPD2     C 6360   2.595   0.636  17.617  0.0903 -0.5464 -0.2592
  423MPD2    C1 6361   2.569   0.544  17.717 -0.5518 -0.3350 -0.1324
  423MPD2    C2 6362   2.529   0.422  17.672 -0.0230  0.3835 -0.4597
  423MPD2    C3 6363   2.527   0.383  17.540 -0.4589 -0.0791 -0.2289
  423MPD2    C4 6364   2.559   0.476  17.451 -0.6447 -0.3083  0.4065
  423MPD2    C5 6365   2.589   0.606  17.480 -0.0816  0.4567  0.7871
  423MPD2     H 6366   2.508   0.340  17.739 -3.4254  0.2625 -1.6413
  423MPD2    H1 6367   2.581   0.447  17.349  0.9849  1.1277  0.3363
  423MPD2    H2 6368   2.617   0.736  17.651 -2.6182 -0.2535  0.6008
  423MPD2    H3 6369   2.605   0.680  17.403  3.0213 -0.2320  0.7557
  423MPD2     N 6370   2.497   0.254  17.488 -0.5042 -0.0589  0.1322
  423MPD2    H5 6371   2.499   0.251  17.386 -0.1798  0.2363  0.1296
  423MPD2    N1 6372   2.559   0.573   0.094 -0.2364  0.1347 -0.1066
  423MPD2    H7 6373   2.541   0.499   0.161  2.3845  0.8167  1.3716
  424TMC3    C1 6374   2.577   0.665   0.296  0.2587 -0.3867 -0.1729
  424TMC3    C2 6375   2.670   0.712   0.388 -0.7695 -0.3216 -0.3749
  424TMC3    C3 6376   2.655   0.660   0.518 -0.0625  1.0511 -0.1735
  424TMC3    C4 6377   2.472   0.576   0.329  0.4208  1.0233  0.2725
  424TMC3    C5 6378   2.474   0.526   0.461  0.4418  0.7989 -0.0506
  424TMC3    C6 6379   2.551   0.571   0.562  0.4379  0.3141 -0.0441
  424TMC3     C 6380   2.611   0.686   0.159 -0.4489 -0.4566  0.6608
  424TMC3     O 6381   2.665   0.786   0.117  0.2735 -0.0893  0.7659
  424TMC3     H 6382   2.745   0.784   0.359 -0.3897 -0.7848 -0.5443
  424TMC3    H1 6383   2.401   0.530   0.261  0.0480  0.4086  1.0771
  424TMC3    H2 6384   2.552   0.535   0.665 -1.7356  0.9044  0.1865
  424TMC3    C7 6385   2.371   0.439   0.509 -0.2342 -0.0396 -0.8588
  424TMC3    C8 6386   2.784   0.648   0.587  0.0962 -0.7483  0.1582
  424TMC3    O1 6387   2.414   0.351   0.584 -0.0043  0.4365  0.4603
  424TMC3    O2 6388   2.854   0.750   0.594  0.2973  0.7787 -0.4052
  425MPD2     C 6389   1.753   3.607  17.411  0.5116  0.5259  0.3789
  425MPD2    C1 6390   1.694   3.559  17.296 -0.1119  0.1422  0.6723
  425MPD2    C2 6391   1.563   3.589  17.263  0.6742 -0.1411  0.1526
  425MPD2    C3 6392   1.486   3.662  17.357  1.3998  0.3002  0.3392
  425MPD2    C4 6393   1.551   3.722  17.464 -0.1053  0.7787 -0.1458
  425MPD2    C5 6394   1.680   3.692  17.494  0.0967  0.2075  0.5137
  425MPD2     H 6395   1.514   3.530  17.187  3.1689  0.1262 -1.6440
  425MPD2    H1 6396   1.508   3.785  17.540 -1.8025  0.9236 -1.2230
  425MPD2    H2 6397   1.853   3.580  17.442  0.6300  0.3290 -0.1656
  425MPD2    H3 6398   1.734   3.731  17.580  2.4283  1.7365 -1.6258
  425MPD2     N 6399   1.348   3.688  17.329 -0.1869  0.2434 -0.0824
  425MPD2    H5 6400   1.309   3.667  17.238  0.4110 -2.1503  0.2192
  425MPD2    N1 6401   1.765   3.466  17.218 -0.0366  0.2929  0.0072
  425MPD2    H7 6402   1.848   3.429  17.263 -1.3144 -0.4825  1.7360
  426TMC3    C1 6403   1.815   3.299  17.059 -0.2829 -0.3304 -0.4422
  426TMC3    C2 6404   1.826   3.257  16.925  0.2470  0.1012  0.3186
  426TMC3    C3 6405   1.872   3.132  16.894 -0.5644 -0.3354  0.3044
  426TMC3    C4 6406   1.848   3.211  17.159  0.0551  0.5085 -1.3316
  426TMC3    C5 6407   1.903   3.090  17.125 -0.1120  0.5133 -0.0144
  426TMC3    C6 6408   1.925   3.048  16.997 -0.0561  0.0736 -0.2714
  426TMC3     C 6409   1.729   3.413  17.100 -0.0200 -0.3960  0.1275
  426TMC3     O 6410   1.648   3.463  17.020 -0.7225  0.0631  0.4107
  426TMC3     H 6411   1.774   3.329  16.863  2.4037 -0.5150 -2.2007
  426TMC3    H1 6412   1.855   3.248  17.260 -1.8055 -2.0384 -0.2525
  426TMC3    H2 6413   1.958   2.946  16.979  0.5828 -0.1250  1.9394
  426TMC3    C7 6414   1.907   2.984  17.225 -0.0282  0.1502 -0.2583
  426TMC3    C8 6415   1.856   3.070  16.766  0.0256 -0.6760 -0.2420
  426TMC3    O1 6416   1.998   2.904  17.213  0.5055 -0.1374  0.0183
  426TMC3    O2 6417   1.887   2.952  16.755 -0.0547 -0.0032 -0.0152
  427MPD2     C 6418   0.105   0.617  14.649 -0.8344 -0.2758  1.3912
  427MPD2    C1 6419   0.026   0.561  14.745 -0.5197 -0.3400 -0.0769
  427MPD2    C2 6420   4.636   0.593  14.765 -0.0120  0.2689  0.0103
  427MPD2    C3 6421   4.580   0.700  14.691 -0.4215 -0.0850  0.3024
  427MPD2    C4 6422   4.660   0.765  14.594 -0.1648  0.0677  0.3062
  427MPD2    C5 6423   0.048   0.717  14.575  0.2485  0.4979  0.3470
  427MPD2     H 6424   4.588   0.549  14.852 -1.6793  0.0640 -1.0165
  427MPD2    H1 6425   4.611   0.839  14.533 -0.4413 -0.5462 -0.2167
  427MPD2    H2 6426   0.212   0.599  14.640 -0.4920  1.7809  1.4078
  427MPD2    H3 6427   0.117   0.760  14.503  2.4786 -1.8143  1.1069
  427MPD2     N 6428   4.450   0.754  14.716 -0.0848  0.0056  0.4519
  427MPD2    H5 6429   4.420   0.844  14.680 -1.4747  0.6957  3.3356
  427MPD2    N1 6430   0.096   0.481  14.836  0.1740  0.8987 -0.1677
  427MPD2    H7 6431   0.196   0.478  14.815  0.3897 -0.6406  1.1010
  428TMC3    C1 6432   0.157   0.345  15.007  0.6117  0.2724 -0.0170
  428TMC3    C2 6433   0.120   0.241  15.081  0.2117 -0.0545 -0.1367
  428TMC3    C3 6434   0.194   0.212  15.187 -0.8456  0.0132 -0.7750
  428TMC3    C4 6435   0.266   0.425  15.038  0.3003  0.0297  0.3079
  428TMC3    C5 6436   0.335   0.398  15.152  0.1441 -0.4489 -0.2495
  428TMC3    C6 6437   0.299   0.290  15.232  0.6751  0.9154 -0.7425
  428TMC3     C 6438   0.049   0.408  14.940 -0.2090 -0.2831  0.0567
  428TMC3     O 6439   4.682   0.379  14.986  0.3784 -0.5416  0.1254
  428TMC3     H 6440   0.032   0.181  15.063  0.2778 -0.7608  1.9416
  428TMC3    H1 6441   0.287   0.513  14.977 -1.1267  1.9619  2.5973
  428TMC3    H2 6442   0.350   0.268  15.325  0.0918  2.2796 -0.0932
  428TMC3    C7 6443   0.445   0.480  15.189  0.3131  0.5211 -0.5219
  428TMC3    C8 6444   0.147   0.109  15.278 -0.2342 -0.2377 -0.5913
  428TMC3    O1 6445   0.456   0.513  15.304  0.7625  0.3832  0.1850
  428TMC3    O2 6446   0.119   4.739  15.240  0.0186 -0.1256 -0.6216
  429MPD2     C 6447   1.065   1.163  17.243  1.1378  0.0083  0.8777
  429MPD2    C1 6448   1.165   1.090  17.182  0.0370  0.0548 -0.5041
  429MPD2    C2 6449   1.220   1.142  17.069  0.1443 -0.0392  0.2365
  429MPD2    C3 6450   1.188   1.270  17.023 -0.1352  0.2315  0.1410
  429MPD2    C4 6451   1.084   1.345  17.074  0.6903  0.0778  0.7688
  429MPD2    C5 6452   1.031   1.289  17.185 -0.1381  0.1789 -0.4649
  429MPD2     H 6453   1.308   1.093  17.029 -0.6411 -0.5153 -0.9151
  429MPD2    H1 6454   1.051   1.443  17.043 -1.0090 -0.6683  0.1703
  429MPD2    H2 6455   1.012   1.135  17.333 -0.0191 -2.9893 -0.7491
  429MPD2    H3 6456   0.955   1.353  17.228 -0.5611  0.0879 -1.0833
  429MPD2     N 6457   1.252   1.327  16.912 -0.2431  0.5134  0.0924
  429MPD2    H5 6458   1.336   1.276  16.888  0.4242  1.3923  0.5342
  429MPD2    N1 6459   1.207   0.966  17.232 -0.8103 -0.0734  0.0968
  429MPD2    H7 6460   1.272   0.921  17.169 -0.6626 -0.5047  0.5556
  430TMC3    C1 6461   1.321   1.494  16.753 -0.2383  0.3637  0.2417
  430TMC3    C2 6462   1.287   1.545  16.636  0.2339 -0.2359 -0.0250
  430TMC3    C3 6463   1.366   1.535  16.524 -0.6588  0.4147 -0.7341
  430TMC3    C4 6464   1.442   1.428  16.760  0.1747 -0.8864 -0.2460
  430TMC3    C5 6465   1.515   1.400  16.648 -0.8005 -0.0602  0.0200
  430TMC3    C6 6466   1.481   1.460  16.528 -0.4624  0.3269  0.4435
  430TMC3     C 6467   1.214   1.441  16.848  0.3786 -0.2006 -0.3082
  430TMC3     O 6468   1.103   1.488  16.829 -0.2821 -0.2483  0.4832
  430TMC3     H 6469   1.187   1.586  16.635  0.8063  1.1873  1.5028
  430TMC3    H1 6470   1.484   1.399  16.856 -0.6909 -1.3392 -0.0084
  430TMC3    H2 6471   1.544   1.466  16.441  1.7753 -1.5327  1.9400
  430TMC3    C7 6472   1.526   1.257  16.627 -0.0981  0.0001 -0.4008
  430TMC3    C8 6473   1.295   1.524  16.400 -0.5197  0.1600 -0.2182
  430TMC3    O1 6474   1.532   1.181  16.722  0.2260  0.6637 -0.3748
  430TMC3    O2 6475   1.362   1.457  16.319 -0.0720  0.0883 -0.1732
  431MPD2     C 6476   2.037   0.928  12.201 -0.1998  0.5897 -0.4683
  431MPD2    C1 6477   2.109   0.990  12.103 -0.1689 -0.1556 -0.6727
  431MPD2    C2 6478   2.112   0.936  11.979  0.0369  0.0277 -0.0939
  431MPD2    C3 6479   2.050   0.813  11.949  0.2716 -0.1542  0.4252
  431MPD2    C4 6480   1.977   0.750  12.050 -0.2984 -0.1633  0.2523
  431MPD2    C5 6481   1.969   0.815  12.174  0.3107  0.6681 -0.2221
  431MPD2     H 6482   2.170   0.988  11.903  0.4907  2.0849  1.6566
  431MPD2    H1 6483   1.933   0.652  12.031 -1.5753  0.5833 -0.6885
  431MPD2    H2 6484   2.025   0.974  12.298 -0.7116  0.7439 -0.6055
  431MPD2    H3 6485   1.919   0.772  12.260  0.9691  0.9932  0.3153
  431MPD2     N 6486   2.083   0.732  11.832  0.2487  0.0666  0.2923
  431MPD2    H5 6487   2.076   0.632  11.849 -4.2954  0.7437  2.4119
  431MPD2    N1 6488   2.179   1.111  12.118 -0.0401 -0.0412 -0.1520
  431MPD2    H7 6489   2.206   1.164  12.035 -1.3340  1.6469  0.4988
  432TMC3    C1 6490   2.228   0.673  11.659 -0.0683  0.4285 -0.3044
  432TMC3    C2 6491   2.276   0.706  11.537  0.1769 -0.0554  0.1841
  432TMC3    C3 6492   2.380   0.648  11.477 -0.0317 -0.0057  0.0434
  432TMC3    C4 6493   2.303   0.582  11.729 -0.2217  0.8415  0.6096
  432TMC3    C5 6494   2.398   0.511  11.662 -0.2932  0.2742  0.2374
  432TMC3    C6 6495   2.440   0.541  11.539 -0.0548  0.2407 -0.7332
  432TMC3     C 6496   2.159   0.782  11.732  0.2725  0.3801  0.6106
  432TMC3     O 6497   2.153   0.892  11.679  0.2884 -0.7511  0.4085
  432TMC3     H 6498   2.218   0.784  11.489  0.8935  0.5039  0.2250
  432TMC3    H1 6499   2.291   0.567  11.836 -0.2077  1.2353  0.6690
  432TMC3    H2 6500   2.528   0.493  11.499 -1.0107 -0.8766 -1.4743
  432TMC3    C7 6501   2.456   0.388  11.728  0.3405  0.4000  0.1234
  432TMC3    C8 6502   2.469   0.742  11.414 -0.0010 -0.3988 -0.9776
  432TMC3    O1 6503   2.535   0.316  11.666 -0.2771  0.2180 -0.6541
  432TMC3    O2 6504   2.430   0.805  11.315 -0.0863 -0.0819 -0.6588
  433MPD2     C 6505   0.704   4.266  10.697  0.0789  0.1760 -0.3674
  433MPD2    C1 6506   0.802   4.186  10.758 -0.0413 -0.1274 -0.3385
  433MPD2    C2 6507   0.875   4.241  10.860 -0.0171  0.2254 -0.1235
  433MPD2    C3 6508   0.855   4.374  10.895 -0.4352 -0.4230  0.5967
  433MPD2    C4 6509   0.749   4.445  10.852  1.0891 -0.4052  0.2496
  433MPD2    C5 6510   0.672   4.391  10.747 -0.7618 -0.0086  0.5236
  433MPD2     H 6511   0.965   4.195  10.898 -0.6230  0.4075  1.5114
  433MPD2    H1 6512   0.723   4.541  10.893 -0.2078  0.2725 -2.1864
  433MPD2    H2 6513   0.643   4.235  10.612 -1.0310  0.8442  0.1816
  433MPD2    H3 6514   0.588   4.442  10.701  0.4015  1.0187 -0.4530
  433MPD2     N 6515   0.944   4.417  10.992 -0.5879 -0.1083 -0.7093
  433MPD2    H5 6516   1.018   4.353  11.021 -0.0245  0.5276 -0.7547
  433MPD2    N1 6517   0.826   4.049  10.715 -0.1497  0.2903 -0.3693
  433MPD2    H7 6518   0.768   4.013  10.640  0.3536 -1.1714 -0.0602
  434TMC3    C1 6519   0.926   3.834  10.715 -0.7063  0.9261  0.3171
  434TMC3    C2 6520   1.039   3.779  10.763 -0.1849  0.4716 -0.4066
  434TMC3    C3 6521   1.048   3.638  10.746  0.9799 -0.4663 -0.1298
  434TMC3    C4 6522   0.825   3.764  10.672  0.5421 -0.3536  1.1636
  434TMC3    C5 6523   0.824   3.626  10.676  0.0287 -0.5038  0.1004
  434TMC3    C6 6524   0.938   3.559  10.716 -0.3133 -0.3133  1.0053
  434TMC3     C 6525   0.900   3.958  10.788 -0.0156  0.4863 -0.6411
  434TMC3     O 6526   0.980   3.986  10.879  0.6403 -0.4123  0.2025
  434TMC3     H 6527   1.128   3.838  10.779  1.8309 -2.7073  0.2060
  434TMC3    H1 6528   0.734   3.818  10.651  0.0424 -2.4972 -2.2109
  434TMC3    H2 6529   0.951   3.452  10.706 -0.3740 -0.2461  0.1749
  434TMC3    C7 6530   0.706   3.564  10.628 -0.2354  1.0048  0.2725
  434TMC3    C8 6531   1.158   3.589  10.829 -0.6119 -0.2260 -0.3547
  434TMC3    O1 6532   0.626   3.637  10.575 -0.2691 -0.1530 -0.7990
  434TMC3    O2 6533   1.245   3.672  10.855  0.1239 -0.3020 -0.2664
  435MPD2     C 6534   3.319   4.273  15.244 -0.3195 -0.0509  0.0363
  435MPD2    C1 6535   3.238   4.298  15.356  0.2719 -1.2290 -0.0037
  435MPD2    C2 6536   3.288   4.276  15.479 -0.0568 -0.4523  0.5262
  435MPD2    C3 6537   3.416   4.230  15.496  0.4533 -0.1000 -1.2865
  435MPD2    C4 6538   3.500   4.213  15.389 -0.1948  0.7033 -0.4838
  435MPD2    C5 6539   3.444   4.226  15.262  0.9802 -0.0983 -0.2191
  435MPD2     H 6540   3.223   4.296  15.563 -1.2738  2.4486 -1.0762
  435MPD2    H1 6541   3.603   4.186  15.410 -0.8567 -0.5788  1.0762
  435MPD2    H2 6542   3.281   4.278  15.143 -3.0786  2.9719  1.2041
  435MPD2    H3 6543   3.499   4.214  15.170  0.0111  1.6570 -1.0237
  435MPD2     N 6544   3.463   4.227  15.628 -0.4401 -0.5196  0.3615
  435MPD2    H5 6545   3.391   4.258  15.692  1.3677  0.3197  1.9913
  435MPD2    N1 6546   3.107   4.348  15.346  0.1580  0.2851 -0.0681
  435MPD2    H7 6547   3.054   4.345  15.433 -0.8276 -1.0192 -0.7061
  436TMC3    C1 6548   2.740   4.508  15.400 -0.2564 -0.1901  0.2495
  436TMC3    C2 6549   2.865   4.465  15.382 -0.7167 -0.0751  0.4484
  436TMC3    C3 6550   2.891   4.394  15.266 -0.7581 -0.2307  0.0631
  436TMC3    C4 6551   2.639   4.501  15.310 -0.3262  0.1030  0.1402
  436TMC3    C5 6552   2.679   4.460  15.186 -0.1605 -1.0154 -0.1368
  436TMC3    C6 6553   2.801   4.394  15.160  0.1435  0.3332  0.0193
  436TMC3     C 6554   2.717   4.609  15.511  0.1203 -0.0802 -0.9485
  436TMC3     O 6555   2.807   4.684  15.536 -0.1888 -0.1651 -0.0820
  436TMC3     H 6556   2.943   4.490  15.454 -1.4908 -0.5229  1.4473
  436TMC3    H1 6557   2.539   4.535  15.331 -1.0225 -1.0672 -1.3179
  436TMC3    H2 6558   2.834   4.352  15.065  1.5759  1.3668  0.0665
  436TMC3    C7 6559   2.570   4.459  15.089 -0.2442  0.6108 -0.4186
  436TMC3    C8 6560   3.032   4.367  15.230 -0.2484  0.0080 -0.4579
  436TMC3    O1 6561   2.473   4.534  15.117 -0.1944  0.4297  0.0616
  436TMC3    O2 6562   3.058   4.341  15.110 -0.5709  0.2357  0.4383
  437TMC3    C1 6563   1.251   1.135  12.597 -0.1913  0.1300  0.3232
  437TMC3    C2 6564   1.138   1.094  12.528 -0.1463  0.1634  0.0228
  437TMC3    C3 6565   1.095   1.184  12.428 -0.5783 -0.4013  0.3849
  437TMC3    C4 6566   1.323   1.254  12.572 -1.0232 -0.2808 -0.5145
  437TMC3    C5 6567   1.267   1.334  12.475 -0.5799 -0.1812  0.7059
  437TMC3    C6 6568   1.155   1.302  12.401 -0.1032  0.1717  0.2333
  437TMC3     C 6569   1.323   1.046  12.692 -0.3435 -0.7351  0.1431
  437TMC3     O 6570   1.413   1.105  12.760  0.0140  0.1870  0.3029
  437TMC3     H 6571   1.089   0.998  12.544  0.9432 -0.3441  0.3392
  437TMC3    H1 6572   1.398   1.285  12.644 -1.8077  0.6034 -0.0816
  437TMC3    H2 6573   1.115   1.369  12.325  2.2755  3.0303  1.5473
  437TMC3    C7 6574   1.340   1.458  12.446  0.4247  0.5744 -0.7349
  437TMC3    C8 6575   0.957   1.175  12.381 -0.3505 -0.1167 -0.2965
  437TMC3    O1 6576   1.276   1.543  12.387 -0.8659  0.4487  0.0000
  437TMC3    O2 6577   0.902   1.279  12.346  0.1967  0.5633 -0.0580
  438MPD2     C 6578   4.017   2.405  16.832 -0.0367  0.5152 -0.4379
  438MPD2    C1 6579   4.091   2.315  16.905 -0.1587 -0.1653  0.0588
  438MPD2    C2 6580   4.071   2.311  17.041 -0.0944  0.9228  0.0692
  438MPD2    C3 6581   3.978   2.392  17.105  0.6999  0.7356 -0.0853
  438MPD2    C4 6582   3.898   2.474  17.024 -0.2796 -0.2244 -0.4682
  438MPD2    C5 6583   3.921   2.472  16.891  0.4777 -0.1023 -0.3639
  438MPD2     H 6584   4.134   2.257  17.109 -1.0045  0.1024  0.2611
  438MPD2    H1 6585   3.818   2.531  17.071 -0.6299 -0.7971 -0.3669
  438MPD2    H2 6586   4.037   2.424  16.727 -2.4133 -0.7833 -1.1100
  438MPD2    H3 6587   3.862   2.536  16.826  1.3618 -0.9662 -2.0156
  438MPD2     N 6588   3.966   2.399  17.247 -0.0605  0.1941 -0.3588
  438MPD2    H5 6589   3.893   2.466  17.270  1.7437  1.7628  0.8515
  438MPD2    N1 6590   4.191   2.239  16.845  0.3031  0.8754 -0.7421
  438MPD2    H7 6591   4.260   2.190  16.900 -0.0136  0.2905 -0.8603
  439TMC3    C1 6592   4.292   2.091  16.691 -0.0045 -0.0301 -0.2636
  439TMC3    C2 6593   4.260   1.990  16.602  0.5250 -0.5190 -0.2082
  439TMC3    C3 6594   4.360   1.900  16.582  0.2176 -0.5345 -0.5221
  439TMC3    C4 6595   4.402   2.098  16.772 -0.1508  0.4978  0.1467
  439TMC3    C5 6596   4.489   1.987  16.764  0.2878 -0.6229  0.0694
  439TMC3    C6 6597   4.472   1.894  16.662 -0.5041  0.5269  0.0542
  439TMC3     C 6598   4.183   2.186  16.717  0.1279  0.4098  0.1221
  439TMC3     O 6599   4.088   2.182  16.642 -0.2406  0.2318 -0.0028
  439TMC3     H 6600   4.170   1.985  16.543  0.4744  1.5772 -0.3082
  439TMC3    H1 6601   4.438   2.187  16.822  3.7706 -2.5120  2.6659
  439TMC3    H2 6602   4.543   1.814  16.647 -0.1262  0.8605  0.0711
  439TMC3    C7 6603   4.626   1.997  16.818 -0.3332 -0.5231  0.0051
  439TMC3    C8 6604   4.374   1.823  16.459 -0.7421 -0.7474 -0.6521
  439TMC3    O1 6605   4.668   2.095  16.875  0.5212  0.3536 -0.0919
  439TMC3    O2 6606   4.492   1.791  16.437 -0.0048  0.1730  0.2777
  440MPD2     C 6607   2.358   2.633  15.108 -0.4281 -0.3459  0.0145
  440MPD2    C1 6608   2.478   2.698  15.121 -0.3324  0.2475  0.1791
  440MPD2    C2 6609   2.585   2.641  15.195 -0.0794 -0.0304 -0.1362
  440MPD2    C3 6610   2.575   2.517  15.238 -0.4614  0.2582  0.5819
  440MPD2    C4 6611   2.456   2.455  15.228 -0.0103  0.0784 -0.7103
  440MPD2    C5 6612   2.350   2.507  15.159 -0.1242 -1.0353  0.2804
  440MPD2     H 6613   2.681   2.691  15.194 -0.6472  1.0847  0.9516
  440MPD2    H1 6614   2.454   2.353  15.263  2.0361  0.0879 -0.5645
  440MPD2    H2 6615   2.268   2.677  15.068  0.1660  0.2167 -0.6942
  440MPD2    H3 6616   2.254   2.460  15.150 -0.6005 -0.4429  2.1209
  440MPD2     N 6617   2.678   2.455  15.310  0.3424  0.7669 -0.6298
  440MPD2    H5 6618   2.670   2.356  15.332 -0.1945  0.7741 -0.7937
  440MPD2    N1 6619   2.497   2.828  15.065 -0.5252  1.0657  0.5107
  440MPD2    H7 6620   2.575   2.885  15.097 -0.6067 -0.4401  3.4533
  441TMC3    C1 6621   2.904   2.423  15.337  0.2729  0.1223 -0.2499
  441TMC3    C2 6622   3.013   2.488  15.287 -0.1430 -0.6397 -0.5824
  441TMC3    C3 6623   3.133   2.487  15.355 -0.0535  0.1591 -0.5838
  441TMC3    C4 6624   2.909   2.359  15.456 -0.1144 -0.5668  0.0795
  441TMC3    C5 6625   3.034   2.349  15.517  0.2302 -1.1918 -0.3594
  441TMC3    C6 6626   3.143   2.420  15.474  0.4687  0.8029  0.4467
  441TMC3     C 6627   2.795   2.518  15.334  0.2597 -0.3435 -0.8380
  441TMC3     O 6628   2.830   2.635  15.349  0.4316 -0.2995 -0.0890
  441TMC3     H 6629   3.008   2.537  15.191  2.8582 -1.1119 -0.9982
  441TMC3    H1 6630   2.825   2.309  15.503 -0.8893  0.6423 -0.0223
  441TMC3    H2 6631   3.242   2.417  15.519  0.4782 -1.0379  0.2815
  441TMC3    C7 6632   3.036   2.305  15.655  0.5170 -0.3028 -0.2842
  441TMC3    C8 6633   3.215   2.599  15.356  0.2039 -0.2752  0.6016
  441TMC3    O1 6634   3.140   2.337  15.715  0.0758 -0.3099  0.3502
  441TMC3    O2 6635   3.333   2.592  15.384  0.2670 -0.6563 -0.2189
  442MPD2     C 6636   0.873   3.360  16.068 -0.2688  0.5423 -0.2768
  442MPD2    C1 6637   0.770   3.282  16.123 -0.6028  0.0557  0.3609
  442MPD2    C2 6638   0.790   3.147  16.132  0.7749  0.2597  0.3498
  442MPD2    C3 6639   0.902   3.083  16.078  0.4255  0.4940  0.2784
  442MPD2    C4 6640   0.995   3.158  16.014 -1.0192 -0.3632  1.0437
  442MPD2    C5 6641   0.983   3.295  16.006  0.0454  0.3140  0.0685
  442MPD2     H 6642   0.714   3.093  16.187  0.5101 -2.6541 -2.8225
  442MPD2    H1 6643   1.085   3.117  15.972 -0.4136  0.3602  1.6234
  442MPD2    H2 6644   0.860   3.467  16.061 -1.1027  0.5710  1.6407
  442MPD2    H3 6645   1.062   3.359  15.968 -0.1072 -0.1602 -1.0459
  442MPD2     N 6646   0.932   2.945  16.091  0.8032 -0.1117  0.2091
  442MPD2    H5 6647   1.024   2.913  16.066 -0.4526 -1.5475 -2.5671
  442MPD2    N1 6648   0.680   3.341  16.222 -0.4032  0.3517 -0.5287
  442MPD2    H7 6649   0.632   3.270  16.276 -0.4528  1.0710  0.3572
  443TMC3    C1 6650   0.554   3.494  16.352 -0.8235  0.1238  1.0224
  443TMC3    C2 6651   0.467   3.596  16.335 -0.1463  0.8023 -0.0565
  443TMC3    C3 6652   0.355   3.598  16.423 -0.3301 -0.4769  0.4487
  443TMC3    C4 6653   0.542   3.400  16.451  0.6144 -0.4702  0.1073
  443TMC3    C5 6654   0.428   3.410  16.530  0.7264  0.9029 -0.0680
  443TMC3    C6 6655   0.338   3.517  16.524  0.7160 -0.2464 -0.4995
  443TMC3     C 6656   0.641   3.473  16.235 -0.7149 -0.6036 -0.0108
  443TMC3     O 6657   0.656   3.561  16.153 -0.0629  0.3904  0.2129
  443TMC3     H 6658   0.477   3.664  16.252  0.1661  1.5066  0.5594
  443TMC3    H1 6659   0.614   3.319  16.459  1.6532  0.3810 -0.5948
  443TMC3    H2 6660   0.254   3.528  16.592  1.3439 -1.6040  0.5004
  443TMC3    C7 6661   0.424   3.320  16.640 -0.4383 -0.2156 -0.3282
  443TMC3    C8 6662   0.239   3.690  16.394 -0.3161  1.1011  0.7323
  443TMC3    O1 6663   0.453   3.204  16.614  0.0484  0.3657 -0.2212
  443TMC3    O2 6664   0.192   3.737  16.495 -0.5185  0.1165 -0.0370
  444MPD2     C 6665   1.362   2.728  16.374  0.0946  0.2425 -0.1178
  444MPD2    C1 6666   1.304   2.707  16.498  0.2991  0.6903 -0.3025
  444MPD2    C2 6667   1.376   2.630  16.596  0.5038  0.1018 -0.1007
  444MPD2    C3 6668   1.505   2.581  16.569  0.2337  0.2694 -0.1951
  444MPD2    C4 6669   1.567   2.619  16.450 -0.1365 -0.1572 -0.0031
  444MPD2    C5 6670   1.492   2.685  16.352 -0.2008  0.3788 -0.5660
  444MPD2     H 6671   1.336   2.619  16.696  0.1018  0.1355 -0.2582
  444MPD2    H1 6672   1.667   2.585  16.428 -0.1976  0.4881 -1.2431
  444MPD2    H2 6673   1.314   2.786  16.296  1.6435 -1.3053 -2.2386
  444MPD2    H3 6674   1.533   2.703  16.253 -0.4027 -1.5537 -0.9984
  444MPD2     N 6675   1.565   2.498  16.667 -0.0811 -0.1707 -0.2029
  444MPD2    H5 6676   1.505   2.463  16.741 -0.0201  0.3250  0.0844
  444MPD2    N1 6677   1.185   2.764  16.544  0.3999  0.0440  0.5060
  444MPD2    H7 6678   1.159   2.749  16.641 -0.0507  2.5536  0.7795
  445TMC3    C1 6679   1.738   2.359  16.765 -0.7542 -0.1253  0.2512
  445TMC3    C2 6680   1.680   2.355  16.887 -0.0896 -0.5061 -0.6670
  445TMC3    C3 6681   1.718   2.253  16.971  0.0580 -0.1987 -0.2645
  445TMC3    C4 6682   1.838   2.272  16.729 -0.7527  0.2544 -0.0736
  445TMC3    C5 6683   1.868   2.173  16.815  0.0157  0.4109 -0.1104
  445TMC3    C6 6684   1.820   2.168  16.946 -0.1773 -0.3981 -0.3065
  445TMC3     C 6685   1.691   2.444  16.659 -0.0542 -0.7781 -0.2063
  445TMC3     O 6686   1.783   2.470  16.580 -0.0389  0.5527 -0.4580
  445TMC3     H 6687   1.607   2.427  16.921 -0.4125 -1.5294  0.8161
  445TMC3    H1 6688   1.880   2.276  16.629 -1.9591 -0.3655 -0.6038
  445TMC3    H2 6689   1.848   2.087  17.013  1.0852  0.4181  0.1597
  445TMC3    C7 6690   1.936   2.057  16.757 -0.0591 -0.5151 -0.3856
  445TMC3    C8 6691   1.647   2.240  17.094  0.2713 -0.1292 -0.3304
  445TMC3    O1 6692   1.963   2.066  16.639 -0.7681  0.2107  0.3421
  445TMC3    O2 6693   1.558   2.324  17.121  0.0401 -0.2276  0.5310
  446MPD2     C 6694   0.763   3.504  11.148 -0.2471  0.5401  0.3850
  446MPD2    C1 6695   0.724   3.618  11.075 -0.5565  0.1432  0.1854
  446MPD2    C2 6696   0.815   3.721  11.072 -1.1665  0.3295  0.0780
  446MPD2    C3 6697   0.940   3.713  11.129  0.0602 -0.4067  0.1978
  446MPD2    C4 6698   0.964   3.609  11.216  0.2989  0.2192  0.1953
  446MPD2    C5 6699   0.876   3.504  11.227  0.4449 -0.4534 -0.2566
  446MPD2     H 6700   0.784   3.806  11.012 -0.7478  0.0037 -0.5957
  446MPD2    H1 6701   1.054   3.599  11.276 -0.1425  0.6453  0.9321
  446MPD2    H2 6702   0.705   3.415  11.168 -0.6088  0.6616 -0.1270
  446MPD2    H3 6703   0.896   3.428  11.302  0.6479 -0.5002 -0.3558
  446MPD2     N 6704   1.043   3.808  11.112  1.4241  0.2255  0.6383
  446MPD2    H5 6705   1.022   3.876  11.039 -1.7007  0.2638  1.5677
  446MPD2    N1 6706   0.600   3.619  11.006 -0.3520 -0.4977 -0.6633
  446MPD2    H7 6707   0.582   3.710  10.964  0.0075  0.0124  0.2744
  447TMC3    C1 6708   1.265   3.892  11.100  1.4739  0.0436  0.4572
  447TMC3    C2 6709   1.232   4.011  11.044  0.0707  0.2216  0.0434
  447TMC3    C3 6710   1.319   4.083  10.974 -0.4319 -0.0592  0.2445
  447TMC3    C4 6711   1.394   3.842  11.089  0.6626 -0.3314 -0.2421
  447TMC3    C5 6712   1.485   3.917  11.028 -0.1351 -0.3579  0.0956
  447TMC3    C6 6713   1.451   4.039  10.971  0.2754  0.7341 -0.7763
  447TMC3     C 6714   1.171   3.802  11.170  0.3588  0.0002 -0.1022
  447TMC3     O 6715   1.228   3.729  11.251 -0.0276 -0.2987 -0.3329
  447TMC3     H 6716   1.134   4.052  11.064 -0.4596 -0.6527 -0.7905
  447TMC3    H1 6717   1.415   3.742  11.125  1.3299  0.1392  0.6572
  447TMC3    H2 6718   1.527   4.091  10.913  0.2687  2.1360  0.4851
  447TMC3    C7 6719   1.621   3.871  11.038  0.4009 -0.2927 -0.0648
  447TMC3    C8 6720   1.277   4.213  10.927  0.0085 -0.2924 -0.0662
  447TMC3    O1 6721   1.626   3.752  11.056  0.1152 -0.5528 -0.4465
  447TMC3    O2 6722   1.175   4.250  10.978 -0.2669 -0.0734  0.6345
  448TMC3    C1 6723   3.844   3.677  17.579  0.0646 -0.2705 -0.3984
  448TMC3    C2 6724   3.844   3.657  17.445 -0.1090 -0.6318  0.1924
  448TMC3    C3 6725   3.946   3.578  17.400  0.4079  0.0267 -0.1182
  448TMC3    C4 6726   3.945   3.637  17.666  0.1178 -0.0128 -0.5107
  448TMC3    C5 6727   4.055   3.580  17.602 -0.1239  0.6031  0.2786
  448TMC3    C6 6728   4.054   3.555  17.467  0.3086 -0.1780  0.4913
  448TMC3     C 6729   3.742   3.764  17.630 -0.3160  0.1446  0.7345
  448TMC3     O 6730   3.645   3.781  17.558 -0.0290 -0.7482 -0.2461
  448TMC3     H 6731   3.758   3.689  17.388 -0.5786 -0.0108  1.2445
  448TMC3    H1 6732   3.937   3.624   0.013  0.4961  1.4887 -0.3056
  448TMC3    H2 6733   4.140   3.509  17.419 -0.8955  0.4149 -2.1936
  448TMC3    C7 6734   4.163   3.516  17.674  0.7479  0.3629  0.6995
  448TMC3    C8 6735   3.925   3.489  17.291  0.1544 -0.1847 -0.1755
  448TMC3    O1 6736   4.220   3.423  17.610  0.1587 -0.2955  0.2698
  448TMC3    O2 6737   3.977   3.382  17.290 -0.4372 -0.1495 -0.1854
  449MPD2     C 6738   0.615   1.182  13.568  0.2360  0.5015 -0.2292
  449MPD2    C1 6739   0.548   1.300  13.556 -0.1674 -0.0656  0.1259
  449MPD2    C2 6740   0.419   1.302  13.606 -0.5657 -0.1323  0.0302
  449MPD2    C3 6741   0.360   1.193  13.666 -0.1398 -0.3781  0.7186
  449MPD2    C4 6742   0.426   1.070  13.654 -0.2679 -0.8384  0.5681
  449MPD2    C5 6743   0.554   1.070  13.605 -0.1103  1.1162 -0.5634
  449MPD2     H 6744   0.362   1.395  13.609 -0.4463 -0.0065 -1.7241
  449MPD2    H1 6745   0.380   0.973  13.666  1.9178 -1.6912  2.1910
  449MPD2    H2 6746   0.708   1.157  13.519 -0.1866 -0.4335 -0.5662
  449MPD2    H3 6747   0.602   0.975  13.588 -0.4754  0.5188  1.6993
  449MPD2     N 6748   0.232   1.212  13.724 -0.4611 -0.3154 -0.0602
  449MPD2    H5 6749   0.191   1.303  13.740 -0.1448  0.0487 -1.3550
  449MPD2    N1 6750   0.605   1.426  13.525 -0.4787 -0.0169 -0.0925
  449MPD2    H7 6751   0.541   1.504  13.537 -2.3096 -1.2814 -1.6107
  450TMC3    C1 6752   0.736   1.596  13.446  0.4229 -0.5451  0.2351
  450TMC3    C2 6753   0.724   1.623  13.311  0.7061  0.5437 -0.5113
  450TMC3    C3 6754   0.629   1.714  13.271 -0.4478  0.3585 -0.0836
  450TMC3    C4 6755   0.681   1.677  13.542  0.8518  0.2312 -0.0002
  450TMC3    C5 6756   0.587   1.773  13.502  0.9342 -0.3332  0.6650
  450TMC3    C6 6757   0.562   1.783  13.368  0.7128 -0.2175 -0.2309
  450TMC3     C 6758   0.733   1.453  13.481  0.3170 -0.4257  0.3118
  450TMC3     O 6759   0.814   1.374  13.434  0.0069  0.4186  0.5458
  450TMC3     H 6760   0.759   1.541  13.250  0.1081 -0.3116  0.3121
  450TMC3    H1 6761   0.701   1.647  13.645 -3.5358 -0.2296  0.7056
  450TMC3    H2 6762   0.477   1.844  13.337  0.1767 -0.3854  0.9407
  450TMC3    C7 6763   0.467   1.745  13.577 -0.1289 -0.1373  0.2007
  450TMC3    C8 6764   0.626   1.753  13.134 -0.1233  0.1686  0.3064
  450TMC3    O1 6765   0.455   1.642  13.643  0.2826  0.1152  0.1119
  450TMC3    O2 6766   0.540   1.832  13.099  0.2835 -0.4840  0.1403
  451MPD2     C 6767   2.596   2.234   1.396 -0.0218 -0.4267  0.6356
  451MPD2    C1 6768   2.521   2.121   1.372  0.7495  0.3461  0.2398
  451MPD2    C2 6769   2.591   2.005   1.347  0.2985 -0.5673 -0.0076
  451MPD2    C3 6770   2.727   1.997   1.349  0.6227 -0.0963  0.1576
  451MPD2    C4 6771   2.800   2.107   1.388  0.4516 -0.1988 -0.1269
  451MPD2    C5 6772   2.734   2.223   1.413  0.2756  1.0505  0.5127
  451MPD2     H 6773   2.533   1.915   1.332  0.4743 -1.0729  2.2661
  451MPD2    H1 6774   2.905   2.111   1.412  0.5517  1.3622 -0.8082
  451MPD2    H2 6775   2.556   2.335   1.397  2.2401  0.4690 -0.9656
  451MPD2    H3 6776   2.802   2.303   1.442 -0.0135  1.5895 -0.2806
  451MPD2     N 6777   2.794   1.874   1.312  0.4860 -0.0751  0.4103
  451MPD2    H5 6778   2.736   1.797   1.282 -1.9691  1.6480  0.6736
  451MPD2    N1 6779   2.389   2.130   1.340 -0.1687  0.5784  0.4834
  451MPD2    H7 6780   2.347   2.055   1.285  1.7926  1.4990 -2.2328
  452TMC3    C1 6781   2.936   1.729   1.223 -0.1712 -0.9468  0.3410
  452TMC3    C2 6782   2.819   1.657   1.219  0.0087 -0.2194  0.7766
  452TMC3    C3 6783   2.783   1.607   1.095  0.0407  0.9130  0.6549
  452TMC3    C4 6784   3.018   1.743   1.113  0.1698  0.2443 -0.1433
  452TMC3    C5 6785   2.980   1.692   0.992 -0.0917  0.3005 -0.1889
  452TMC3    C6 6786   2.858   1.627   0.982 -0.1205 -0.4030  0.5067
  452TMC3     C 6787   2.927   1.848   1.301  0.0416 -0.1041  0.2141
  452TMC3     O 6788   3.023   1.921   1.314 -0.0712 -0.3017  0.3337
  452TMC3     H 6789   2.762   1.623   1.304  0.0765 -2.4025 -0.0451
  452TMC3    H1 6790   3.106   1.806   1.103  0.8411 -0.4900  1.2103
  452TMC3    H2 6791   2.817   1.592   0.887  0.5474  1.6111 -0.5292
  452TMC3    C7 6792   3.038   1.747   0.873  1.1219  0.0993  0.8658
  452TMC3    C8 6793   2.637   1.601   1.091  0.1387  0.1186 -0.4246
  452TMC3    O1 6794   3.067   1.867   0.871 -0.1779  0.4362  0.8579
  452TMC3    O2 6795   2.571   1.633   1.192  0.1014 -0.2248 -0.6274
  453TMC3    C1 6796   3.045   2.745  12.294  0.2106  0.2390 -1.0975
  453TMC3    C2 6797   2.954   2.655  12.336 -0.3856  0.6303  0.2992
  453TMC3    C3 6798   2.842   2.638  12.263  0.2059 -0.2728  0.0355
  453TMC3    C4 6799   3.024   2.827  12.188 -0.1477  0.1288  0.2494
  453TMC3    C5 6800   2.912   2.805  12.114 -0.2880 -0.9772 -0.1355
  453TMC3    C6 6801   2.816   2.714  12.157  0.0628  0.7199 -0.3398
  453TMC3     C 6802   3.178   2.754  12.355 -0.0998 -0.0125 -0.2664
  453TMC3     O 6803   3.255   2.834  12.301 -0.2276 -0.3139  0.1734
  453TMC3     H 6804   2.959   2.593  12.425 -1.7976 -0.8492 -0.6612
  453TMC3    H1 6805   3.095   2.907  12.167  0.2577  0.0801  1.4262
  453TMC3    H2 6806   2.724   2.685  12.106  0.3283  2.6245 -1.9179
  453TMC3    C7 6807   2.915   2.824  11.969 -0.1223  0.0189 -0.4043
  453TMC3    C8 6808   2.831   2.497  12.230 -0.3161 -0.3483  0.1020
  453TMC3    O1 6809   2.836   2.749  11.907 -0.2685  0.0815  0.1958
  453TMC3    O2 6810   2.939   2.442  12.214 -0.3902 -0.0126 -0.1113
  454MPD2     C 6811   2.178   2.055  16.280  0.4656  0.3479 -0.6896
  454MPD2    C1 6812   2.152   2.147  16.184 -0.4479  0.5448  0.1327
  454MPD2    C2 6813   2.181   2.280  16.210 -0.3673 -0.1109 -0.9757
  454MPD2    C3 6814   2.220   2.327  16.337 -0.5508 -0.2131  0.3998
  454MPD2    C4 6815   2.253   2.229  16.436 -0.3201 -0.3938 -0.0265
  454MPD2    C5 6816   2.234   2.102  16.398  0.0096  0.2872 -0.7347
  454MPD2     H 6817   2.158   2.358  16.138 -2.2498 -1.2807 -1.6475
  454MPD2    H1 6818   2.286   2.250  16.537 -2.8249 -0.1278  0.7530
  454MPD2    H2 6819   2.162   1.951  16.257  1.0992 -0.3652  2.1480
  454MPD2    H3 6820   2.246   2.024  16.472 -1.0826  1.4164  0.6167
  454MPD2     N 6821   2.219   2.462  16.379  0.1017 -0.4725  0.2596
  454MPD2    H5 6822   2.284   2.473  16.456 -0.4910 -3.8326  1.2059
  454MPD2    N1 6823   2.083   2.118  16.063 -0.1496 -0.2998  0.4023
  454MPD2    H7 6824   2.070   2.195  15.999 -1.4721  0.6860  1.8785
  455TMC3    C1 6825   2.035   2.565  16.262  0.0563  0.3657  1.0675
  455TMC3    C2 6826   1.991   2.680  16.199  0.0074 -0.4197 -0.2474
  455TMC3    C3 6827   1.864   2.674  16.145  0.4079 -0.1507 -0.0515
  455TMC3    C4 6828   1.950   2.464  16.295 -0.4130  0.9685  0.5358
  455TMC3    C5 6829   1.818   2.470  16.251 -0.3906  0.0868  0.2871
  455TMC3    C6 6830   1.786   2.562  16.158 -0.2868 -0.2634 -0.7887
  455TMC3     C 6831   2.163   2.579  16.329 -0.2601 -0.5735 -0.6117
  455TMC3     O 6832   2.214   2.688  16.339  0.7528 -0.2080  0.5436
  455TMC3     H 6833   2.055   2.763  16.173 -0.0662 -0.2490  0.1173
  455TMC3    H1 6834   1.980   2.387  16.364 -0.6953  0.9683  0.6602
  455TMC3    H2 6835   1.685   2.568  16.117  0.2116 -1.5393 -2.2456
  455TMC3    C7 6836   1.743   2.346  16.240  0.3566  0.3854 -0.0476
  455TMC3    C8 6837   1.801   2.800  16.161 -0.3947 -0.4426  0.2553
  455TMC3    O1 6838   1.632   2.352  16.189  0.5821 -0.2511  0.0899
  455TMC3    O2 6839   1.713   2.834  16.083  0.5958 -0.0279  0.5302
  456MPD2     C 6840   4.160   2.377  16.315  0.5347 -0.3793 -0.2478
  456MPD2    C1 6841   4.263   2.373  16.408  0.3279  0.3797 -0.7725
  456MPD2    C2 6842   4.258   2.457  16.516  0.4602  0.0130 -0.7329
  456MPD2    C3 6843   4.160   2.558  16.519 -0.1726 -0.6323  1.3604
  456MPD2    C4 6844   4.064   2.563  16.425 -0.0181  0.0937 -0.3253
  456MPD2    C5 6845   4.062   2.469  16.327 -0.5745  0.0781  0.2655
  456MPD2     H 6846   4.323   2.458  16.603  0.0816  1.4971 -0.4510
  456MPD2    H1 6847   3.988   2.640  16.421  0.9595  1.1714  1.9535
  456MPD2    H2 6848   4.151   2.301  16.239  0.2212 -1.8670  1.2678
  456MPD2    H3 6849   3.974   2.466  16.265 -0.0431  2.6436 -0.6032
  456MPD2     N 6850   4.157   2.659  16.618 -0.1933  0.2370 -0.4885
  456MPD2    H5 6851   4.231   2.645  16.687  0.0285  4.1406  0.0595
  456MPD2    N1 6852   4.371   2.280  16.385 -0.0841 -0.3597 -0.0286
  456MPD2    H7 6853   4.368   2.231  16.296 -2.1525 -2.5822  1.2534
  457TMC3    C1 6854   4.077   2.827  16.770  0.3515 -0.1567  0.0508
  457TMC3    C2 6855   3.985   2.931  16.784 -0.1267  0.3957  0.2926
  457TMC3    C3 6856   3.942   2.944  16.915 -0.0848  0.0141  0.4737
  457TMC3    C4 6857   4.122   2.753  16.879 -0.1119  0.3563 -0.3735
  457TMC3    C5 6858   4.067   2.768  17.001 -0.0445 -0.3166  0.6968
  457TMC3    C6 6859   3.988   2.873  17.021 -0.4375 -0.1030 -0.5794
  457TMC3     C 6860   4.061   2.758  16.635  0.7516  0.7379 -0.8542
  457TMC3     O 6861   3.960   2.782  16.571  0.0143 -0.0377  0.3856
  457TMC3     H 6862   3.976   3.000  16.701  2.4190 -0.6275 -0.8116
  457TMC3    H1 6863   4.158   2.651  16.872 -1.4221 -0.1886  0.8468
  457TMC3    H2 6864   3.942   2.886  17.118 -0.0665 -1.1431 -0.2727
  457TMC3    C7 6865   4.170   2.762  17.099 -0.0236  0.0461  0.7100
  457TMC3    C8 6866   3.909   3.076  16.966  0.1511 -0.1521  0.0766
  457TMC3    O1 6867   4.239   2.660  17.106 -0.9555 -0.2788  0.3903
  457TMC3    O2 6868   3.968   3.094  17.070  0.3437  0.2726 -0.6792
  458MPD2     C 6869   1.784   1.700  12.388  0.4005 -0.2788  0.1384
  458MPD2    C1 6870   1.816   1.566  12.410 -0.7158  0.0959  0.0615
  458MPD2    C2 6871   1.711   1.487  12.445 -0.0987  0.4959 -0.9260
  458MPD2    C3 6872   1.581   1.533  12.442 -0.0070  0.0847 -0.1640
  458MPD2    C4 6873   1.549   1.662  12.413  0.4373 -0.2073 -0.3561
  458MPD2    C5 6874   1.655   1.746  12.393 -0.8091 -0.0214 -0.3915
  458MPD2     H 6875   1.737   1.388  12.482  1.5839  0.7712 -1.3580
  458MPD2    H1 6876   1.450   1.705  12.400  0.9618  1.0006 -0.3624
  458MPD2    H2 6877   1.865   1.767  12.362 -0.2342  0.4501  0.0733
  458MPD2    H3 6878   1.625   1.845  12.362 -3.5644 -0.9802 -0.7606
  458MPD2     N 6879   1.479   1.437  12.456  0.6539 -0.1599 -0.1194
  458MPD2    H5 6880   1.518   1.350  12.489  1.6784  0.7106  0.9966
  458MPD2    N1 6881   1.955   1.533  12.433  0.4002 -0.1908 -1.0510
  458MPD2    H7 6882   2.029   1.600  12.420 -1.3388  1.8364 -0.4918
  459TMC3    C1 6883   2.121   1.395  12.542 -0.7675  0.4264 -0.7857
  459TMC3    C2 6884   2.204   1.509  12.564  0.1219 -0.7122  0.0744
  459TMC3    C3 6885   2.325   1.481  12.635  0.1510  0.4967  0.8281
  459TMC3    C4 6886   2.155   1.273  12.587 -1.0546  0.1749  0.0801
  459TMC3    C5 6887   2.269   1.260  12.657  0.0220  0.1275 -0.1418
  459TMC3    C6 6888   2.355   1.357  12.688  0.0754  0.9201  0.7627
  459TMC3     C 6889   1.992   1.407  12.474 -0.6249 -0.1338 -0.2460
  459TMC3     O 6890   1.923   1.302  12.465  0.3361  0.0971 -0.0769
  459TMC3     H 6891   2.167   1.606  12.532 -2.2919 -1.2110  1.3282
  459TMC3    H1 6892   2.084   1.192  12.575 -0.6479 -0.2256  0.3225
  459TMC3    H2 6893   2.444   1.346  12.749  0.5510 -0.5313 -0.1796
  459TMC3    C7 6894   2.316   1.126  12.680 -0.4628  0.0789  0.2372
  459TMC3    C8 6895   2.403   1.603  12.654  0.6230  0.1186  0.2925
  459TMC3    O1 6896   2.389   1.125  12.778 -0.0098 -0.3727  0.6195
  459TMC3    O2 6897   2.385   1.692  12.572 -0.3942  0.9115  0.1490
  460MPD2     C 6898   1.448   4.457  10.711 -0.0866  0.0704 -0.0166
  460MPD2    C1 6899   1.337   4.394  10.774 -0.7473  0.5968  0.1074
  460MPD2    C2 6900   1.211   4.448  10.767  0.1153 -0.1191  0.1674
  460MPD2    C3 6901   1.199   4.567  10.695  0.6126  0.0632 -0.3431
  460MPD2    C4 6902   1.308   4.631  10.638  0.7204 -0.3402  0.4102
  460MPD2    C5 6903   1.434   4.583  10.660  0.2100  0.4145  0.8199
  460MPD2     H 6904   1.124   4.404  10.815 -0.1169  0.6741  0.4786
  460MPD2    H1 6905   1.296   4.725  10.585 -1.4572 -1.6059 -1.3030
  460MPD2    H2 6906   1.548   4.416  10.718 -0.2099 -0.2480 -0.1592
  460MPD2    H3 6907   1.520   4.634  10.619  2.2912 -1.1010  3.3034
  460MPD2     N 6908   1.070   4.624  10.693  0.8152  0.0947 -0.1089
  460MPD2    H5 6909   0.994   4.569  10.732  0.6023 -1.0335 -2.1202
  460MPD2    N1 6910   1.363   4.272  10.841  0.3443  0.3751 -0.3568
  460MPD2    H7 6911   1.459   4.238  10.841  1.1899  2.7506 -1.3633
  461TMC3    C1 6912   0.890   4.710  10.598  0.5981 -0.5975 -0.5266
  461TMC3    C2 6913   0.859   4.592  10.539 -0.7787  0.5795  0.0504
  461TMC3    C3 6914   0.751   4.584  10.461 -0.1218 -1.0011  0.0695
  461TMC3    C4 6915   0.820   0.086  10.576  0.3223  0.2985  0.1138
  461TMC3    C5 6916   0.712   0.070  10.497  0.0118  0.4049  0.2367
  461TMC3    C6 6917   0.671   4.689  10.445 -0.6860  0.0918  0.0103
  461TMC3     C 6918   1.027   4.728  10.615 -0.1402 -0.0738 -0.4423
  461TMC3     O 6919   1.064   0.101  10.592  0.2176  0.1089 -0.0407
  461TMC3     H 6920   0.917   4.502  10.557  0.9087  1.8653  1.0702
  461TMC3    H1 6921   0.846   0.183  10.618  1.8231 -0.5998  1.2701
  461TMC3    H2 6922   0.577   4.684  10.391 -1.0341 -1.9394  0.8232
  461TMC3    C7 6923   0.634   0.183  10.445  0.2127 -0.3471 -0.3757
  461TMC3    C8 6924   0.767   4.482  10.360 -0.3402  0.1105 -0.0953
  461TMC3    O1 6925   0.556   0.160  10.348  0.0005  0.4042  0.1829
  461TMC3    O2 6926   0.865   4.408  10.357  0.4971  0.4106 -0.5847
  462TMC3    C1 6927   1.203   1.228   0.016 -0.1753  0.2746  0.3778
  462TMC3    C2 6928   1.327   1.286   0.010 -0.0052  0.4036 -0.2633
  462TMC3    C3 6929   1.432   1.212  17.744  0.3651  0.1961 -0.6882
  462TMC3    C4 6930   1.191   1.098  17.739 -0.7754  0.6256 -0.0922
  462TMC3    C5 6931   1.307   1.023  17.728 -0.0674  0.1505  0.4257
  462TMC3    C6 6932   1.431   1.080  17.738  0.1267 -0.4074  0.1444
  462TMC3     C 6933   1.104   1.310   0.070  0.4108 -0.2981 -0.0826
  462TMC3     O 6934   1.118   1.434   0.073  0.0883 -0.7021 -0.2370
  462TMC3     H 6935   1.346   1.389   0.040  0.0782  0.2701  0.1433
  462TMC3    H1 6936   1.096   1.048  17.754 -0.4385  0.5427  1.7658
  462TMC3    H2 6937   1.523   1.028   0.004 -0.1889 -0.3776  1.3062
  462TMC3    C7 6938   1.288   0.879  17.720  0.0339  0.4534 -0.1414
  462TMC3    C8 6939   1.564   1.273   0.005  0.7511  0.4403  0.9943
  462TMC3    O1 6940   1.178   0.836  17.746 -0.4451  0.2979  0.3968
  462TMC3    O2 6941   1.570   1.382   0.062 -0.0609  0.4649 -0.3491
  463MPD2     C 6942   2.907   4.303   1.397  1.2323 -0.5097  0.3680
  463MPD2    C1 6943   2.795   4.337   1.322 -0.6633  0.8906  0.9584
  463MPD2    C2 6944   2.778   4.466   1.282 -0.6016  0.0590  0.4566
  463MPD2    C3 6945   2.877   4.555   1.313  0.6525  0.1648 -0.1199
  463MPD2    C4 6946   2.993   4.526   1.379 -0.7551  0.1661  0.1554
  463MPD2    C5 6947   3.004   4.395   1.424  0.2228 -0.2610  0.7355
  463MPD2     H 6948   2.686   4.489   1.229  0.2973  1.4595 -0.4954
  463MPD2    H1 6949   3.072   4.598   1.396  2.1833 -2.5073 -2.1406
  463MPD2    H2 6950   2.911   4.204   1.443 -1.1829 -0.6193  0.3615
  463MPD2    H3 6951   3.088   4.373   1.489  2.2151  1.8112 -1.1027
  463MPD2     N 6952   2.868   4.689   1.264 -0.2009 -0.3718  0.2244
  463MPD2    H5 6953   2.928   0.017   1.307 -0.6035  0.6544 -0.8291
  463MPD2    N1 6954   2.695   4.240   1.295  0.0271  0.3924 -0.1068
  463MPD2    H7 6955   2.612   4.286   1.258  1.0779  1.1546 -1.5423
  464TMC3    C1 6956   2.583   4.047   1.278  0.0864 -0.1563  0.5159
  464TMC3    C2 6957   2.466   4.122   1.265 -0.0715  0.0724  0.2052
  464TMC3    C3 6958   2.364   4.068   1.192 -0.4418 -0.1264 -0.1133
  464TMC3    C4 6959   2.596   3.927   1.210 -0.6187 -0.7761  0.2115
  464TMC3    C5 6960   2.494   3.884   1.138  0.1811  0.4138  0.5285
  464TMC3    C6 6961   2.379   3.956   1.115  0.2132  0.3962 -0.5267
  464TMC3     C 6962   2.697   4.109   1.318 -0.3750  0.2309 -0.3765
  464TMC3     O 6963   2.795   4.038   1.339 -0.1241 -0.3815 -0.4340
  464TMC3     H 6964   2.448   4.203   1.334 -1.2226  1.5886 -1.9053
  464TMC3    H1 6965   2.687   3.868   1.218  0.3116  0.6179 -0.1743
  464TMC3    H2 6966   2.303   3.935   1.041 -1.1993  0.2680  0.9579
  464TMC3    C7 6967   2.521   3.758   1.074  0.2825 -0.3932 -0.4678
  464TMC3    C8 6968   2.249   4.151   1.151 -0.0872 -0.7188  0.5318
  464TMC3    O1 6969   2.626   3.702   1.096  0.1448 -0.3695  0.1301
  464TMC3    O2 6970   2.269   4.270   1.172  0.0906  0.1186  0.2865
  465MPD2     C 6971   3.430   3.511  17.098 -0.2258  0.1529  0.3426
  465MPD2    C1 6972   3.473   3.380  17.099 -1.0664  0.6354  0.3648
  465MPD2    C2 6973   3.460   3.319  16.981 -0.4615 -0.5705 -0.0689
  465MPD2    C3 6974   3.419   3.384  16.860  0.6716  0.2692 -1.1778
  465MPD2    C4 6975   3.372   3.512  16.872 -0.0497  0.4473  0.6831
  465MPD2    C5 6976   3.384   3.582  16.992  0.0961 -0.3073  0.4715
  465MPD2     H 6977   3.494   3.216  16.974  2.8091  0.5481 -0.8260
  465MPD2    H1 6978   3.346   3.570  16.785  0.4206  0.8902  0.8312
  465MPD2    H2 6979   3.442   3.570  17.188  0.0569 -1.6691  1.4914
  465MPD2    H3 6980   3.355   3.686  17.008  0.8582 -0.1449  0.8109
  465MPD2     N 6981   3.402   3.298  16.752 -0.0600  0.0907  0.1481
  465MPD2    H5 6982   3.428   3.201  16.766 -1.1246 -0.0816  1.0007
  465MPD2    N1 6983   3.531   3.322  17.212  0.0095 -0.1399  0.1054
  465MPD2    H7 6984   3.536   3.381  17.294  3.0462  0.9812 -0.8972
  466TMC3    C1 6985   3.321   3.003  16.495  0.2300  0.4745  0.6256
  466TMC3    C2 6986   3.197   3.004  16.439  0.2568 -0.0748 -0.7089
  466TMC3    C3 6987   3.116   3.119  16.452 -0.3631  0.0649  0.3865
  466TMC3    C4 6988   3.369   3.115  16.551 -0.3678 -0.4064 -0.7342
  466TMC3    C5 6989   3.290   3.228  16.557  0.2089 -0.8381 -0.2225
  466TMC3    C6 6990   3.171   3.237  16.502  0.5566 -0.2128 -0.0029
  466TMC3     C 6991   3.409   2.893  16.453  0.0587  0.6526 -0.1277
  466TMC3     O 6992   3.395   2.855  16.339  0.0099 -0.0777 -0.2306
  466TMC3     H 6993   3.145   2.920  16.395  0.5244  0.3367 -1.8097
  466TMC3    H1 6994   3.472   3.123  16.582 -0.3728  0.0519 -0.8396
  466TMC3    H2 6995   3.114   3.330  16.503 -0.3919 -0.7949 -0.1970
  466TMC3    C7 6996   3.332   3.337  16.641  0.0766 -0.1300  0.1621
  466TMC3    C8 6997   2.970   3.104  16.449  0.3037 -0.2146 -0.0665
  466TMC3    O1 6998   3.281   3.443  16.609  0.0916 -0.1558  0.2223
  466TMC3    O2 6999   2.918   3.007  16.400 -0.4376  0.4611 -0.3559
  467TMC3    C1 7000   0.054   0.662  13.804  0.0255  0.6307 -0.4776
  467TMC3    C2 7001   0.078   0.754  13.710 -0.2146 -0.5311 -0.3353
  467TMC3    C3 7002   4.707   0.803  13.656  0.2184  0.0576  0.7717
  467TMC3    C4 7003   4.676   0.637  13.871  0.2899  0.2144  0.7107
  467TMC3    C5 7004   4.568   0.707  13.829  0.0025 -0.8574 -0.4644
  467TMC3    C6 7005   4.581   0.778  13.714  0.1287 -0.0515 -0.0327
  467TMC3     C 7006   0.168   0.613  13.875 -0.7985  0.6820  0.5851
  467TMC3     O 7007   0.170   0.498  13.921 -0.7422  0.1393  0.6640
  467TMC3     H 7008   0.178   0.777  13.675 -0.4633 -3.1827 -2.7699
  467TMC3    H1 7009   4.666   0.573  13.958 -0.0791 -2.2048 -1.1047
  467TMC3    H2 7010   4.500   0.819  13.655  1.6745  3.1309  0.0501
  467TMC3    C7 7011   4.442   0.701  13.900  0.0204 -0.2419  0.4789
  467TMC3    C8 7012   4.713   0.913  13.565 -0.3222  0.7917 -0.1897
  467TMC3    O1 7013   4.451   0.618  13.988  0.7563 -0.8550  0.4735
  467TMC3    O2 7014   4.620   0.995  13.577  0.6063  0.3385  0.3057
  468MPD2     C 7015   2.831   4.133  10.792  0.3155  0.7509 -0.4823
  468MPD2    C1 7016   2.948   4.070  10.836 -0.5258 -0.3422  0.4863
  468MPD2    C2 7017   2.974   3.942  10.793  0.3610  0.2994  0.2675
  468MPD2    C3 7018   2.879   3.875  10.719 -0.0079 -0.1352 -0.3702
  468MPD2    C4 7019   2.759   3.932  10.685 -0.3064  0.0516 -0.5252
  468MPD2    C5 7020   2.738   4.066  10.724  1.0615 -0.1442  0.5891
  468MPD2     H 7021   3.060   3.885  10.827  0.4239 -1.0617 -2.2018
  468MPD2    H1 7022   2.681   3.876  10.634 -0.3569 -0.1908 -0.1838
  468MPD2    H2 7023   2.806   4.236  10.814  0.3422  0.2274  1.9821
  468MPD2    H3 7024   2.648   4.122  10.702 -0.1310 -1.6006  1.7912
  468MPD2     N 7025   2.893   3.742  10.681 -0.0573  0.1322  0.4754
  468MPD2    H5 7026   2.812   3.692  10.644  0.6598 -1.1311  0.6041
  468MPD2    N1 7027   3.033   4.129  10.927  0.2451  0.3421  0.2128
  468MPD2    H7 7028   3.118   4.081  10.954 -0.0646 -1.6002 -2.2451
  469TMC3    C1 7029   3.117   4.278  11.079 -0.1261  0.4052  0.7447
  469TMC3    C2 7030   3.240   4.254  11.029 -0.2285  0.2063  0.1128
  469TMC3    C3 7031   3.348   4.288  11.112  0.4897  0.1819  0.2315
  469TMC3    C4 7032   3.094   4.342  11.197 -0.1724 -0.0024  0.7468
  469TMC3    C5 7033   3.197   4.367  11.283  0.1258 -0.5844 -0.1407
  469TMC3    C6 7034   3.326   4.345  11.238 -0.5111  0.1572 -0.8073
  469TMC3     C 7035   2.998   4.236  11.013  0.2143  1.1781 -0.5287
  469TMC3     O 7036   2.887   4.278  11.036  0.0211  0.4180 -0.0816
  469TMC3     H 7037   3.256   4.205  10.934 -2.4264  1.2396 -0.7557
  469TMC3    H1 7038   2.991   4.363  11.224 -0.1464  0.5841  0.3828
  469TMC3    H2 7039   3.415   4.348  11.300 -0.9473  0.8296 -0.2184
  469TMC3    C7 7040   3.168   4.450  11.394  0.3182  0.3033 -0.0337
  469TMC3    C8 7041   3.477   4.256  11.054  0.3224  0.5296  0.3070
  469TMC3    O1 7042   3.049   4.466  11.428  0.1778  0.0228  0.1947
  469TMC3    O2 7043   3.472   4.155  10.987  0.1508  0.4839  0.4504
  470TMC3    C1 7044   1.194   1.067   0.707 -1.0319  0.1670  0.3509
  470TMC3    C2 7045   1.280   1.172   0.734  0.0884 -0.4781 -0.2168
  470TMC3    C3 7046   1.279   1.221   0.866  0.0893 -0.0803 -0.4063
  470TMC3    C4 7047   1.123   0.996   0.801 -0.2256  0.1620 -0.4509
  470TMC3    C5 7048   1.146   1.042   0.929  0.4105  0.0277 -0.3643
  470TMC3    C6 7049   1.219   1.150   0.965  0.7416  0.2929 -0.0069
  470TMC3     C 7050   1.248   0.977   0.601  0.6827  0.1873  0.1000
  470TMC3     O 7051   1.184   0.877   0.571 -0.2262  0.2049 -0.2944
  470TMC3     H 7052   1.307   1.240   0.653 -1.6623  0.7116  0.1943
  470TMC3    H1 7053   1.081   0.899   0.777  1.5665 -1.1312  1.6497
  470TMC3    H2 7054   1.235   1.179   1.069  2.3870 -1.2021  0.1505
  470TMC3    C7 7055   1.070   0.965   1.029 -0.5175 -0.3317 -0.0428
  470TMC3    C8 7056   1.292   1.364   0.888 -0.4477  0.6256  0.2993
  470TMC3    O1 7057   0.975   0.897   0.984  0.0488 -0.4101  0.2159
  470TMC3    O2 7058   1.244   1.411   0.991  0.3522  0.0672  0.0890
  471MPD2     C 7059   0.943   1.651  16.045 -0.5740 -0.0516 -0.0805
  471MPD2    C1 7060   1.002   1.524  16.066  0.2223 -0.3025 -1.0240
  471MPD2    C2 7061   1.090   1.517  16.172 -0.3409  0.2618  1.3656
  471MPD2    C3 7062   1.119   1.622  16.257 -0.6642 -0.2629  0.5990
  471MPD2    C4 7063   1.053   1.740  16.234 -0.3601 -0.2493  0.2962
  471MPD2    C5 7064   0.969   1.757  16.127 -0.5381  0.2714 -0.2401
  471MPD2     H 7065   1.127   1.422  16.209 -0.2843  1.0355  3.2491
  471MPD2    H1 7066   1.071   1.824  16.301  0.3535  0.3600 -0.6534
  471MPD2    H2 7067   0.865   1.673  15.974 -0.5211 -0.2519 -0.2024
  471MPD2    H3 7068   0.923   1.854  16.112  1.0133  1.0232 -0.1391
  471MPD2     N 7069   1.193   1.614  16.375 -0.2483 -0.4842 -0.1790
  471MPD2    H5 7070   1.180   1.689  16.442  0.5626  0.0933 -0.6782
  471MPD2    N1 7071   0.972   1.404  15.999 -0.0267 -0.0030 -0.1937
  471MPD2    H7 7072   1.006   1.320  16.043 -0.2788  0.1233  0.2534
  472TMC3    C1 7073   0.861   1.263  15.839 -0.8583 -0.0472 -0.2281
  472TMC3    C2 7074   0.744   1.236  15.780  0.0714 -0.6754 -0.1854
  472TMC3    C3 7075   0.707   1.106  15.767 -0.0219  0.4296  0.6955
  472TMC3    C4 7076   0.949   1.169  15.871 -0.1329 -0.5900 -0.3192
  472TMC3    C5 7077   0.920   1.037  15.838  0.4064  0.6382  0.2638
  472TMC3    C6 7078   0.793   1.000  15.794 -0.0047 -0.2465  0.0062
  472TMC3     C 7079   0.890   1.397  15.887  0.1623  0.4621 -0.2193
  472TMC3     O 7080   0.820   1.485  15.835 -0.3484  0.5924 -0.0197
  472TMC3     H 7081   0.664   1.309  15.780 -0.0374 -0.8170 -1.8902
  472TMC3    H1 7082   1.050   1.196  15.900  0.3521 -2.2549 -0.4118
  472TMC3    H2 7083   0.771   0.895  15.785 -1.5668  0.1203 -0.3829
  472TMC3    C7 7084   1.018   0.944  15.878  0.3629 -0.2301 -0.1216
  472TMC3    C8 7085   0.563   1.078  15.775  0.2003  0.3885 -0.4374
  472TMC3    O1 7086   1.096   0.978  15.967  0.6681 -0.1899 -0.1256
  472TMC3    O2 7087   0.497   1.146  15.696 -0.4363 -0.5809 -0.1410
  473MPD2     C 7088   1.405   2.998  14.011  0.2736  0.5221  0.1110
  473MPD2    C1 7089   1.355   3.103  13.937  0.2546 -0.4139  0.2350
  473MPD2    C2 7090   1.319   3.216  14.008  0.2133 -0.3938  0.2219
  473MPD2    C3 7091   1.343   3.236  14.142 -0.6570 -0.1086 -0.2520
  473MPD2    C4 7092   1.391   3.127  14.210 -0.3466 -0.6216  0.4068
  473MPD2    C5 7093   1.410   3.006  14.146 -0.0268 -0.3205  0.3574
  473MPD2     H 7094   1.286   3.301  13.950  0.8209 -0.9567 -0.9662
  473MPD2    H1 7095   1.416   3.132  14.315  1.7766 -2.3679 -0.0266
  473MPD2    H2 7096   1.435   2.904  13.968  1.3854  0.4018  1.1459
  473MPD2    H3 7097   1.459   2.924  14.196  0.4646 -0.3067 -0.1060
  473MPD2     N 7098   1.331   3.365  14.209 -0.3794 -0.2287 -0.6619
  473MPD2    H5 7099   1.375   3.377  14.300 -1.6208 -2.1675  0.1937
  473MPD2    N1 7100   1.345   3.102  13.799  0.0029  0.0452  0.2650
  473MPD2    H7 7101   1.311   3.182  13.747  1.1795 -0.2295 -0.9018
  474TMC3    C1 7102   1.278   3.587  14.254  0.3349 -0.5179  0.2657
  474TMC3    C2 7103   1.169   3.669  14.277 -0.0775 -0.0616  0.6694
  474TMC3    C3 7104   1.195   3.788  14.338 -0.1639 -0.4353  0.6112
  474TMC3    C4 7105   1.400   3.616  14.302  0.0752  0.4756  0.1948
  474TMC3    C5 7106   1.410   3.732  14.374 -0.1195  0.7103  0.4420
  474TMC3    C6 7107   1.312   3.821  14.387  0.1381  0.8547 -0.2766
  474TMC3     C 7108   1.260   3.468  14.166 -0.1224  0.2986  0.1838
  474TMC3     O 7109   1.168   3.475  14.083 -0.0901 -0.0109  0.5120
  474TMC3     H 7110   1.074   3.640  14.236  0.2723  0.7461 -0.7089
  474TMC3    H1 7111   1.480   3.547  14.278 -0.3181  0.3263 -0.7011
  474TMC3    H2 7112   1.339   3.914  14.436  1.0461  1.3183 -1.6294
  474TMC3    C7 7113   1.543   3.766  14.419  0.6238 -0.4352  0.1720
  474TMC3    C8 7114   1.081   3.879  14.355  0.2167  0.5392 -0.4710
  474TMC3    O1 7115   1.641   3.741  14.350 -0.1543 -0.1456 -0.0642
  474TMC3    O2 7116   0.969   3.836  14.341  0.6931  0.2464  0.4217
  475MPD2     C 7117   3.534   1.855  11.255 -0.5183  0.0023 -0.1659
  475MPD2    C1 7118   3.608   1.954  11.193 -0.3739  0.4040  0.7466
  475MPD2    C2 7119   3.552   2.010  11.078  0.3396 -0.8980  0.4573
  475MPD2    C3 7120   3.415   1.992  11.049 -0.3482 -0.3108 -0.3792
  475MPD2    C4 7121   3.347   1.896  11.117 -1.1082  0.4973  0.2194
  475MPD2    C5 7122   3.408   1.824  11.214 -0.9652  0.3372  0.0497
  475MPD2     H 7123   3.607   2.080  11.016 -0.9139 -0.6008 -0.3141
  475MPD2    H1 7124   3.244   1.874  11.095 -1.2370 -1.0386  2.3623
  475MPD2    H2 7125   3.568   1.807  11.347  1.2522 -0.0038 -0.8217
  475MPD2    H3 7126   3.353   1.756  11.278 -0.4361 -0.0794  0.0708
  475MPD2     N 7127   3.365   2.068  10.941  0.2638  0.3519 -0.3432
  475MPD2    H5 7128   3.436   2.106  10.878 -0.3200 -0.1862 -1.3283
  475MPD2    N1 7129   3.737   1.973  11.239 -0.4494  0.3408 -0.1213
  475MPD2    H7 7130   3.764   1.933  11.329 -1.2865 -1.1488 -0.5342
  476TMC3    C1 7131   3.967   2.049  11.218 -0.2192  0.1496 -0.1260
  476TMC3    C2 7132   4.062   2.071  11.119  0.3853  0.4450 -0.6273
  476TMC3    C3 7133   4.151   2.165  11.137  0.2013 -0.2119  1.0024
  476TMC3    C4 7134   3.965   2.119  11.334  0.2148  0.0926 -0.2908
  476TMC3    C5 7135   4.050   2.227  11.341 -0.3328  0.1090  0.0015
  476TMC3    C6 7136   4.142   2.251  11.239 -0.7105  0.0427  0.4206
  476TMC3     C 7137   3.836   2.028  11.161 -0.5090 -0.3739  0.6980
  476TMC3     O 7138   3.836   2.056  11.041 -0.3358  0.0920 -0.3346
  476TMC3     H 7139   4.066   2.005  11.034  0.1865 -2.2423  1.4608
  476TMC3    H1 7140   3.876   2.118  11.396 -0.6916  0.9400 -1.6068
  476TMC3    H2 7141   4.212   2.333  11.235 -1.0056  0.3252  1.0377
  476TMC3    C7 7142   4.008   2.334  11.429  0.0336 -0.6013 -0.2831
  476TMC3    C8 7143   4.197   2.223  11.015  0.0127 -0.7127  0.3232
  476TMC3    O1 7144   3.946   2.298  11.527 -0.1267  0.2949  0.2560
  476TMC3    O2 7145   4.289   2.300  11.017  0.0122  0.0652  0.3605
  477MPD2     C 7146   2.253   3.593  11.771  0.3647 -0.2575  0.2758
  477MPD2    C1 7147   2.133   3.536  11.765 -0.3776  0.9172 -0.3954
  477MPD2    C2 7148   2.095   3.438  11.860  0.6519 -0.3720 -0.7848
  477MPD2    C3 7149   2.188   3.401  11.953 -0.1670  0.0940  0.1161
  477MPD2    C4 7150   2.309   3.467  11.957  0.5756  0.1427 -0.6149
  477MPD2    C5 7151   2.343   3.559  11.867 -0.5892 -0.9356  0.4193
  477MPD2     H 7152   1.998   3.389  11.855  0.7064 -0.7369  1.8762
  477MPD2    H1 7153   2.388   3.445  12.028 -1.2677 -1.2759  1.0067
  477MPD2    H2 7154   2.270   3.669  11.695  0.1412 -1.8369 -1.3747
  477MPD2    H3 7155   2.436   3.613  11.874 -0.9423 -0.3187  0.3541
  477MPD2     N 7156   2.153   3.297  12.038 -0.1915 -0.1645  0.3559
  477MPD2    H5 7157   2.086   3.225  12.014  0.2248 -0.5210  0.2583
  477MPD2    N1 7158   2.052   3.583  11.656  0.9754 -0.6747 -0.1986
  477MPD2    H7 7159   2.087   3.650  11.589  1.5572 -1.3433 -0.5684
  478TMC3    C1 7160   1.880   3.569  11.493 -0.0563  0.5794  0.4158
  478TMC3    C2 7161   1.874   3.702  11.480  0.0087  0.3651  0.2555
  478TMC3    C3 7162   1.774   3.759  11.415  0.8083 -0.4146  0.2587
  478TMC3    C4 7163   1.783   3.492  11.436 -0.0478 -0.2630  0.6400
  478TMC3    C5 7164   1.684   3.547  11.359 -0.5924 -0.3317  0.1796
  478TMC3    C6 7165   1.677   3.685  11.349  0.0878  0.0257 -0.3207
  478TMC3     C 7166   1.937   3.510  11.614  0.3624  0.4132 -0.0868
  478TMC3     O 7167   1.892   3.408  11.659 -0.0459  0.1105 -0.6810
  478TMC3     H 7168   1.944   3.762  11.537 -0.3301 -0.7415  1.8422
  478TMC3    H1 7169   1.799   3.385  11.423  2.4424  0.3159 -1.0693
  478TMC3    H2 7170   1.600   3.739  11.296  0.4498 -0.4222 -1.3007
  478TMC3    C7 7171   1.572   3.461  11.322  0.0447 -0.7322  0.4759
  478TMC3    C8 7172   1.763   3.911  11.420  0.6087 -0.3703  1.0586
  478TMC3    O1 7173   1.565   3.353  11.387  0.4167  0.4893 -0.1645
  478TMC3    O2 7174   1.854   3.972  11.476  0.0062 -0.0323 -0.5218
  479MPD2     C 7175   0.731   0.607  14.985  0.1724 -0.4257  0.6307
  479MPD2    C1 7176   0.659   0.578  15.101  0.1666  0.5008 -0.2368
  479MPD2    C2 7177   0.696   0.640  15.219 -0.2370 -0.5567  0.6682
  479MPD2    C3 7178   0.803   0.730  15.223  0.1030 -0.7259  0.2129
  479MPD2    C4 7179   0.877   0.747  15.112  0.2954 -0.0141 -0.4640
  479MPD2    C5 7180   0.843   0.685  14.997 -0.3086  0.7887  0.2779
  479MPD2     H 7181   0.653   0.604  15.312  1.7353 -3.0077  0.6493
  479MPD2    H1 7182   0.954   0.824  15.101  0.4959  0.2713  3.0370
  479MPD2    H2 7183   0.712   0.567  14.886  0.9343 -2.5165  1.3082
  479MPD2    H3 7184   0.912   0.706  14.916 -0.7127 -0.3552 -0.3696
  479MPD2     N 7185   0.855   0.790  15.338  0.2074  0.8044 -0.4374
  479MPD2    H5 7186   0.953   0.814  15.323  0.6232 -0.9053 -0.4586
  479MPD2    N1 7187   0.534   0.509  15.089 -0.0891  0.8216 -0.3922
  479MPD2    H7 7188   0.515   0.475  14.995 -2.2232 -0.1692  0.4020
  480TMC3    C1 7189   0.501   0.695  15.624 -0.5554  0.6156 -0.3543
  480TMC3    C2 7190   0.406   0.736  15.541 -0.0531  0.3324 -0.5014
  480TMC3    C3 7191   0.437   0.814  15.440  0.1358 -0.1219 -0.1511
  480TMC3    C4 7192   0.640   0.702  15.597  0.5584 -1.0707  0.2196
  480TMC3    C5 7193   0.671   0.782  15.491 -0.4538  0.0667  0.2022
  480TMC3    C6 7194   0.574   0.841  15.412 -0.0931 -0.1339  0.4788
  480TMC3     C 7195   0.469   0.593  15.731 -0.2611 -0.2018 -0.0505
  480TMC3     O 7196   0.566   0.556  15.791  0.0600  0.1565 -0.3473
  480TMC3     H 7197   0.300   0.726  15.562  0.3064 -1.0070  0.6678
  480TMC3    H1 7198   0.721   0.654  15.651  1.6950 -0.5493 -1.0311
  480TMC3    H2 7199   0.603   0.897  15.323 -2.8562 -1.5116 -1.2968
  480TMC3    C7 7200   0.812   0.790  15.467  0.4881  0.3729 -0.9113
  480TMC3    C8 7201   0.347   0.831  15.328 -0.1456  0.3675 -0.3872
  480TMC3    O1 7202   0.888   0.827  15.560 -0.5164 -0.2136 -0.4356
  480TMC3    O2 7203   0.232   0.869  15.347  0.5558  0.2194 -0.0884
  481MPD2     C 7204   2.665   4.617  14.096 -0.2418 -0.5258  0.0310
  481MPD2    C1 7205   2.535   4.653  14.089  0.7577  0.3597 -0.0773
  481MPD2    C2 7206   2.472   4.666  14.213 -0.2119  0.8345  0.9505
  481MPD2    C3 7207   2.536   4.629  14.335 -0.6075  0.0591 -0.0534
  481MPD2    C4 7208   2.667   4.584  14.331 -0.0709  0.2129 -0.7500
  481MPD2    C5 7209   2.727   4.583  14.211  0.0165 -0.4888 -0.1772
  481MPD2     H 7210   2.372   4.706  14.218 -0.9649 -1.0990  1.1119
  481MPD2    H1 7211   2.723   4.565  14.421  1.7197  3.1331 -1.2520
  481MPD2    H2 7212   2.737   4.620  14.014 -1.3676 -1.1626 -0.9718
  481MPD2    H3 7213   2.833   4.565  14.222 -0.1306 -1.5914 -0.5944
  481MPD2     N 7214   2.476   4.649  14.464 -0.2670 -0.2411  0.5772
  481MPD2    H5 7215   2.541   4.639  14.541 -0.7765 -0.0905  1.0270
  481MPD2    N1 7216   2.489   4.695  13.962 -0.0237  0.3936 -0.2649
  481MPD2    H7 7217   2.558   4.689  13.886 -0.8256  1.0498 -1.0371
  482TMC3    C1 7218   2.323   4.730  13.791  0.2962 -0.3995 -0.2977
  482TMC3    C2 7219   2.192   0.007  13.760 -0.4159  0.4126  0.1612
  482TMC3    C3 7220   2.162   0.016  13.622 -0.3526 -0.7765  0.6243
  482TMC3    C4 7221   2.419   4.732  13.698  0.2672  0.6171 -0.2256
  482TMC3    C5 7222   2.386   4.738  13.564  0.0769  1.0235 -0.3600
  482TMC3    C6 7223   2.259   4.738  13.523  0.2664  0.3649  0.3312
  482TMC3     C 7224   2.356   4.723  13.937  0.0350 -0.3591 -0.0268
  482TMC3     O 7225   2.261   4.727  14.011  0.8320 -0.4619 -0.1680
  482TMC3     H 7226   2.111   0.003  13.832 -1.1692 -0.8546 -0.7507
  482TMC3    H1 7227   2.520   0.019  13.725  1.6756 -0.1093 -4.9193
  482TMC3    H2 7228   2.236   4.734  13.417 -1.9893 -0.4453  0.8442
  482TMC3    C7 7229   2.492   0.018  13.472  0.1682 -0.2648 -0.1987
  482TMC3    C8 7230   2.032   4.710  13.577  0.9994  0.4248  0.2635
  482TMC3    O1 7231   2.606   4.721  13.500  0.4921  0.2053 -0.6762
  482TMC3    O2 7232   2.033   4.637  13.479 -0.2477 -0.0473 -0.6220
  483TMC3    C1 7233   0.045   4.573   0.604  0.2845  0.5141  0.0132
  483TMC3    C2 7234   0.144   4.656   0.556 -1.2397  0.7501 -0.4913
  483TMC3    C3 7235   0.270   4.651   0.609  0.2403  0.6598  0.1121
  483TMC3    C4 7236   0.079   4.492   0.709 -0.7791  0.4279  0.2858
  483TMC3    C5 7237   0.203   4.483   0.754 -0.1297 -0.0886  0.4069
  483TMC3    C6 7238   0.302   4.563   0.699  0.6011  0.0489 -0.8754
  483TMC3     C 7239   4.702   4.521   0.503  0.1620 -0.8124 -0.1284
  483TMC3     O 7240   4.649   4.601   0.428  0.8464  0.5142  0.4508
  483TMC3     H 7241   0.120   4.707   0.463  0.4458  1.6887 -0.3983
  483TMC3    H1 7242   0.000   4.434   0.754 -0.3603 -0.8669 -0.6571
  483TMC3    H2 7243   0.394   4.574   0.754 -0.1821 -0.0414  0.4697
  483TMC3    C7 7244   0.235   4.349   0.798 -0.0852 -0.1729 -0.2602
  483TMC3    C8 7245   0.370   4.711   0.531  0.1209  0.1677  0.1079
  483TMC3    O1 7246   0.179   4.257   0.736 -0.0251  0.2915  0.5923
  483TMC3    O2 7247   0.481   4.657   0.515 -0.1889 -0.3041 -0.3423
  484MPD2     C 7248   2.598   1.705  12.939 -0.4528 -0.3184  0.0516
  484MPD2    C1 7249   2.567   1.703  12.811  0.7885  0.2477 -0.5586
  484MPD2    C2 7250   2.645   1.770  12.721  0.5695 -0.5813  0.8061
  484MPD2    C3 7251   2.737   1.857  12.767 -0.4495  0.5983  0.4818
  484MPD2    C4 7252   2.766   1.864  12.900  0.2822 -0.1088  0.3823
  484MPD2    C5 7253   2.695   1.790  12.988  1.0376 -0.1795  0.5851
  484MPD2     H 7254   2.633   1.760  12.614 -0.7461 -2.6974  1.1559
  484MPD2    H1 7255   2.846   1.927  12.939 -0.0456  0.9550 -0.6604
  484MPD2    H2 7256   2.539   1.652  13.013 -0.9607  0.6931  0.3776
  484MPD2    H3 7257   2.722   1.781  13.092 -1.7450  3.0761  1.6013
  484MPD2     N 7258   2.827   1.925  12.676 -0.1999 -0.1748 -0.2597
  484MPD2    H5 7259   2.908   1.974  12.714 -0.8379  1.2172 -0.6828
  484MPD2    N1 7260   2.474   1.600  12.774  0.0666  0.3495 -0.0583
  484MPD2    H7 7261   2.444   1.526  12.836  0.0640  0.8913  0.5805
  485TMC3    C1 7262   2.937   1.974  12.470 -0.7031  0.4599 -0.3881
  485TMC3    C2 7263   3.055   1.984  12.538  0.1579  0.0619  0.1884
  485TMC3    C3 7264   3.141   2.088  12.503  0.0207  0.0279  0.5159
  485TMC3    C4 7265   2.927   2.040  12.351  0.0206  0.4058  0.4252
  485TMC3    C5 7266   3.009   2.140  12.312  0.4725 -0.6486 -0.1488
  485TMC3    C6 7267   3.111   2.166  12.397  0.8129 -0.1986  0.1449
  485TMC3     C 7268   2.813   1.934  12.544 -0.2113  0.2351  0.1491
  485TMC3     O 7269   2.710   1.939  12.483 -0.0951  0.0489  0.0956
  485TMC3     H 7270   3.078   1.933  12.630  0.2724 -0.9419 -0.3936
  485TMC3    H1 7271   2.834   2.015  12.302 -0.2920  0.3463  1.0401
  485TMC3    H2 7272   3.176   2.248  12.368  1.0458  0.0019  1.2320
  485TMC3    C7 7273   3.067   2.123  12.179 -0.5282 -0.1198  0.1714
  485TMC3    C8 7274   3.290   2.063  12.510 -0.3877  0.0284 -0.0591
  485TMC3    O1 7275   3.126   2.015  12.166 -0.3910 -0.4078 -0.4835
  485TMC3    O2 7276   3.359   2.111  12.422  0.3553 -0.3526 -0.0128
  486MPD2     C 7277   0.104   0.553  13.115  0.4289  0.1405 -0.5544
  486MPD2    C1 7278   0.162   0.585  12.992  0.4945 -0.4593 -0.3058
  486MPD2    C2 7279   0.174   0.718  12.955  0.1248  0.3503  0.1659
  486MPD2    C3 7280   0.105   0.819  13.022  0.2704  0.0677  0.0978
  486MPD2    C4 7281   0.045   0.785  13.139 -0.3179 -0.2072 -0.4774
  486MPD2    C5 7282   0.047   0.653  13.185 -0.2874  0.2734 -0.0858
  486MPD2     H 7283   0.237   0.750  12.873 -1.1567 -0.3161 -1.0845
  486MPD2    H1 7284   4.729   0.851  13.204  3.5035 -0.7297  3.3422
  486MPD2    H2 7285   0.089   0.450  13.144  3.2074 -0.3029 -0.6685
  486MPD2    H3 7286   4.740   0.626  13.279 -0.9193 -0.2160 -0.5458
  486MPD2     N 7287   0.120   0.951  12.965 -0.8803  0.0443  0.1943
  486MPD2    H5 7288   0.192   0.955  12.894 -2.4189 -5.6809 -1.7048
  486MPD2    N1 7289   0.212   0.480  12.914  0.4861  0.3035 -0.3489
  486MPD2    H7 7290   0.213   0.389  12.958 -0.6975  0.6560  0.3770
  487TMC3    C1 7291   0.288   0.356  12.725  0.5426  0.0525  0.0970
  487TMC3    C2 7292   0.204   0.332  12.622  0.1166 -0.3201  0.3699
  487TMC3    C3 7293   0.171   0.201  12.596  0.1000 -0.4599 -0.7675
  487TMC3    C4 7294   0.337   0.255  12.809 -0.7974  0.5229  0.2493
  487TMC3    C5 7295   0.310   0.126  12.776 -0.6898 -0.8679 -0.1068
  487TMC3    C6 7296   0.241   0.095  12.657  0.0327  0.6685 -0.3603
  487TMC3     C 7297   0.267   0.487  12.786  0.1049 -0.2374  1.1474
  487TMC3     O 7298   0.283   0.575  12.702 -0.6136  0.1193  0.3614
  487TMC3     H 7299   0.145   0.408  12.573  0.0674  0.3535  1.4988
  487TMC3    H1 7300   0.402   0.273  12.893 -0.7897  4.2304 -0.5513
  487TMC3    H2 7301   0.208   4.736  12.629  0.5073  0.1543  0.9255
  487TMC3    C7 7302   0.315   0.032  12.881  0.6416  0.5882  0.4466
  487TMC3    C8 7303   0.029   0.190  12.629  0.7246 -0.8039 -0.2981
  487TMC3    O1 7304   0.400   0.037  12.970 -0.0344  0.2706 -0.2304
  487TMC3    O2 7305   4.737   0.279  12.705  0.2366  0.1866  0.0564
  488MPD2     C 7306   0.153   2.596  16.334  0.4371  0.7551  0.2324
  488MPD2    C1 7307   0.243   2.686  16.384 -0.1541 -0.7165 -0.3314
  488MPD2    C2 7308   0.250   2.711  16.518  0.1602 -0.0636 -0.1722
  488MPD2    C3 7309   0.174   2.636  16.612  0.6158  0.5264 -0.2065
  488MPD2    C4 7310   0.075   2.552  16.560  0.1072  0.1403  0.8093
  488MPD2    C5 7311   0.066   2.534  16.423  0.0902 -0.0865 -0.0608
  488MPD2     H 7312   0.330   2.770  16.561 -1.6660  1.2809  1.4292
  488MPD2    H1 7313   0.016   2.490  16.627  0.0925 -1.1408 -0.3897
  488MPD2    H2 7314   0.142   2.569  16.229  0.4736  0.1033  0.3936
  488MPD2    H3 7315   0.003   2.460  16.376 -1.2438  1.5622 -0.8658
  488MPD2     N 7316   0.201   2.656  16.747  0.2410  0.2673  0.3279
  488MPD2    H5 7317   0.266   2.730  16.770 -1.0839  0.8922  2.0313
  488MPD2    N1 7318   0.321   2.766  16.304  0.0667  0.1433 -0.7326
  488MPD2    H7 7319   0.357   2.854  16.342  0.1938 -0.7823  1.3103
  489TMC3    C1 7320   0.189   2.620  16.981  0.9775 -0.0786 -0.4259
  489TMC3    C2 7321   0.238   2.748  16.994 -0.8282 -0.7053 -0.0494
  489TMC3    C3 7322   0.278   2.776  17.123 -0.6048  0.0496 -0.0731
  489TMC3    C4 7323   0.180   2.527  17.081  0.3927 -1.4438  0.2590
  489TMC3    C5 7324   0.215   2.562  17.209 -0.0167  0.3905  0.5344
  489TMC3    C6 7325   0.269   2.689  17.236 -0.1473 -0.4098 -0.1565
  489TMC3     C 7326   0.145   2.579  16.849 -0.0899  0.0367  0.3995
  489TMC3     O 7327   0.077   2.480  16.838 -0.3452 -0.3975 -0.1082
  489TMC3     H 7328   0.229   2.823  16.917  1.9186 -0.2054  0.1334
  489TMC3    H1 7329   0.143   2.428  17.055  0.4282 -1.6807  1.1242
  489TMC3    H2 7330   0.297   2.722  17.336  1.1941 -1.7993 -0.0720
  489TMC3    C7 7331   0.244   2.466  17.313 -0.3755 -0.6112 -0.3316
  489TMC3    C8 7332   0.321   2.910  17.148 -0.4019 -0.3338  0.6280
  489TMC3    O1 7333   0.325   2.496  17.404  0.0722 -0.0825 -0.7273
  489TMC3    O2 7334   0.289   2.953  17.257 -0.2727  0.0711  0.0527
  490MPD2     C 7335   1.480   2.759  16.898  0.0291 -0.5581 -0.0350
  490MPD2    C1 7336   1.426   2.696  17.006  0.0819 -0.7220 -0.1603
  490MPD2    C2 7337   1.504   2.669  17.114 -0.2900 -0.1651 -0.8972
  490MPD2    C3 7338   1.635   2.704  17.112  0.3686  0.6254  0.3740
  490MPD2    C4 7339   1.692   2.756  16.999 -0.3317  0.1185 -0.3455
  490MPD2    C5 7340   1.612   2.797  16.899 -0.0279 -0.0742 -0.2680
  490MPD2     H 7341   1.453   2.629  17.201  1.7563  1.0221  0.8406
  490MPD2    H1 7342   1.796   2.784  16.986 -0.0557 -0.5860  0.3173
  490MPD2    H2 7343   1.422   2.800  16.816 -0.8507  1.3054  1.5360
  490MPD2    H3 7344   1.652   2.860  16.820  1.7506 -2.4951 -1.3021
  490MPD2     N 7345   1.728   2.659  17.215  0.0465  0.0896 -0.3601
  490MPD2    H5 7346   1.827   2.666  17.196  0.2026 -0.6550  0.1497
  490MPD2    N1 7347   1.297   2.639  17.010 -0.4154  0.1629  0.4946
  490MPD2    H7 7348   1.278   2.591  17.098  0.5232 -0.4072  0.3802
  491TMC3    C1 7349   1.078   2.582  16.952  0.3055  0.1307 -0.1432
  491TMC3    C2 7350   1.041   2.586  17.076 -0.2565  0.2378 -0.2238
  491TMC3    C3 7351   0.938   2.507  17.123 -0.1152  0.1849  0.3418
  491TMC3    C4 7352   1.034   2.492  16.867  0.2643  0.2319  0.9283
  491TMC3    C5 7353   0.937   2.410  16.910 -0.5072 -0.5884 -0.1762
  491TMC3    C6 7354   0.884   2.419  17.034  0.2722 -0.4261  0.0299
  491TMC3     C 7355   1.192   2.659  16.922  0.0095  0.8497  0.1404
  491TMC3     O 7356   1.192   2.726  16.817  0.3137 -0.3888 -0.1121
  491TMC3     H 7357   1.085   2.651  17.151  0.0624  0.9574 -1.0235
  491TMC3    H1 7358   1.081   2.484  16.770  0.2437  0.5276  0.8933
  491TMC3    H2 7359   0.800   2.359  17.068  1.4956 -0.3991  3.1051
  491TMC3    C7 7360   0.915   2.282  16.848 -0.4801 -0.0824  0.3890
  491TMC3    C8 7361   0.944   2.452  17.258 -0.0027  0.3373 -0.1614
  491TMC3    O1 7362   0.877   2.201  16.929 -0.3698  0.7468  0.5995
  491TMC3    O2 7363   0.958   2.521  17.353  0.1011 -0.3213 -0.3051
  492MPD2     C 7364   0.870   2.310  10.901 -0.7591  0.7517  0.5155
  492MPD2    C1 7365   0.781   2.207  10.876 -0.3506  0.1461  0.0399
  492MPD2    C2 7366   0.781   2.100  10.968 -0.7135 -0.0221 -0.3243
  492MPD2    C3 7367   0.874   2.089  11.065 -0.4260  0.0244 -0.0658
  492MPD2    C4 7368   0.969   2.188  11.081 -0.7171  0.1288  0.5434
  492MPD2    C5 7369   0.959   2.303  11.004 -0.6298 -0.0100  0.0612
  492MPD2     H 7370   0.704   2.025  10.961 -1.0468  0.4245 -1.4914
  492MPD2    H1 7371   1.055   2.185  11.146  1.3560 -1.0438 -2.2906
  492MPD2    H2 7372   0.882   2.405  10.851 -1.8610  0.9573  0.6338
  492MPD2    H3 7373   1.033   2.381  11.012 -0.8567  0.5265 -3.4490
  492MPD2     N 7374   0.884   1.989  11.167  0.4818 -0.1465 -0.8537
  492MPD2    H5 7375   0.959   2.008  11.232 -0.7914 -2.3751  1.2601
  492MPD2    N1 7376   0.681   2.223  10.769  0.0106 -0.3483  0.0145
  492MPD2    H7 7377   0.708   2.296  10.704 -1.5097 -2.2292 -2.7653
  493TMC3    C1 7378   0.545   2.132  10.592  0.0711 -0.3038 -0.7451
  493TMC3    C2 7379   0.571   2.253  10.526  0.2542 -0.2398  0.0844
  493TMC3    C3 7380   0.541   2.247  10.393  0.6778  0.0879 -0.4911
  493TMC3    C4 7381   0.503   2.015  10.527 -0.8168 -0.8275 -0.1996
  493TMC3    C5 7382   0.474   2.022  10.397  1.1007  0.1682  0.3562
  493TMC3    C6 7383   0.503   2.134  10.320  0.1274 -0.0429 -0.3971
  493TMC3     C 7384   0.581   2.127  10.736 -0.3374 -0.4604 -0.3282
  493TMC3     O 7385   0.563   2.019  10.792 -0.3563 -0.3591 -0.5657
  493TMC3     H 7386   0.587   2.340  10.589 -0.3252 -1.3166  1.7204
  493TMC3    H1 7387   0.480   1.926  10.584 -2.4935 -1.2514 -1.5403
  493TMC3    H2 7388   0.484   2.142  10.213 -0.9935  1.3934 -0.0930
  493TMC3    C7 7389   0.377   1.937  10.337  0.5478  0.5226 -0.1267
  493TMC3    C8 7390   0.524   2.372  10.327  0.3546 -0.5249 -0.1310
  493TMC3    O1 7391   0.341   1.960  10.223 -0.0665  0.4556 -0.3208
  493TMC3    O2 7392   0.449   2.374  10.232  0.6568  0.2976 -0.4053
  494TMC3    C1 7393   1.826   4.360   0.007  0.4398  0.1409  0.5495
  494TMC3    C2 7394   1.830   4.228   0.031  0.4825  0.8176 -0.3325
  494TMC3    C3 7395   1.922   4.152  17.715 -0.5134  0.6102  0.8239
  494TMC3    C4 7396   1.907   4.432  17.685  0.0849 -0.1748  0.1136
  494TMC3    C5 7397   1.985   4.350  17.605 -0.5269  0.3384 -0.3269
  494TMC3    C6 7398   1.996   4.213  17.619 -0.0653  0.0037  0.1413
  494TMC3     C 7399   1.754   4.440   0.114 -0.7498 -0.5480 -0.3109
  494TMC3     O 7400   1.725   4.395   0.225 -0.0712 -0.1483 -0.1765
  494TMC3     H 7401   1.761   4.190   0.105 -0.4354  2.3558 -0.3969
  494TMC3    H1 7402   1.908   4.540  17.681 -0.3903 -0.1436  0.8833
  494TMC3    H2 7403   2.076   4.161  17.568  0.4904  0.7141  0.2867
  494TMC3    C7 7404   2.045   4.415  17.487 -0.4540 -0.3456  0.8345
  494TMC3    C8 7405   1.974   4.044   0.033 -0.0703  0.1938 -0.0352
  494TMC3    O1 7406   2.069   4.351  17.385 -0.2750  1.0355 -0.1303
  494TMC3    O2 7407   1.967   4.068   0.152  0.1243 -0.1499 -0.2427
  495TMC3    C1 7408   0.873   0.812  14.524  0.3241  0.0678  0.3364
  495TMC3    C2 7409   0.814   0.855  14.409 -0.2809 -0.1345 -0.4514
  495TMC3    C3 7410   0.713   0.947  14.410 -0.0725  0.2867  0.2459
  495TMC3    C4 7411   0.837   0.863  14.646 -0.3681  0.6633  0.4166
  495TMC3    C5 7412   0.730   0.946  14.641  0.1202 -0.0487 -0.2093
  495TMC3    C6 7413   0.666   0.991  14.527  0.3574  0.4979  0.2262
  495TMC3     C 7414   0.902   0.668  14.520  0.9570 -0.4102  0.4283
  495TMC3     O 7415   0.855   0.616  14.420  0.2501  0.3234  0.3878
  495TMC3     H 7416   0.857   0.818  14.317  0.3525 -0.2037 -0.1287
  495TMC3    H1 7417   0.862   0.813  14.739 -0.4487 -1.8288 -0.8950
  495TMC3    H2 7418   0.577   1.054  14.527 -1.8075 -2.5462 -2.2990
  495TMC3    C7 7419   0.663   0.953  14.767 -0.3280 -0.3128 -0.1422
  495TMC3    C8 7420   0.601   0.901  14.333  0.1552 -0.1843 -0.3594
  495TMC3    O1 7421   0.728   0.953  14.872 -0.2137  0.0957 -0.3217
  495TMC3    O2 7422   0.501   0.968  14.334 -0.5612  0.1625  0.1169
  496MPD2     C 7423   2.817   1.447  14.854 -0.1148 -0.4164  0.8455
  496MPD2    C1 7424   2.858   1.335  14.911  0.1744 -0.1075  0.4002
  496MPD2    C2 7425   2.771   1.280  15.016 -0.4028  0.4951 -0.5463
  496MPD2    C3 7426   2.660   1.352  15.060 -0.1240 -0.1142  0.1910
  496MPD2    C4 7427   2.623   1.465  15.003 -0.2805 -0.5114  0.0724
  496MPD2    C5 7428   2.706   1.511  14.900 -0.5994 -0.2605 -0.5475
  496MPD2     H 7429   2.796   1.188  15.067 -0.6331  2.1579  2.5267
  496MPD2    H1 7430   2.546   1.529  15.045  1.4970  1.6064  0.1275
  496MPD2    H2 7431   2.866   1.483  14.764 -0.4987 -2.9430 -0.3880
  496MPD2    H3 7432   2.688   1.610  14.862  2.6060  0.3955 -0.3410
  496MPD2     N 7433   2.574   1.298  15.158  0.5720 -0.3258 -0.0764
  496MPD2    H5 7434   2.488   1.349  15.178  1.2947 -0.3480  3.1774
  496MPD2    N1 7435   2.965   1.262  14.854 -0.8803 -0.1532 -0.9113
  496MPD2    H7 7436   3.004   1.306  14.771  2.9542 -1.3268  0.2574
  497TMC3    C1 7437   2.480   1.128  15.303 -0.2191  0.3489  0.4867
  497TMC3    C2 7438   2.369   1.109  15.219 -0.2022  0.0994 -0.4175
  497TMC3    C3 7439   2.296   0.999  15.242  0.1501 -0.0380  0.2731
  497TMC3    C4 7440   2.508   1.039  15.409  0.2794 -0.6545 -0.1291
  497TMC3    C5 7441   2.420   0.935  15.426 -0.3766  0.0152 -0.3884
  497TMC3    C6 7442   2.318   0.911  15.346  0.5470 -0.4788  0.3590
  497TMC3     C 7443   2.598   1.183  15.234 -0.3051 -0.0310  0.2560
  497TMC3     O 7444   2.705   1.127  15.260  1.3503 -0.0066 -0.0679
  497TMC3     H 7445   2.345   1.162  15.128 -0.5966 -1.6771 -1.3474
  497TMC3    H1 7446   2.599   1.042  15.469  0.4395 -1.9302 -0.3103
  497TMC3    H2 7447   2.273   0.814  15.362 -0.3983 -0.0667  0.2038
  497TMC3    C7 7448   2.468   0.831  15.516 -0.2605 -0.1773 -0.0609
  497TMC3    C8 7449   2.226   0.940  15.125 -0.4360  0.3240 -0.0897
  497TMC3    O1 7450   2.438   0.715  15.478  0.2886  0.0607  0.8149
  497TMC3    O2 7451   2.163   1.024  15.057  1.1044 -0.0957 -0.6069
  498MPD2     C 7452   3.143   2.460   9.513  0.4685  0.5111  0.1891
  498MPD2    C1 7453   3.214   2.426   9.633 -0.3798 -0.1899  0.4026
  498MPD2    C2 7454   3.199   2.302   9.684 -0.4389  0.0101  0.3054
  498MPD2    C3 7455   3.123   2.205   9.619 -0.2413 -0.4878  0.4613
  498MPD2    C4 7456   3.070   2.232   9.498 -0.1412 -0.0256  0.1525
  498MPD2    C5 7457   3.076   2.360   9.447  0.2581  0.4054 -0.4552
  498MPD2     H 7458   3.263   2.266   9.763 -0.4218 -0.3666  0.1211
  498MPD2    H1 7459   3.009   2.162   9.442  0.2871 -0.8322  0.6794
  498MPD2    H2 7460   3.133   2.563   9.480 -0.3703  0.9046  1.6960
  498MPD2    H3 7461   3.017   2.374   9.357 -1.6352 -4.3207  0.0459
  498MPD2     N 7462   3.116   2.078   9.677  0.1192 -0.1104  0.1792
  498MPD2    H5 7463   3.159   2.078   9.768 -1.1368 -0.3987  0.7782
  498MPD2    N1 7464   3.296   2.512   9.699  0.5479 -0.2758 -0.3480
  498MPD2    H7 7465   3.341   2.483   9.785  0.0563 -1.4764 -0.5049
  499TMC3    C1 7466   3.422   2.709   9.741 -0.2169 -0.3534 -0.8969
  499TMC3    C2 7467   3.533   2.629   9.758 -0.5822 -0.0746  0.0267
  499TMC3    C3 7468   3.656   2.688   9.798  0.1805  0.2520  0.0231
  499TMC3    C4 7469   3.418   2.837   9.768 -0.4889 -1.0638  0.1055
  499TMC3    C5 7470   3.528   2.896   9.802 -0.3713  0.4656 -0.0428
  499TMC3    C6 7471   3.647   2.824   9.830  0.3398 -0.1115 -0.2543
  499TMC3     C 7472   3.306   2.647   9.670 -0.2001 -0.2332  0.0499
  499TMC3     O 7473   3.221   2.725   9.619  0.5134 -0.0139 -0.2995
  499TMC3     H 7474   3.535   2.529   9.716 -3.1599 -0.2000  0.1889
  499TMC3    H1 7475   3.334   2.897   9.735 -0.4658 -1.9786 -1.6113
  499TMC3    H2 7476   3.738   2.877   9.856  0.7009 -0.2809 -1.1958
  499TMC3    C7 7477   3.538   3.037   9.830  0.1701  0.1633 -0.3141
  499TMC3    C8 7478   3.786   2.631   9.759 -0.3155 -0.1821  0.3018
  499TMC3    O1 7479   3.649   3.086   9.819  0.5081  0.3447  0.3537
  499TMC3    O2 7480   3.873   2.703   9.721 -0.1527  0.3560  0.1482
  500MPD2     C 7481   4.701   2.488  10.673 -0.6903 -0.2097 -0.7177
  500MPD2    C1 7482   4.708   2.621  10.693 -0.2076 -0.6671  0.0774
  500MPD2    C2 7483   4.628   2.709  10.621  0.6990 -0.7810  0.4096
  500MPD2    C3 7484   4.541   2.656  10.531  0.6453  0.3655  0.2512
  500MPD2    C4 7485   4.544   2.521  10.502 -0.4358  0.7022 -0.2128
  500MPD2    C5 7486   4.616   2.437  10.576  1.2155 -0.0789  0.2377
  500MPD2     H 7487   4.635   2.814  10.647 -1.8833 -0.4894 -0.0980
  500MPD2    H1 7488   4.479   2.470  10.432 -1.0305  1.5890 -0.3100
  500MPD2    H2 7489   0.042   2.437  10.723  0.1065  0.1687 -1.6458
  500MPD2    H3 7490   4.614   2.329  10.573  0.0988  0.0050 -2.2823
  500MPD2     N 7491   4.461   2.740  10.452  0.1862  0.3988 -0.1437
  500MPD2    H5 7492   4.386   2.693  10.403 -1.0982  0.3049  1.9075
  500MPD2    N1 7493   0.065   2.683  10.778 -0.4162  0.4788 -0.4168
  500MPD2    H7 7494   0.079   2.782  10.765  1.5661  0.4987  1.8782
  501TMC3    C1 7495   0.232   2.703  10.944 -0.1118 -0.5187 -0.1185
  501TMC3    C2 7496   0.282   2.813  10.881 -0.0107  0.3875 -0.0854
  501TMC3    C3 7497   0.376   2.889  10.946  0.1539 -0.0763  0.0237
  501TMC3    C4 7498   0.281   2.674  11.072  0.2467 -0.1086 -0.9242
  501TMC3    C5 7499   0.385   2.738  11.129  0.1331  0.2125  0.0537
  501TMC3    C6 7500   0.441   2.844  11.061 -0.3399  0.0537  0.3111
  501TMC3     C 7501   0.129   2.624  10.891 -0.2929  0.0183 -0.0913
  501TMC3     O 7502   0.117   2.507  10.933 -0.3080 -0.4571 -0.0045
  501TMC3     H 7503   0.260   2.828  10.776 -0.3809  0.5385  0.0139
  501TMC3    H1 7504   0.241   2.588  11.123 -0.9240  1.1378  0.2627
  501TMC3    H2 7505   0.535   2.889  11.090  0.6236 -1.8064  0.0638
  501TMC3    C7 7506   0.458   2.687  11.241  0.4257 -0.0103 -1.0147
  501TMC3    C8 7507   0.446   2.993  10.877  0.0231  0.2917  0.2694
  501TMC3    O1 7508   0.565   2.743  11.262  0.7266 -0.2588 -0.8215
  501TMC3    O2 7509   0.561   3.014  10.917 -0.3356 -0.5495  0.5643
  502TMC3    C1 7510   0.164   1.663  14.846 -0.5465  0.2909  0.1846
  502TMC3    C2 7511   0.172   1.789  14.800 -0.3275 -0.1664 -0.6006
  502TMC3    C3 7512   0.058   1.867  14.798  0.1258  0.2487 -0.5763
  502TMC3    C4 7513   0.040   1.613  14.879  0.4369  0.0106 -0.9510
  502TMC3    C5 7514   4.668   1.689  14.884  0.5100  1.0900 -0.6836
  502TMC3    C6 7515   4.673   1.817  14.841 -0.6145  0.8542 -0.1555
  502TMC3     C 7516   0.278   1.625  14.924  0.2155 -0.2428  0.1017
  502TMC3     O 7517   0.392   1.666  14.897 -0.6182  0.2672  0.0796
  502TMC3     H 7518   0.267   1.839  14.785  0.0409 -1.0606 -1.2404
  502TMC3    H1 7519   0.030   1.515  14.923 -0.0787  1.5299  2.3068
  502TMC3    H2 7520   4.579   1.870  14.833 -1.5273 -0.6770  0.3381
  502TMC3    C7 7521   4.601   1.660  15.009  0.2102 -0.3642  0.4040
  502TMC3    C8 7522   0.069   1.990  14.723 -0.1634 -0.0700  0.3795
  502TMC3    O1 7523   4.676   1.621  15.092 -0.2664  0.1567  0.9305
  502TMC3    O2 7524   4.741   2.083  14.759  0.4040 -0.0550  0.7402
  503MPD2     C 7525   2.719   3.215  16.946  0.1528  0.6064  0.2450
  503MPD2    C1 7526   2.657   3.207  17.066 -0.7822 -0.0041 -0.4152
  503MPD2    C2 7527   2.714   3.114  17.157  0.1389  0.6074  0.2850
  503MPD2    C3 7528   2.814   3.025  17.122  0.1724 -0.5084 -0.2041
  503MPD2    C4 7529   2.858   3.026  16.991  0.3775 -0.0504 -0.2568
  503MPD2    C5 7530   2.816   3.123  16.909  0.6650 -0.2247 -0.8050
  503MPD2     H 7531   2.669   3.102  17.254 -0.0219 -1.1408 -0.0103
  503MPD2    H1 7532   2.928   2.957  16.944  0.1802  1.5425 -2.9202
  503MPD2    H2 7533   2.688   3.285  16.869  1.3287  0.0818 -0.7120
  503MPD2    H3 7534   2.860   3.130  16.810  0.6318  0.2211 -0.7890
  503MPD2     N 7535   2.858   2.929  17.217 -0.4534  0.1199 -0.4027
  503MPD2    H5 7536   2.809   2.929  17.306  0.6845  3.7457  0.2565
  503MPD2    N1 7537   2.542   3.282  17.106  0.1761  0.1732 -0.1009
  503MPD2    H7 7538   2.500   3.266  17.197  0.1712 -0.4246 -0.2104
  504TMC3    C1 7539   2.980   2.748  17.313  0.5353  0.2939 -0.5844
  504TMC3    C2 7540   2.890   2.736  17.417 -0.3512  0.0590 -0.0361
  504TMC3    C3 7541   2.921   2.669  17.525 -0.1691 -0.2850 -0.0488
  504TMC3    C4 7542   3.106   2.691  17.318  0.1114 -0.0101 -0.1518
  504TMC3    C5 7543   3.132   2.611  17.430 -0.0619  0.3228 -0.6178
  504TMC3    C6 7544   3.038   2.599  17.533 -0.2482  0.4145  0.0659
  504TMC3     C 7545   2.963   2.838  17.202  0.5465 -0.8142  0.1441
  504TMC3     O 7546   3.040   2.827  17.108  0.2166  0.2540  0.0988
  504TMC3     H 7547   2.789   2.775  17.409 -0.2694  0.9369  3.3749
  504TMC3    H1 7548   3.185   2.707  17.246  1.8223 -0.7365  1.5708
  504TMC3    H2 7549   3.049   2.539  17.623  0.3061  2.1352  1.1354
  504TMC3    C7 7550   3.243   2.519  17.406 -0.3906 -0.0399 -1.1929
  504TMC3    C8 7551   2.824   2.661  17.634  0.1534  0.1193 -0.1175
  504TMC3    O1 7552   3.295   2.525  17.292 -0.0157  0.3263  0.1330
  504TMC3    O2 7553   2.704   2.665  17.603 -0.1899 -0.4720  0.4859
  505MPD2     C 7554   2.751   0.759  10.043  0.1494 -0.0684 -0.3660
  505MPD2    C1 7555   2.642   0.839  10.074  0.0284 -0.4000  0.4514
  505MPD2    C2 7556   2.556   0.869   9.971  0.5023 -0.2869  0.0600
  505MPD2    C3 7557   2.578   0.823   9.839  0.4510 -0.9171  0.0542
  505MPD2    C4 7558   2.687   0.744   9.819 -0.0585 -0.4037 -0.8202
  505MPD2    C5 7559   2.778   0.712   9.920 -0.1856 -0.0573  0.7261
  505MPD2     H 7560   2.465   0.925   9.989  0.0773 -1.0421  0.2523
  505MPD2    H1 7561   2.701   0.705   9.719  1.4979 -0.9421 -0.3786
  505MPD2    H2 7562   2.814   0.722  10.122  0.0457 -2.1094 -1.2201
  505MPD2    H3 7563   2.865   0.655   9.890 -0.9958 -0.4988 -0.7772
  505MPD2     N 7564   2.504   0.866   9.727  0.0934 -0.1732 -0.4237
  505MPD2    H5 7565   2.543   0.839   9.637  0.3086 -3.3749  0.6638
  505MPD2    N1 7566   2.623   0.886  10.204  0.3325 -0.4952  0.0008
  505MPD2    H7 7567   2.530   0.917  10.233  0.9353  2.6234 -1.4035
  506TMC3    C1 7568   2.679   0.979  10.409 -0.7687 -0.0134 -0.1789
  506TMC3    C2 7569   2.781   1.037  10.474 -0.2888 -0.2720  0.2385
  506TMC3    C3 7570   2.749   1.151  10.535 -0.5370  0.2912 -0.3271
  506TMC3    C4 7571   2.556   1.041  10.403  0.0539  0.4884  0.0503
  506TMC3    C5 7572   2.524   1.154  10.468 -0.7919  0.4416  0.0575
  506TMC3    C6 7573   2.627   1.213  10.537  0.6250 -0.3969  0.1700
  506TMC3     C 7574   2.719   0.892  10.301 -0.3183  0.4793  0.1352
  506TMC3     O 7575   2.838   0.873  10.287 -0.3509 -0.0764  0.2386
  506TMC3     H 7576   2.886   1.010  10.473 -0.0076  0.7200  2.6017
  506TMC3    H1 7577   2.472   0.990  10.357  0.7587  0.6925 -1.4643
  506TMC3    H2 7578   2.616   1.312  10.580  0.3310 -0.3833  0.0593
  506TMC3    C7 7579   2.437   1.245  10.401 -0.3601 -0.0601  0.2969
  506TMC3    C8 7580   2.859   1.245  10.530 -0.0415  0.1093  0.5108
  506TMC3    O1 7581   2.433   1.355  10.445 -0.2013 -0.1220 -0.0199
  506TMC3    O2 7582   2.924   1.259  10.633  1.0607 -0.2889 -0.2126
  507TMC3    C1 7583   3.436   2.168  14.985  0.2675  0.1369 -0.2417
  507TMC3    C2 7584   3.458   2.191  14.848  0.3116 -0.5165  0.7845
  507TMC3    C3 7585   3.466   2.317  14.796 -0.1765 -0.1560 -0.4015
  507TMC3    C4 7586   3.398   2.280  15.055  0.8581  0.1147  0.2040
  507TMC3    C5 7587   3.402   2.407  15.001  0.2737  0.3361 -0.4505
  507TMC3    C6 7588   3.460   2.427  14.877  0.0899  0.7214 -0.2397
  507TMC3     C 7589   3.372   2.042  15.018  0.4386  0.1342 -0.1088
  507TMC3     O 7590   3.360   1.965  14.927  0.2606 -0.4156  0.5656
  507TMC3     H 7591   3.477   2.102  14.790 -1.2619  0.2383 -0.8683
  507TMC3    H1 7592   3.347   2.272  15.150 -0.6849 -0.3324 -0.6783
  507TMC3    H2 7593   3.454   2.525  14.833 -1.0015  0.9202  0.3467
  507TMC3    C7 7594   3.278   2.467  15.014  0.3780  0.3876  0.1296
  507TMC3    C8 7595   3.401   2.327  14.672 -0.6747  0.2114 -0.1053
  507TMC3    O1 7596   3.185   2.400  15.053 -0.2253  0.3433 -0.3576
  507TMC3    O2 7597   3.359   2.440  14.655 -0.3643  0.4156  0.4037
  508MPD2     C 7598   4.554   4.269  15.705 -0.0219 -0.8237  0.2679
  508MPD2    C1 7599   4.499   4.337  15.813  0.7759 -0.0857 -0.1016
  508MPD2    C2 7600   4.477   4.471  15.804 -0.3378  0.1796 -0.4573
  508MPD2    C3 7601   4.505   4.545  15.688  0.2249 -0.2113 -0.0191
  508MPD2    C4 7602   4.576   4.471  15.584  0.0653  0.5693  0.7857
  508MPD2    C5 7603   4.593   4.333  15.593  0.0371 -0.1186  0.7346
  508MPD2     H 7604   4.431   4.518  15.890 -1.9117 -0.1796 -1.1024
  508MPD2    H1 7605   4.613   4.522  15.496 -0.8136 -2.4041 -1.3111
  508MPD2    H2 7606   4.583   4.165  15.711  2.2926 -0.3544 -2.7482
  508MPD2    H3 7607   4.642   4.279  15.513 -1.5370  0.0054 -0.2973
  508MPD2     N 7608   4.472   4.678  15.680 -0.1740 -0.7331 -0.6766
  508MPD2    H5 7609   4.431   4.712  15.767 -0.8815 -0.6328 -1.0520
  508MPD2    N1 7610   4.483   4.258  15.932 -0.1851  0.4798 -0.1931
  508MPD2    H7 7611   4.516   4.162  15.934 -1.6370 -0.0104  0.3134
  509TMC3    C1 7612   4.264   0.303  15.565 -0.0130 -0.3727  0.0386
  509TMC3    C2 7613   4.282   0.356  15.689  0.5078  0.3127  0.1554
  509TMC3    C3 7614   4.379   0.304  15.763  0.1423 -0.7190 -0.1484
  509TMC3    C4 7615   4.330   0.196  15.518  1.2533  0.1465 -0.7851
  509TMC3    C5 7616   4.426   0.145  15.597  0.1979 -0.2390  0.7963
  509TMC3    C6 7617   4.444   0.192  15.724 -0.1585 -0.1199 -0.2490
  509TMC3     C 7618   4.188   0.374  15.468  0.4763  0.3523 -0.4773
  509TMC3     O 7619   4.191   0.339  15.354 -0.7173  0.2657 -0.1734
  509TMC3     H 7620   4.229   0.448  15.712  0.8798  0.8685 -1.1920
  509TMC3    H1 7621   4.300   0.141  15.430  0.1913 -0.9746  0.2896
  509TMC3    H2 7622   4.534   0.159  15.775 -1.2546 -2.9632 -0.1692
  509TMC3    C7 7623   4.468   0.014  15.564 -0.1506  0.3324 -0.0442
  509TMC3    C8 7624   4.428   0.371  15.876 -0.8524 -0.2262  0.2527
  509TMC3    O1 7625   4.500   4.726  15.447  0.4086 -0.1675 -0.2922
  509TMC3    O2 7626   4.507   0.308  15.952  0.0997  0.5123 -0.0291
  510MPD2     C 7627   1.663   1.401  14.551 -0.5528 -0.2391  0.6384
  510MPD2    C1 7628   1.756   1.313  14.605  0.1321  0.4802 -0.1348
  510MPD2    C2 7629   1.861   1.257  14.528  0.8835 -0.5363 -0.1441
  510MPD2    C3 7630   1.849   1.279  14.395 -0.2716 -0.5342  0.0533
  510MPD2    C4 7631   1.754   1.366  14.341  0.4657 -0.4313  0.0925
  510MPD2    C5 7632   1.672   1.445  14.425 -0.0298  0.4273  0.8705
  510MPD2     H 7633   1.936   1.194  14.574  0.5417 -1.0494 -0.2869
  510MPD2    H1 7634   1.755   1.391  14.235  0.0048 -0.0673  0.1743
  510MPD2    H2 7635   1.610   1.477  14.609 -0.8628  0.6204 -0.7724
  510MPD2    H3 7636   1.601   1.512  14.377  0.0200 -1.8111 -2.3312
  510MPD2     N 7637   1.934   1.193  14.312  0.2141  0.2032  0.3839
  510MPD2    H5 7638   1.997   1.125  14.353 -1.4131 -1.3870  0.2591
  510MPD2    N1 7639   1.747   1.292  14.746  0.4082  0.0169 -0.3275
  510MPD2    H7 7640   1.668   1.335  14.793  0.2752  0.4521 -0.9450
  511TMC3    C1 7641   1.808   1.173  14.947 -0.3692  0.5334  0.6135
  511TMC3    C2 7642   1.722   1.237  15.035 -0.3176 -0.3350 -0.1899
  511TMC3    C3 7643   1.648   1.157  15.125  0.6386 -0.3577 -0.5015
  511TMC3    C4 7644   1.831   1.038  14.955 -0.0348 -0.2885  0.3114
  511TMC3    C5 7645   1.754   0.964  15.035  0.1972 -0.3690  0.8806
  511TMC3    C6 7646   1.658   1.020  15.114 -0.6035 -0.5612  0.0433
  511TMC3     C 7647   1.849   1.230  14.816  0.7300 -0.0157 -0.6226
  511TMC3     O 7648   1.956   1.180  14.786  0.0846  0.2354  0.0013
  511TMC3     H 7649   1.695   1.341  15.018 -0.2893 -0.6707 -2.3018
  511TMC3    H1 7650   1.905   0.992  14.890  0.8101  0.3027  0.8477
  511TMC3    H2 7651   1.588   0.949  15.156 -0.1095 -1.4335 -0.6042
  511TMC3    C7 7652   1.747   0.829  14.998 -0.6952  0.1073  0.0012
  511TMC3    C8 7653   1.569   1.214  15.230 -0.5578 -0.2734  0.0767
  511TMC3    O1 7654   1.780   0.801  14.882  0.1824  0.6036 -0.3484
  511TMC3    O2 7655   1.554   1.336  15.233  0.3215  0.0725 -0.5134
  512TMC3    C1 7656   0.860   0.697  12.834  0.3518  0.2704 -0.5140
  512TMC3    C2 7657   0.986   0.654  12.857 -0.2822  0.5052  0.1862
  512TMC3    C3 7658   0.990   0.518  12.878 -0.7146 -0.3508  0.2244
  512TMC3    C4 7659   0.747   0.620  12.828  0.1684 -0.4908 -0.4354
  512TMC3    C5 7660   0.763   0.483  12.844  0.2042  0.1608  0.1461
  512TMC3    C6 7661   0.884   0.430  12.880 -0.0761  0.7118  0.0749
  512TMC3     C 7662   0.837   0.826  12.791  0.2041  0.0413  0.1642
  512TMC3     O 7663   0.763   0.846  12.694  0.1917  0.5391  0.5289
  512TMC3     H 7664   1.074   0.718  12.855 -1.7943  2.5458 -1.4648
  512TMC3    H1 7665   0.650   0.666  12.812  0.6617 -0.0711 -2.2080
  512TMC3    H2 7666   0.898   0.325  12.903  1.4436  0.3903 -2.3780
  512TMC3    C7 7667   0.672   0.410  12.762 -0.4251 -0.4121  0.4690
  512TMC3    C8 7668   1.118   0.448  12.879 -0.3160  0.1133  0.4863
  512TMC3    O1 7669   0.600   0.485  12.695  0.0277 -0.1755 -0.0514
  512TMC3    O2 7670   1.119   0.330  12.856  0.1274  0.0518 -0.1060
  513MPD2     C 7671   3.459   1.161  13.220  0.0451  0.3175 -0.1911
  513MPD2    C1 7672   3.515   1.091  13.116 -0.0221 -0.2447 -0.6917
  513MPD2    C2 7673   3.646   1.069  13.123  0.4105 -0.5089  0.3566
  513MPD2    C3 7674   3.726   1.111  13.227 -0.7491  0.0282 -0.2184
  513MPD2    C4 7675   3.671   1.186  13.327  0.0323  0.1064 -0.6701
  513MPD2    C5 7676   3.541   1.216  13.318 -0.1495  0.4378 -0.1986
  513MPD2     H 7677   3.694   1.012  13.045  0.4730  0.4091 -0.2746
  513MPD2    H1 7678   3.734   1.226  13.405 -1.2706  0.9026 -0.0215
  513MPD2    H2 7679   3.353   1.183  13.232 -0.3100 -2.1328  1.1327
  513MPD2    H3 7680   3.490   1.284  13.385  0.8963 -0.1475  1.1926
  513MPD2     N 7681   3.857   1.051  13.228  0.6080 -0.4499 -0.0613
  513MPD2    H5 7682   3.887   1.002  13.145 -0.9078 -1.7342  0.1515
  513MPD2    N1 7683   3.444   1.041  13.005  0.3861  0.1666  0.8995
  513MPD2    H7 7684   3.505   0.974  12.958  0.7929  2.7303 -2.2513
  514TMC3    C1 7685   3.283   1.034  12.833 -0.2583  0.0735  0.0581
  514TMC3    C2 7686   3.179   0.946  12.821  0.9767 -0.0492 -0.0953
  514TMC3    C3 7687   3.193   0.840  12.736 -0.4093  0.1144 -0.7402
  514TMC3    C4 7688   3.391   1.014  12.751 -0.2137 -0.5242 -0.1285
  514TMC3    C5 7689   3.413   0.889  12.696  0.7479 -0.3561  0.0564
  514TMC3    C6 7690   3.309   0.800  12.684  0.0324  0.6287 -0.5175
  514TMC3     C 7691   3.316   1.069  12.974 -0.2628 -0.4653  0.1480
  514TMC3     O 7692   3.222   1.121  13.034 -0.2315  0.1483 -0.2117
  514TMC3     H 7693   3.106   0.947  12.902 -1.5579 -0.6854 -2.3824
  514TMC3    H1 7694   3.473   1.085  12.753 -0.1431 -0.5972 -0.4080
  514TMC3    H2 7695   3.314   0.699  12.644  0.3057  0.8342 -0.9995
  514TMC3    C7 7696   3.536   0.835  12.745  0.0422 -1.1700  0.3087
  514TMC3    C8 7697   3.081   0.813  12.653 -0.9419 -0.4423 -0.0558
  514TMC3    O1 7698   3.591   0.912  12.821 -0.1622  0.9794 -0.0850
  514TMC3    O2 7699   2.972   0.824  12.707  0.2050 -0.0747 -0.2783
  515MPD2     C 7700   1.462   1.931  14.776 -0.0035 -0.5924 -0.8306
  515MPD2    C1 7701   1.389   2.041  14.737  0.4846  0.2157 -0.4221
  515MPD2    C2 7702   1.404   2.167  14.800 -0.0298 -0.3059 -0.4340
  515MPD2    C3 7703   1.499   2.180  14.898 -1.0981 -0.2592  0.6310
  515MPD2    C4 7704   1.582   2.074  14.932  0.2904 -0.0576 -0.8532
  515MPD2    C5 7705   1.559   1.951  14.871  0.4433 -0.3448  0.5225
  515MPD2     H 7706   1.343   2.249  14.764  0.2776  0.0307 -0.1951
  515MPD2    H1 7707   1.650   2.094  15.014 -0.8581 -0.0308  0.0874
  515MPD2    H2 7708   1.451   1.832  14.734  0.8714 -1.4354  0.9038
  515MPD2    H3 7709   1.633   1.880  14.906 -0.2208 -0.3118  1.9860
  515MPD2     N 7710   1.544   2.304  14.955 -0.3650 -0.6436 -0.3270
  515MPD2    H5 7711   1.619   2.310  15.022 -0.0589 -1.5372 -0.5952
  515MPD2    N1 7712   1.287   2.029  14.640 -0.6706 -0.0308 -0.3881
  515MPD2    H7 7713   1.232   2.112  14.619 -0.9371  0.2336  1.3383
  516TMC3    C1 7714   1.112   1.933  14.528 -0.3615 -0.2095 -0.8850
  516TMC3    C2 7715   1.091   2.005  14.410 -0.5988 -0.1147 -0.8375
  516TMC3    C3 7716   0.978   1.979  14.333 -0.5457 -0.0996  0.0318
  516TMC3    C4 7717   1.030   1.833  14.564 -0.4911 -0.1118  0.3813
  516TMC3    C5 7718   0.923   1.799  14.481 -0.4689 -0.5712 -0.1804
  516TMC3    C6 7719   0.893   1.878  14.367 -0.2470  0.3224  0.3952
  516TMC3     C 7720   1.246   1.916  14.575  0.5605 -0.2784  1.1144
  516TMC3     O 7721   1.283   1.804  14.595 -0.1621 -0.2728 -0.1020
  516TMC3     H 7722   1.157   2.087  14.384  0.5981 -0.5007  1.0105
  516TMC3    H1 7723   1.056   1.767  14.646 -2.0506 -0.2669  0.7570
  516TMC3    H2 7724   0.808   1.853  14.304  1.5447  0.3959 -2.0605
  516TMC3    C7 7725   0.845   1.680  14.513 -0.6869  0.2651  0.1628
  516TMC3    C8 7726   0.957   2.072  14.223 -0.4343 -0.3594  0.3374
  516TMC3    O1 7727   0.876   1.622  14.621  0.2123 -0.1683 -0.2934
  516TMC3    O2 7728   1.056   2.132  14.187 -0.7074  0.0820  0.4955
  517MPD2     C 7729   0.707   4.238  17.436  0.6016  0.5595 -0.3026
  517MPD2    C1 7730   0.841   4.219  17.464  0.2952  0.4734 -0.0081
  517MPD2    C2 7731   0.904   4.310  17.548  0.0887 -0.6341 -0.2261
  517MPD2    C3 7732   0.829   4.414  17.608 -0.0088  0.3467  0.2074
  517MPD2    C4 7733   0.694   4.414  17.588  0.7543  0.6097  0.1274
  517MPD2    C5 7734   0.631   4.328  17.506 -0.1553  0.3421 -0.0863
  517MPD2     H 7735   1.009   4.296  17.574  0.3791  2.0810  0.0740
  517MPD2    H1 7736   0.634   4.481  17.650 -0.3042  0.5678 -0.8491
  517MPD2    H2 7737   0.648   4.173  17.373  1.4339 -1.3702  0.8888
  517MPD2    H3 7738   0.526   4.344  17.484 -0.6198 -0.5671  1.4151
  517MPD2     N 7739   0.871   4.524  17.687 -0.1052  0.1110 -0.3964
  517MPD2    H5 7740   0.798   4.569  17.741  0.9910  0.8248  0.4874
  517MPD2    N1 7741   0.912   4.112  17.418 -0.3931 -0.5348 -0.4293
  517MPD2    H7 7742   1.005   4.088  17.451 -0.0424  0.9732 -0.2801
  518TMC3    C1 7743   0.945   3.906  17.303 -0.1558  0.3129 -0.5913
  518TMC3    C2 7744   0.907   3.817  17.205  0.6160 -0.3550 -0.3392
  518TMC3    C3 7745   0.972   3.703  17.178 -0.0079 -0.3997 -0.9973
  518TMC3    C4 7746   1.062   3.882  17.369  0.0943 -0.0008  0.5507
  518TMC3    C5 7747   1.131   3.770  17.339  0.3125  0.3702  0.0209
  518TMC3    C6 7748   1.085   3.679  17.249  0.6237  0.1194  0.3791
  518TMC3     C 7749   0.866   4.020  17.327  0.4760 -0.1833 -0.4902
  518TMC3     O 7750   0.764   4.033  17.263 -0.3059  0.1785 -0.5325
  518TMC3     H 7751   0.817   3.828  17.146  0.9335 -0.2552 -0.8075
  518TMC3    H1 7752   1.097   3.949  17.447  1.8155 -3.4798  2.7615
  518TMC3    H2 7753   1.150   3.598  17.217 -1.3841 -1.1144 -0.5381
  518TMC3    C7 7754   1.254   3.748  17.410  0.2662 -0.1014 -0.4199
  518TMC3    C8 7755   0.934   3.614  17.074 -0.1427 -0.6342 -0.7725
  518TMC3    O1 7756   1.270   3.797  17.519 -0.3796 -0.0251 -0.1311
  518TMC3    O2 7757   0.959   3.496  17.087 -0.7030  0.0393  0.8466
  519MPD2     C 7758   1.964   2.120  14.407  0.6714 -0.7677  0.5055
  519MPD2    C1 7759   1.965   2.078  14.277 -0.1017  0.3636  0.4202
  519MPD2    C2 7760   2.045   1.968  14.240 -0.4066  0.4382  0.8161
  519MPD2    C3 7761   2.117   1.899  14.334 -0.7179 -0.6100 -0.5480
  519MPD2    C4 7762   2.103   1.937  14.467 -0.2578  0.0388 -0.4217
  519MPD2    C5 7763   2.032   2.049  14.501 -0.3211  0.3264  0.4213
  519MPD2     H 7764   2.052   1.941  14.135  0.0663  1.5523  0.5681
  519MPD2    H1 7765   2.144   1.874  14.545 -0.4217  0.2422 -0.1698
  519MPD2    H2 7766   1.916   2.215  14.428 -0.1469 -1.1235  0.2354
  519MPD2    H3 7767   2.019   2.070  14.606 -1.7728 -1.6952  0.6381
  519MPD2     N 7768   2.177   1.781  14.291 -0.1001  0.1364  0.0501
  519MPD2    H5 7769   2.243   1.738  14.355 -0.5817 -1.2656 -0.3974
  519MPD2    N1 7770   1.893   2.155  14.183 -0.0661  0.0750  1.1767
  519MPD2    H7 7771   1.823   2.216  14.224 -0.4400 -1.1230  2.3170
  520TMC3    C1 7772   2.216   1.590  14.152 -0.0962 -0.0566  0.2992
  520TMC3    C2 7773   2.157   1.509  14.060  0.2634  0.6729 -0.2106
  520TMC3    C3 7774   2.221   1.400  14.013 -0.0114 -0.0763  0.3036
  520TMC3    C4 7775   2.351   1.587  14.173 -0.2018  0.2552 -0.4107
  520TMC3    C5 7776   2.414   1.481  14.118  0.5461  0.1113 -0.4556
  520TMC3    C6 7777   2.350   1.378  14.056  0.4309  0.4984  0.3926
  520TMC3     C 7778   2.150   1.714  14.173 -0.3460 -0.1564  0.0113
  520TMC3     O 7779   2.071   1.734  14.083 -0.0314  0.2835  0.3545
  520TMC3     H 7780   2.053   1.522  14.031  0.1262 -1.9096 -0.8340
  520TMC3    H1 7781   2.398   1.671  14.222 -2.0504 -0.1614  2.0872
  520TMC3    H2 7782   2.402   1.289  14.023 -0.0820 -0.0146  0.9708
  520TMC3    C7 7783   2.561   1.485  14.118 -0.0586  0.1556  0.0868
  520TMC3    C8 7784   2.207   1.368  13.870 -0.5297  0.8298 -0.2542
  520TMC3    O1 7785   2.610   1.546  14.210  0.3465 -0.3469  0.5467
  520TMC3    O2 7786   2.313   1.350  13.808 -0.0911  0.2837  0.1095
  521MPD2     C 7787   3.500   0.734  17.219 -0.1860 -0.8126 -0.1551
  521MPD2    C1 7788   3.447   0.609  17.190 -0.6721 -0.5675 -0.5688
  521MPD2    C2 7789   3.521   0.522  17.103  1.0190 -0.2362 -0.3436
  521MPD2    C3 7790   3.636   0.568  17.046  0.3781 -0.2169 -0.7511
  521MPD2    C4 7791   3.688   0.687  17.082 -0.3392 -0.4541 -0.3259
  521MPD2    C5 7792   3.622   0.768  17.169  0.3478  0.2337  0.3652
  521MPD2     H 7793   3.485   0.427  17.065 -2.3050  0.6239  0.6716
  521MPD2    H1 7794   3.780   0.723  17.036 -1.1953 -0.4873 -2.0713
  521MPD2    H2 7795   3.447   0.809  17.277  1.3138 -0.2660  0.4946
  521MPD2    H3 7796   3.651   0.872  17.169 -1.2553  0.6732 -0.1782
  521MPD2     N 7797   3.699   0.487  16.947  0.7362  0.0332  0.1679
  521MPD2    H5 7798   3.640   0.407  16.925  0.9123  0.4176 -1.6976
  521MPD2    N1 7799   3.321   0.565  17.239 -0.0605  0.3962 -0.6177
  521MPD2    H7 7800   3.294   0.477  17.195 -1.1547  1.2306 -1.6181
  522TMC3    C1 7801   3.865   0.413  16.783  0.1866  0.6553 -0.3689
  522TMC3    C2 7802   3.986   0.359  16.798  0.6415  0.5159 -0.1981
  522TMC3    C3 7803   4.016   0.243  16.740 -0.1006 -0.6408  0.2863
  522TMC3    C4 7804   3.772   0.356  16.706 -0.3563 -0.4925 -0.2425
  522TMC3    C5 7805   3.801   0.233  16.653 -0.1312 -0.0952  0.1169
  522TMC3    C6 7806   3.919   0.169  16.672 -0.5135 -0.2757  0.1874
  522TMC3     C 7807   3.825   0.504  16.888 -0.5293  0.3478  0.0319
  522TMC3     O 7808   3.916   0.581  16.922 -0.3474  0.4852 -0.2264
  522TMC3     H 7809   4.057   0.418  16.855 -0.0943  1.7676 -0.5632
  522TMC3    H1 7810   3.670   0.395  16.705 -0.6230 -1.2050 -0.9804
  522TMC3    H2 7811   3.938   0.067  16.641  1.1629 -0.0177  0.3563
  522TMC3    C7 7812   3.687   0.153  16.616  0.5523 -0.8195 -0.2190
  522TMC3    C8 7813   4.144   0.178  16.770  0.5764  0.1726 -0.7038
  522TMC3    O1 7814   3.702   0.034  16.631 -0.0743 -0.0824  0.0477
  522TMC3    O2 7815   4.208   0.220  16.863 -0.2497 -0.0433 -0.0817
  523MPD2     C 7816   0.561   0.512  10.580 -0.5279 -0.2291 -0.3785
  523MPD2    C1 7817   0.573   0.418  10.480 -1.0043 -0.0712  0.5494
  523MPD2    C2 7818   0.524   0.440  10.355  0.4632 -0.1639 -0.6262
  523MPD2    C3 7819   0.455   0.554  10.325  1.0874 -0.4746  0.3906
  523MPD2    C4 7820   0.437   0.642  10.430  0.4397 -0.4076 -0.0348
  523MPD2    C5 7821   0.490   0.627  10.552  0.2897  0.1854 -0.4386
  523MPD2     H 7822   0.543   0.370  10.274  1.1537 -2.6796  1.7062
  523MPD2    H1 7823   0.374   0.728  10.411  1.3545  0.6737  1.7804
  523MPD2    H2 7824   0.603   0.511  10.680 -2.4281 -2.1467  0.3885
  523MPD2    H3 7825   0.472   0.701  10.629 -2.6754 -1.4672  0.4843
  523MPD2     N 7826   0.406   0.591  10.199  1.0217  0.6571 -0.2897
  523MPD2    H5 7827   0.347   0.674  10.192 -0.3536 -0.6730 -4.3975
  523MPD2    N1 7828   0.646   0.301  10.515 -0.0548 -0.4747 -0.5765
  523MPD2    H7 7829   0.691   0.305  10.605  1.5623  1.3273 -1.4665
  524TMC3    C1 7830   0.365   0.596   9.965 -0.1479  0.0317 -0.8922
  524TMC3    C2 7831   0.429   0.567   9.843  0.0366 -0.2930 -0.8112
  524TMC3    C3 7832   0.390   0.660   9.746  0.7370  0.3769 -0.8171
  524TMC3    C4 7833   0.257   0.686   9.973 -0.8977  0.0967  0.9517
  524TMC3    C5 7834   0.210   0.754   9.864  0.0925 -0.1075  0.1721
  524TMC3    C6 7835   0.283   0.752   9.750 -0.3483 -0.1527 -0.1222
  524TMC3     C 7836   0.425   0.524  10.081 -0.0928  0.3716 -0.1729
  524TMC3     O 7837   0.500   0.430  10.052  0.9711  0.4042 -0.0314
  524TMC3     H 7838   0.520   0.509   9.838 -0.2417 -0.6524 -1.6828
  524TMC3    H1 7839   0.190   0.688  10.059 -0.5974  1.7306  1.1365
  524TMC3    H2 7840   0.267   0.829   9.676  2.3500  0.0721 -0.4832
  524TMC3    C7 7841   0.118   0.864   9.890  0.0446  0.4542 -0.7066
  524TMC3    C8 7842   0.468   0.643   9.621 -0.4591  0.1681  0.2606
  524TMC3    O1 7843   0.116   0.904  10.006  0.4538  0.3603  0.2098
  524TMC3    O2 7844   0.558   0.561   9.620  0.1569 -0.5479 -0.3719
  525MPD2     C 7845   3.721   1.662  14.352  0.0675  0.2722 -0.3204
  525MPD2    C1 7846   3.831   1.696  14.432  0.5571 -0.5700 -0.0979
  525MPD2    C2 7847   3.900   1.812  14.409  0.1256  0.2815 -0.8067
  525MPD2    C3 7848   3.861   1.889  14.302 -0.4681 -0.6055 -0.1146
  525MPD2    C4 7849   3.766   1.844  14.212 -0.3216  0.7776  0.1554
  525MPD2    C5 7850   3.692   1.728  14.236 -0.1627  0.1526 -0.8162
  525MPD2     H 7851   3.965   1.840  14.491  2.4697 -1.2878 -2.1485
  525MPD2    H1 7852   3.743   1.893  14.118 -0.8557  0.7272  0.2565
  525MPD2    H2 7853   3.665   1.570  14.366  1.5659 -0.4579  0.9085
  525MPD2    H3 7854   3.612   1.694  14.172 -0.0219 -2.7766  0.5398
  525MPD2     N 7855   3.906   2.026  14.299 -0.4027  0.3631  0.3849
  525MPD2    H5 7856   3.852   2.089  14.241 -1.5277  0.0946  1.1408
  525MPD2    N1 7857   3.874   1.602  14.535 -0.1699  0.2339 -0.6461
  525MPD2    H7 7858   3.960   1.621  14.586 -0.7478 -1.5725  1.0070
  526TMC3    C1 7859   3.884   1.429  14.700 -0.4101 -0.2124 -0.0263
  526TMC3    C2 7860   3.809   1.393  14.810 -0.2045  0.4926  0.1091
  526TMC3    C3 7861   3.878   1.377  14.929  0.4634 -0.5115 -0.2568
  526TMC3    C4 7862   4.018   1.442  14.705  0.0238  0.5791 -0.0050
  526TMC3    C5 7863   4.076   1.441  14.829  0.1547  0.4049 -0.8563
  526TMC3    C6 7864   4.011   1.414  14.939 -0.0277 -0.1111  0.5204
  526TMC3     C 7865   3.810   1.487  14.584  0.3326  0.1428  0.1519
  526TMC3     O 7866   3.701   1.445  14.556  0.2195  0.1934  0.5517
  526TMC3     H 7867   3.703   1.372  14.802  0.3266 -2.0964 -0.1522
  526TMC3    H1 7868   4.068   1.471  14.613 -0.1097 -0.7368 -0.4855
  526TMC3    H2 7869   4.066   1.403  15.032  0.1520 -2.7606  0.0951
  526TMC3    C7 7870   4.221   1.404  14.833 -0.2845 -0.2811 -0.3228
  526TMC3    C8 7871   3.808   1.337  15.052  0.1004  0.0625 -0.0936
  526TMC3    O1 7872   4.290   1.412  14.934  0.1685 -0.0782 -0.0524
  526TMC3    O2 7873   3.867   1.355  15.158 -0.5615  0.6069 -0.1281
  527MPD2     C 7874   1.893   0.283   0.615 -0.1067  0.7716  0.8049
  527MPD2    C1 7875   1.892   0.420   0.577  0.0119  0.4143  0.1721
  527MPD2    C2 7876   2.000   0.484   0.534 -0.5060  0.1258 -1.2149
  527MPD2    C3 7877   2.121   0.415   0.529 -0.0718 -0.6399 -0.3415
  527MPD2    C4 7878   2.125   0.278   0.561 -1.0235 -0.3351  0.2174
  527MPD2    C5 7879   2.014   0.212   0.603 -0.1362 -0.8244  0.0696
  527MPD2     H 7880   1.994   0.592   0.526 -1.6128  0.1294 -0.3414
  527MPD2    H1 7881   2.214   0.220   0.539  0.6411  1.0406  3.3253
  527MPD2    H2 7882   1.803   0.231   0.644  0.4094 -0.4624  0.1792
  527MPD2    H3 7883   2.025   0.106   0.623 -0.8074 -0.9681 -0.3163
  527MPD2     N 7884   2.242   0.484   0.487  0.1045 -0.0761  0.2343
  527MPD2    H5 7885   2.238   0.570   0.433 -0.4420  0.2195  0.7467
  527MPD2    N1 7886   1.775   0.497   0.578 -0.1824 -0.1119 -0.1366
  527MPD2    H7 7887   1.783   0.597   0.562 -1.7317  0.1810  0.9282
  528TMC3    C1 7888   1.563   0.557   0.635 -0.3218  0.2777  0.5937
  528TMC3    C2 7889   1.611   0.680   0.684  0.4527  0.2350  0.4739
  528TMC3    C3 7890   1.522   0.751   0.748  0.0779 -0.5895  0.3127
  528TMC3    C4 7891   1.431   0.519   0.651 -0.0281 -0.8943  0.6043
  528TMC3    C5 7892   1.345   0.601   0.728  0.0721 -0.2042 -0.1031
  528TMC3    C6 7893   1.393   0.719   0.773  0.6695  0.1780  0.7991
  528TMC3     C 7894   1.653   0.447   0.609 -0.4679  0.2558 -0.4742
  528TMC3     O 7895   1.610   0.335   0.613 -0.1210  0.1023  0.3039
  528TMC3     H 7896   1.715   0.710   0.686  1.0098 -1.6931  0.7567
  528TMC3    H1 7897   1.387   0.428   0.613 -1.5798  0.1696 -0.1524
  528TMC3    H2 7898   1.333   0.790   0.830 -0.2026  1.1913 -1.3814
  528TMC3    C7 7899   1.204   0.555   0.755 -0.2301  0.0909 -1.2899
  528TMC3    C8 7900   1.578   0.864   0.823 -0.7264  0.3574  1.1146
  528TMC3    O1 7901   1.132   0.640   0.812 -0.2492  0.2446 -0.2642
  528TMC3    O2 7902   1.651   0.943   0.765 -0.0115 -0.3727  0.9026
  529MPD2     C 7903   4.702   3.803   1.410 -0.0869 -0.5841  0.2484
  529MPD2    C1 7904   4.737   3.701   1.327  0.6194  0.5810  0.7854
  529MPD2    C2 7905   4.643   3.666   1.230  0.2422 -0.6642 -0.5357
  529MPD2    C3 7906   4.527   3.741   1.206  0.4639 -0.2966  0.6613
  529MPD2    C4 7907   4.499   3.852   1.286 -0.8585  0.0499  0.2990
  529MPD2    C5 7908   4.587   3.872   1.392  0.2594 -0.3175 -0.5968
  529MPD2     H 7909   4.680   3.603   1.151 -2.6247 -2.0499 -0.7630
  529MPD2    H1 7910   4.419   3.923   1.271 -2.1257 -1.7119 -1.2640
  529MPD2    H2 7911   0.023   3.836   1.493 -0.8769 -1.9891  1.4042
  529MPD2    H3 7912   4.568   3.960   1.452  0.7223 -0.6479  0.0305
  529MPD2     N 7913   4.444   3.710   1.100 -0.3234  0.2221  0.4163
  529MPD2    H5 7914   4.471   3.621   1.058 -1.5401  0.1424 -0.1904
  529MPD2    N1 7915   0.120   3.628   1.339 -0.1459  1.0628  0.4691
  529MPD2    H7 7916   0.146   3.559   1.269 -0.2055  1.4762  0.0478
  530TMC3    C1 7917   0.333   3.570   1.437 -0.2805  0.4339  0.4243
  530TMC3    C2 7918   0.435   3.617   1.514  0.3854 -0.4604  0.1806
  530TMC3    C3 7919   0.529   3.528   1.562  0.2581 -0.0291  0.6049
  530TMC3    C4 7920   0.311   3.437   1.424  0.8474  0.1425  0.4063
  530TMC3    C5 7921   0.386   3.353   1.510  0.1151 -0.0962 -0.3873
  530TMC3    C6 7922   0.499   3.397   1.578 -0.4371  0.3944 -0.1232
  530TMC3     C 7923   0.216   3.657   1.437  0.3618 -0.0451  0.1069
  530TMC3     O 7924   0.229   3.754   1.513 -0.3953  0.9660  0.5022
  530TMC3     H 7925   0.457   3.723   1.515 -3.3565  0.2952  1.1633
  530TMC3    H1 7926   0.229   3.406   1.361  1.4599 -0.3589 -0.1470
  530TMC3    H2 7927   0.560   3.332   1.639 -1.0649  0.2246  0.3249
  530TMC3    C7 7928   0.367   3.214   1.506  0.1025 -0.1636  0.1766
  530TMC3    C8 7929   0.648   3.581   1.619 -0.5699  0.0512 -0.2810
  530TMC3    O1 7930   0.461   3.142   1.525  0.1865  0.2407 -0.6180
  530TMC3    O2 7931   0.650   3.698   1.658  0.1017 -0.6290  0.1313
  531MPD2     C 7932   3.887   0.473  12.819 -0.0137  0.0252  0.1341
  531MPD2    C1 7933   3.875   0.596  12.876  0.0247  0.5094 -0.0192
  531MPD2    C2 7934   3.775   0.679  12.835  0.1650 -0.7098  0.1244
  531MPD2    C3 7935   3.684   0.637  12.735  0.6060 -0.0880 -0.2226
  531MPD2    C4 7936   3.710   0.514  12.673 -0.4271 -0.4292 -0.5500
  531MPD2    C5 7937   3.797   0.424  12.734  0.3827  0.5055  0.3927
  531MPD2     H 7938   3.754   0.767  12.894  2.9351 -0.0310  0.1056
  531MPD2    H1 7939   3.648   0.473  12.594 -1.9001  1.3057 -0.3076
  531MPD2    H2 7940   3.970   0.407  12.845 -1.0570 -0.4304  2.3705
  531MPD2    H3 7941   3.804   0.321  12.698 -2.6710  1.3552 -2.6056
  531MPD2     N 7942   3.571   0.709  12.697  0.1512  0.4423  1.4830
  531MPD2    H5 7943   3.512   0.677  12.622  1.1348 -0.9712  1.3086
  531MPD2    N1 7944   3.976   0.635  12.968 -0.6395  0.6198  0.5744
  531MPD2    H7 7945   4.039   0.564  13.002 -0.6041  1.4116  2.1746
  532TMC3    C1 7946   4.066   0.767  13.144 -0.1966  0.1450  0.2125
  532TMC3    C2 7947   4.067   0.899  13.180  0.0807  0.8399  0.0784
  532TMC3    C3 7948   4.043   0.927  13.315 -1.3121  0.1808  0.3389
  532TMC3    C4 7949   4.060   0.660  13.230 -0.1315  0.5413 -0.8368
  532TMC3    C5 7950   4.047   0.697  13.365  0.1774 -0.0356  0.1860
  532TMC3    C6 7951   4.045   0.828  13.411  0.0590 -0.2196 -0.2197
  532TMC3     C 7952   3.988   0.759  13.022 -0.7934  0.0084  0.3724
  532TMC3     O 7953   3.928   0.860  12.991 -0.0164  0.1737 -0.0093
  532TMC3     H 7954   4.080   0.977  13.107  3.7167  0.6668  0.5273
  532TMC3    H1 7955   4.091   0.559  13.204  1.6849  0.5849  1.1734
  532TMC3    H2 7956   4.024   0.855  13.514 -1.1654 -0.4658 -0.4071
  532TMC3    C7 7957   4.030   0.589  13.456 -0.9297 -0.1274 -0.2599
  532TMC3    C8 7958   3.939   1.031  13.337 -0.7747  0.1600  0.1893
  532TMC3    O1 7959   4.068   0.606  13.574 -0.0858  0.0073 -0.0059
  532TMC3    O2 7960   3.917   1.083  13.446  0.1184 -0.2971 -0.3037
  533TMC3    C1 7961   4.005   2.231  14.348 -0.2252 -0.1571 -0.1143
  533TMC3    C2 7962   4.125   2.301  14.358  0.1761 -0.8617 -0.3895
  533TMC3    C3 7963   4.127   2.434  14.399 -0.6802  0.6193  0.1896
  533TMC3    C4 7964   3.889   2.298  14.384 -0.4648  0.1015 -0.3445
  533TMC3    C5 7965   3.896   2.428  14.435 -1.6480 -0.3642 -0.2491
  533TMC3    C6 7966   4.011   2.503  14.435 -0.0577 -0.3280  0.0408
  533TMC3     C 7967   4.008   2.089  14.368  0.2639 -0.1721  0.2352
  533TMC3     O 7968   4.106   2.034  14.428 -0.3115  0.1258 -0.2422
  533TMC3     H 7969   4.214   2.251  14.321  0.2398 -1.4902  0.6046
  533TMC3    H1 7970   3.799   2.239  14.391 -0.8567  0.6801 -0.4477
  533TMC3    H2 7971   4.011   2.608  14.464 -2.0315  0.0168 -1.1986
  533TMC3    C7 7972   3.797   2.443  14.533 -0.1538 -0.2857  0.5056
  533TMC3    C8 7973   4.257   2.498  14.413 -0.4167  0.5344 -0.3635
  533TMC3    O1 7974   3.709   2.354  14.533  0.4965 -0.0707  0.1667
  533TMC3    O2 7975   4.349   2.427  14.456 -0.1261  0.5179  0.3285
  534MPD2     C 7976   2.502   3.494   0.917 -0.0109 -0.1573  0.1516
  534MPD2    C1 7977   2.396   3.580   0.944  0.2923 -0.5407  1.1752
  534MPD2    C2 7978   2.269   3.545   0.904 -0.6273 -0.2402  0.8187
  534MPD2    C3 7979   2.241   3.420   0.846 -0.2579  0.7127 -0.4576
  534MPD2    C4 7980   2.340   3.328   0.833  0.4807  0.2319  0.0472
  534MPD2    C5 7981   2.468   3.368   0.871 -0.1691  0.6099 -0.3982
  534MPD2     H 7982   2.188   3.616   0.918  0.7824  0.9872  2.7072
  534MPD2    H1 7983   2.320   3.227   0.802  0.4936 -0.3476  1.9119
  534MPD2    H2 7984   2.604   3.525   0.936 -0.3506  0.2537  1.2907
  534MPD2    H3 7985   2.554   3.301   0.864 -2.1909 -2.2504  2.2825
  534MPD2     N 7986   2.109   3.379   0.817 -0.4401  0.0838  0.0386
  534MPD2    H5 7987   2.098   3.283   0.784  1.3868 -0.4280  0.8848
  534MPD2    N1 7988   2.404   3.708   1.015 -0.3845  0.0170 -0.3327
  534MPD2    H7 7989   2.319   3.758   0.990 -0.3156  0.7437  0.9314
  535TMC3    C1 7990   1.880   3.419   0.761  0.4783 -0.0353  0.6209
  535TMC3    C2 7991   1.758   3.462   0.808  0.3637 -0.3562  0.0421
  535TMC3    C3 7992   1.649   3.464   0.720  0.4311  0.3575 -0.4660
  535TMC3    C4 7993   1.900   3.379   0.631  0.1644 -0.5347 -0.8449
  535TMC3    C5 7994   1.791   3.378   0.549  0.0087  0.5446  0.2444
  535TMC3    C6 7995   1.663   3.419   0.593 -0.6137  0.4549 -0.0892
  535TMC3     C 7996   1.992   3.448   0.854 -0.9050  0.5366 -0.0673
  535TMC3     O 7997   1.982   3.540   0.935 -0.0605  0.1502 -0.2336
  535TMC3     H 7998   1.746   3.481   0.915  1.7390 -1.5588  0.4152
  535TMC3    H1 7999   1.996   3.352   0.590  0.8505 -0.7109  0.8864
  535TMC3    H2 8000   1.573   3.416   0.533 -1.5709  2.0886  1.2473
  535TMC3    C7 8001   1.808   3.303   0.432 -0.2743 -0.3461  0.2985
  535TMC3    C8 8002   1.526   3.512   0.766  0.4079  0.7527 -0.6779
  535TMC3    O1 8003   1.886   3.206   0.427  0.0655 -0.6005 -0.3923
  535TMC3    O2 8004   1.424   3.459   0.724 -0.5014  0.3566  0.1558
  536MPD2     C 8005   0.321   1.182  16.374  0.1794 -0.4021  0.3739
  536MPD2    C1 8006   0.293   1.313  16.398 -0.5254  1.0451 -0.5539
  536MPD2    C2 8007   0.212   1.383  16.315  0.5813 -0.2399 -0.6817
  536MPD2    C3 8008   0.166   1.325  16.202 -0.2239  0.0836  0.1343
  536MPD2    C4 8009   0.200   1.194  16.170  0.2084  0.3207 -0.0714
  536MPD2    C5 8010   0.275   1.126  16.258 -0.2277  0.3338 -0.2825
  536MPD2     H 8011   0.179   1.485  16.329 -1.1212 -0.8933  0.1133
  536MPD2    H1 8012   0.161   1.140  16.085  0.5324 -0.4855  0.2967
  536MPD2    H2 8013   0.386   1.124  16.438  1.2215  0.8208  0.4228
  536MPD2    H3 8014   0.307   1.026  16.232 -2.0284 -0.8099  1.8365
  536MPD2     N 8015   0.104   1.417  16.108  0.0923 -0.2230 -0.4984
  536MPD2    H5 8016   0.072   1.508  16.138 -1.5620 -0.8431 -0.3565
  536MPD2    N1 8017   0.348   1.368  16.516  0.0340  0.6449  0.4038
  536MPD2    H7 8018   0.379   1.306  16.589 -0.6413 -0.8381 -0.5621
  537TMC3    C1 8019   0.450   1.537  16.641 -0.4617 -0.0095  0.2744
  537TMC3    C2 8020   0.530   1.649  16.632  0.5520  0.1853 -0.0186
  537TMC3    C3 8021   0.623   1.670  16.729  0.0899 -0.0076  0.1148
  537TMC3    C4 8022   0.436   1.465  16.758 -0.6882  0.4741 -0.5146
  537TMC3    C5 8023   0.517   1.501  16.861 -0.3187  0.0851  0.6052
  537TMC3    C6 8024   0.616   1.600  16.853  0.0333 -0.9600  0.0989
  537TMC3     C 8025   0.365   1.507  16.526  0.1449 -0.6314 -0.1295
  537TMC3     O 8026   0.373   1.582  16.432 -0.1291 -0.4871  0.5921
  537TMC3     H 8027   0.536   1.699  16.536 -0.8324  0.7203  0.1671
  537TMC3    H1 8028   0.355   1.394  16.774  2.5249 -3.1107 -0.1371
  537TMC3    H2 8029   0.685   1.634  16.930  0.5465 -2.5575  0.3422
  537TMC3    C7 8030   0.535   1.397  16.967  0.5372  0.3735  0.2271
  537TMC3    C8 8031   0.706   1.785  16.732 -0.5698  0.2607 -0.1653
  537TMC3    O1 8032   0.487   1.286  16.940 -0.1850  0.4084  0.4571
  537TMC3    O2 8033   0.755   1.814  16.837 -0.4188 -0.4417 -0.8630
  538TMC3    C1 8034   1.717   0.023  11.029 -0.1298 -0.4195 -0.5205
  538TMC3    C2 8035   1.744   4.631  11.022 -0.0356  0.1428  0.0876
  538TMC3    C3 8036   1.639   4.545  11.005  0.3793 -0.1286  0.6826
  538TMC3    C4 8037   1.589   0.074  11.035  0.0251 -0.2171 -0.3324
  538TMC3    C5 8038   1.487   4.716  11.042  0.1232  0.6786 -0.0418
  538TMC3    C6 8039   1.506   4.584  11.013 -0.0947 -0.2973 -0.6720
  538TMC3     C 8040   1.827   0.118  11.016 -0.3900  0.4984 -0.0637
  538TMC3     O 8041   1.809   0.237  11.041  0.1620  0.5292 -0.2135
  538TMC3     H 8042   1.841   4.586  11.037 -1.5099 -3.1895 -0.3614
  538TMC3    H1 8043   1.563   0.175  11.062  2.1144  0.9066 -2.5733
  538TMC3    H2 8044   1.426   4.511  11.012  1.0281 -1.5351  0.2565
  538TMC3    C7 8045   1.353   0.019  11.022 -0.5329 -0.7292  0.2061
  538TMC3    C8 8046   1.668   4.414  10.955 -0.7147  0.2080 -0.3510
  538TMC3    O1 8047   1.257   4.691  11.061 -0.5534  0.4734 -0.3171
  538TMC3    O2 8048   1.609   4.316  11.005 -0.1227  0.0373 -0.0592
  539MPD2     C 8049   1.726   4.185  11.356  0.0637 -0.5734  0.1916
  539MPD2    C1 8050   1.625   4.096  11.345 -0.5100 -0.1631 -0.5640
  539MPD2    C2 8051   1.497   4.137  11.319  0.3870 -0.1608  0.3051
  539MPD2    C3 8052   1.472   4.271  11.292  0.0106  0.3781 -0.0881
  539MPD2    C4 8053   1.580   4.361  11.302  1.2579  0.3313  0.0605
  539MPD2    C5 8054   1.700   4.320  11.337 -0.1539  0.0686 -0.4484
  539MPD2     H 8055   1.414   4.071  11.298  0.4635 -0.4413  0.8886
  539MPD2    H1 8056   1.560   4.467  11.311  0.2712  0.1575 -0.1036
  539MPD2    H2 8057   1.833   4.165  11.356 -0.0443 -1.2330  2.9033
  539MPD2    H3 8058   1.785   4.386  11.345  0.5209 -0.8974  0.4623
  539MPD2     N 8059   1.343   4.325  11.280 -0.0418  0.1933 -0.4410
  539MPD2    H5 8060   1.332   4.425  11.287  2.5333  0.5883 -1.9407
  539MPD2    N1 8061   1.650   3.956  11.365 -1.0574  0.5731  0.0207
  539MPD2    H7 8062   1.577   3.886  11.358 -1.5610  1.3135 -2.0586
  540TMC3    C1 8063   1.107   4.337  11.290  0.2003 -0.7813 -0.0797
  540TMC3    C2 8064   1.099   4.434  11.197  0.0979  0.3897 -0.1800
  540TMC3    C3 8065   0.985   4.510  11.195 -0.1410 -0.2793  0.2676
  540TMC3    C4 8066   1.017   4.314  11.385  0.2089  0.4395  0.1487
  540TMC3    C5 8067   0.916   4.403  11.390 -0.3544  0.5169 -0.0960
  540TMC3    C6 8068   0.894   4.490  11.287  0.3296 -0.0912 -0.4555
  540TMC3     C 8069   1.231   4.257  11.297  0.3498 -0.2785 -0.1324
  540TMC3     O 8070   1.212   4.137  11.309 -0.4549  0.4523  0.6178
  540TMC3     H 8071   1.183   4.459  11.134 -0.6586 -1.1971 -1.8382
  540TMC3    H1 8072   1.032   4.245  11.467  1.8115 -1.5175 -1.7864
  540TMC3    H2 8073   0.799   4.541  11.284 -0.0545 -0.7108  1.0172
  540TMC3    C7 8074   0.816   4.386  11.494  0.4655 -0.1236  0.1972
  540TMC3    C8 8075   0.931   4.534  11.065  0.3660  0.1724  0.1012
  540TMC3    O1 8076   0.819   4.280  11.553  0.5718 -0.3100 -0.3194
  540TMC3    O2 8077   0.857   4.629  11.050  0.3355  0.2248  0.1676
  541MPD2     C 8078   4.383   0.757  13.306 -0.6077  0.6537 -0.8331
  541MPD2    C1 8079   4.420   0.677  13.203  0.4089 -0.3598 -0.1114
  541MPD2    C2 8080   4.449   0.740  13.081 -0.4045 -0.3353  0.1119
  541MPD2    C3 8081   4.454   0.881  13.063  0.3159 -0.3699  0.9149
  541MPD2    C4 8082   4.425   0.958  13.177  0.5198 -0.7298 -0.1908
  541MPD2    C5 8083   4.389   0.899  13.294  0.0227 -0.4376  0.3103
  541MPD2     H 8084   4.466   0.678  12.994 -0.8298  0.1366 -0.3087
  541MPD2    H1 8085   4.417   1.066  13.173 -1.6044 -0.9599 -2.6057
  541MPD2    H2 8086   4.363   0.722  13.407 -0.6509  0.1409 -1.0226
  541MPD2    H3 8087   4.387   0.950  13.390 -1.7432  0.2256 -0.0702
  541MPD2     N 8088   4.480   0.946  12.937 -0.2493 -0.2371 -0.1928
  541MPD2    H5 8089   4.458   1.045  12.945 -0.4491 -0.3908  1.2495
  541MPD2    N1 8090   4.410   0.540  13.212  0.3779 -0.3567  0.8302
  541MPD2    H7 8091   4.422   0.484  13.127 -1.6036 -1.3017  1.1718
  542TMC3    C1 8092   4.576   1.012  12.725  0.3184  0.5327 -0.4156
  542TMC3    C2 8093   4.629   0.966  12.607  0.6253  0.0197  0.1628
  542TMC3    C3 8094   4.641   1.069  12.512 -1.0624 -0.0474  0.2288
  542TMC3    C4 8095   4.559   1.143  12.752  0.5846 -0.3270 -0.3421
  542TMC3    C5 8096   4.575   1.236  12.653 -0.2222  0.9765 -0.5119
  542TMC3    C6 8097   4.607   1.200  12.528 -0.7140 -0.2482 -0.2389
  542TMC3     C 8098   4.558   0.904  12.833  0.2109 -0.4734  0.0981
  542TMC3     O 8099   4.605   0.792  12.809 -0.5504 -0.4423 -0.1060
  542TMC3     H 8100   4.637   0.861  12.584  0.7412 -0.3145  1.7137
  542TMC3    H1 8101   4.552   1.181  12.854 -1.6448 -0.4764 -0.4353
  542TMC3    H2 8102   4.632   1.269  12.448  1.1990  0.4924  0.9918
  542TMC3    C7 8103   4.576   1.377  12.693 -0.1894 -0.7007 -0.1541
  542TMC3    C8 8104   4.661   1.038  12.369 -0.2899  1.1592 -0.0018
  542TMC3    O1 8105   4.585   1.413  12.808  0.2436  0.3007 -0.1513
  542TMC3    O2 8106   4.615   1.101  12.277  0.4075  0.1942 -0.5534
  543TMC3    C1 8107   3.976   2.350  17.464 -0.0610 -0.6867  0.2091
  543TMC3    C2 8108   3.950   2.238  17.534 -0.0733  0.2111  0.4141
  543TMC3    C3 8109   3.917   2.253  17.666  0.0577  0.0483  0.2281
  543TMC3    C4 8110   3.966   2.475  17.514 -0.4006  0.0920  0.3647
  543TMC3    C5 8111   3.933   2.483  17.644  0.3998 -0.7321 -0.7246
  543TMC3    C6 8112   3.916   2.376  17.725  0.1511 -0.0796 -0.1535
  543TMC3     C 8113   4.029   2.318  17.338 -0.3183  0.3521  0.3632
  543TMC3     O 8114   4.090   2.216  17.329  0.2301 -0.1528  0.4433
  543TMC3     H 8115   3.952   2.140  17.487 -1.6413 -0.0368  0.8740
  543TMC3    H1 8116   3.987   2.560  17.451 -3.7097  1.0390  0.5357
  543TMC3    H2 8117   3.907   2.392   0.071  0.3164  0.2506 -0.1884
  543TMC3    C7 8118   3.987   2.596  17.720  0.2537  0.4029  0.8714
  543TMC3    C8 8119   3.890   2.135  17.734 -0.8250  0.3733  0.0155
  543TMC3    O1 8120   4.030   2.570   0.068 -0.3867 -0.0107  0.2246
  543TMC3    O2 8121   3.899   2.031  17.672 -0.7482  0.4500 -0.4293
  544MPD2     C 8122   3.603   1.885   0.300  0.2984 -0.1981 -0.0413
  544MPD2    C1 8123   3.640   1.850   0.175  0.3611 -0.2367 -0.5494
  544MPD2    C2 8124   3.706   1.949   0.104 -0.2491 -0.1687 -0.2628
  544MPD2    C3 8125   3.736   2.072   0.158 -0.3653  0.9580 -0.2978
  544MPD2    C4 8126   3.696   2.106   0.286 -0.4891 -0.5391 -0.2394
  544MPD2    C5 8127   3.626   2.012   0.357 -0.4086  0.7498  0.0489
  544MPD2     H 8128   3.741   1.920   0.005  0.4678  0.4245 -0.1856
  544MPD2    H1 8129   3.714   2.208   0.320  4.2543 -0.7812 -2.0080
  544MPD2    H2 8130   3.540   1.820   0.359 -1.0973  1.4202  0.2391
  544MPD2    H3 8131   3.592   2.036   0.457 -2.5525  0.4175 -0.6023
  544MPD2     N 8132   3.825   2.165   0.093  0.3592 -0.0393 -0.1078
  544MPD2    H5 8133   3.822   2.259   0.130 -1.7202 -1.4369  3.2228
  544MPD2    N1 8134   3.615   1.720   0.123  0.6927  1.0524 -0.3426
  544MPD2    H7 8135   3.571   1.665   0.196 -0.0945  0.8730 -0.9525
  545TMC3    C1 8136   3.637   1.553  17.713  0.1147 -0.2579 -0.1100
  545TMC3    C2 8137   3.664   1.526  17.583 -0.5583 -0.0609  0.6435
  545TMC3    C3 8138   3.722   1.404  17.557 -0.4446 -0.3792  0.2267
  545TMC3    C4 8139   3.652   1.456   0.055  0.0586  0.1045 -0.7920
  545TMC3    C5 8140   3.704   1.339   0.019  0.2432 -0.3589  0.3428
  545TMC3    C6 8141   3.732   1.303  17.653  0.3420 -0.0651 -0.1681
  545TMC3     C 8142   3.631   1.690  17.750  0.4617 -0.0103 -0.5480
  545TMC3     O 8143   3.644   1.767  17.659 -0.0569  0.2223  0.0508
  545TMC3     H 8144   3.651   1.603  17.508  0.3488 -1.7712 -1.2798
  545TMC3    H1 8145   3.654   1.477   0.161  0.9698  0.5724 -0.8975
  545TMC3    H2 8146   3.788   1.212  17.633 -0.0527  0.1245 -2.1079
  545TMC3    C7 8147   3.733   1.246   0.127  0.2874  0.0775 -0.0403
  545TMC3    C8 8148   3.805   1.402  17.441 -0.1979 -0.9309  0.5800
  545TMC3    O1 8149   3.658   1.235   0.222  0.1675 -0.6958 -0.5309
  545TMC3    O2 8150   3.762   1.467  17.345 -0.5769  0.3713  0.4534
  546MPD2     C 8151   0.618   2.753  17.313 -0.2663 -0.7320 -0.3498
  546MPD2    C1 8152   0.622   2.665  17.205 -0.8283 -0.1761  0.3553
  546MPD2    C2 8153   0.650   2.707  17.074 -0.2313  1.1891  0.0019
  546MPD2    C3 8154   0.689   2.835  17.051  0.4563 -0.2523 -0.5615
  546MPD2    C4 8155   0.699   2.926  17.158  0.3169 -0.3404  0.8157
  546MPD2    C5 8156   0.662   2.881  17.286 -0.4497  0.5777 -0.4117
  546MPD2     H 8157   0.659   2.631  16.997 -0.7049  3.2162 -2.0620
  546MPD2    H1 8158   0.740   3.025  17.143 -0.5169 -0.5643 -2.8464
  546MPD2    H2 8159   0.591   2.728  17.414 -2.2157 -0.1999 -0.7573
  546MPD2    H3 8160   0.675   2.952  17.366 -0.7553 -0.4238  0.5195
  546MPD2     N 8161   0.731   2.875  16.922 -0.4044 -0.0336  0.3649
  546MPD2    H5 8162   0.761   2.972  16.920  0.5152 -0.3044  0.8451
  546MPD2    N1 8163   0.600   2.533  17.242 -0.6795  0.0151  0.6398
  546MPD2    H7 8164   0.606   2.510  17.341 -0.1565  3.2345  1.3739
  547TMC3    C1 8165   0.547   2.310  17.227 -0.2867 -0.2933 -0.6437
  547TMC3    C2 8166   0.529   2.207  17.137 -0.0948  0.1305  0.5014
  547TMC3    C3 8167   0.560   2.077  17.174 -0.5618 -0.2014 -0.5515
  547TMC3    C4 8168   0.602   2.293  17.349  0.6124 -0.0162 -0.5384
  547TMC3    C5 8169   0.628   2.164  17.387  0.3179  0.2681  0.2094
  547TMC3    C6 8170   0.608   2.056  17.301 -0.2789 -0.4285 -0.5686
  547TMC3     C 8171   0.552   2.435  17.160  0.0829  0.4533  0.0247
  547TMC3     O 8172   0.520   2.441  17.046  0.3064  0.0217 -0.3351
  547TMC3     H 8173   0.497   2.225  17.035 -0.3043 -0.3949  0.4707
  547TMC3    H1 8174   0.629   2.375  17.414 -1.5527 -1.6909  2.4970
  547TMC3    H2 8175   0.629   1.957  17.340 -0.6554  0.0233  0.7966
  547TMC3    C7 8176   0.679   2.145  17.522 -0.0417  0.3533  0.5925
  547TMC3    C8 8177   0.484   1.962  17.120 -0.4438  0.0759 -0.2390
  547TMC3    O1 8178   0.648   2.225  17.609  0.0449  0.4346 -0.0423
  547TMC3    O2 8179   0.537   1.860  17.151  0.5545  0.3504  1.0519
  548MPD2     C 8180   0.353   2.336  12.587 -0.3123 -0.2976  0.7268
  548MPD2    C1 8181   0.309   2.223  12.660 -0.1452  0.3996  0.1258
  548MPD2    C2 8182   0.348   2.095  12.622  0.1396 -0.0959 -0.6269
  548MPD2    C3 8183   0.410   2.076  12.501 -0.0406 -0.2264  1.3541
  548MPD2    C4 8184   0.440   2.181  12.415  0.1011 -0.1013 -0.4411
  548MPD2    C5 8185   0.402   2.308  12.456 -0.5013 -0.2067  0.2378
  548MPD2     H 8186   0.308   2.010  12.675 -0.7682 -0.7452 -2.3490
  548MPD2    H1 8187   0.500   2.180  12.326  1.8546  1.1451  0.7352
  548MPD2    H2 8188   0.339   2.441  12.609  3.3541 -0.0090  1.6668
  548MPD2    H3 8189   0.440   2.388  12.394 -0.4916 -0.4651 -0.0891
  548MPD2     N 8190   0.439   1.941  12.479 -0.2212  0.0725  0.2103
  548MPD2    H5 8191   0.402   1.877  12.547 -0.2372 -1.7592 -1.5334
  548MPD2    N1 8192   0.216   2.236  12.770 -0.6362 -0.0586  0.1367
  548MPD2    H7 8193   0.176   2.153  12.813 -0.4991 -0.3941 -0.3918
  549TMC3    C1 8194   0.070   2.359  12.903 -0.2358  0.4985  0.4361
  549TMC3    C2 8195   0.017   2.480  12.923  0.0592 -0.2274  0.2045
  549TMC3    C3 8196   4.626   2.483  12.965  0.0045 -0.1524  0.2408
  549TMC3    C4 8197   0.006   2.247  12.947  0.3899  0.1969  0.1418
  549TMC3    C5 8198   4.610   2.247  12.979  0.5961  0.3668 -0.2658
  549TMC3    C6 8199   4.552   2.368  12.982 -0.4433  0.7102  0.1506
  549TMC3     C 8200   0.191   2.358  12.827  1.1608  0.6554  0.0089
  549TMC3     O 8201   0.243   2.465  12.807  0.2152 -0.0981  0.2354
  549TMC3     H 8202   0.065   2.574  12.901 -0.0347 -0.5076 -1.1887
  549TMC3    H1 8203   0.054   2.150  12.933 -1.0236 -0.2647 -1.5476
  549TMC3    H2 8204   4.451   2.380  13.019 -0.6080  2.1740 -0.7734
  549TMC3    C7 8205   4.530   2.129  13.020 -0.2004 -0.1409  0.2274
  549TMC3    C8 8206   4.544   2.602  12.937 -0.1084 -0.3193  0.1498
  549TMC3    O1 8207   4.415   2.146  13.057  0.2797 -0.3098  0.2714
  549TMC3    O2 8208   4.435   2.613  12.994  0.1186 -0.1625  0.6171
  550TMC3    C1 8209   4.346   0.474  11.965 -0.3896 -0.4323 -0.6077
  550TMC3    C2 8210   4.397   0.524  12.077 -0.8077  0.5972  0.0125
  550TMC3    C3 8211   4.397   0.662  12.081  0.5091  0.0850  0.0941
  550TMC3    C4 8212   4.309   0.555  11.858  0.4981  0.8175 -0.4584
  550TMC3    C5 8213   4.303   0.694  11.865 -0.1865  0.3662 -0.6791
  550TMC3    C6 8214   4.350   0.749  11.984  0.0621 -0.5087  0.3826
  550TMC3     C 8215   4.313   0.337  11.967  0.3007 -0.1433  0.3893
  550TMC3     O 8216   4.365   0.260  12.044 -0.0732  0.6648 -0.3081
  550TMC3     H 8217   4.422   0.454  12.156 -4.3358  2.1813  2.5067
  550TMC3    H1 8218   4.276   0.506  11.767  0.8200  0.1544 -0.2167
  550TMC3    H2 8219   4.332   0.851  12.016 -1.1145 -0.8095  0.6731
  550TMC3    C7 8220   4.175   0.756  11.812 -0.6146  0.8376 -0.0137
  550TMC3    C8 8221   4.360   0.710  12.211 -0.0432  0.0029 -0.0433
  550TMC3    O1 8222   4.122   0.845  11.878  0.4089  0.3170  0.0158
  550TMC3    O2 8223   4.393   0.824  12.242  0.2275 -0.0224 -0.0056
  551TMC3    C1 8224   1.368   3.381  13.116  0.0141 -0.4611  0.1262
  551TMC3    C2 8225   1.390   3.510  13.083  0.4718  0.7328 -0.1698
  551TMC3    C3 8226   1.442   3.589  13.184 -0.0832 -0.2119 -0.5014
  551TMC3    C4 8227   1.398   3.324  13.238  0.0625 -0.1080 -0.1441
  551TMC3    C5 8228   1.428   3.409  13.342  0.0272 -0.5504 -0.1236
  551TMC3    C6 8229   1.458   3.546  13.315  0.0542 -0.2611  0.6368
  551TMC3     C 8230   1.285   3.297  13.022 -0.0237 -0.0907 -0.6377
  551TMC3     O 8231   1.278   3.178  13.043  0.0813  0.1944  0.6577
  551TMC3     H 8232   1.380   3.552  12.984 -1.0792  0.9522  0.0828
  551TMC3    H1 8233   1.356   3.227  13.261  0.2939  0.0031  0.7711
  551TMC3    H2 8234   1.514   3.603  13.389 -0.7539  1.4729 -0.0918
  551TMC3    C7 8235   1.502   3.353  13.452  0.3777 -0.5322  1.4999
  551TMC3    C8 8236   1.526   3.700  13.145 -0.4999  0.6835  0.2233
  551TMC3    O1 8237   1.516   3.425  13.545 -1.0002  0.1768 -0.0338
  551TMC3    O2 8238   1.606   3.733  13.231  0.2467 -0.2771 -0.4330
  552MPD2     C 8239   3.320   0.351  14.033  0.0706 -0.1418 -1.1373
  552MPD2    C1 8240   3.361   0.220  14.014  0.3000  0.1683  0.7994
  552MPD2    C2 8241   3.454   0.171  14.107  0.2063  0.0305  0.0429
  552MPD2    C3 8242   3.499   0.249  14.212 -0.0658 -0.0806  0.0325
  552MPD2    C4 8243   3.452   0.381  14.219 -0.3357  1.0854  0.4530
  552MPD2    C5 8244   3.369   0.426  14.134  0.5047  0.1016  0.0301
  552MPD2     H 8245   3.500   0.073  14.102  0.9052  0.4547 -2.0768
  552MPD2    H1 8246   3.485   0.442  14.303  2.1563 -1.2265  1.1451
  552MPD2    H2 8247   3.255   0.406  13.966  0.2814 -0.2320 -1.4134
  552MPD2    H3 8248   3.324   0.524  14.142 -3.6087 -1.7314 -0.4498
  552MPD2     N 8249   3.587   0.198  14.308 -0.2730 -0.3379 -0.5794
  552MPD2    H5 8250   3.626   0.272  14.367 -1.4145  0.4305 -0.7922
  552MPD2    N1 8251   3.307   0.131  13.914 -0.2997  0.1005 -0.2959
  552MPD2    H7 8252   3.348   0.039  13.901 -2.4836 -1.1678  1.7893
  553TMC3    C1 8253   3.154   0.047  13.767  0.3590 -0.3359 -0.2093
  553TMC3    C2 8254   3.071   0.060  13.660  0.6697 -0.4651  0.2839
  553TMC3    C3 8255   3.029   4.687  13.596 -0.9000  0.8537 -0.5507
  553TMC3    C4 8256   3.199   4.663  13.815  0.4643  0.0238  0.7995
  553TMC3    C5 8257   3.140   4.553  13.752 -0.1023 -0.6744 -0.1554
  553TMC3    C6 8258   3.049   4.562  13.650 -0.4718  0.6901 -0.0396
  553TMC3     C 8259   3.210   0.173  13.831  0.0028  0.3140 -0.1457
  553TMC3     O 8260   3.147   0.275  13.820 -0.0222  0.6021  0.1116
  553TMC3     H 8261   3.032   0.160  13.642  0.0253 -0.4437  1.8314
  553TMC3    H1 8262   3.241   4.650  13.914 -1.1939 -2.0650  1.2320
  553TMC3    H2 8263   3.043   4.474  13.588  1.4501  1.7413 -1.7293
  553TMC3    C7 8264   3.180   4.413  13.776  0.0322  0.4878 -0.2545
  553TMC3    C8 8265   2.991   4.716  13.458 -0.2394  0.1868 -0.2115
  553TMC3    O1 8266   3.097   4.327  13.751  0.4353 -0.6525  0.4277
  553TMC3    O2 8267   3.006   0.091  13.417  0.5121  0.2022 -0.3092
  554TMC3    C1 8268   0.299   3.766  11.399 -0.5302 -0.7550 -0.0220
  554TMC3    C2 8269   0.202   3.745  11.298 -0.1454 -0.0942 -0.5283
  554TMC3    C3 8270   0.242   3.778  11.170  0.3458  0.9650 -0.1243
  554TMC3    C4 8271   0.421   3.813  11.375  0.0675  0.1817 -0.7729
  554TMC3    C5 8272   0.447   3.854  11.250  0.5285  0.1602 -0.4905
  554TMC3    C6 8273   0.368   3.823  11.143 -0.2026  0.0029 -0.7182
  554TMC3     C 8274   0.259   3.770  11.539  0.0239 -1.0060 -0.0469
  554TMC3     O 8275   0.310   3.858  11.608 -0.1806  0.1834  0.9491
  554TMC3     H 8276   0.096   3.747  11.322  0.1314  0.3124  0.6441
  554TMC3    H1 8277   0.498   3.825  11.451 -0.6021 -0.1219 -0.0470
  554TMC3    H2 8278   0.391   3.873  11.049  0.2161 -0.4084 -0.8334
  554TMC3    C7 8279   0.501   3.990  11.244 -0.7401  0.0594 -0.6547
  554TMC3    C8 8280   0.146   3.817  11.069 -0.8316 -0.0049 -0.0976
  554TMC3    O1 8281   0.558   4.021  11.139  0.1046  0.1573 -0.2008
  554TMC3    O2 8282   0.176   3.910  10.993  0.3898  0.2442 -0.2280
  555TMC3    C1 8283   4.342   3.512  14.976  0.4278  0.0637 -0.2270
  555TMC3    C2 8284   4.279   3.620  15.032  0.3094 -0.0385  0.3113
  555TMC3    C3 8285   4.253   3.610  15.167 -0.4671  0.6018  0.0177
  555TMC3    C4 8286   4.384   3.400  15.043  0.3348 -0.5332 -0.0556
  555TMC3    C5 8287   4.344   3.387  15.171  0.3792  0.0310 -0.5748
  555TMC3    C6 8288   4.283   3.495  15.237  0.0866 -0.5702  0.1960
  555TMC3     C 8289   4.375   3.527  14.841  0.2472  0.1004 -0.5518
  555TMC3     O 8290   4.482   3.478  14.800 -0.3203 -0.3545  0.0802
  555TMC3     H 8291   4.271   3.713  14.976 -1.2450  0.3409  1.1738
  555TMC3    H1 8292   4.444   3.329  14.987  1.0990 -0.3726  0.5666
  555TMC3    H2 8293   4.253   3.473  15.339 -0.5119  3.0034  0.8067
  555TMC3    C7 8294   4.347   3.260  15.241  0.2841  0.6979  0.1288
  555TMC3    C8 8295   4.262   3.740  15.244 -0.2939  0.0018 -0.4226
  555TMC3    O1 8296   4.264   3.235  15.327 -0.6778  0.4051  0.2464
  555TMC3    O2 8297   4.222   3.844  15.198 -0.1692  0.3668 -0.2988
  556MPD2     C 8298   2.157   0.571  10.242  0.3904  0.4489  0.2505
  556MPD2    C1 8299   2.163   0.513  10.373 -0.0255 -0.1074 -0.7808
  556MPD2    C2 8300   2.180   0.374  10.377  0.1838  0.8468 -0.1152
  556MPD2    C3 8301   2.201   0.296  10.272  0.6590 -0.3216  0.2002
  556MPD2    C4 8302   2.195   0.348  10.146  0.8277 -0.4387 -0.6404
  556MPD2    C5 8303   2.175   0.485  10.138 -0.4304 -0.4779 -0.7504
  556MPD2     H 8304   2.170   0.329  10.475  0.7367 -0.1218 -0.5125
  556MPD2    H1 8305   2.198   0.282  10.060 -1.4772 -1.5497  0.1350
  556MPD2    H2 8306   2.133   0.674  10.222  2.9937  0.9955  0.0451
  556MPD2    H3 8307   2.164   0.524  10.037 -2.1297 -2.4249 -1.3288
  556MPD2     N 8308   2.241   0.159  10.297 -0.0478 -0.1630  0.2579
  556MPD2    H5 8309   2.228   0.127  10.392  1.7248  2.0433  1.2387
  556MPD2    N1 8310   2.159   0.592  10.490 -0.4168 -0.1471  0.0751
  556MPD2    H7 8311   2.164   0.549  10.582 -2.6747 -0.3219  0.1092
  557TMC3    C1 8312   2.299   4.672  10.245  0.1411  0.4036  0.0209
  557TMC3    C2 8313   2.357   4.581  10.162 -0.2969 -0.0287  0.2020
  557TMC3    C3 8314   2.342   4.445  10.180  0.2199  0.2969  0.3000
  557TMC3    C4 8315   2.212   4.628  10.337 -0.5122 -0.2306  0.1004
  557TMC3    C5 8316   2.199   4.495  10.361 -0.0933 -0.0918 -0.0249
  557TMC3    C6 8317   2.263   4.399  10.283 -0.0608 -0.0961  0.7887
  557TMC3     C 8318   2.306   0.073  10.213  0.6088  0.3982 -0.2211
  557TMC3     O 8319   2.370   0.108  10.116 -0.0054  0.4279 -0.7403
  557TMC3     H 8320   2.418   4.621  10.082 -1.5672  1.2463 -0.1155
  557TMC3    H1 8321   2.160   4.699  10.402 -0.9428  0.7526 -1.3148
  557TMC3    H2 8322   2.252   4.293  10.303  2.1347  0.5382  5.3772
  557TMC3    C7 8323   2.087   4.464  10.443 -0.2567  0.1945 -0.3031
  557TMC3    C8 8324   2.421   4.358  10.088  0.3113 -0.6128  0.2210
  557TMC3    O1 8325   1.984   4.531  10.419  0.2451  0.0264 -0.5137
  557TMC3    O2 8326   2.520   4.413  10.042 -0.0996  0.3532 -0.6334
  558TMC3    C1 8327   4.375   2.942  10.371  0.1227 -0.3290  0.0478
  558TMC3    C2 8328   4.250   2.907  10.403  0.6948 -0.0506  0.1415
  558TMC3    C3 8329   4.151   2.992  10.369  0.4557  0.0315 -1.0608
  558TMC3    C4 8330   4.395   3.066  10.307  0.2993  0.6952  0.6485
  558TMC3    C5 8331   4.286   3.139  10.264 -0.0084 -0.4979  0.7721
  558TMC3    C6 8332   4.161   3.104  10.295 -0.1950 -0.0228 -0.2554
  558TMC3     C 8333   4.489   2.871  10.423 -0.1606  0.0703 -0.2761
  558TMC3     O 8334   4.578   2.943  10.453  0.1747  0.7077 -0.1724
  558TMC3     H 8335   4.226   2.822  10.467  1.3240  1.3038  2.1754
  558TMC3    H1 8336   4.498   3.095  10.289  0.2961 -0.2227 -0.8646
  558TMC3    H2 8337   4.068   3.154  10.268  0.5115  0.5984 -1.5486
  558TMC3    C7 8338   4.312   3.265  10.211  0.8739 -0.7224  0.4846
  558TMC3    C8 8339   4.044   2.983  10.458  0.8862 -0.7103 -0.1320
  558TMC3    O1 8340   4.420   3.293  10.172 -0.5219  0.2759  0.2636
  558TMC3    O2 8341   3.942   2.922  10.426 -0.5553  0.2780 -0.0942
  559MPD2     C 8342   4.545   3.885  10.415  0.0071  0.3607 -0.3250
  559MPD2    C1 8343   4.508   3.752  10.446 -0.1151  0.0944 -0.6193
  559MPD2    C2 8344   4.606   3.659  10.491  0.2525  0.1042  0.1852
  559MPD2    C3 8345   0.002   3.698  10.507 -0.4012  0.2120 -0.3764
  559MPD2    C4 8346   0.025   3.834  10.474  0.0384 -0.4871 -0.6080
  559MPD2    C5 8347   4.673   3.923  10.436  0.0443  0.0271  0.2181
  559MPD2     H 8348   4.572   3.567  10.537  0.4269  0.1380  0.3779
  559MPD2    H1 8349   0.122   3.879  10.489  0.2775 -0.9502 -0.7400
  559MPD2    H2 8350   4.478   3.968  10.394 -1.7192 -0.7413  0.7857
  559MPD2    H3 8351   4.704   4.025  10.418  0.6509 -0.2870 -0.5133
  559MPD2     N 8352   0.087   3.616  10.576  0.0622 -0.3714  0.2021
  559MPD2    H5 8353   0.059   3.520  10.591  1.8291 -1.0305 -0.7083
  559MPD2    N1 8354   4.366   3.719  10.447  0.0461 -0.8363  0.4500
  559MPD2    H7 8355   4.297   3.790  10.425  1.3226 -0.2644 -1.6932
  560TMC3    C1 8356   0.248   3.558  10.746 -0.7243  0.2527 -0.0740
  560TMC3    C2 8357   0.164   3.461  10.786  0.0702 -0.1596 -0.7542
  560TMC3    C3 8358   0.191   3.401  10.903  0.2018  0.1471  0.4392
  560TMC3    C4 8359   0.353   3.595  10.829  0.3064 -0.3078  0.5911
  560TMC3    C5 8360   0.375   3.538  10.951  0.3076 -0.2283 -0.0704
  560TMC3    C6 8361   0.291   3.438  10.987 -0.6228 -0.0631 -0.3013
  560TMC3     C 8362   0.200   3.656  10.648  0.3636 -0.1707 -0.4331
  560TMC3     O 8363   0.254   3.761  10.647 -0.2656 -0.1846 -0.1826
  560TMC3     H 8364   0.078   3.433  10.726 -1.0214 -1.2159  1.3117
  560TMC3    H1 8365   0.404   3.683  10.792 -0.0926 -0.3060  0.0404
  560TMC3    H2 8366   0.300   3.385  11.082  0.4670 -0.7242 -0.7746
  560TMC3    C7 8367   0.510   3.521  11.008 -0.5156 -0.0177 -0.7037
  560TMC3    C8 8368   0.089   3.316  10.962 -0.6406 -0.1663 -0.1625
  560TMC3    O1 8369   0.512   3.413  11.070  0.3889 -0.3534  1.0447
  560TMC3    O2 8370   4.714   3.331  10.923  0.0397  0.1423 -0.0108
  561TMC3    C1 8371   2.350   2.609  11.162  0.1016  0.4613  0.4257
  561TMC3    C2 8372   2.342   2.552  11.282  1.3527  0.0152 -0.2133
  561TMC3    C3 8373   2.346   2.633  11.393  0.0750 -0.0122  0.0553
  561TMC3    C4 8374   2.354   2.744  11.148 -0.5832  0.8722  0.2081
  561TMC3    C5 8375   2.371   2.821  11.259 -0.1107  0.1413  0.5474
  561TMC3    C6 8376   2.352   2.768  11.381  0.2209 -0.0879 -0.6918
  561TMC3     C 8377   2.417   2.530  11.065 -0.0620 -0.5551 -0.0580
  561TMC3     O 8378   2.403   2.411  11.076  0.4315  0.1016 -0.0214
  561TMC3     H 8379   2.341   2.444  11.294  0.7241 -0.0040 -0.4591
  561TMC3    H1 8380   2.321   2.791  11.056  0.3630 -1.9482 -1.5446
  561TMC3    H2 8381   2.376   2.840  11.458  0.2565  0.1552 -0.9294
  561TMC3    C7 8382   2.352   2.968  11.257 -0.4811 -0.4870 -0.1167
  561TMC3    C8 8383   2.312   2.565  11.521  0.4535 -0.3971  0.5713
  561TMC3    O1 8384   2.293   3.032  11.343 -0.0742  0.5191  0.0455
  561TMC3    O2 8385   2.296   2.442  11.535  0.3638  0.0170  0.6532
  562TMC3    C1 8386   4.067   3.971  16.326 -0.1468 -0.1073  0.0750
  562TMC3    C2 8387   3.990   4.081  16.346  0.0843  0.2463 -0.1064
  562TMC3    C3 8388   3.947   4.152  16.241  0.5161 -0.0830 -0.1945
  562TMC3    C4 8389   4.086   3.911  16.199 -0.3793 -0.2288  1.1834
  562TMC3    C5 8390   4.037   3.982  16.094  0.4427 -0.1688  0.0594
  562TMC3    C6 8391   3.971   4.100  16.115 -0.4094 -0.0586  0.0843
  562TMC3     C 8392   4.082   3.894  16.446  0.1178 -0.2380 -0.0220
  562TMC3     O 8393   4.126   3.959  16.542 -0.7692  0.0039  0.3448
  562TMC3     H 8394   3.970   4.130  16.441 -1.3221 -0.4267 -0.0558
  562TMC3    H1 8395   4.143   3.821  16.182  0.6970  0.4853  1.0203
  562TMC3    H2 8396   3.946   4.164  16.032 -0.1619  0.5059  0.4443
  562TMC3    C7 8397   4.053   3.941  15.958  0.4588 -0.1162 -0.8048
  562TMC3    C8 8398   3.838   4.234  16.268 -0.3067 -0.5005 -0.1672
  562TMC3    O1 8399   4.033   4.019  15.867  0.0025  0.1098  0.1042
  562TMC3    O2 8400   3.760   4.197  16.355 -0.0476 -0.6646  0.0489
  563MPD2     C 8401   1.751   0.981  15.573 -0.6359  0.5779 -0.0065
  563MPD2    C1 8402   1.707   0.862  15.633 -0.1251  0.5570 -0.4090
  563MPD2    C2 8403   1.774   0.748  15.587  0.1330  0.0083  0.0751
  563MPD2    C3 8404   1.861   0.740  15.486 -0.2228 -0.0184  0.2840
  563MPD2    C4 8405   1.903   0.853  15.420  0.8135  0.1247 -0.0443
  563MPD2    C5 8406   1.845   0.973  15.469 -0.6400  0.4506  0.1789
  563MPD2     H 8407   1.738   0.659  15.637  0.6596 -1.2448 -1.8027
  563MPD2    H1 8408   1.961   0.859  15.329 -0.5788  0.4692 -0.9136
  563MPD2    H2 8409   1.714   1.079  15.601  1.7729  1.1681  1.0812
  563MPD2    H3 8410   1.866   1.070  15.424  0.9540 -0.8110 -1.7672
  563MPD2     N 8411   1.914   0.612  15.465  0.0862 -1.1453 -0.4198
  563MPD2    H5 8412   1.877   0.546  15.532  0.7239  1.7955  2.7771
  563MPD2    N1 8413   1.613   0.865  15.735  0.5737 -0.4608 -0.0250
  563MPD2    H7 8414   1.584   0.953  15.776  0.8465 -0.5914  0.4473
  564TMC3    C1 8415   1.498   0.770  15.905  0.0948 -0.1496 -0.4333
  564TMC3    C2 8416   1.407   0.667  15.923 -0.1448 -0.1656 -0.8327
  564TMC3    C3 8417   1.415   0.584  16.037 -0.6775  0.7485 -0.4702
  564TMC3    C4 8418   1.600   0.783  15.999  0.2169 -0.0601 -0.1564
  564TMC3    C5 8419   1.611   0.686  16.097  1.0048 -0.6296  0.2468
  564TMC3    C6 8420   1.519   0.592  16.123 -0.2754 -0.0776 -0.3883
  564TMC3     C 8421   1.558   0.750  15.777 -0.1518 -0.3181 -0.0590
  564TMC3     O 8422   1.529   0.647  15.716  0.0896  0.1162  0.0699
  564TMC3     H 8423   1.324   0.673  15.854 -1.5385 -4.1840  0.4935
  564TMC3    H1 8424   1.682   0.849  15.974  1.5406 -0.7208  2.5250
  564TMC3    H2 8425   1.537   0.508  16.188  2.3939  0.2998 -0.6459
  564TMC3    C7 8426   1.743   0.663  16.158 -0.2423 -0.0575 -0.3942
  564TMC3    C8 8427   1.384   0.437  16.018 -0.1626 -0.1242 -0.0545
  564TMC3    O1 8428   1.813   0.760  16.177  0.1535  0.1904 -0.0634
  564TMC3    O2 8429   1.380   0.361  16.120 -0.0766  1.0324 -0.3619
  565TMC3    C1 8430   1.418   2.148  10.410 -0.2876  0.1193 -0.1798
  565TMC3    C2 8431   1.458   2.044  10.493 -0.3996 -0.2201  0.3183
  565TMC3    C3 8432   1.379   1.935  10.499  0.3159  0.5642 -0.3895
  565TMC3    C4 8433   1.300   2.146  10.339  0.4602 -0.3236 -0.1022
  565TMC3    C5 8434   1.221   2.037  10.349 -0.2423 -0.3635  0.3804
  565TMC3    C6 8435   1.272   1.924  10.415 -0.0619 -0.8861  0.4042
  565TMC3     C 8436   1.510   2.264  10.380 -0.2613  0.4122  0.9317
  565TMC3     O 8437   1.467   2.346  10.305 -0.5369 -0.6547  0.1805
  565TMC3     H 8438   1.552   2.040  10.547  0.9176  1.0184 -1.9055
  565TMC3    H1 8439   1.270   2.236  10.285  1.8383  2.1653  3.2732
  565TMC3    H2 8440   1.203   1.842  10.431 -0.6143 -0.6014 -0.5342
  565TMC3    C7 8441   1.102   2.017  10.269  0.2868 -0.3151 -0.1527
  565TMC3    C8 8442   1.438   1.817  10.549 -0.7103  1.0230 -0.2518
  565TMC3    O1 8443   1.060   1.907  10.246 -0.0932  0.4300 -0.3241
  565TMC3    O2 8444   1.531   1.822  10.628 -0.8428 -0.3818  0.2332
  566MPD2     C 8445   3.729   2.660  14.192 -0.3134 -0.6322 -0.4830
  566MPD2    C1 8446   3.707   2.794  14.171  0.2323 -0.0446  0.4935
  566MPD2    C2 8447   3.589   2.827  14.115 -0.1452  0.0975 -0.0072
  566MPD2    C3 8448   3.495   2.727  14.088 -0.5443 -0.8605  0.6405
  566MPD2    C4 8449   3.520   2.598  14.116  0.1239 -0.2721 -0.7124
  566MPD2    C5 8450   3.635   2.559  14.178  0.0544  0.2091  0.1830
  566MPD2     H 8451   3.562   2.931  14.101  0.4085  0.6634  3.0920
  566MPD2    H1 8452   3.440   2.528  14.097 -1.4578  1.6637 -1.2829
  566MPD2    H2 8453   3.825   2.636  14.235  1.2451  2.8547 -2.0067
  566MPD2    H3 8454   3.665   2.461  14.213  0.7431 -0.1066 -1.2559
  566MPD2     N 8455   3.367   2.757  14.043  0.3304 -0.5370  0.0850
  566MPD2    H5 8456   3.293   2.694  14.069  0.4120 -0.3993  0.6389
  566MPD2    N1 8457   3.815   2.880  14.185 -0.5057 -0.0442  0.3855
  566MPD2    H7 8458   3.901   2.841  14.222  0.2044 -0.8091 -2.1200
  567TMC3    C1 8459   3.957   3.056  14.150 -0.4353 -0.7853  0.3018
  567TMC3    C2 8460   4.023   3.134  14.050 -0.7283 -0.4760  0.5201
  567TMC3    C3 8461   4.132   3.211  14.078  0.1345 -0.3316 -0.2196
  567TMC3    C4 8462   4.021   3.054  14.268 -0.2458  0.5141  0.2253
  567TMC3    C5 8463   4.131   3.130  14.296  0.0706 -0.6385 -0.1197
  567TMC3    C6 8464   4.190   3.212  14.206  0.2572 -0.4576 -0.4987
  567TMC3     C 8465   3.822   3.009  14.139  0.6811 -0.5022  0.2358
  567TMC3     O 8466   3.755   3.077  14.064  0.2275 -0.3088 -0.4876
  567TMC3     H 8467   3.987   3.129  13.948  1.6343 -0.6504 -0.3230
  567TMC3    H1 8468   3.960   3.014  14.348 -1.6213  0.5682 -0.7939
  567TMC3    H2 8469   4.279   3.267  14.234 -0.1588 -0.3408  0.5994
  567TMC3    C7 8470   4.180   3.153  14.429  0.0307  0.6213  0.0040
  567TMC3    C8 8471   4.142   3.332  14.001 -0.0603 -0.5084 -0.0037
  567TMC3    O1 8472   4.294   3.197  14.448 -0.2052 -0.2856  0.4117
  567TMC3    O2 8473   4.041   3.371  13.942  0.4470  0.1646  0.2375
  568MPD2     C 8474   1.001   3.677  16.251  0.5367  0.4739  0.9131
  568MPD2    C1 8475   1.057   3.756  16.345  0.7126 -0.2294  0.4686
  568MPD2    C2 8476   1.093   3.886  16.324 -1.0973 -0.3981  0.4201
  568MPD2    C3 8477   1.095   3.941  16.195 -0.5893 -0.8098 -0.6609
  568MPD2    C4 8478   1.037   3.856  16.100  0.3292  0.0562 -0.5183
  568MPD2    C5 8479   0.989   3.727  16.127 -0.0212  0.0307  0.4862
  568MPD2     H 8480   1.148   3.940  16.401  2.1624 -0.7848 -1.6280
  568MPD2    H1 8481   1.031   3.888  15.997 -1.9061  3.8527  0.7578
  568MPD2    H2 8482   0.969   3.574  16.259  1.2771  0.3875  2.7558
  568MPD2    H3 8483   0.949   3.677  16.040 -0.1005  0.6355  0.1752
  568MPD2     N 8484   1.159   4.062  16.169  0.6938  0.7998 -0.1669
  568MPD2    H5 8485   1.204   4.106  16.249  0.9416 -0.5050  0.4112
  568MPD2    N1 8486   1.080   3.690  16.469 -0.5352  0.0099 -0.0380
  568MPD2    H7 8487   1.092   3.589  16.466  1.2435  0.1819  1.0773
  569TMC3    C1 8488   1.256   4.249  16.057 -0.1853  0.7280 -0.4354
  569TMC3    C2 8489   1.316   4.287  16.173  0.3250  0.1570 -0.4838
  569TMC3    C3 8490   1.392   4.401  16.169 -0.0645 -0.2751 -0.0183
  569TMC3    C4 8491   1.258   4.333  15.953  0.2354  0.6505 -0.0823
  569TMC3    C5 8492   1.329   4.451  15.958 -0.1384 -0.0545 -0.0384
  569TMC3    C6 8493   1.410   4.483  16.065  0.5384 -0.3721  0.2044
  569TMC3     C 8494   1.186   4.120  16.049  0.4773  0.2706  0.1186
  569TMC3     O 8495   1.141   4.078  15.942 -0.2349 -0.8319 -0.5586
  569TMC3     H 8496   1.301   4.225  16.260  1.2974  0.7890  0.1330
  569TMC3    H1 8497   1.182   4.311  15.879 -1.0993  0.4403  1.3440
  569TMC3    H2 8498   1.491   4.554  16.046 -1.2806  1.2465 -1.4905
  569TMC3    C7 8499   1.299   4.556  15.865 -0.0839 -0.3874 -0.3271
  569TMC3    C8 8500   1.480   4.420  16.289  0.0082 -0.2533 -0.0003
  569TMC3    O1 8501   1.261   4.511  15.757 -0.7175  0.7997  0.5305
  569TMC3    O2 8502   1.484   4.326  16.372 -0.3395  0.4635 -0.3328
  570TMC3    C1 8503   0.406   2.848  16.109  0.1493 -0.0722 -0.5474
  570TMC3    C2 8504   0.474   2.830  15.995 -0.1971  0.0010 -0.3016
  570TMC3    C3 8505   0.525   2.935  15.921  0.3903  0.0920  0.2223
  570TMC3    C4 8506   0.372   2.973  16.153  0.1124 -0.3000 -0.1878
  570TMC3    C5 8507   0.408   3.075  16.067 -0.4649 -0.5773 -0.3948
  570TMC3    C6 8508   0.493   3.058  15.962 -0.3742  0.1726 -0.7486
  570TMC3     C 8509   0.341   2.739  16.171 -0.5653 -0.2921  0.0422
  570TMC3     O 8510   0.330   2.640  16.095  0.0871  0.3870 -0.1692
  570TMC3     H 8511   0.520   2.734  15.974 -0.1171 -0.2907  1.2199
  570TMC3    H1 8512   0.310   2.995  16.239 -0.3379  0.4728 -0.7147
  570TMC3    H2 8513   0.522   3.145  15.905  1.2617  1.0107  1.3307
  570TMC3    C7 8514   0.374   3.208  16.104 -0.4971  0.2355  0.7217
  570TMC3    C8 8515   0.628   2.924  15.815  0.3344 -0.1001  0.7043
  570TMC3    O1 8516   0.376   3.237  16.224 -0.3381 -0.0902  0.2918
  570TMC3    O2 8517   0.689   3.025  15.793 -0.1638  0.1095 -0.2222
  571MPD2     C 8518   3.524   0.641   0.967  0.1905 -0.6429 -0.6123
  571MPD2    C1 8519   3.485   0.682   0.843  0.4138 -0.5196  0.0461
  571MPD2    C2 8520   3.467   0.813   0.826 -0.4693  0.4133 -0.4016
  571MPD2    C3 8521   3.479   0.906   0.928 -0.3571 -0.4448 -0.4327
  571MPD2    C4 8522   3.521   0.867   1.045 -0.3688 -0.8005 -0.1180
  571MPD2    C5 8523   3.546   0.732   1.063 -0.2236  0.1736  0.0426
  571MPD2     H 8524   3.441   0.848   0.726 -0.1414  0.9309 -0.3043
  571MPD2    H1 8525   3.534   0.939   1.125  0.2834 -1.1463  0.0849
  571MPD2    H2 8526   3.548   0.539   0.991 -1.3917 -0.7739  0.4304
  571MPD2    H3 8527   3.576   0.713   1.165  0.6150  0.2123 -0.1960
  571MPD2     N 8528   3.454   1.044   0.917  1.0481 -0.0660  0.4130
  571MPD2    H5 8529   3.437   1.089   1.006 -1.4969  1.1418 -0.6838
  571MPD2    N1 8530   3.455   0.583   0.744 -0.1229  0.1078 -0.2655
  571MPD2    H7 8531   3.491   0.491   0.767  1.0389  0.2970 -1.3635
  572TMC3    C1 8532   3.402   1.253   0.817  0.6435  0.3338 -0.2107
  572TMC3    C2 8533   3.375   1.292   0.949  0.4941 -0.0946 -0.3332
  572TMC3    C3 8534   3.349   1.426   0.962  0.2959 -0.4143 -0.1896
  572TMC3    C4 8535   3.395   1.337   0.706  0.5090  0.1138 -0.3461
  572TMC3    C5 8536   3.380   1.480   0.736 -0.0301  0.4710  0.7334
  572TMC3    C6 8537   3.356   1.526   0.864 -0.9152  0.1964  0.2143
  572TMC3     C 8538   3.430   1.113   0.794  0.8735 -0.7206 -0.0550
  572TMC3     O 8539   3.446   1.073   0.682 -0.1487 -0.1557 -0.1395
  572TMC3     H 8540   3.391   1.231   1.037  0.7468 -1.9136 -1.6351
  572TMC3    H1 8541   3.417   1.305   0.605  2.3748  0.5033 -0.0567
  572TMC3    H2 8542   3.318   1.624   0.890  3.1317  1.2432  2.2459
  572TMC3    C7 8543   3.334   1.556   0.622  0.7384  0.3751 -0.4319
  572TMC3    C8 8544   3.275   1.469   1.080 -0.2203 -0.3565 -0.3496
  572TMC3    O1 8545   3.306   1.489   0.519 -0.8130 -0.1235 -0.4388
  572TMC3    O2 8546   3.300   1.582   1.124 -0.3344  0.8729 -0.3952
  573MPD2     C 8547   0.425   1.367   0.745 -0.0598 -0.3695 -0.0998
  573MPD2    C1 8548   0.293   1.345   0.788  0.1416  0.5403 -0.2560
  573MPD2    C2 8549   0.207   1.275   0.704 -0.2051  0.5958  0.4363
  573MPD2    C3 8550   0.256   1.220   0.585  0.6987 -0.6523  0.1032
  573MPD2    C4 8551   0.388   1.239   0.554  0.8598 -0.0259 -0.4008
  573MPD2    C5 8552   0.473   1.315   0.627 -0.2566 -0.2432 -0.3045
  573MPD2     H 8553   0.105   1.258   0.739 -0.0022 -0.9114  0.2794
  573MPD2    H1 8554   0.430   1.188   0.468  1.2796  0.3837 -0.4335
  573MPD2    H2 8555   0.496   1.425   0.803  2.2724 -2.5304 -0.7825
  573MPD2    H3 8556   0.575   1.334   0.596 -0.2647  0.3400  0.0367
  573MPD2     N 8557   0.170   1.142   0.494  0.5178  0.6906  0.6188
  573MPD2    H5 8558   0.187   1.149   0.394 -2.2403 -2.0199 -0.0303
  573MPD2    N1 8559   0.252   1.406   0.905 -0.5987 -0.2510  0.9067
  573MPD2    H7 8560   0.327   1.455   0.953  0.7444 -1.9453  0.5224
  574TMC3    C1 8561   4.715   1.022   0.425 -0.5689 -0.4791  0.2281
  574TMC3    C2 8562   4.585   1.006   0.452  0.5662  0.1483 -0.5662
  574TMC3    C3 8563   4.504   0.993   0.342  0.0864 -0.5270  0.7116
  574TMC3    C4 8564   0.029   1.008   0.301  0.1279 -0.1795 -0.4817
  574TMC3    C5 8565   4.678   0.988   0.203  0.0280  0.3480  0.4127
  574TMC3    C6 8566   4.543   0.983   0.216  0.4627 -0.2560 -0.7522
  574TMC3     C 8567   0.059   1.076   0.535 -0.0858 -0.5484  0.4119
  574TMC3     O 8568   0.033   1.050   0.648  0.1798 -0.9319  0.1231
  574TMC3     H 8569   4.545   0.993   0.551 -0.5347 -0.2473 -1.0691
  574TMC3    H1 8570   0.136   1.020   0.285  0.4989  0.3365  2.2337
  574TMC3    H2 8571   4.474   0.961   0.136  1.3376 -0.5351 -1.4386
  574TMC3    C7 8572   4.729   0.958   0.073  0.1702  0.5942 -0.2362
  574TMC3    C8 8573   4.362   0.964   0.374 -0.6301  0.0372 -0.1726
  574TMC3    O1 8574   4.662   0.890  17.753 -0.0185 -0.1250 -0.1172
  574TMC3    O2 8575   4.337   0.916   0.485  0.0007 -0.2050 -0.1059
  575TMC3    C1 8576   1.950   1.342  11.072  0.1685  0.6171 -0.0657
  575TMC3    C2 8577   1.950   1.203  11.059  0.7197  0.1413  0.8636
  575TMC3    C3 8578   1.888   1.143  10.956 -0.0230  0.4932 -0.3800
  575TMC3    C4 8579   1.902   1.415  10.967  0.0761  0.5357  0.0697
  575TMC3    C5 8580   1.848   1.351  10.853  0.4543  0.3341  0.3056
  575TMC3    C6 8581   1.842   1.215  10.852 -0.5572 -0.2468 -0.7595
  575TMC3     C 8582   2.001   1.400  11.194  0.4736  0.4109  0.2268
  575TMC3     O 8583   2.074   1.327  11.259  0.0028  0.6201  0.3507
  575TMC3     H 8584   1.999   1.153  11.141  0.2465 -0.2371  0.9166
  575TMC3    H1 8585   1.898   1.524  10.965 -0.2471  0.5292  0.3022
  575TMC3    H2 8586   1.788   1.164  10.772  1.7101  0.3128 -2.6365
  575TMC3    C7 8587   1.768   1.422  10.756  0.1718 -0.2116 -0.5548
  575TMC3    C8 8588   1.875   0.992  10.965 -0.2333 -0.8361  0.1285
  575TMC3    O1 8589   1.770   1.543  10.777  0.0703 -0.5253  0.5465
  575TMC3    O2 8590   1.937   0.934  11.053 -0.2897  0.1358 -0.6720
  576MPD2     C 8591   1.720   3.196  12.690 -0.0822  0.1604 -0.3204
  576MPD2    C1 8592   1.755   3.263  12.578 -0.1017  0.2034 -0.7947
  576MPD2    C2 8593   1.705   3.389  12.556  0.1083 -0.6304  0.2557
  576MPD2    C3 8594   1.611   3.449  12.637  1.2996  0.2606  0.2979
  576MPD2    C4 8595   1.579   3.379  12.750  0.2500 -0.1036 -0.3318
  576MPD2    C5 8596   1.633   3.257  12.784 -0.2771 -0.1727 -0.4837
  576MPD2     H 8597   1.724   3.444  12.464 -1.3378  0.6421  0.7039
  576MPD2    H1 8598   1.506   3.406  12.826  0.7291 -1.7119  0.6846
  576MPD2    H2 8599   1.747   3.093  12.712 -2.5753 -0.1428  1.2980
  576MPD2    H3 8600   1.600   3.201  12.871 -0.5146 -0.4324 -0.7415
  576MPD2     N 8601   1.544   3.563  12.605  0.7106  0.4365  0.2021
  576MPD2    H5 8602   1.585   3.624  12.536  0.2952 -0.0952 -0.5107
  576MPD2    N1 8603   1.839   3.211  12.481 -0.1899 -0.1075 -0.2097
  576MPD2    H7 8604   1.861   3.280  12.409 -0.3966  0.2573  0.0751
  577TMC3    C1 8605   2.003   3.073  12.381 -0.1914 -0.9962  0.3505
  577TMC3    C2 8606   2.018   2.947  12.334  0.4038  0.3321  0.0361
  577TMC3    C3 8607   2.113   2.933  12.236 -1.1382 -0.4065  0.3356
  577TMC3    C4 8608   2.065   3.181  12.322  0.1182 -0.0670 -0.2105
  577TMC3    C5 8609   2.152   3.162  12.228  0.8279 -0.0165  0.7207
  577TMC3    C6 8610   2.177   3.039  12.177  0.3208 -0.2755  0.7936
  577TMC3     C 8611   1.888   3.085  12.473 -0.3978 -0.2868  0.0401
  577TMC3     O 8612   1.857   2.988  12.538  0.0378 -0.0501  0.0673
  577TMC3     H 8613   1.986   2.858  12.386 -1.9014  1.6954  0.9522
  577TMC3    H1 8614   2.039   3.279  12.362  2.8927  0.5412  0.1502
  577TMC3    H2 8615   2.246   3.017  12.096 -0.5258  0.1234 -0.0415
  577TMC3    C7 8616   2.207   3.279  12.163  0.3288 -0.0335 -0.5982
  577TMC3    C8 8617   2.114   2.799  12.185  0.0473  0.8288 -0.2974
  577TMC3    O1 8618   2.293   3.345  12.223 -0.8931  0.0585  0.8597
  577TMC3    O2 8619   2.119   2.699  12.257 -0.0032  0.2796 -0.1853
  578MPD2     C 8620   0.069   3.807   0.959  0.2799 -0.3490  0.1800
  578MPD2    C1 8621   0.124   3.705   0.885  0.5158 -0.2444  0.3267
  578MPD2    C2 8622   0.244   3.655   0.912 -0.4498  0.2430 -0.5049
  578MPD2    C3 8623   0.319   3.692   1.020 -0.3000 -0.6910  0.2579
  578MPD2    C4 8624   0.269   3.799   1.087 -0.0804  0.2908  0.5279
  578MPD2    C5 8625   0.150   3.858   1.061  0.9720  0.2424 -0.8248
  578MPD2     H 8626   0.287   3.583   0.843  0.1279  2.7173 -2.7003
  578MPD2    H1 8627   0.330   3.847   1.162 -0.4305  2.0709 -0.3404
  578MPD2    H2 8628   4.712   3.852   0.939  0.1317 -0.3105  1.0026
  578MPD2    H3 8629   0.119   3.951   1.107 -0.1282 -0.5393  0.0061
  578MPD2     N 8630   0.440   3.627   1.044 -0.3360 -0.0889 -0.0014
  578MPD2    H5 8631   0.463   3.564   0.969  0.1487  0.2571 -0.1445
  578MPD2    N1 8632   0.043   3.671   0.772 -0.4101 -0.1948  0.5180
  578MPD2    H7 8633   4.699   3.725   0.756 -0.3548 -0.4494 -0.6106
  579TMC3    C1 8634   0.652   3.571   1.139  0.0423 -0.0306 -0.7082
  579TMC3    C2 8635   0.763   3.631   1.186  0.4024  0.0178 -0.5655
  579TMC3    C3 8636   0.885   3.569   1.158 -0.2109 -1.1158  0.6857
  579TMC3    C4 8637   0.644   3.447   1.080 -0.4630  0.5952 -0.1947
  579TMC3    C5 8638   0.770   3.393   1.057  0.2455 -0.1220 -0.0564
  579TMC3    C6 8639   0.890   3.448   1.092 -0.4956  0.2711 -0.1741
  579TMC3     C 8640   0.529   3.648   1.148 -0.2031  0.1773 -0.3306
  579TMC3     O 8641   0.515   3.735   1.232  0.0343  0.5355 -0.5878
  579TMC3     H 8642   0.749   3.732   1.223 -0.3692 -0.5842  0.8153
  579TMC3    H1 8643   0.551   3.404   1.047  0.0706  0.4420 -1.5037
  579TMC3    H2 8644   0.982   3.391   1.081  0.1898  0.9273  2.2335
  579TMC3    C7 8645   0.778   3.266   0.990 -0.0622 -0.1139 -0.2741
  579TMC3    C8 8646   1.003   3.662   1.158 -0.2244 -0.0656  0.1913
  579TMC3    O1 8647   0.871   3.198   1.027  0.0689  0.5599 -0.0334
  579TMC3    O2 8648   0.998   3.772   1.217 -0.2789  0.0475  0.4250
  580TMC3    C1 8649   0.052   2.263  12.436 -0.3668  0.6566  0.0036
  580TMC3    C2 8650   0.100   2.299  12.315  0.4642 -0.1957 -0.3909
  580TMC3    C3 8651   0.103   2.210  12.210 -0.3823  0.3129  0.2631
  580TMC3    C4 8652   0.032   2.133  12.458  0.9846 -0.1913 -0.5897
  580TMC3    C5 8653   0.051   2.039  12.361 -0.0941  0.2340 -0.5890
  580TMC3    C6 8654   0.074   2.077  12.231 -0.4488 -0.0098 -0.1837
  580TMC3     C 8655   4.697   2.355  12.489 -1.4510  0.9685  0.5048
  580TMC3     O 8656   4.653   2.332  12.602 -0.2083  0.3144 -0.3943
  580TMC3     H 8657   0.120   2.405  12.304  0.5935 -0.0495  1.1665
  580TMC3    H1 8658   4.738   2.105  12.557  0.5244  0.1440 -0.6583
  580TMC3    H2 8659   0.082   2.012  12.145 -1.0748 -1.2743  0.6999
  580TMC3    C7 8660   0.064   1.900  12.408  0.1660  1.0679  0.3902
  580TMC3    C8 8661   0.052   2.274  12.093 -0.4313  0.2481  0.5006
  580TMC3    O1 8662   0.099   1.894  12.527 -0.3192 -0.0962  0.4873
  580TMC3    O2 8663   4.727   2.375  12.120  0.0328  0.0466 -0.5172
  581MPD2     C 8664   2.059   1.474  14.772  0.8401  0.6522 -0.3464
  581MPD2    C1 8665   1.960   1.546  14.834  0.3583  0.5605  0.2928
  581MPD2    C2 8666   1.883   1.641  14.768  0.6418  0.1577  0.3142
  581MPD2    C3 8667   1.893   1.646  14.623  0.3138  0.3634  1.0016
  581MPD2    C4 8668   1.981   1.560  14.559  0.1567  0.9348  0.2946
  581MPD2    C5 8669   2.065   1.484  14.637  0.4393  0.0440  0.0418
  581MPD2     H 8670   1.802   1.702  14.807 -0.7169 -1.3065 -0.2120
  581MPD2    H1 8671   2.002   1.575  14.454  3.9645 -0.9811  0.7893
  581MPD2    H2 8672   2.125   1.405  14.823 -1.1771 -1.0636 -0.0662
  581MPD2    H3 8673   2.153   1.436  14.597  0.2453  0.4669 -0.8762
  581MPD2     N 8674   1.808   1.721  14.540  0.1557 -0.0995 -0.2771
  581MPD2    H5 8675   1.816   1.712  14.439 -1.7073  0.3303 -0.4747
  581MPD2    N1 8676   1.961   1.544  14.977  0.6966 -0.1216  0.5426
  581MPD2    H7 8677   2.016   1.469  15.017  0.4096 -0.1361  0.9124
  582TMC3    C1 8678   1.914   1.611  15.206 -0.5036  0.3256 -0.5729
  582TMC3    C2 8679   1.887   1.481  15.246 -0.3032 -0.1306 -0.2967
  582TMC3    C3 8680   1.864   1.472  15.375  0.1651  0.3576  0.1601
  582TMC3    C4 8681   1.904   1.722  15.283 -1.1357 -0.4871  0.0082
  582TMC3    C5 8682   1.874   1.703  15.416  0.1684  0.9019  0.0091
  582TMC3    C6 8683   1.841   1.580  15.463  0.0936  0.4787  0.7761
  582TMC3     C 8684   1.891   1.633  15.061  0.2093  0.9773  1.1126
  582TMC3     O 8685   1.835   1.743  15.039 -0.6739  0.4240 -0.1716
  582TMC3     H 8686   1.890   1.391  15.185 -3.9659 -1.4395  1.4411
  582TMC3    H1 8687   1.937   1.818  15.244 -0.1440  0.3415  2.8853
  582TMC3    H2 8688   1.804   1.560  15.563 -1.4137  1.6085  0.4387
  582TMC3    C7 8689   1.958   1.760  15.517  0.4489 -0.3506 -0.5997
  582TMC3    C8 8690   1.951   1.364  15.433 -0.5044  0.4124 -0.4726
  582TMC3    O1 8691   1.990   1.683  15.605  0.4292  0.4871 -0.0944
  582TMC3    O2 8692   1.993   1.274  15.362 -0.3369 -0.4696 -0.0756
  583MPD2     C 8693   2.183   3.849  16.451 -0.0351 -0.1860  0.0973
  583MPD2    C1 8694   2.264   3.939  16.381 -0.4943 -0.8048  0.0913
  583MPD2    C2 8695   2.292   4.059  16.434 -0.0654  0.5124 -0.4963
  583MPD2    C3 8696   2.237   4.095  16.559  0.0768  0.3018 -0.0856
  583MPD2    C4 8697   2.163   4.002  16.630  0.8072 -0.5176  0.0264
  583MPD2    C5 8698   2.139   3.881  16.576  0.4260  0.0521  0.0849
  583MPD2     H 8699   2.349   4.126  16.370  1.5255 -0.7902 -0.4252
  583MPD2    H1 8700   2.121   4.024  16.728  1.0746  0.7507 -0.1404
  583MPD2    H2 8701   2.151   3.752  16.413 -2.9374  0.1473  1.7138
  583MPD2    H3 8702   2.077   3.812  16.632  1.2733 -0.8630 -0.1039
  583MPD2     N 8703   2.268   4.219  16.626  0.1877  0.0275  0.5524
  583MPD2    H5 8704   2.243   4.229  16.724 -1.5857  1.6826 -0.0710
  583MPD2    N1 8705   2.338   3.907  16.268 -0.1528 -0.3521 -0.0318
  583MPD2    H7 8706   2.390   3.987  16.234 -0.1831 -0.7383 -0.9798
  584TMC3    C1 8707   2.378   4.425  16.675 -0.3029  0.2679  0.1615
  584TMC3    C2 8708   2.465   4.526  16.642 -0.1573 -0.0049  0.0592
  584TMC3    C3 8709   2.506   4.612  16.734 -0.5207  0.2177  0.4039
  584TMC3    C4 8710   2.334   4.417  16.808  0.3188  0.4178  0.1630
  584TMC3    C5 8711   2.367   4.517  16.897  0.2404  0.7149 -0.1692
  584TMC3    C6 8712   2.464   4.615  16.863  0.2251  0.1449 -0.6381
  584TMC3     C 8713   2.347   4.323  16.577  0.1826 -0.0721 -0.3168
  584TMC3     O 8714   2.393   4.338  16.465  0.8041  0.0535  0.5088
  584TMC3     H 8715   2.510   4.519  16.544 -1.5657 -2.4731 -0.4044
  584TMC3    H1 8716   2.259   4.346  16.841 -2.5636  3.0461 -0.7053
  584TMC3    H2 8717   2.503   4.693  16.928 -1.1901 -0.2227  0.6544
  584TMC3    C7 8718   2.284   4.529  17.018  0.2023 -0.6950 -0.3494
  584TMC3    C8 8719   2.613   4.700  16.680 -0.3432  0.7274  0.2692
  584TMC3    O1 8720   2.212   4.435  17.043  0.7377  0.8741  0.1999
  584TMC3    O2 8721   2.653   4.694  16.563 -0.4854 -0.4491  0.1548
  585MPD2     C 8722   1.905   2.719   0.325  0.5085 -0.2463  0.4146
  585MPD2    C1 8723   1.998   2.689   0.225 -0.5536 -0.0796  0.2718
  585MPD2    C2 8724   1.960   2.590   0.137  0.1339 -0.0256  0.4418
  585MPD2    C3 8725   1.825   2.555   0.123  0.1996 -0.3196  0.3789
  585MPD2    C4 8726   1.732   2.605   0.205  0.3886 -0.4552  0.6642
  585MPD2    C5 8727   1.773   2.683   0.311 -0.1500  0.3917 -0.4926
  585MPD2     H 8728   2.031   2.562   0.060 -1.2178  0.8409 -1.1223
  585MPD2    H1 8729   1.625   2.586   0.202  0.2840  0.2696  0.0437
  585MPD2    H2 8730   1.935   2.790   0.401 -1.0417  0.0529  0.7477
  585MPD2    H3 8731   1.699   2.727   0.376  1.6407  2.0533  0.4462
  585MPD2     N 8732   1.782   2.485   0.011  0.2258  0.5425  0.1192
  585MPD2    H5 8733   1.681   2.480   0.003  0.3014 -1.9922  0.7233
  585MPD2    N1 8734   2.122   2.760   0.211 -0.0990  0.2669  0.2095
  585MPD2    H7 8735   2.133   2.836   0.277  3.5368 -0.2841  0.2377
  586TMC3    C1 8736   1.799   2.372  17.566  0.1418  0.3764  0.1304
  586TMC3    C2 8737   1.888   2.308  17.481 -0.3684  0.4833  0.2044
  586TMC3    C3 8738   1.922   2.362  17.360  0.2258 -0.6385  0.2945
  586TMC3    C4 8739   1.741   2.483  17.516  0.2029  0.0912  0.3997
  586TMC3    C5 8740   1.757   2.510  17.381  0.3710  0.7507  0.6325
  586TMC3    C6 8741   1.845   2.456  17.298  0.1908  0.1076  0.2598
  586TMC3     C 8742   1.863   2.411  17.690 -0.1871 -0.4174  1.0253
  586TMC3     O 8743   1.977   2.381  17.711  0.6502 -0.1664 -0.5793
  586TMC3     H 8744   1.939   2.221  17.522  0.2253  1.1134  0.7987
  586TMC3    H1 8745   1.671   2.542  17.574 -0.3411 -0.0519 -0.1140
  586TMC3    H2 8746   1.832   2.459  17.191  2.1258  0.4547  0.0293
  586TMC3    C7 8747   1.673   2.612  17.336 -1.0683 -0.1754  0.0552
  586TMC3    C8 8748   2.017   2.288  17.276 -0.1091 -0.1651  0.1705
  586TMC3    O1 8749   1.567   2.629  17.392 -0.0380 -0.2825 -0.4270
  586TMC3    O2 8750   2.048   2.177  17.321  0.2314  0.5385 -0.1543
  587TMC3    C1 8751   3.860   1.324  16.339  0.0101  0.3478  0.7792
  587TMC3    C2 8752   3.956   1.391  16.404  0.2850 -0.3958 -0.2227
  587TMC3    C3 8753   4.062   1.326  16.449  0.4638 -0.1285  0.2344
  587TMC3    C4 8754   3.868   1.193  16.318  0.4728 -0.4689  0.3221
  587TMC3    C5 8755   3.972   1.124  16.376  0.3217 -0.3593  0.4264
  587TMC3    C6 8756   4.075   1.193  16.437 -0.4453  0.5277  0.2080
  587TMC3     C 8757   3.754   1.396  16.269  0.3987  0.2397 -0.1323
  587TMC3     O 8758   3.759   1.512  16.232  0.7367  0.2608 -0.8334
  587TMC3     H 8759   3.970   1.499  16.396 -4.2450  0.4351  2.6175
  587TMC3    H1 8760   3.786   1.144  16.266  0.2539 -0.6784  0.8662
  587TMC3    H2 8761   4.145   1.138  16.498 -0.7102 -0.8185 -0.7005
  587TMC3    C7 8762   3.964   0.984  16.363  0.1364 -0.5064  0.5940
  587TMC3    C8 8763   4.151   1.396  16.537 -0.8784  0.7437 -0.6493
  587TMC3    O1 8764   3.859   0.943  16.317 -0.5612 -0.1780 -0.0537
  587TMC3    O2 8765   4.236   1.327  16.584 -0.0537  0.0828  0.0696
  588TMC3    C1 8766   1.234   4.063  10.166  0.6056  0.6470  0.4690
  588TMC3    C2 8767   1.160   3.972  10.096  0.1483  0.6006 -0.0030
  588TMC3    C3 8768   1.218   3.873  10.020 -0.6378 -0.6482 -0.6160
  588TMC3    C4 8769   1.367   4.049  10.168  0.5835  0.1970 -0.8100
  588TMC3    C5 8770   1.430   3.950  10.089 -0.0900 -0.7893  0.6984
  588TMC3    C6 8771   1.350   3.859  10.021 -0.2997 -0.4651  0.4830
  588TMC3     C 8772   1.189   4.202  10.171 -0.0528 -1.0462  0.3203
  588TMC3     O 8773   1.083   4.222  10.110 -0.0496 -0.4104  0.4092
  588TMC3     H 8774   1.052   3.972  10.093  0.1723 -1.1239 -0.5399
  588TMC3    H1 8775   1.431   4.102  10.238 -1.5191  0.6603  0.7643
  588TMC3    H2 8776   1.401   3.772   9.980 -0.4604  0.2883 -1.3019
  588TMC3    C7 8777   1.541   4.004  10.016  0.4303  0.2411  0.6002
  588TMC3    C8 8778   1.142   3.765   9.972 -0.8111 -0.0712 -0.0231
  588TMC3    O1 8779   1.557   3.954   9.902  0.0342  0.0250 -0.4441
  588TMC3    O2 8780   1.033   3.796   9.918  0.7219  1.0002  0.3238
  589TMC3    C1 8781   0.819   2.078   1.034  0.0584  0.1923 -0.1801
  589TMC3    C2 8782   0.895   2.161   1.110  0.8037  0.6447  0.4932
  589TMC3    C3 8783   1.034   2.142   1.119 -0.1052 -0.1623  0.2876
  589TMC3    C4 8784   0.863   1.979   0.955 -0.0647 -0.0406  0.6809
  589TMC3    C5 8785   1.003   1.964   0.964  0.1523  1.5326 -0.0525
  589TMC3    C6 8786   1.088   2.046   1.039 -0.2767  0.3838 -0.5615
  589TMC3     C 8787   0.678   2.086   1.033 -0.9862  0.2169  0.2559
  589TMC3     O 8788   0.616   1.988   0.998  0.1939 -0.2149  0.3839
  589TMC3     H 8789   0.856   2.213   1.197  1.9992  0.1184  1.3471
  589TMC3    H1 8790   0.795   1.912   0.905  0.5704 -0.9190  0.9947
  589TMC3    H2 8791   1.194   2.038   1.019 -0.5385  1.2739 -2.2838
  589TMC3    C7 8792   1.061   1.846   0.913 -0.1543 -0.2156  0.1271
  589TMC3    C8 8793   1.109   2.227   1.206  0.2821 -0.0657  0.3678
  589TMC3    O1 8794   1.004   1.739   0.925 -0.1829 -0.5150  0.3509
  589TMC3    O2 8795   1.045   2.323   1.246  0.4346  0.4455 -0.4561
  590MPD2     C 8796   0.251   4.085  16.551 -0.1770  0.2138 -0.2034
  590MPD2    C1 8797   0.187   4.166  16.459  0.0775  0.0658  0.0145
  590MPD2    C2 8798   0.248   4.281  16.413 -0.2031  0.3719  0.4865
  590MPD2    C3 8799   0.371   4.325  16.458 -0.2558  0.1735 -0.5129
  590MPD2    C4 8800   0.435   4.241  16.549 -0.2776  0.7534 -0.5828
  590MPD2    C5 8801   0.372   4.130  16.596 -0.0860  0.1723 -0.0454
  590MPD2     H 8802   0.200   4.339  16.335  0.2568  0.8029  0.5256
  590MPD2    H1 8803   0.535   4.255  16.590 -0.6106 -0.8553  0.7525
  590MPD2    H2 8804   0.207   3.993  16.588  0.2362  0.8896  1.9631
  590MPD2    H3 8805   0.425   4.063  16.663 -0.8912  1.0031  1.4008
  590MPD2     N 8806   0.416   4.448  16.420  0.1151  0.4005 -0.0452
  590MPD2    H5 8807   0.345   4.508  16.379  1.7135  1.5427 -1.1255
  590MPD2    N1 8808   0.053   4.130  16.417 -0.3184 -0.4866 -0.8082
  590MPD2    H7 8809   0.012   4.049  16.461 -1.5633 -0.2008 -1.4552
  591TMC3    C1 8810   0.582   4.601  16.349  0.4680  0.1229 -1.0333
  591TMC3    C2 8811   0.684   4.580  16.268  1.1131  0.2724 -0.3394
  591TMC3    C3 8812   0.699   4.672  16.166 -0.2648  0.4814 -0.1413
  591TMC3    C4 8813   0.504   4.708  16.335 -0.4343  0.1259 -0.2499
  591TMC3    C5 8814   0.509   0.048  16.227 -0.5168 -0.0401  0.1823
  591TMC3    C6 8815   0.607   0.032  16.136 -0.7705 -0.5235  0.3634
  591TMC3     C 8816   0.549   4.484  16.430  0.3923  0.0455 -0.1968
  591TMC3     O 8817   0.649   4.419  16.460  0.3968  0.1983  0.2771
  591TMC3     H 8818   0.750   4.495  16.279  0.3556 -0.3686 -0.7711
  591TMC3    H1 8819   0.424   4.712  16.408 -2.2832  0.4636 -2.3010
  591TMC3    H2 8820   0.609   0.089  16.044  1.1620 -2.2984 -0.6845
  591TMC3    C7 8821   0.403   0.149  16.214 -0.6025 -0.6350 -0.0849
  591TMC3    C8 8822   0.791   4.638  16.066  0.4229  0.1392  0.7428
  591TMC3    O1 8823   0.301   0.124  16.271 -0.4275  0.8204  0.1274
  591TMC3    O2 8824   0.835   4.523  16.052 -0.1609 -0.2560  0.6530
  592MPD2     C 8825   0.596   2.014  11.462  0.2427 -0.6528 -0.2016
  592MPD2    C1 8826   0.576   1.927  11.569  0.5483 -0.4542  0.2672
  592MPD2    C2 8827   0.511   1.807  11.543  0.7166  0.5596 -0.4680
  592MPD2    C3 8828   0.465   1.772  11.416 -0.2381  0.0254 -0.1016
  592MPD2    C4 8829   0.480   1.863  11.315 -0.0404 -0.1965  0.8084
  592MPD2    C5 8830   0.542   1.988  11.338  0.3371  0.2382 -0.2630
  592MPD2     H 8831   0.499   1.733  11.622 -0.8468  0.1540 -1.0835
  592MPD2    H1 8832   0.445   1.845  11.214 -0.1478 -0.0909  0.8265
  592MPD2    H2 8833   0.639   2.113  11.475  2.2582 -1.2459 -2.5751
  592MPD2    H3 8834   0.552   2.067  11.265 -1.5989  2.2995  1.6958
  592MPD2     N 8835   0.401   1.645  11.403  0.8635 -0.0956 -0.5161
  592MPD2    H5 8836   0.379   1.585  11.482 -0.1965  2.0813  0.8500
  592MPD2    N1 8837   0.624   1.972  11.690  0.0332  0.2468 -0.0083
  592MPD2    H7 8838   0.670   2.063  11.689 -2.8764  1.7047 -0.3477
  593TMC3    C1 8839   0.688   1.974  11.916 -0.5390 -0.1042 -0.7868
  593TMC3    C2 8840   0.686   2.116  11.926 -0.3903  0.4401 -0.6468
  593TMC3    C3 8841   0.752   2.178  12.033  0.1181  0.4287  0.1091
  593TMC3    C4 8842   0.759   1.905  12.015 -0.0684  0.0621  0.5404
  593TMC3    C5 8843   0.816   1.975  12.124 -0.5976 -0.0382  0.0077
  593TMC3    C6 8844   0.814   2.108  12.135 -0.4927  0.0356 -0.1092
  593TMC3     C 8845   0.626   1.902  11.808  0.2702  0.2115  0.1780
  593TMC3     O 8846   0.609   1.782  11.823  0.0681 -0.6117 -0.5280
  593TMC3     H 8847   0.632   2.174  11.852 -1.3993  0.9426  0.4816
  593TMC3    H1 8848   0.748   1.798  12.027 -0.3794  0.1099  0.7036
  593TMC3    H2 8849   0.865   2.154  12.218  1.5535 -1.0319 -0.7654
  593TMC3    C7 8850   0.890   1.896  12.222  0.5876  0.1062  0.0840
  593TMC3    C8 8851   0.783   2.319  12.006  0.3313  0.0859  0.2845
  593TMC3    O1 8852   0.856   1.781  12.228 -0.4499 -0.1332 -0.0327
  593TMC3    O2 8853   0.721   2.372  11.913  0.8067 -1.0254  0.0857
  594MPD2     C 8854   4.407   0.078  14.510 -0.0842  0.7844 -0.2184
  594MPD2    C1 8855   4.300   0.159  14.479 -0.6827 -0.1146 -0.4274
  594MPD2    C2 8856   4.323   0.293  14.432  0.2224 -0.0250 -0.0306
  594MPD2    C3 8857   4.450   0.344  14.417 -0.0439  0.1743 -0.2405
  594MPD2    C4 8858   4.551   0.262  14.460  0.5541  0.2228 -0.6242
  594MPD2    C5 8859   4.534   0.131  14.496  0.1392  0.4424 -0.7857
  594MPD2     H 8860   4.249   0.364  14.399  0.1789 -0.7700 -1.5606
  594MPD2    H1 8861   4.648   0.309  14.468 -0.0551  1.2749  0.6146
  594MPD2    H2 8862   4.388   4.729  14.567  2.0270  0.5056  0.0510
  594MPD2    H3 8863   4.621   0.076  14.530 -0.2285  0.0258 -0.5235
  594MPD2     N 8864   4.488   0.469  14.361  0.3427 -0.0492 -0.5729
  594MPD2    H5 8865   4.589   0.473  14.350  0.3050 -1.5333 -1.5111
  594MPD2    N1 8866   4.167   0.113  14.502  0.7225  0.3692 -0.3773
  594MPD2    H7 8867   4.146   0.023  14.543 -1.1083  1.3805  0.9141
  595TMC3    C1 8868   4.670   0.787  14.228  0.1264  0.6672  0.2550
  595TMC3    C2 8869   4.604   0.669  14.236 -0.5706  0.1811  0.2664
  595TMC3    C3 8870   4.468   0.679  14.273  0.1824  0.4925  0.8541
  595TMC3    C4 8871   4.627   0.914  14.263  0.5400  0.4234  0.3031
  595TMC3    C5 8872   4.500   0.911  14.306 -0.0747  0.1553 -0.7190
  595TMC3    C6 8873   4.417   0.799  14.307  0.6750 -0.5097 -0.1428
  595TMC3     C 8874   0.075   0.784  14.227 -0.8518  0.0772  0.6574
  595TMC3     O 8875   0.142   0.886  14.208 -0.0598  1.0698 -0.0056
  595TMC3     H 8876   4.636   0.578  14.188  0.3299  0.9935 -0.6750
  595TMC3    H1 8877   4.699   0.994  14.252  1.5626 -1.0063 -3.5512
  595TMC3    H2 8878   4.315   0.812  14.342  0.3633  2.0390 -1.9672
  595TMC3    C7 8879   4.446   1.025  14.382 -0.0119 -0.9009 -1.0096
  595TMC3    C8 8880   4.398   0.563  14.320  0.3996 -0.1567  0.4904
  595TMC3    O1 8881   4.349   0.992  14.448  0.0423 -0.1180 -0.3626
  595TMC3    O2 8882   4.279   0.577  14.341  0.4914 -0.1457  0.4413
  596MPD2     C 8883   2.770   3.602  16.357 -0.2901 -0.0457  0.1315
  596MPD2    C1 8884   2.910   3.593  16.386 -0.0481  0.7459  0.6302
  596MPD2    C2 8885   2.992   3.527  16.299  0.0260  0.5777 -0.1620
  596MPD2    C3 8886   2.938   3.450  16.202  0.1394 -0.1473 -0.3755
  596MPD2    C4 8887   2.806   3.444  16.183  0.3287 -0.9119 -0.1138
  596MPD2    C5 8888   2.722   3.523  16.254 -0.0001  0.0915 -0.2706
  596MPD2     H 8889   3.099   3.516  16.318  0.0085  0.7912  0.0508
  596MPD2    H1 8890   2.750   3.378  16.120 -0.0482 -0.1414 -0.5874
  596MPD2    H2 8891   2.703   3.657  16.422 -1.2106 -2.3585  1.1128
  596MPD2    H3 8892   2.614   3.521  16.242 -0.0841  0.9152  0.3451
  596MPD2     N 8893   3.023   3.368  16.121 -0.0125 -0.0456  0.2045
  596MPD2    H5 8894   2.980   3.318  16.043  0.6277 -2.4226  1.3802
  596MPD2    N1 8895   2.973   3.647  16.502  0.2986 -1.3208  0.0994
  596MPD2    H7 8896   3.074   3.652  16.515  0.2034  1.1182 -0.1662
  597TMC3    C1 8897   2.975   3.767  16.709 -0.1966 -0.1531 -0.6271
  597TMC3    C2 8898   3.113   3.770  16.714 -0.0279 -0.2446 -0.4894
  597TMC3    C3 8899   3.166   3.876  16.792 -0.6581 -0.4416 -0.6214
  597TMC3    C4 8900   2.895   3.850  16.786 -0.4528 -0.5850  0.5025
  597TMC3    C5 8901   2.949   3.947  16.866  0.0009 -0.4587  0.0470
  597TMC3    C6 8902   3.091   3.961  16.871 -0.5056 -0.3608 -0.3550
  597TMC3     C 8903   2.905   3.688  16.612 -0.0890  0.0099  0.3357
  597TMC3     O 8904   2.785   3.691  16.636 -0.4105 -0.0381  0.1425
  597TMC3     H 8905   3.177   3.700  16.661  0.5965  0.3097 -0.4682
  597TMC3    H1 8906   2.789   3.862  16.766 -0.0021  1.4177 -0.7823
  597TMC3    H2 8907   3.139   4.023  16.946 -0.3509 -1.6160  0.5876
  597TMC3    C7 8908   2.875   4.074  16.884 -0.0744 -0.2089  0.0820
  597TMC3    C8 8909   3.312   3.888  16.806  0.4015 -0.2216  0.2282
  597TMC3    O1 8910   2.758   4.075  16.848 -0.8113  0.5256 -0.3167
  597TMC3    O2 8911   3.352   3.943  16.908 -0.3647 -0.3933 -0.0471
  598TMC3    C1 8912   1.604   4.722  15.604 -0.9338  0.1868 -0.6172
  598TMC3    C2 8913   1.575   4.634  15.505  0.6511  0.0636 -0.7652
  598TMC3    C3 8914   1.553   4.681  15.371 -0.4992 -0.2151  0.4516
  598TMC3    C4 8915   1.620   0.118  15.576 -0.3980 -0.7854 -0.5434
  598TMC3    C5 8916   1.596   0.161  15.445  0.1070  0.4109  0.3903
  598TMC3    C6 8917   1.567   0.070  15.346  0.6097  0.2039  0.0466
  598TMC3     C 8918   1.632   4.681  15.739  0.0857  1.1450  0.4370
  598TMC3     O 8919   1.650   0.026  15.828 -0.0797  0.0633 -0.2150
  598TMC3     H 8920   1.560   4.528  15.517 -0.6616  0.1311 -1.8190
  598TMC3    H1 8921   1.655   0.191  15.648 -0.5480  0.4760 -1.7622
  598TMC3    H2 8922   1.533   0.103  15.249 -0.8881  0.1046  0.5421
  598TMC3    C7 8923   1.644   0.292  15.402 -0.1930 -0.7566  0.9136
  598TMC3    C8 8924   1.546   4.585  15.260 -0.7869  0.0542  0.3367
  598TMC3    O1 8925   1.656   0.381  15.488  0.7918 -0.8323  0.4902
  598TMC3    O2 8926   1.583   4.629  15.153 -0.3509  0.5213  0.5135
  599MPD2     C 8927   1.649   2.540  15.849  1.2622 -0.3834 -0.5401
  599MPD2    C1 8928   1.591   2.431  15.904 -0.6783 -0.4139 -0.3570
  599MPD2    C2 8929   1.466   2.447  15.960  0.6533 -0.0552  0.1476
  599MPD2    C3 8930   1.399   2.572  15.971 -1.0494 -0.2755 -0.0886
  599MPD2    C4 8931   1.465   2.680  15.912  0.9943 -0.2052 -0.0433
  599MPD2    C5 8932   1.583   2.659  15.851  0.0314 -0.8937  0.1447
  599MPD2     H 8933   1.419   2.363  16.011  2.6113 -0.0067  2.0144
  599MPD2    H1 8934   1.416   2.777  15.917 -0.5639 -0.8754 -1.9115
  599MPD2    H2 8935   1.749   2.538  15.806  1.7536  0.0258  0.5617
  599MPD2    H3 8936   1.634   2.737  15.796 -0.6371 -1.0999 -0.7703
  599MPD2     N 8937   1.278   2.600  16.037 -0.0576  0.2528  0.0912
  599MPD2    H5 8938   1.237   2.691  16.020  0.8218  0.4721 -0.8433
  599MPD2    N1 8939   1.670   2.312  15.890 -0.0651  0.5094 -0.0433
  599MPD2    H7 8940   1.768   2.326  15.868  0.5027 -2.0020  0.8754
  600TMC3    C1 8941   1.080   2.567  16.174 -0.7981  0.4897  0.3852
  600TMC3    C2 8942   1.032   2.504  16.285 -0.1511 -0.1615 -0.4204
  600TMC3    C3 8943   0.907   2.550  16.320  0.6237  0.1110 -0.0007
  600TMC3    C4 8944   1.018   2.675  16.117 -0.6782  0.0138 -0.4680
  600TMC3    C5 8945   0.892   2.719  16.161 -0.0967 -0.0595 -0.4761
  600TMC3    C6 8946   0.837   2.649  16.265  0.1751 -0.1001  0.2397
  600TMC3     C 8947   1.201   2.507  16.113 -0.2539  0.1038  0.5335
  600TMC3     O 8948   1.232   2.389  16.140 -0.0032  0.7690 -0.5459
  600TMC3     H 8949   1.085   2.426  16.337  0.0261 -0.7976 -1.5371
  600TMC3    H1 8950   1.063   2.722  16.030  1.9186 -0.5784  0.5593
  600TMC3    H2 8951   0.740   2.680  16.302  1.1306 -0.3581  2.9357
  600TMC3    C7 8952   0.842   2.858  16.142  0.1683 -0.1139  0.0040
  600TMC3    C8 8953   0.846   2.498  16.439  0.2956 -0.1138 -0.6343
  600TMC3    O1 8954   0.735   2.873  16.198  0.1945  0.4883 -0.1652
  600TMC3    O2 8955   0.919   2.472  16.537  0.3417  0.7581  0.0915
  601MPD2     C 8956   3.253   2.002   0.385 -0.5528 -0.5445 -0.4818
  601MPD2    C1 8957   3.255   1.874   0.331  0.1256 -0.2728 -0.0533
  601MPD2    C2 8958   3.270   1.768   0.419  0.5862  0.2997  0.5012
  601MPD2    C3 8959   3.295   1.788   0.553  0.7991 -0.4074 -0.0490
  601MPD2    C4 8960   3.289   1.916   0.604  0.3847 -0.4181  0.4137
  601MPD2    C5 8961   3.271   2.025   0.522 -0.4128 -0.8856  0.1082
  601MPD2     H 8962   3.275   1.668   0.377  0.5196 -0.6949  2.8994
  601MPD2    H1 8963   3.290   1.928   0.711  1.9796 -0.1763  0.3709
  601MPD2    H2 8964   3.229   2.084   0.319  1.5196 -0.3186 -0.9429
  601MPD2    H3 8965   3.260   2.129   0.551  0.7890 -0.4727 -0.9220
  601MPD2     N 8966   3.320   1.689   0.647 -0.1147  0.3121 -0.1231
  601MPD2    H5 8967   3.345   1.725   0.739 -1.8369 -1.9479  1.2371
  601MPD2    N1 8968   3.246   1.849   0.192  0.2326  0.1974 -0.4315
  601MPD2    H7 8969   3.227   1.756   0.157  1.2715  0.7048 -2.3309
  602TMC3    C1 8970   3.211   1.916  17.726  0.2448 -0.4344  0.0494
  602TMC3    C2 8971   3.081   1.878  17.731 -0.2319  0.1159  1.0957
  602TMC3    C3 8972   3.029   1.810  17.631 -0.0705  0.2038 -0.6485
  602TMC3    C4 8973   3.297   1.885  17.628 -0.1120 -0.0080  0.4991
  602TMC3    C5 8974   3.249   1.801  17.533 -0.2286  0.1912  0.1800
  602TMC3    C6 8975   3.113   1.768  17.525 -0.1044 -0.1866  0.4893
  602TMC3     C 8976   3.259   1.951   0.096  0.3557  0.1451  0.2295
  602TMC3     O 8977   3.295   2.069   0.111  0.1900 -0.1880  0.7105
  602TMC3     H 8978   3.019   1.905   0.055  1.2314  0.9093  1.9075
  602TMC3    H1 8979   3.403   1.908  17.624  0.0286 -0.1778  3.2840
  602TMC3    H2 8980   3.073   1.740  17.428 -0.9500  1.5837  0.3308
  602TMC3    C7 8981   3.336   1.749  17.432  0.2423 -0.6013  0.0286
  602TMC3    C8 8982   2.891   1.763  17.635  0.4359 -0.1499 -0.0096
  602TMC3    O1 8983   3.440   1.806  17.405 -0.4683  0.4157 -0.3733
  602TMC3    O2 8984   2.802   1.831  17.682  0.0644 -0.0159 -0.4318
  603TMC3    C1 8985   1.440   1.227  10.830  0.6843  0.9060  0.3694
  603TMC3    C2 8986   1.523   1.222  10.942  0.1246 -0.6920  0.0159
  603TMC3    C3 8987   1.515   1.321  11.033 -0.3233  0.2483 -0.5168
  603TMC3    C4 8988   1.364   1.339  10.802 -0.1377 -0.5540 -0.0209
  603TMC3    C5 8989   1.373   1.442  10.896 -0.0509  0.0160 -0.4549
  603TMC3    C6 8990   1.443   1.431  11.008 -0.2855  0.2185 -0.6111
  603TMC3     C 8991   1.458   1.138  10.714  0.1463  0.8053 -0.3964
  603TMC3     O 8992   1.570   1.088  10.706 -0.4968  0.3113  0.2140
  603TMC3     H 8993   1.563   1.124  10.965 -0.2363 -0.4472  1.6820
  603TMC3    H1 8994   1.285   1.338  10.728  1.4276 -1.4453 -1.6598
  603TMC3    H2 8995   1.433   1.507  11.085 -0.7601  1.2982 -1.7264
  603TMC3    C7 8996   1.279   1.554  10.891  0.4525 -0.4579  0.3097
  603TMC3    C8 8997   1.587   1.291  11.156 -0.4110  0.2248 -0.8159
  603TMC3    O1 8998   1.273   1.624  10.988  0.8789 -0.2233 -0.0369
  603TMC3    O2 8999   1.646   1.180  11.162  0.0348  1.1321  0.0565
  604MPD2     C 9000   2.543   4.732  15.969  0.2058  0.5615  0.6798
  604MPD2    C1 9001   2.450   4.649  15.917  0.1723  0.4786 -0.0915
  604MPD2    C2 9002   2.472   4.611  15.781  0.1604  0.6027 -0.0768
  604MPD2    C3 9003   2.571   4.660  15.701  0.9385  0.1055  0.4587
  604MPD2    C4 9004   2.651   0.016  15.756  0.2693 -0.5479  0.4484
  604MPD2    C5 9005   2.632   0.054  15.881 -0.6958  0.4299  0.3013
  604MPD2     H 9006   2.401   4.549  15.727  0.7957  0.7142 -1.0393
  604MPD2    H1 9007   2.731   0.071  15.708 -1.0078  1.3923  0.5786
  604MPD2    H2 9008   2.551   0.016  16.074  0.5847  0.5969  0.6438
  604MPD2    H3 9009   2.701   0.128  15.919  0.1324  0.8949 -2.1245
  604MPD2     N 9010   2.596   4.593  15.577 -0.2295 -0.2267  0.1459
  604MPD2    H5 9011   2.525   4.531  15.540 -0.9507  0.4130  0.4692
  604MPD2    N1 9012   2.356   4.587  16.004  0.0715 -0.1281  0.2377
  604MPD2    H7 9013   2.362   4.602  16.104 -3.0587  1.1433  0.2541
  605TMC3    C1 9014   2.169   4.491  16.087  0.3751 -0.6661  0.0319
  605TMC3    C2 9015   2.251   4.489  16.198  0.5357 -0.3372 -0.2935
  605TMC3    C3 9016   2.212   4.560  16.312 -0.2370 -0.4745 -0.2701
  605TMC3    C4 9017   2.061   4.572  16.083 -0.3944 -0.0098  0.0689
  605TMC3    C5 9018   2.032   4.646  16.197 -0.2926 -0.4374 -0.3186
  605TMC3    C6 9019   2.095   4.629  16.318 -0.2227 -0.4475  0.3413
  605TMC3     C 9020   2.241   4.516  15.964  0.1559  0.0973 -0.3185
  605TMC3     O 9021   2.192   4.491  15.854  0.1866  0.0251  0.3242
  605TMC3     H 9022   2.349   4.441  16.195  1.4962  1.6225 -0.5268
  605TMC3    H1 9023   2.001   4.585  15.994  0.6825  2.3682 -0.3024
  605TMC3    H2 9024   2.063   4.686  16.404 -2.2462 -0.6725 -0.2753
  605TMC3    C7 9025   1.988   0.042  16.173  0.9779 -0.2050 -0.0969
  605TMC3    C8 9026   2.328   4.645  16.335  0.4979 -0.0556 -0.5630
  605TMC3    O1 9027   1.904   0.054  16.085 -0.3993 -0.2070 -0.4298
  605TMC3    O2 9028   2.425   4.646  16.262 -0.2555  0.1061  0.1255
  606TMC3    C1 9029   3.104   3.872   0.338 -0.3684  0.1698 -0.0126
  606TMC3    C2 9030   3.176   3.948   0.436 -0.3108 -0.0201 -0.2514
  606TMC3    C3 9031   3.296   3.899   0.464 -0.7111  0.1812 -0.2954
  606TMC3    C4 9032   3.162   3.765   0.273  0.3510  0.2913  0.4863
  606TMC3    C5 9033   3.292   3.736   0.294 -0.5032 -0.5969 -0.5458
  606TMC3    C6 9034   3.364   3.800   0.393  0.6819  0.3711 -0.2664
  606TMC3     C 9035   2.965   3.907   0.315 -0.2907 -0.2116 -0.6583
  606TMC3     O 9036   2.916   3.999   0.379  0.4269  0.0614  0.1899
  606TMC3     H 9037   3.130   4.020   0.502  0.8009 -0.2340  0.7584
  606TMC3    H1 9038   3.101   3.686   0.231  1.1829 -1.4084  2.4300
  606TMC3    H2 9039   3.472   3.798   0.402  0.6930 -1.0423 -0.7557
  606TMC3    C7 9040   3.338   3.605   0.256 -0.0700  0.3093  0.0463
  606TMC3    C8 9041   3.360   3.951   0.579 -0.0376  0.0513  0.3107
  606TMC3    O1 9042   3.429   3.555   0.320 -0.0783 -0.4873  0.5506
  606TMC3    O2 9043   3.322   4.063   0.618 -0.4351  0.1083  0.0050
  607MPD2     C 9044   0.507   1.214  11.397  0.4573 -0.7166 -0.4280
  607MPD2    C1 9045   0.575   1.279  11.500 -0.4661  0.5033 -0.4350
  607MPD2    C2 9046   0.588   1.227  11.627  0.0288  0.6370  0.2683
  607MPD2    C3 9047   0.552   1.102  11.650 -0.3804  0.4040 -0.7579
  607MPD2    C4 9048   0.483   1.034  11.548  0.1380 -0.9471  0.3706
  607MPD2    C5 9049   0.465   1.084  11.420 -0.5114 -0.2310  0.0969
  607MPD2     H 9050   0.639   1.285  11.703  2.0188 -1.1805  0.3140
  607MPD2    H1 9051   0.444   0.936  11.572  0.3983 -1.6816 -2.1747
  607MPD2    H2 9052   0.503   1.257  11.298 -2.1837 -2.3443 -1.0191
  607MPD2    H3 9053   0.421   1.028  11.339  1.9223 -0.8611 -0.7791
  607MPD2     N 9054   0.585   1.063  11.779  0.3311  0.8175 -0.5074
  607MPD2    H5 9055   0.635   1.139  11.824  0.2907  1.0074 -0.7832
  607MPD2    N1 9056   0.636   1.409  11.483  0.6527  0.3589 -0.7104
  607MPD2    H7 9057   0.666   1.455  11.569  1.0173 -0.2824 -0.4941
  608TMC3    C1 9058   0.755   1.578  11.362 -0.3179  0.2590 -0.1039
  608TMC3    C2 9059   0.799   1.610  11.489 -0.3564  0.3020 -0.0934
  608TMC3    C3 9060   0.863   1.728  11.503  0.0176  0.6623 -1.0138
  608TMC3    C4 9061   0.774   1.660  11.257 -0.4127  0.6885 -0.3844
  608TMC3    C5 9062   0.840   1.781  11.276 -0.1835 -0.7404  0.9658
  608TMC3    C6 9063   0.877   1.821  11.406  0.4537 -0.0518 -0.1967
  608TMC3     C 9064   0.683   1.452  11.353 -0.3523 -0.0648 -0.0337
  608TMC3     O 9065   0.667   1.398  11.242 -0.4059 -0.0185 -0.8685
  608TMC3     H 9066   0.816   1.525  11.555  0.1809  1.3232  1.0923
  608TMC3    H1 9067   0.753   1.630  11.155 -0.9868 -0.3654  0.0447
  608TMC3    H2 9068   0.943   1.906  11.418  1.7173 -0.8564 -1.3716
  608TMC3    C7 9069   0.797   1.878  11.177 -0.0682 -0.0167 -0.7001
  608TMC3    C8 9070   0.932   1.755  11.627 -0.1611 -0.3704  0.5875
  608TMC3    O1 9071   0.715   1.834  11.097  0.4523 -0.7291 -0.6345
  608TMC3    O2 9072   1.007   1.850  11.644 -0.0255  0.3156  0.0436
  609TMC3    C1 9073   3.355   0.640   9.218  0.6595  0.4309  0.7844
  609TMC3    C2 9074   3.345   0.636   9.080  0.5642  0.3263  1.0435
  609TMC3    C3 9075   3.462   0.629   9.010 -0.5731  0.2986  0.3833
  609TMC3    C4 9076   3.479   0.630   9.282  0.3391 -0.6096 -0.4368
  609TMC3    C5 9077   3.593   0.623   9.210  0.1825 -1.2407  0.6626
  609TMC3    C6 9078   3.589   0.629   9.068 -0.0882 -0.3713  0.0836
  609TMC3     C 9079   3.247   0.677   9.310  0.1494 -0.1636 -0.0753
  609TMC3     O 9080   3.270   0.668   9.431  0.0693  0.0284  0.3538
  609TMC3     H 9081   3.253   0.648   9.025  0.7166  0.6510  0.8637
  609TMC3    H1 9082   3.488   0.635   9.390  1.0131 -1.0963 -0.4697
  609TMC3    H2 9083   3.676   0.650   9.006  0.2709 -2.9129 -0.2635
  609TMC3    C7 9084   3.723   0.604   9.286  0.2257  0.2443 -0.6120
  609TMC3    C8 9085   3.456   0.614   8.864 -0.3784  0.0005  0.1641
  609TMC3    O1 9086   3.719   0.604   9.411 -0.2682  0.3502  0.1790
  609TMC3    O2 9087   3.561   0.588   8.814  0.7331  0.3243 -0.4043
  610TMC3    C1 9088   1.339   0.878  12.306  0.2946  0.4251 -0.4010
  610TMC3    C2 9089   1.332   0.999  12.241 -0.1065  0.4032 -0.3212
  610TMC3    C3 9090   1.445   1.072  12.224 -0.0468 -0.5503 -0.0340
  610TMC3    C4 9091   1.463   0.830  12.362  0.5239 -0.7281 -0.1649
  610TMC3    C5 9092   1.565   0.920  12.362  0.9013 -0.7889 -0.2125
  610TMC3    C6 9093   1.564   1.044  12.287 -0.9909 -0.2679 -0.4116
  610TMC3     C 9094   1.212   0.803  12.329  0.2548  0.7952 -0.0758
  610TMC3     O 9095   1.111   0.874  12.339 -0.1112  0.1385  0.2645
  610TMC3     H 9096   1.237   1.043  12.213 -0.4920  0.2919  0.8307
  610TMC3    H1 9097   1.487   0.743  12.422 -0.8864 -0.7661  0.3431
  610TMC3    H2 9098   1.654   1.097  12.258 -0.5602  0.6704  2.6863
  610TMC3    C7 9099   1.691   0.879  12.418 -0.4961 -0.2904 -0.2101
  610TMC3    C8 9100   1.429   1.201  12.158  0.4850 -0.2720 -0.6404
  610TMC3    O1 9101   1.712   0.760  12.394 -0.4480  0.5563  0.1149
  610TMC3    O2 9102   1.318   1.244  12.143  0.0978 -0.2499 -0.2448
  611MPD2     C 9103   4.706   1.483   9.879 -0.0348  0.5892 -0.5972
  611MPD2    C1 9104   0.012   1.439  10.004 -0.4352 -0.4442 -0.0888
  611MPD2    C2 9105   0.142   1.467  10.039  0.2307 -0.4056 -0.3081
  611MPD2    C3 9106   0.229   1.524   9.946 -0.5686 -0.6222  0.1061
  611MPD2    C4 9107   0.179   1.567   9.824  0.0561  0.2284 -0.7129
  611MPD2    C5 9108   0.051   1.544   9.792  0.2070 -0.0487  0.1008
  611MPD2     H 9109   0.168   1.445  10.142 -0.4920  1.6618  0.3243
  611MPD2    H1 9110   0.244   1.631   9.765  0.0394  1.1611  0.2916
  611MPD2    H2 9111   4.607   1.451   9.850  0.0961  2.3050 -2.8870
  611MPD2    H3 9112   0.009   1.576   9.698  1.3617  1.4086  0.0788
  611MPD2     N 9113   0.362   1.570   9.983 -0.4637  0.2350  0.2812
  611MPD2    H5 9114   0.412   1.630   9.919 -3.0796  0.6512 -1.3572
  611MPD2    N1 9115   4.655   1.385  10.092 -0.6567  0.5771 -0.6120
  611MPD2    H7 9116   4.560   1.395  10.059 -1.2044  0.7504  1.0672
  612TMC3    C1 9117   0.547   1.620  10.127 -0.0117 -0.1999 -0.6291
  612TMC3    C2 9118   0.582   1.645  10.261  0.2451  0.2991 -0.5948
  612TMC3    C3 9119   0.710   1.699  10.282  0.0944  0.4884 -0.7834
  612TMC3    C4 9120   0.631   1.632  10.026  0.0443 -0.2409 -0.2674
  612TMC3    C5 9121   0.758   1.668  10.060  0.7990  0.4451 -0.5683
  612TMC3    C6 9122   0.798   1.710  10.182  0.4336  0.1710 -0.4633
  612TMC3     C 9123   0.426   1.544  10.103 -0.1530 -0.2909  0.4837
  612TMC3     O 9124   0.404   1.465  10.193 -0.2054 -0.7705  0.4841
  612TMC3     H 9125   0.520   1.622  10.347  0.9842 -0.1699 -0.1865
  612TMC3    H1 9126   0.613   1.594   9.926 -1.2811 -1.3480  0.3950
  612TMC3    H2 9127   0.891   1.763  10.199  0.9520 -0.6661 -0.7187
  612TMC3    C7 9128   0.846   1.697   9.952  0.2001 -0.2789 -0.5711
  612TMC3    C8 9129   0.742   1.733  10.424  0.3369  0.6461 -0.1232
  612TMC3    O1 9130   0.789   1.723   9.849 -0.2015 -0.1755  0.9379
  612TMC3    O2 9131   0.648   1.759  10.496 -0.9813  0.3729  0.0521
  613MPD2     C 9132   4.279   3.271  16.450 -0.7409  0.1145  0.6699
  613MPD2    C1 9133   4.266   3.339  16.332  1.1120 -0.5010 -0.0959
  613MPD2    C2 9134   4.162   3.308  16.250 -0.1422 -0.5005  0.3209
  613MPD2    C3 9135   4.088   3.190  16.266 -0.4447  0.9985  0.2440
  613MPD2    C4 9136   4.110   3.113  16.378  0.0115  0.0808 -0.0828
  613MPD2    C5 9137   4.198   3.157  16.475 -0.6863  0.1254  0.0528
  613MPD2     H 9138   4.144   3.367  16.161  1.3420 -0.5987 -0.0398
  613MPD2    H1 9139   4.057   3.020  16.394 -0.8331 -0.2483 -4.8463
  613MPD2    H2 9140   4.347   3.308  16.525  2.1235 -2.9185 -0.3890
  613MPD2    H3 9141   4.209   3.096  16.564 -0.3719  2.4478  1.5869
  613MPD2     N 9142   4.009   3.126  16.160  0.0283  0.5786 -0.2703
  613MPD2    H5 9143   3.985   3.028  16.165 -3.6061  1.4473 -0.5921
  613MPD2    N1 9144   4.357   3.445  16.321  0.5109  0.1601 -0.1903
  613MPD2    H7 9145   4.418   3.456  16.402 -0.0037 -0.4908  0.2873
  614TMC3    C1 9146   4.484   3.600  16.211  0.5340  0.1268 -0.2851
  614TMC3    C2 9147   4.581   3.508  16.182  0.1994 -0.6530  0.2194
  614TMC3    C3 9148   4.662   3.524  16.070 -0.6362  0.5683 -0.1065
  614TMC3    C4 9149   4.475   3.715  16.140 -0.2432  0.5682 -1.1572
  614TMC3    C5 9150   4.555   3.728  16.028 -0.4086 -0.7882 -0.2152
  614TMC3    C6 9151   4.649   3.634  15.991  0.0657  0.7558 -0.1414
  614TMC3     C 9152   4.349   3.542  16.231 -0.3537 -0.0824  0.7660
  614TMC3     O 9153   4.249   3.572  16.168  0.5387 -0.1081  0.0872
  614TMC3     H 9154   4.603   3.421  16.242 -0.7458  0.6829  2.4886
  614TMC3    H1 9155   4.388   3.776  16.163  1.5441  2.0177  1.6534
  614TMC3    H2 9156   4.713   3.655  15.906  1.7032  1.2961  1.2323
  614TMC3    C7 9157   4.494   3.824  15.929 -0.0077 -0.2620 -0.0466
  614TMC3    C8 9158   4.658   3.401  15.987  0.1410 -0.3758  0.2897
  614TMC3    O1 9159   4.459   3.930  15.972 -0.0452  0.3178 -0.4249
  614TMC3    O2 9160   4.617   3.308  16.053 -0.7508 -0.5520  0.0182
  615MPD2     C 9161   4.192   4.596  15.571  0.1411  0.4681  0.2310
  615MPD2    C1 9162   4.079   4.679  15.593 -0.0859 -0.1617  0.4734
  615MPD2    C2 9163   4.011   4.719  15.484  0.5232 -0.4279  0.3973
  615MPD2    C3 9164   4.057   4.682  15.357 -1.1331  1.1015  0.1778
  615MPD2    C4 9165   4.177   4.609  15.342 -0.8868 -0.2050 -0.2236
  615MPD2    C5 9166   4.238   4.563  15.447 -1.1367 -0.6530  0.0457
  615MPD2     H 9167   3.929   0.046  15.503  0.9940 -0.4146  2.3406
  615MPD2    H1 9168   4.217   4.585  15.244 -2.2244 -0.2809 -0.7466
  615MPD2    H2 9169   4.248   4.561  15.657  1.5623  1.4931 -0.2869
  615MPD2    H3 9170   4.329   4.504  15.442 -0.2732  0.8358 -1.9985
  615MPD2     N 9171   4.011   0.005  15.239 -0.3916 -0.4973 -0.4591
  615MPD2    H5 9172   4.068   4.734  15.156 -1.3429 -0.7730 -1.0848
  615MPD2    N1 9173   4.050   0.007  15.715  0.7108  1.0954  0.1051
  615MPD2    H7 9174   3.968   0.067  15.716 -0.7870 -0.9561  0.6505
  616TMC3    C1 9175   4.106   0.106  15.922  0.4242  0.1703  0.1472
  616TMC3    C2 9176   4.172   0.083  16.038  0.3381  0.0761  0.6002
  616TMC3    C3 9177   4.175   0.189  16.125  0.5079  0.0709  0.7101
  616TMC3    C4 9178   4.047   0.222  15.889  0.4021  0.0880 -0.2613
  616TMC3    C5 9179   4.064   0.325  15.972  0.6629  0.4138  0.0048
  616TMC3    C6 9180   4.126   0.312  16.093 -0.1085 -0.2245  0.2594
  616TMC3     C 9181   4.136   0.008  15.822 -0.9278  0.1328  0.3210
  616TMC3     O 9182   4.239   4.688  15.844  0.0259 -0.0412  0.0067
  616TMC3     H 9183   4.207   4.724  16.062  0.9396  0.2596  0.4880
  616TMC3    H1 9184   4.001   0.231  15.791 -1.7001  0.7993  0.7830
  616TMC3    H2 9185   4.123   0.388  16.170 -1.8030 -1.1028  1.0475
  616TMC3    C7 9186   4.041   0.458  15.913  0.2456  0.4884  0.2915
  616TMC3    C8 9187   4.289   0.198  16.216  0.5022  0.0357 -0.0944
  616TMC3    O1 9188   3.993   0.450  15.800 -0.2587 -0.8368  0.4333
  616TMC3    O2 9189   4.323   0.313  16.248 -0.2515  0.3264  0.6626
  617MPD2     C 9190   2.340   2.771  13.386  0.3459 -0.1555 -1.0632
  617MPD2    C1 9191   2.288   2.835  13.495 -0.2495  0.0971 -0.1253
  617MPD2    C2 9192   2.157   2.800  13.542  0.3122 -0.5902 -0.8981
  617MPD2    C3 9193   2.080   2.705  13.469 -0.4401  0.5884 -0.5672
  617MPD2    C4 9194   2.128   2.654  13.351  0.0854  0.1261  0.4366
  617MPD2    C5 9195   2.262   2.684  13.326  0.4182 -0.2308  0.6234
  617MPD2     H 9196   2.117   2.847  13.631 -1.5813  1.0497 -2.6230
  617MPD2    H1 9197   2.071   2.587  13.288  1.7014 -2.2688  1.5329
  617MPD2    H2 9198   2.440   2.792  13.350  1.4752  0.6873  2.6124
  617MPD2    H3 9199   2.297   2.626  13.241 -0.4488 -0.4364  0.4061
  617MPD2     N 9200   1.946   2.670  13.505  0.4965  0.1855 -0.5442
  617MPD2    H5 9201   1.884   2.629  13.436  0.4768  0.7865 -0.8790
  617MPD2    N1 9202   2.376   2.920  13.560 -0.0876 -0.6588 -0.0412
  617MPD2    H7 9203   2.468   2.939  13.520  0.9345 -1.7926  1.7913
  618TMC3    C1 9204   2.462   3.068  13.728 -0.2342 -0.0023 -0.2520
  618TMC3    C2 9205   2.474   3.074  13.865 -0.0973  0.5207  0.5326
  618TMC3    C3 9206   2.591   3.104  13.920  0.1091 -0.4566 -0.0995
  618TMC3    C4 9207   2.564   3.076  13.644 -1.0086  0.0595  0.0377
  618TMC3    C5 9208   2.687   3.101  13.701  0.0685 -0.0428  0.3194
  618TMC3    C6 9209   2.694   3.134  13.832 -0.4288  0.0054 -0.6954
  618TMC3     C 9210   2.341   3.002  13.670 -0.6446 -0.1201 -0.5956
  618TMC3     O 9211   2.236   3.019  13.731  0.0150 -0.4937  0.4192
  618TMC3     H 9212   2.397   3.021  13.920  2.6113 -0.5047  3.3712
  618TMC3    H1 9213   2.563   3.078  13.536  0.7354  0.0284  0.0229
  618TMC3    H2 9214   2.794   3.152  13.870  0.3707  0.1283 -2.8674
  618TMC3    C7 9215   2.798   3.035  13.635  0.7814  0.2007  0.1231
  618TMC3    C8 9216   2.617   3.022  14.037  0.3691  0.6792 -0.0255
  618TMC3    O1 9217   2.782   3.023  13.512 -0.2588 -0.0263  0.1993
  618TMC3    O2 9218   2.655   3.080  14.135 -0.3185 -0.1965  0.0765
  619MPD2     C 9219   3.327   4.175  13.461  0.3998  0.4611 -0.0859
  619MPD2    C1 9220   3.245   4.281  13.414  0.0738  0.3048  0.7591
  619MPD2    C2 9221   3.109   4.260  13.428 -0.6288 -0.0741 -0.2561
  619MPD2    C3 9222   3.050   4.146  13.482 -0.5666 -1.0992  1.2039
  619MPD2    C4 9223   3.129   4.039  13.514 -0.2550  0.5615 -0.0009
  619MPD2    C5 9224   3.265   4.058  13.499 -0.0731 -0.1820 -0.1964
  619MPD2     H 9225   3.043   4.328  13.375 -0.2068 -0.1554 -0.8860
  619MPD2    H1 9226   3.087   3.947  13.554 -0.4681  0.0010 -1.4889
  619MPD2    H2 9227   3.436   4.177  13.457  0.4916 -1.8144  1.5535
  619MPD2    H3 9228   3.326   3.969  13.510  0.3124  0.0718 -0.2729
  619MPD2     N 9229   2.912   4.136  13.514 -0.4561  0.0167  0.2793
  619MPD2    H5 9230   2.882   4.051  13.561  2.9115 -0.0118  2.3566
  619MPD2    N1 9231   3.295   4.398  13.351 -0.5107  0.0657  0.5582
  619MPD2    H7 9232   3.224   4.459  13.312 -3.6452 -3.1768  1.1586
  620TMC3    C1 9233   3.428   4.550  13.234  0.4354  0.7365 -0.6954
  620TMC3    C2 9234   3.326   4.582  13.147  0.8469  0.1014  0.6554
  620TMC3    C3 9235   3.328   4.705  13.093 -0.1486  0.9500 -0.5348
  620TMC3    C4 9236   3.527   4.640  13.267  0.5352 -0.0187  0.0066
  620TMC3    C5 9237   3.518   0.021  13.210 -0.8737  0.0333 -0.5684
  620TMC3    C6 9238   3.416   0.061  13.126  0.6088  0.1566 -0.0954
  620TMC3     C 9239   3.421   4.436  13.321  0.1523  0.1865  0.3017
  620TMC3     O 9240   3.527   4.380  13.356  0.1015 -0.0913  0.2198
  620TMC3     H 9241   3.259   4.505  13.112 -0.4940  1.0417  1.1326
  620TMC3    H1 9242   3.620   4.598  13.304  0.2873 -0.4650  0.1214
  620TMC3    H2 9243   3.402   0.158  13.081  0.1090 -0.5069 -1.3784
  620TMC3    C7 9244   3.585   0.129  13.277  0.5586  0.1426  0.6936
  620TMC3    C8 9245   3.249   4.740  12.970 -0.2267 -0.2715 -0.4180
  620TMC3    O1 9246   3.545   0.242  13.245  0.3150 -0.0476 -0.6312
  620TMC3    O2 9247   3.315   0.058  12.886 -0.1111 -0.5678 -0.0065
  621MPD2     C 9248   2.953   0.391  10.252 -0.2144 -0.0220  0.1163
  621MPD2    C1 9249   3.043   0.283  10.226  0.3386 -0.4152  0.0228
  621MPD2    C2 9250   3.138   0.303  10.129  0.8066 -0.5548  0.6244
  621MPD2    C3 9251   3.151   0.430  10.077  0.1975  0.3257  0.1646
  621MPD2    C4 9252   3.066   0.532  10.107  0.6902  0.7673  0.2551
  621MPD2    C5 9253   2.969   0.512  10.199  0.0168  0.0377 -0.4695
  621MPD2     H 9254   3.208   0.226  10.098  0.8375 -0.4461  0.4239
  621MPD2    H1 9255   3.091   0.634  10.080  1.5658 -0.3233 -2.9754
  621MPD2    H2 9256   2.881   0.383  10.334 -1.4224  1.1910 -0.8299
  621MPD2    H3 9257   2.900   0.594  10.215 -1.2849 -1.1598 -0.0492
  621MPD2     N 9258   3.253   0.448   9.987  0.2970  0.1931 -0.8198
  621MPD2    H5 9259   3.308   0.364   9.974 -1.3276 -1.3161  2.0620
  621MPD2    N1 9260   3.041   0.162  10.299 -0.3225 -0.0446 -0.7051
  621MPD2    H7 9261   3.101   0.087  10.264  0.9565  1.1114 -0.9823
  622TMC3    C1 9262   2.982   0.007  10.471 -0.2468 -0.5176 -0.5601
  622TMC3    C2 9263   2.959   4.740  10.606 -0.3822 -0.8310 -0.1879
  622TMC3    C3 9264   2.981   4.614  10.658 -0.9252  0.3208  0.2281
  622TMC3    C4 9265   3.018   4.646  10.383 -0.2294 -0.6546 -0.4689
  622TMC3    C5 9266   3.043   4.528  10.445 -0.2101 -0.0001 -0.0706
  622TMC3    C6 9267   3.021   4.510  10.582 -0.4468 -0.2878  0.1938
  622TMC3     C 9268   2.981   0.146  10.423 -0.0009 -0.3999  0.1912
  622TMC3     O 9269   2.919   0.228  10.488 -0.7015  0.5819  0.0243
  622TMC3     H 9270   2.931   0.085  10.666  1.2977 -1.3199  1.3098
  622TMC3    H1 9271   3.023   4.668  10.277 -0.0556 -0.6888 -0.4674
  622TMC3    H2 9272   3.033   4.419  10.641 -0.9274 -0.5161 -0.0555
  622TMC3    C7 9273   3.029   4.407  10.358  0.5389 -0.1956 -0.2442
  622TMC3    C8 9274   2.998   4.598  10.799 -0.2838  0.8991 -0.0788
  622TMC3    O1 9275   2.995   4.305  10.421  0.1448 -0.0021  0.1553
  622TMC3    O2 9276   2.970   4.495  10.856 -0.0451  0.1037  0.1125
  623MPD2     C 9277   2.676   0.390  15.356 -0.5770  0.5920  0.4798
  623MPD2    C1 9278   2.588   0.352  15.449  0.1584  0.4527 -0.4267
  623MPD2    C2 9279   2.633   0.340  15.579  0.2683  0.7170  0.2292
  623MPD2    C3 9280   2.759   0.373  15.620 -0.3187 -0.3487  0.5492
  623MPD2    C4 9281   2.851   0.412  15.527  0.0345  0.2777 -0.3260
  623MPD2    C5 9282   2.805   0.428  15.401 -0.2581 -0.1054  0.1677
  623MPD2     H 9283   2.562   0.312  15.656 -1.0605 -0.5643 -1.4482
  623MPD2    H1 9284   2.956   0.431  15.547  0.2064 -0.3046 -0.6791
  623MPD2    H2 9285   2.662   0.391  15.249  0.4308 -0.7548  0.3413
  623MPD2    H3 9286   2.878   0.438  15.322 -0.7078 -0.3369 -0.2757
  623MPD2     N 9287   2.789   0.368  15.761 -0.8450  0.3197  0.2210
  623MPD2    H5 9288   2.714   0.340  15.824  1.1462  1.6445  3.1903
  623MPD2    N1 9289   2.459   0.319  15.415 -0.0658  0.1905  0.1327
  623MPD2    H7 9290   2.408   0.296  15.500  0.3492  1.9180  0.8410
  624TMC3    C1 9291   3.040   0.406  16.168 -0.1821  0.0019 -0.7859
  624TMC3    C2 9292   2.930   0.378  16.243 -0.6367 -0.5079 -0.0446
  624TMC3    C3 9293   2.809   0.360  16.175 -0.4750 -0.6073 -0.0107
  624TMC3    C4 9294   3.038   0.412  16.033  0.3626 -0.2613 -0.1753
  624TMC3    C5 9295   2.914   0.397  15.967  0.5284 -0.0363  0.9402
  624TMC3    C6 9296   2.800   0.369  16.035 -0.2243 -0.0939  0.5752
  624TMC3     C 9297   3.165   0.365  16.234  0.0296 -0.4054 -0.6771
  624TMC3     O 9298   3.271   0.404  16.195 -0.1588 -0.3718 -0.9538
  624TMC3     H 9299   2.943   0.383  16.350  0.4078  1.1042 -0.2346
  624TMC3    H1 9300   3.128   0.447  15.983  0.1147  0.4374 -0.1346
  624TMC3    H2 9301   2.700   0.379  15.994 -0.3585  2.1861  1.4350
  624TMC3    C7 9302   2.907   0.410  15.816 -0.4291 -0.6216 -0.3820
  624TMC3    C8 9303   2.690   0.294  16.234  0.2085 -0.2979 -0.3281
  624TMC3    O1 9304   2.998   0.472  15.758 -0.2527 -0.0321 -0.3939
  624TMC3    O2 9305   2.632   0.234  16.146 -0.1524 -0.0664  0.4356
  625MPD2     C 9306   3.063   2.277   1.036 -0.1338 -0.4697 -0.4543
  625MPD2    C1 9307   3.151   2.357   0.969  0.3516  0.4466  0.6756
  625MPD2    C2 9308   3.273   2.310   0.927  0.1397  0.7069 -0.0465
  625MPD2    C3 9309   3.306   2.177   0.949  0.0584  0.1621  0.4999
  625MPD2    C4 9310   3.213   2.093   1.012  0.4697 -0.2179 -0.1174
  625MPD2    C5 9311   3.093   2.141   1.050  0.7712 -0.5029  0.6715
  625MPD2     H 9312   3.343   2.382   0.885  1.3731 -1.2666 -1.4126
  625MPD2    H1 9313   3.247   1.996   1.044  0.1371  0.0035  0.9073
  625MPD2    H2 9314   2.969   2.315   1.075 -0.1244 -0.3705 -0.5281
  625MPD2    H3 9315   3.027   2.064   1.090 -0.3717 -0.1770 -0.5758
  625MPD2     N 9316   3.432   2.136   0.901  0.2818 -0.5737  0.1269
  625MPD2    H5 9317   3.488   2.213   0.866 -0.9131 -1.1148 -2.9134
  625MPD2    N1 9318   3.119   2.492   0.940 -0.0083 -0.1729 -0.7055
  625MPD2    H7 9319   3.191   2.548   0.894 -0.6256 -1.0877 -2.8216
  626TMC3    C1 9320   2.995   2.674   0.873 -0.1786  0.0381 -0.9260
  626TMC3    C2 9321   2.941   2.672   0.748  0.5566  0.4991  0.0869
  626TMC3    C3 9322   2.986   2.758   0.652  0.5426 -0.2067  0.0178
  626TMC3    C4 9323   3.092   2.765   0.917 -0.1734  0.7559 -0.7898
  626TMC3    C5 9324   3.135   2.842   0.813 -1.3079  0.7937  0.1627
  626TMC3    C6 9325   3.102   2.835   0.678  0.2014 -0.0497  0.1450
  626TMC3     C 9326   2.989   2.545   0.933 -0.1394  0.3544  0.4261
  626TMC3     O 9327   2.884   2.493   0.934 -0.3754  0.0851  0.1753
  626TMC3     H 9328   2.867   2.596   0.725  1.2463  0.3470 -1.5781
  626TMC3    H1 9329   3.127   2.776   1.019 -3.3881  2.8207  0.0658
  626TMC3    H2 9330   3.157   2.882   0.597  0.0267  1.0734  0.6830
  626TMC3    C7 9331   3.246   2.932   0.836 -0.2142 -0.2296  0.5157
  626TMC3    C8 9332   2.959   2.736   0.511  0.0256  0.2870 -0.4234
  626TMC3    O1 9333   3.329   2.932   0.745 -0.1611 -0.4458 -0.2317
  626TMC3    O2 9334   3.060   2.730   0.441 -0.2120  0.7066 -0.0060
  627MPD2     C 9335   1.125   1.809  14.034 -0.3278 -0.2204 -0.7004
  627MPD2    C1 9336   1.205   1.793  14.148  0.0081 -0.2690 -0.2269
  627MPD2    C2 9337   1.162   1.687  14.232 -0.4946  0.5656 -0.1003
  627MPD2    C3 9338   1.073   1.595  14.191 -0.3263  0.4885  0.4744
  627MPD2    C4 9339   1.000   1.612  14.077  0.3368 -0.6826 -0.1851
  627MPD2    C5 9340   1.026   1.720  13.997 -0.1846 -0.2156 -0.3819
  627MPD2     H 9341   1.206   1.679  14.331 -1.5039 -1.7234  0.1667
  627MPD2    H1 9342   0.927   1.540  14.043  0.3693  0.2218 -2.1591
  627MPD2    H2 9343   1.147   1.885  13.959 -1.1535  1.1070  0.4041
  627MPD2    H3 9344   0.970   1.737  13.906 -1.3598 -0.7581  0.2424
  627MPD2     N 9345   1.052   1.485  14.280 -0.2267 -0.4682  0.1086
  627MPD2    H5 9346   1.115   1.492  14.359 -1.1006 -0.7488  0.8314
  627MPD2    N1 9347   1.320   1.878  14.174  0.5082 -0.0986  0.1932
  627MPD2    H7 9348   1.327   1.968  14.127 -0.7820  0.3057  0.7592
  628TMC3    C1 9349   1.520   1.920  14.311 -1.2132  0.0423  0.3800
  628TMC3    C2 9350   1.618   1.859  14.379 -0.3582  0.0242 -0.4636
  628TMC3    C3 9351   1.683   1.927  14.479  0.1869 -0.0508 -0.6285
  628TMC3    C4 9352   1.483   2.051  14.337 -0.1404  0.3792 -0.2750
  628TMC3    C5 9353   1.551   2.120  14.433  0.0588  0.8817 -0.6768
  628TMC3    C6 9354   1.658   2.062  14.502  0.5255 -0.2894 -0.8803
  628TMC3     C 9355   1.424   1.825  14.251 -0.4214 -0.0289  0.0298
  628TMC3     O 9356   1.433   1.712  14.296 -0.5762 -1.0914  0.2738
  628TMC3     H 9357   1.628   1.753  14.363  2.0329  0.4784 -2.0088
  628TMC3    H1 9358   1.395   2.085  14.282 -1.5812 -1.2676  0.9987
  628TMC3    H2 9359   1.721   2.112  14.574  1.3144  1.9402 -3.1189
  628TMC3    C7 9360   1.579   2.262  14.429  0.3733  0.1183  0.0659
  628TMC3    C8 9361   1.765   1.849  14.579 -0.1867  0.1907 -0.8933
  628TMC3    O1 9362   1.657   2.309  14.512 -0.6303 -0.5386  0.6802
  628TMC3    O2 9363   1.803   1.907  14.679  0.7259  0.1246  0.1031
  629MPD2     C 9364   4.698   0.011  16.457 -0.7444 -0.1075  0.3160
  629MPD2    C1 9365   4.673   0.142  16.426  0.1147  0.4695  0.3820
  629MPD2    C2 9366   4.554   0.170  16.354 -0.4223 -0.7717  0.0981
  629MPD2    C3 9367   4.461   0.065  16.332  0.4121 -0.2793 -0.1358
  629MPD2    C4 9368   4.494   4.680  16.367 -0.6590  0.4387  0.6013
  629MPD2    C5 9369   4.609   4.646  16.428  0.3656  0.2999  0.0002
  629MPD2     H 9370   4.537   0.268  16.311  0.0468  0.0096  1.6812
  629MPD2    H1 9371   4.421   4.603  16.345 -0.1014 -0.3680  1.5545
  629MPD2    H2 9372   0.052   4.716  16.495 -0.4034  0.8237  0.3421
  629MPD2    H3 9373   4.631   4.543  16.455 -0.2261  0.3976  0.8681
  629MPD2     N 9374   4.340   0.081  16.259 -0.2447 -0.2565 -0.0920
  629MPD2    H5 9375   4.287   4.738  16.237 -0.2711  0.3350 -2.2718
  629MPD2    N1 9376   0.026   0.238  16.464  0.5165 -0.3458  0.3044
  629MPD2    H7 9377   0.108   0.204  16.513  1.4399  0.7644 -0.4693
  630TMC3    C1 9378   0.147   0.441  16.454 -0.0297  0.5511 -0.0324
  630TMC3    C2 9379   0.184   0.535  16.360  0.1023  0.8781  0.2788
  630TMC3    C3 9380   0.314   0.574  16.360  0.4010 -0.6101 -0.2163
  630TMC3    C4 9381   0.236   0.393  16.548  0.0041 -0.2018 -0.3257
  630TMC3    C5 9382   0.367   0.440  16.547 -0.0022 -0.2181 -0.1452
  630TMC3    C6 9383   0.406   0.532  16.453  0.0655  0.2731 -0.4070
  630TMC3     C 9384   0.025   0.371  16.422 -0.2513 -0.5324 -0.1099
  630TMC3     O 9385   4.686   0.419  16.338  0.2404 -0.4686  0.4226
  630TMC3     H 9386   0.119   0.564  16.277  1.4719 -2.0143 -1.8213
  630TMC3    H1 9387   0.203   0.328  16.628 -1.0050  2.1521  1.1625
  630TMC3    H2 9388   0.506   0.574  16.463  0.1395  0.4768 -1.9562
  630TMC3    C7 9389   0.464   0.395  16.651  0.5118 -0.0686  0.4085
  630TMC3    C8 9390   0.369   0.652  16.252 -0.3480 -0.8440  0.1635
  630TMC3    O1 9391   0.424   0.375  16.764 -0.0937 -0.1640 -0.2607
  630TMC3    O2 9392   0.485   0.683  16.252  1.0576 -0.9694 -0.0566
  631MPD2     C 9393   3.137   0.473  14.960  0.2169  0.1828  0.1395
  631MPD2    C1 9394   3.246   0.547  14.924 -0.7944  0.5768 -0.2289
  631MPD2    C2 9395   3.371   0.496  14.904  0.0222  0.5636  0.1316
  631MPD2    C3 9396   3.389   0.361  14.925 -0.2718 -0.0880  0.2495
  631MPD2    C4 9397   3.280   0.286  14.962 -0.5354  0.3649  0.3784
  631MPD2    C5 9398   3.152   0.335  14.973 -0.0442 -0.6211 -0.5069
  631MPD2     H 9399   3.461   0.550  14.876  0.3060 -0.5956 -1.1994
  631MPD2    H1 9400   3.280   0.177  14.957 -2.0145  0.4312 -1.3107
  631MPD2    H2 9401   3.033   0.505  14.959  0.7520  1.8249 -1.4682
  631MPD2    H3 9402   3.065   0.280  15.007 -0.4149 -0.3186 -0.9531
  631MPD2     N 9403   3.514   0.306  14.900 -0.8500  0.4045  0.7416
  631MPD2    H5 9404   3.585   0.376  14.879  0.7717 -0.8624  1.9912
  631MPD2    N1 9405   3.218   0.685  14.898 -0.0005 -0.3592  0.6711
  631MPD2    H7 9406   3.126   0.726  14.913 -0.2429 -0.3905 -0.7156
  632TMC3    C1 9407   3.256   0.891  14.799  0.6297 -0.8489  0.0920
  632TMC3    C2 9408   3.173   0.971  14.872 -0.6016  0.5361 -0.0042
  632TMC3    C3 9409   3.112   1.076  14.810 -0.0807  0.7102  0.5960
  632TMC3    C4 9410   3.291   0.925  14.676  0.2143 -0.4399 -0.0897
  632TMC3    C5 9411   3.235   1.037  14.619 -0.2710 -0.2478 -0.0235
  632TMC3    C6 9412   3.139   1.116  14.684 -0.5315 -0.1657 -0.0492
  632TMC3     C 9413   3.315   0.772  14.854  0.0362 -0.1792 -1.0325
  632TMC3     O 9414   3.430   0.755  14.814 -0.6736 -0.2378  0.1484
  632TMC3     H 9415   3.172   0.953  14.979  0.4482  2.3946  0.2977
  632TMC3    H1 9416   3.362   0.864  14.622 -0.5929 -0.5376 -1.0505
  632TMC3    H2 9417   3.075   1.190  14.637  0.4659  2.1312  2.1651
  632TMC3    C7 9418   3.247   1.052  14.478 -0.2734 -0.0525  0.7750
  632TMC3    C8 9419   3.007   1.132  14.894 -0.1380 -0.7444  0.7603
  632TMC3    O1 9420   3.337   0.995  14.421  0.4500 -0.0999 -0.3709
  632TMC3    O2 9421   2.979   1.080  15.000 -0.9786  0.1286 -0.0407
  633MPD2     C 9422   2.659   3.799  17.218 -0.1616  0.3184  0.5074
  633MPD2    C1 9423   2.663   3.725  17.100 -1.3549  0.6567 -0.0386
  633MPD2    C2 9424   2.765   3.628  17.087 -0.3672  0.7204  0.3059
  633MPD2    C3 9425   2.848   3.602  17.195 -0.4223 -0.0013 -0.4581
  633MPD2    C4 9426   2.834   3.675  17.310 -0.5374 -0.2914 -0.2834
  633MPD2    C5 9427   2.741   3.772  17.317  0.6102 -0.7270 -0.8999
  633MPD2     H 9428   2.770   3.556  17.006  2.6177  0.7837  0.4369
  633MPD2    H1 9429   2.895   3.664  17.399  0.3266  1.1777 -0.7013
  633MPD2    H2 9430   2.587   3.878  17.237 -0.3509  0.4823 -0.9157
  633MPD2    H3 9431   2.731   3.825  17.411 -0.6593 -0.5607 -1.1359
  633MPD2     N 9432   2.947   3.504  17.195  0.2131 -0.9077  0.0394
  633MPD2    H5 9433   2.999   3.487  17.281 -1.0208  0.2457  1.0128
  633MPD2    N1 9434   2.579   3.752  16.989  0.2283  0.3072 -0.1124
  633MPD2    H7 9435   2.592   3.687  16.911  0.3435 -0.1506  0.2863
  634TMC3    C1 9436   2.443   3.858  16.850 -0.3567  0.1051  0.3262
  634TMC3    C2 9437   2.413   3.731  16.811 -0.1533  0.3102  0.1743
  634TMC3    C3 9438   2.425   3.697  16.680 -0.5329 -0.6106  0.1714
  634TMC3    C4 9439   2.494   3.947  16.756  0.0987 -0.3773  0.1884
  634TMC3    C5 9440   2.521   3.911  16.628 -0.3244 -0.0068  0.1659
  634TMC3    C6 9441   2.476   3.787  16.585  0.3191  0.8473  0.7559
  634TMC3     C 9442   2.506   3.866  16.974 -0.3679  0.7253 -0.1655
  634TMC3     O 9443   2.506   3.969  17.039  0.1324 -0.0214  0.2654
  634TMC3     H 9444   2.374   3.651  16.874 -1.9284  0.8071 -0.3069
  634TMC3    H1 9445   2.517   4.048  16.788 -0.8576 -0.2350  0.4274
  634TMC3    H2 9446   2.496   3.751  16.485 -1.2005 -0.5967  0.9731
  634TMC3    C7 9447   2.596   3.994  16.538 -0.0970 -0.1719  0.3239
  634TMC3    C8 9448   2.434   3.556  16.647  0.1402 -0.2162 -0.5872
  634TMC3    O1 9449   2.611   3.951  16.423  0.0267 -0.6359  0.1831
  634TMC3    O2 9450   2.340   3.489  16.687 -0.4165 -0.4090 -0.7080
  635TMC3    C1 9451   3.382   0.495   0.535 -0.0569 -0.3142 -0.0294
  635TMC3    C2 9452   3.368   0.365   0.585 -0.1285  0.4462  0.5800
  635TMC3    C3 9453   3.325   0.266   0.503 -0.0934  0.5920 -0.0973
  635TMC3    C4 9454   3.361   0.523   0.404  0.3455 -0.0797  0.3506
  635TMC3    C5 9455   3.321   0.420   0.323  0.1191 -0.9731 -0.3433
  635TMC3    C6 9456   3.297   0.297   0.372 -0.2119  0.2819  0.0264
  635TMC3     C 9457   3.408   0.612   0.617  0.2395  0.3724  0.3829
  635TMC3     O 9458   3.363   0.716   0.575 -0.2210 -0.2645 -0.1586
  635TMC3     H 9459   3.389   0.338   0.687 -0.5618 -0.5217  0.4168
  635TMC3    H1 9460   3.395   0.622   0.375 -2.9481  1.3989  1.6148
  635TMC3    H2 9461   3.278   0.215   0.304 -0.9046  0.8717 -0.4824
  635TMC3    C7 9462   3.335   0.440   0.179  0.1144 -0.3168 -0.1199
  635TMC3    C8 9463   3.318   0.133   0.556  0.4250  0.4373 -0.6258
  635TMC3    O1 9464   3.380   0.544   0.139 -0.1396  0.3751 -0.1579
  635TMC3    O2 9465   3.400   0.106   0.635 -0.0252 -0.2045  0.1885
  636MPD2     C 9466   4.068   3.789  15.708 -1.0873  0.2401 -0.3176
  636MPD2    C1 9467   4.059   3.726  15.836 -0.2048  0.1505  0.4417
  636MPD2    C2 9468   4.034   3.598  15.837 -0.2785  0.1309 -0.9970
  636MPD2    C3 9469   4.017   3.525  15.727  0.2738  0.9000  0.4811
  636MPD2    C4 9470   4.050   3.578  15.606  0.3184 -0.5388 -0.3919
  636MPD2    C5 9471   4.064   3.711  15.594  0.2070 -0.1555  0.2364
  636MPD2     H 9472   4.028   3.543  15.931  0.0395  0.8073 -0.5811
  636MPD2    H1 9473   4.053   3.528  15.510  0.0503 -0.9489 -0.1877
  636MPD2    H2 9474   4.092   3.894  15.694 -1.0843  0.4883  1.4904
  636MPD2    H3 9475   4.090   3.745  15.495 -1.2376  1.8997  0.5605
  636MPD2     N 9476   3.995   3.392  15.754  0.1801  1.0387  0.1714
  636MPD2    H5 9477   3.980   3.356  15.847  1.6279 -1.1217 -0.4327
  636MPD2    N1 9478   4.063   3.804  15.949  0.0666  0.4528 -0.3772
  636MPD2    H7 9479   4.055   3.741  16.028 -0.4901  0.5393 -0.3678
  637TMC3    C1 9480   3.965   3.169  15.706 -0.0892  0.3388 -0.1218
  637TMC3    C2 9481   3.896   3.156  15.832  0.6904  0.4002  0.4566
  637TMC3    C3 9482   3.965   3.096  15.929 -0.0997 -0.7845  1.0766
  637TMC3    C4 9483   4.088   3.113  15.684 -0.3873  0.5878 -0.2345
  637TMC3    C5 9484   4.145   3.039  15.782  1.0327  0.2963  0.2916
  637TMC3    C6 9485   4.081   3.026  15.900 -0.8865 -0.2132 -0.0349
  637TMC3     C 9486   3.968   3.306  15.650  0.0888  0.5132 -1.1154
  637TMC3     O 9487   3.986   3.311  15.529 -0.0161 -0.6768  0.0634
  637TMC3     H 9488   3.798   3.199  15.851  0.3909 -0.2894  0.5135
  637TMC3    H1 9489   4.136   3.128  15.588 -1.0944  0.0639 -0.6685
  637TMC3    H2 9490   4.137   2.970  15.975  0.5944 -2.0213 -2.4868
  637TMC3    C7 9491   4.285   3.058  15.804 -0.6924 -0.2814 -0.2076
  637TMC3    C8 9492   3.977   3.181  16.040  0.4101 -0.0221 -0.3813
  637TMC3    O1 9493   4.328   3.078  15.918  1.0826 -0.0332  0.2859
  637TMC3    O2 9494   3.970   3.300  16.010 -0.0268  0.0680  0.0287
  638MPD2     C 9495   3.849   2.601  14.862  0.3175  0.8578 -0.5117
  638MPD2    C1 9496   3.820   2.501  14.770 -0.1875  0.1225  0.7483
  638MPD2    C2 9497   3.778   2.374  14.815 -0.3995 -0.7295  0.3781
  638MPD2    C3 9498   3.769   2.355  14.954 -0.2854  0.1945 -0.3504
  638MPD2    C4 9499   3.788   2.460  15.042  0.4102  0.4214  0.1084
  638MPD2    C5 9500   3.822   2.589  14.991 -0.0320  0.5301 -0.2691
  638MPD2     H 9501   3.752   2.293  14.748 -3.4128 -0.0942  0.7553
  638MPD2    H1 9502   3.788   2.460  15.150  3.3559 -1.7028  0.1185
  638MPD2    H2 9503   3.887   2.696  14.826  2.1619 -0.1217 -1.1266
  638MPD2    H3 9504   3.832   2.676  15.055 -2.1424  0.8922 -0.4126
  638MPD2     N 9505   3.768   2.220  14.993  0.3062  0.0098  0.1441
  638MPD2    H5 9506   3.751   2.158  14.914  2.2629 -2.9791  2.0472
  638MPD2    N1 9507   3.841   2.527  14.633  0.4634  0.2560  0.2797
  638MPD2    H7 9508   3.913   2.598  14.627 -0.3693  1.2443  1.9646
  639TMC3    C1 9509   3.783   2.032  15.133  0.3021  0.1827 -0.5201
  639TMC3    C2 9510   3.710   1.945  15.050 -0.1813  1.4047  0.6974
  639TMC3    C3 9511   3.705   1.815  15.087 -0.2802 -0.6205 -0.4285
  639TMC3    C4 9512   3.854   1.977  15.235  0.0684 -0.1269 -0.0190
  639TMC3    C5 9513   3.838   1.851  15.272 -0.2781 -0.1008 -0.1567
  639TMC3    C6 9514   3.756   1.768  15.203 -0.2550  0.2909 -0.8244
  639TMC3     C 9515   3.797   2.175  15.117  0.8205  0.1882  0.3440
  639TMC3     O 9516   3.852   2.236  15.206  0.6106  0.2230  0.0581
  639TMC3     H 9517   3.665   1.980  14.958  2.2594  1.7060 -0.3858
  639TMC3    H1 9518   3.917   2.040  15.297  1.3259 -1.2880 -0.1069
  639TMC3    H2 9519   3.756   1.664  15.234  0.4686  0.4694 -0.2415
  639TMC3    C7 9520   3.962   1.789  15.319 -0.0843  0.2924  0.1552
  639TMC3    C8 9521   3.641   1.727  14.985  0.6833  0.1013 -0.4722
  639TMC3    O1 9522   3.952   1.676  15.368  0.1998  0.2478  0.1325
  639TMC3    O2 9523   3.652   1.766  14.867 -0.0977 -0.0178 -0.1955
  640MPD2     C 9524   3.478   2.031   9.560 -0.0822  0.3649  0.0293
  640MPD2    C1 9525   3.462   1.941   9.669 -0.7463 -0.7070  0.5624
  640MPD2    C2 9526   3.449   1.997   9.795 -0.2061  0.0544 -0.5474
  640MPD2    C3 9527   3.492   2.121   9.824 -0.2831 -0.1016  0.0491
  640MPD2    C4 9528   3.535   2.197   9.715  0.9802  0.0768  0.1461
  640MPD2    C5 9529   3.515   2.157   9.588  0.6647 -0.5903  0.2856
  640MPD2     H 9530   3.423   1.942   9.885  0.3924  1.0907  0.2532
  640MPD2    H1 9531   3.566   2.301   9.717 -4.6616  1.7520  0.0622
  640MPD2    H2 9532   3.470   1.994   9.459  3.3532 -2.7246  0.8792
  640MPD2    H3 9533   3.524   2.222   9.503 -1.7346 -0.9417 -0.2359
  640MPD2     N 9534   3.485   2.163   9.959 -0.3129  0.7741 -0.8376
  640MPD2    H5 9535   3.442   2.105  10.030  1.7535 -1.8099 -1.6921
  640MPD2    N1 9536   3.433   1.805   9.643  0.0989 -0.1726 -0.0311
  640MPD2    H7 9537   3.435   1.784   9.544  0.6162 -1.4938  0.2545
  641TMC3    C1 9538   3.479   1.582   9.689  0.5021 -0.3481 -0.3022
  641TMC3    C2 9539   3.582   1.515   9.748 -0.3003  0.1672 -0.2305
  641TMC3    C3 9540   3.627   1.405   9.684 -0.0263 -0.3349 -0.2441
  641TMC3    C4 9541   3.414   1.547   9.579  0.5528  0.0554  0.3796
  641TMC3    C5 9542   3.469   1.444   9.511  0.9147 -0.2907 -0.0860
  641TMC3    C6 9543   3.575   1.366   9.562 -0.3590  0.3747  0.8506
  641TMC3     C 9544   3.456   1.712   9.742 -1.2599  0.6448  0.7306
  641TMC3     O 9545   3.472   1.733   9.863  0.2762 -0.2189  0.5170
  641TMC3     H 9546   3.623   1.559   9.839  1.3242 -0.4736 -0.6585
  641TMC3    H1 9547   3.335   1.609   9.540 -0.9931 -0.1569  3.1512
  641TMC3    H2 9548   3.609   1.272   9.519 -0.6864 -0.0384  1.5006
  641TMC3    C7 9549   3.390   1.390   9.402  0.2933 -0.4688 -0.2348
  641TMC3    C8 9550   3.741   1.331   9.730  0.4203 -0.4123  0.4121
  641TMC3    O1 9551   3.274   1.432   9.388  0.1635 -0.4180  0.1812
  641TMC3    O2 9552   3.804   1.265   9.650 -0.2488  0.6355 -0.0307
  642TMC3    C1 9553   0.518   1.754  12.370 -0.3566  0.0640 -0.0767
  642TMC3    C2 9554   0.517   1.680  12.485  0.4708 -0.4281 -0.1450
  642TMC3    C3 9555   0.528   1.540  12.469 -0.1349 -0.0913 -0.2203
  642TMC3    C4 9556   0.504   1.701  12.246 -0.0816  0.6412  0.2552
  642TMC3    C5 9557   0.508   1.566  12.232  0.0600 -0.5291 -0.3586
  642TMC3    C6 9558   0.520   1.482  12.343  0.0332  0.6183  0.6237
  642TMC3     C 9559   0.509   1.894  12.371 -0.5904 -0.0052 -0.4174
  642TMC3     O 9560   0.540   1.956  12.271 -0.5290 -0.7511 -0.4973
  642TMC3     H 9561   0.537   1.720  12.583  1.8909  0.4436 -0.7880
  642TMC3    H1 9562   0.495   1.768  12.161 -1.6519  0.7651  0.5235
  642TMC3    H2 9563   0.559   1.383  12.323 -1.7431  0.1000 -0.3131
  642TMC3    C7 9564   0.469   1.515  12.105  0.0214 -0.0991 -0.0111
  642TMC3    C8 9565   0.531   1.446  12.586 -0.4612 -0.7827 -0.1548
  642TMC3    O1 9566   0.445   1.597  12.018  0.0073  0.1876 -0.2561
  642TMC3    O2 9567   0.544   1.331  12.551  0.3225 -0.5779  0.1077
  643TMC3    C1 9568   0.557   2.194   0.605  0.0693  0.6769  0.5593
  643TMC3    C2 9569   0.435   2.127   0.609  0.6353  0.3193 -0.4510
  643TMC3    C3 9570   0.421   2.011   0.534 -0.6393  0.5218  0.4262
  643TMC3    C4 9571   0.640   2.173   0.498  0.0981 -0.9453  0.0463
  643TMC3    C5 9572   0.619   2.062   0.421  0.3329  0.1424 -0.3885
  643TMC3    C6 9573   0.513   1.977   0.441 -0.7228 -0.4203  0.2423
  643TMC3     C 9574   0.607   2.293   0.708  0.3483 -0.2682  0.4569
  643TMC3     O 9575   0.524   2.371   0.763 -0.3055 -0.2450  0.0088
  643TMC3     H 9576   0.368   2.149   0.692 -1.9517  2.5585 -3.1365
  643TMC3    H1 9577   0.731   2.229   0.479 -1.1071  0.7105 -0.8427
  643TMC3    H2 9578   0.507   1.882   0.389 -2.5815  0.1832 -0.6556
  643TMC3    C7 9579   0.690   2.061   0.303  0.2715 -0.4081 -0.0873
  643TMC3    C8 9580   0.292   1.981   0.476 -0.0199 -0.0485  0.3008
  643TMC3    O1 9581   0.725   2.170   0.254  0.4684  0.1487  0.1889
  643TMC3    O2 9582   0.281   1.867   0.440  0.0017 -0.7313 -0.9021
  644MPD2     C 9583   3.836   1.616   9.451  0.6399 -0.4582  0.5088
  644MPD2    C1 9584   3.813   1.511   9.357  0.5105 -0.2017  0.0149
  644MPD2    C2 9585   3.698   1.521   9.285 -0.3406 -0.1155 -0.1245
  644MPD2    C3 9586   3.605   1.628   9.298  0.7582 -0.0407  0.3256
  644MPD2    C4 9587   3.629   1.732   9.386  0.3246  0.3206 -0.0402
  644MPD2    C5 9588   3.750   1.717   9.457 -0.4996 -0.0286 -0.2153
  644MPD2     H 9589   3.677   1.442   9.214 -1.9211  2.5909 -2.7140
  644MPD2    H1 9590   3.575   1.825   9.389 -1.4022 -0.7172  0.6001
  644MPD2    H2 9591   3.913   1.609   9.527  1.2101  0.7504  0.0323
  644MPD2    H3 9592   3.775   1.803   9.518 -1.5045 -0.0635  0.2586
  644MPD2     N 9593   3.494   1.632   9.213 -0.1382 -0.0458 -1.0489
  644MPD2    H5 9594   3.501   1.568   9.134 -0.1952 -1.7638  0.3580
  644MPD2    N1 9595   3.898   1.395   9.371 -0.4574  0.2921 -0.1346
  644MPD2    H7 9596   3.970   1.395   9.442  0.4370 -3.6881 -1.0137
  645TMC3    C1 9597   3.270   1.670   9.147  0.1241  0.8494 -0.4513
  645TMC3    C2 9598   3.276   1.555   9.069  0.2162 -0.2324 -0.0305
  645TMC3    C3 9599   3.178   1.528   8.986 -0.4437 -0.9462  0.1042
  645TMC3    C4 9600   3.166   1.755   9.135 -0.1848  0.1454 -0.2012
  645TMC3    C5 9601   3.064   1.716   9.061 -0.2730  0.7353 -0.3288
  645TMC3    C6 9602   3.069   1.607   8.972 -0.0513 -1.0262  0.1089
  645TMC3     C 9603   3.381   1.705   9.231 -0.5145  0.4841  0.1837
  645TMC3     O 9604   3.358   1.788   9.316  0.3224 -0.6486  0.6611
  645TMC3     H 9605   3.345   1.474   9.088 -2.0922 -2.4057 -0.8924
  645TMC3    H1 9606   3.157   1.842   9.200 -1.1725 -0.0528 -0.0758
  645TMC3    H2 9607   2.985   1.585   8.907 -1.5333 -1.6480  2.2102
  645TMC3    C7 9608   2.985   1.835   9.011  0.2027 -0.3037 -0.4451
  645TMC3    C8 9609   3.176   1.407   8.915  0.0475  0.5097 -0.1166
  645TMC3    O1 9610   3.020   1.946   9.045  0.1629 -0.1261  0.1315
  645TMC3    O2 9611   3.068   1.354   8.889 -0.1242  0.1299 -0.3710
  646MPD2     C 9612   4.090   1.082  14.289  0.3080  0.1294  0.4124
  646MPD2    C1 9613   4.007   1.078  14.401 -0.7844 -0.3390  0.1843
  646MPD2    C2 9614   3.889   1.148  14.392  0.1566  0.6901 -0.4595
  646MPD2    C3 9615   3.852   1.210  14.281 -0.2162 -0.4209  0.3832
  646MPD2    C4 9616   3.924   1.200  14.166  0.2672 -0.1577 -0.6817
  646MPD2    C5 9617   4.043   1.137  14.174  0.0794 -0.7651  0.3975
  646MPD2     H 9618   3.824   1.151  14.479 -0.0355 -1.2886 -0.5311
  646MPD2    H1 9619   3.892   1.233  14.069  0.4798 -0.4611 -0.8552
  646MPD2    H2 9620   4.189   1.038  14.292  0.3372  0.2166  0.7091
  646MPD2    H3 9621   4.098   1.131  14.081  1.3919  0.0662  1.1144
  646MPD2     N 9622   3.723   1.275  14.294 -0.4657  0.0578 -0.3168
  646MPD2    H5 9623   3.676   1.263  14.382 -0.0393 -0.3861 -0.1494
  646MPD2    N1 9624   4.062   1.009  14.512 -0.4082  0.1843  0.1375
  646MPD2    H7 9625   4.156   0.977  14.494 -1.1026 -1.8418  0.1056
  647TMC3    C1 9626   4.106   0.966  14.749 -0.0354 -0.7330  0.1405
  647TMC3    C2 9627   4.063   0.970  14.881  0.1505  0.6847 -0.1139
  647TMC3    C3 9628   4.109   0.885  14.974  0.2340  0.0147  0.1072
  647TMC3    C4 9629   4.202   0.870  14.718 -0.1179 -0.3871  0.2063
  647TMC3    C5 9630   4.238   0.782  14.818 -0.4449 -0.4028 -0.1863
  647TMC3    C6 9631   4.203   0.790  14.947 -0.5633  0.3146 -0.2024
  647TMC3     C 9632   4.024   1.029  14.642 -0.1226  0.5694 -0.0734
  647TMC3     O 9633   3.933   1.093  14.685  0.2629 -0.2451  0.2195
  647TMC3     H 9634   3.971   1.024  14.897  0.3539  1.5339 -1.7660
  647TMC3    H1 9635   4.230   0.845  14.616  0.2713 -0.0953  0.2453
  647TMC3    H2 9636   4.263   0.739  15.022 -0.0370  2.4248  0.8071
  647TMC3    C7 9637   4.356   0.695  14.800  0.2513 -0.1238 -0.2362
  647TMC3    C8 9638   4.009   0.862  15.076 -0.0460 -0.0367 -0.2993
  647TMC3    O1 9639   4.359   0.582  14.850 -0.5034  0.0792  0.0577
  647TMC3    O2 9640   3.929   0.946  15.102 -0.0473 -0.6102 -0.0748
  648TMC3    C1 9641   3.206   3.358  15.970  0.1774 -0.1885  0.6469
  648TMC3    C2 9642   3.304   3.265  15.947 -0.4916 -0.2182  0.6852
  648TMC3    C3 9643   3.357   3.264  15.817  0.4237  0.3306  0.3782
  648TMC3    C4 9644   3.162   3.447  15.878  0.1322  0.3828 -0.5794
  648TMC3    C5 9645   3.221   3.443  15.752 -0.5407 -0.3463  0.4803
  648TMC3    C6 9646   3.324   3.356  15.722 -0.0810 -0.5404  0.2114
  648TMC3     C 9647   3.161   3.387  16.108  0.5124  0.1360 -0.2792
  648TMC3     O 9648   3.242   3.433  16.188 -0.0581 -0.1025 -0.2837
  648TMC3     H 9649   3.343   3.214  16.034 -0.6676 -1.8192 -0.1883
  648TMC3    H1 9650   3.065   3.493  15.895  0.7386  1.8301 -1.0078
  648TMC3    H2 9651   3.350   3.342  15.618 -0.4771 -0.5491  0.1156
  648TMC3    C7 9652   3.179   3.541  15.658  0.5315  0.4580 -0.3909
  648TMC3    C8 9653   3.444   3.146  15.776  0.3901  0.6552 -0.2314
  648TMC3    O1 9654   3.206   3.520  15.542 -0.6808 -0.0934 -0.3784
  648TMC3    O2 9655   3.520   3.170  15.683 -0.1619  0.2447  0.4442
  649TMC3    C1 9656   2.175   4.584  12.465  0.5479 -0.6314  0.4114
  649TMC3    C2 9657   2.295   4.627  12.499  0.3028 -0.1842 -0.7263
  649TMC3    C3 9658   2.353   4.587  12.615  0.3023 -0.5188  0.1519
  649TMC3    C4 9659   2.101   4.506  12.549 -0.0045 -0.1399 -0.1076
  649TMC3    C5 9660   2.153   4.471  12.669  0.1799  0.2946 -0.9811
  649TMC3    C6 9661   2.280   4.512  12.704 -0.6008  0.0159 -0.5360
  649TMC3     C 9662   2.120   4.603  12.333  0.8719 -0.0588 -0.0125
  649TMC3     O 9663   1.999   4.599  12.325 -0.0473  0.6233  0.1067
  649TMC3     H 9664   2.351   4.698  12.439 -0.7211  0.6435 -0.7181
  649TMC3    H1 9665   2.009   4.466  12.508 -0.5068 -0.2425  1.1093
  649TMC3    H2 9666   2.315   4.502  12.806 -1.6113  0.4432 -0.1513
  649TMC3    C7 9667   2.063   4.398  12.755  0.7019  0.1076 -0.0177
  649TMC3    C8 9668   2.493   4.595  12.638  0.1071 -0.2548  0.6116
  649TMC3    O1 9669   1.943   4.400  12.721  0.1543 -0.0802  0.0068
  649TMC3    O2 9670   2.526   4.536  12.742  0.0938  0.1954 -0.7463
  650TMC3    C1 9671   0.096   1.187  12.948 -0.4860  0.2084  0.4596
  650TMC3    C2 9672   0.068   1.308  13.005  0.4741  0.2154 -0.1862
  650TMC3    C3 9673   0.129   1.422  12.949 -1.2241 -0.5867 -0.1510
  650TMC3    C4 9674   0.174   1.179  12.834  0.6973  0.2775  0.4234
  650TMC3    C5 9675   0.214   1.298  12.784 -0.1908  0.9662 -0.4751
  650TMC3    C6 9676   0.203   1.425  12.836 -0.0161  0.6844  0.5303
  650TMC3     C 9677   0.062   1.062  13.019 -0.6252  0.1722  0.6189
  650TMC3     O 9678   4.718   1.075  13.104  0.6313 -0.5048 -0.6158
  650TMC3     H 9679   0.030   1.306  13.106  2.6876  2.0806  0.6843
  650TMC3    H1 9680   0.188   1.091  12.774  0.4661  1.7186 -1.7502
  650TMC3    H2 9681   0.259   1.509  12.797  2.2441 -0.4187  1.3678
  650TMC3    C7 9682   0.200   1.311  12.644 -0.4077  0.0521 -0.2824
  650TMC3    C8 9683   0.081   1.555  12.984 -1.0637 -0.5788  0.6857
  650TMC3    O1 9684   0.223   1.213  12.575  0.3539 -0.3309  0.1940
  650TMC3    O2 9685   0.130   1.648  12.921  0.3864 -0.3158 -0.0404
  651MPD2     C 9686   3.442   3.121  10.546  0.6211 -0.5181 -0.1331
  651MPD2    C1 9687   3.435   3.249  10.596 -0.2549  0.1460 -0.3149
  651MPD2    C2 9688   3.551   3.329  10.607 -0.1368  0.0816 -0.2028
  651MPD2    C3 9689   3.673   3.287  10.560  0.1511 -0.2320  0.1310
  651MPD2    C4 9690   3.676   3.158  10.494 -0.1130 -0.5285 -0.0890
  651MPD2    C5 9691   3.560   3.078  10.489 -0.4127 -0.2496 -0.1430
  651MPD2     H 9692   3.545   3.428  10.650 -0.8438  0.6421 -1.5871
  651MPD2    H1 9693   3.757   3.123  10.430 -0.0106 -1.8421  0.7707
  651MPD2    H2 9694   3.366   3.045  10.537  0.7877 -0.7868  0.7566
  651MPD2    H3 9695   3.579   2.984  10.440 -1.8834 -0.8834  0.5153
  651MPD2     N 9696   3.770   3.390  10.547 -0.1351  0.0951  0.3610
  651MPD2    H5 9697   3.757   3.478  10.596  0.6295  1.3301 -1.6383
  651MPD2    N1 9698   3.319   3.295  10.651 -0.4560 -0.5864  0.3444
  651MPD2    H7 9699   3.327   3.390  10.685  0.7397 -1.2465  1.9194
  652TMC3    C1 9700   4.157   3.612  10.468 -0.4660 -0.2280 -0.5228
  652TMC3    C2 9701   4.089   3.501  10.434 -0.1170 -0.5110 -0.6969
  652TMC3    C3 9702   3.954   3.502  10.448  0.0504  0.1449 -0.6995
  652TMC3    C4 9703   4.092   3.724  10.499  0.0648  0.7085 -0.1553
  652TMC3    C5 9704   3.956   3.725  10.507 -0.0129 -0.0820  0.0627
  652TMC3    C6 9705   3.882   3.611  10.478  0.5305  0.0946 -0.6708
  652TMC3     C 9706   4.305   3.598  10.468  0.2336  0.0076  0.0544
  652TMC3     O 9707   4.359   3.486  10.463 -0.2046 -0.2165 -0.0003
  652TMC3     H 9708   4.129   3.404  10.405 -0.4496 -0.7727 -0.2728
  652TMC3    H1 9709   4.146   3.808  10.543  1.2128  1.0254 -2.1731
  652TMC3    H2 9710   3.774   3.618  10.478  0.6064  1.2095 -1.4765
  652TMC3    C7 9711   3.882   3.844  10.550 -0.3442 -0.1128 -0.4892
  652TMC3    C8 9712   3.878   3.381  10.462 -0.1944 -0.5543 -0.6007
  652TMC3    O1 9713   3.781   3.820  10.613  0.2519 -0.0428 -0.0351
  652TMC3    O2 9714   3.915   3.286  10.402  0.3426 -0.7359 -0.5808
  653MPD2     C 9715   2.351   4.131  17.640 -0.1137 -0.1476 -0.0593
  653MPD2    C1 9716   2.375   4.162  17.511  0.4601 -0.8530  0.5398
  653MPD2    C2 9717   2.373   4.054  17.426 -0.0213  0.5570 -0.1332
  653MPD2    C3 9718   2.354   3.925  17.472 -0.1642  0.0062 -0.7610
  653MPD2    C4 9719   2.339   3.896  17.603 -0.1192 -0.1082  0.5475
  653MPD2    C5 9720   2.335   4.003  17.693 -0.1488 -0.3485  0.7501
  653MPD2     H 9721   2.381   4.075  17.320 -0.8217 -0.5307 -0.4101
  653MPD2    H1 9722   2.295   3.805  17.643  0.5859 -1.2323 -1.2544
  653MPD2    H2 9723   2.329   4.206  17.716  3.3872 -0.4309  1.2080
  653MPD2    H3 9724   2.310   3.990   0.038 -0.3225 -0.0886  0.7414
  653MPD2     N 9725   2.333   3.829  17.373 -0.5298 -0.2987 -0.0203
  653MPD2    H5 9726   2.326   3.859  17.276 -0.3099  0.0983  0.0857
  653MPD2    N1 9727   2.384   4.292  17.458  0.1059  0.6009 -0.8015
  653MPD2    H7 9728   2.400   4.313  17.360 -0.1178  0.2068 -0.9214
  654TMC3    C1 9729   2.312   3.627  17.248 -0.3067  0.5722 -0.4016
  654TMC3    C2 9730   2.206   3.648  17.167 -0.9893 -0.2248  0.5067
  654TMC3    C3 9731   2.183   3.572  17.061  0.4575 -0.1263 -0.4935
  654TMC3    C4 9732   2.396   3.516  17.223 -0.1522  0.4210 -0.2322
  654TMC3    C5 9733   2.379   3.448  17.104  0.6177  0.1007 -0.5319
  654TMC3    C6 9734   2.275   3.476  17.026  0.6128  0.4288 -0.7021
  654TMC3     C 9735   2.328   3.694  17.381  0.7162 -0.3104  0.7724
  654TMC3     O 9736   2.343   3.624  17.480  0.1610 -0.0368 -0.0312
  654TMC3     H 9737   2.134   3.719  17.205 -0.6380  0.3195  0.1546
  654TMC3    H1 9738   2.490   3.509  17.277  0.2078  2.4683 -0.5660
  654TMC3    H2 9739   2.259   3.415  16.938 -1.1748 -1.1610  0.7460
  654TMC3    C7 9740   2.489   3.382  17.032 -0.1011  0.6903 -0.1931
  654TMC3    C8 9741   2.080   3.602  16.968  0.3968  1.0934 -0.6070
  654TMC3    O1 9742   2.517   3.425  16.921 -0.6437  0.4402  0.5589
  654TMC3    O2 9743   1.989   3.670  17.009  0.2576 -0.5280 -0.0186
  655MPD2     C 9744   3.655   3.598  15.881 -0.4188 -0.6602 -0.2448
  655MPD2    C1 9745   3.705   3.708  15.812  0.1907 -0.6339  1.0398
  655MPD2    C2 9746   3.724   3.698  15.677  0.1768 -0.1874 -0.4849
  655MPD2    C3 9747   3.712   3.577  15.606 -0.6955  0.1750 -0.2574
  655MPD2    C4 9748   3.670   3.463  15.677  0.0928 -0.7222  0.4136
  655MPD2    C5 9749   3.646   3.476  15.811 -0.3699  0.3390 -0.2970
  655MPD2     H 9750   3.769   3.786  15.633  1.9221 -2.3577 -3.0139
  655MPD2    H1 9751   3.670   3.365  15.630  3.0068 -0.5685  0.0601
  655MPD2    H2 9752   3.639   3.588  15.988 -1.0675 -2.0875 -0.4710
  655MPD2    H3 9753   3.614   3.385  15.859  2.0255  0.0513  0.7842
  655MPD2     N 9754   3.743   3.565  15.463 -0.2956  0.6479  0.6903
  655MPD2    H5 9755   3.751   3.474  15.419  0.1979  0.4099  1.2802
  655MPD2    N1 9756   3.730   3.834  15.862  0.7795 -0.1592 -0.1451
  655MPD2    H7 9757   3.744   3.913  15.799 -0.7937  0.6318  0.5013
  656TMC3    C1 9758   3.653   4.020  15.985  0.3624 -0.6324  0.0716
  656TMC3    C2 9759   3.540   4.048  16.067  0.3838 -0.3918  0.4559
  656TMC3    C3 9760   3.444   4.134  16.015  0.4609 -0.3843 -0.4223
  656TMC3    C4 9761   3.678   4.086  15.866  0.4615  0.3730 -0.5663
  656TMC3    C5 9762   3.581   4.162  15.818  0.3693 -0.2608  0.2713
  656TMC3    C6 9763   3.463   4.191  15.889 -0.5362 -0.4260 -0.0508
  656TMC3     C 9764   3.680   3.875  15.986 -0.0071  0.0473 -0.5525
  656TMC3     O 9765   3.662   3.814  16.087 -0.1795 -0.2725  0.4943
  656TMC3     H 9766   3.520   3.997  16.160 -0.3889  4.2623  2.8644
  656TMC3    H1 9767   3.765   4.072  15.804  0.4441 -0.1888 -0.4592
  656TMC3    H2 9768   3.377   4.247  15.853  1.6002  1.6799 -1.8792
  656TMC3    C7 9769   3.580   4.187  15.674  0.3089 -0.3794  0.0916
  656TMC3    C8 9770   3.305   4.109  16.052  0.2268 -0.7161  0.2896
  656TMC3    O1 9771   3.682   4.149  15.617 -0.2440  0.4561 -0.3760
  656TMC3    O2 9772   3.221   4.100  15.964  0.4168  0.7134 -0.1183
  657TMC3    C1 9773   2.462   3.015  14.919  0.0549 -0.3690  0.3961
  657TMC3    C2 9774   2.509   3.093  15.022 -0.5999  0.2136  0.0489
  657TMC3    C3 9775   2.475   3.227  15.020  0.2562 -0.3543 -0.3535
  657TMC3    C4 9776   2.389   3.068  14.819  0.1994  0.2541  0.2625
  657TMC3    C5 9777   2.354   3.200  14.825  0.5740  0.6522  0.8188
  657TMC3    C6 9778   2.396   3.286  14.925  0.2971 -0.6050  0.5445
  657TMC3     C 9779   2.422   2.876  14.960 -0.5348  0.1146  0.3932
  657TMC3     O 9780   2.339   2.823  14.887 -0.1583  0.1112  0.0799
  657TMC3     H 9781   2.557   3.054  15.111  1.5961  1.7237 -0.4818
  657TMC3    H1 9782   2.336   3.006  14.747  0.3747  0.4228 -0.0137
  657TMC3    H2 9783   2.381   3.393  14.919  1.4039 -0.4535  0.6026
  657TMC3    C7 9784   2.246   3.250  14.734  0.2598  0.2620  0.2859
  657TMC3    C8 9785   2.506   3.314  15.133  0.3346 -0.6760  0.0565
  657TMC3    O1 9786   2.170   3.333  14.787  0.9845  0.9224  0.2777
  657TMC3    O2 9787   2.548   3.248  15.225 -0.3478 -0.0145  0.2503
  658MPD2     C 9788   4.119   3.189  14.930 -0.6234 -0.3666 -0.3783
  658MPD2    C1 9789   4.017   3.257  14.867 -0.0989 -0.7132  0.1320
  658MPD2    C2 9790   4.003   3.238  14.734  0.1881  0.4024  0.6135
  658MPD2    C3 9791   4.108   3.192  14.654 -0.0406 -0.3148  0.8695
  658MPD2    C4 9792   4.225   3.152  14.718 -0.5247 -0.1026  0.4553
  658MPD2    C5 9793   4.231   3.152  14.859 -0.1306  0.3099  0.3003
  658MPD2     H 9794   3.911   3.274  14.687  0.4793 -0.0019 -0.2704
  658MPD2    H1 9795   4.318   3.120  14.672  0.2956 -0.4899  2.4102
  658MPD2    H2 9796   4.125   3.183  15.038  0.3014  0.2405 -0.3955
  658MPD2    H3 9797   4.321   3.119  14.908  0.7369  1.4314 -0.5374
  658MPD2     N 9798   4.084   3.165  14.517 -0.3516 -0.2319  0.2568
  658MPD2    H5 9799   3.992   3.182  14.475  1.0279  1.4215 -2.1224
  658MPD2    N1 9800   3.915   3.324  14.936 -0.8292 -0.3965  0.0093
  658MPD2    H7 9801   3.830   3.339  14.883 -1.3286  0.4340  1.0342
  659TMC3    C1 9802   3.822   3.470  15.095 -0.1676 -0.4897 -0.5209
  659TMC3    C2 9803   3.834   3.523  15.219  0.5581  0.2219 -0.4308
  659TMC3    C3 9804   3.768   3.639  15.245  0.5613 -0.1281 -0.1888
  659TMC3    C4 9805   3.742   3.518  14.996  0.1214  0.1045 -0.2496
  659TMC3    C5 9806   3.683   3.644  15.020  0.5526  0.3103 -0.1786
  659TMC3    C6 9807   3.694   3.701  15.147  0.0004  0.1060 -0.2161
  659TMC3     C 9808   3.927   3.375  15.059  0.1369 -0.5345  0.1907
  659TMC3     O 9809   4.013   3.365  15.139  0.0539  0.2127  0.0020
  659TMC3     H 9810   3.894   3.473  15.294 -1.2896  0.3630  1.1395
  659TMC3    H1 9811   3.741   3.480  14.895 -1.6086  1.9841 -0.9302
  659TMC3    H2 9812   3.642   3.794  15.168 -0.4708  0.2773 -2.1940
  659TMC3    C7 9813   3.558   3.672  14.949  1.1933 -0.3521 -0.6644
  659TMC3    C8 9814   3.750   3.678  15.379 -0.8814  0.3425  0.0742
  659TMC3    O1 9815   3.477   3.738  15.008 -0.0025  0.4780 -0.3274
  659TMC3    O2 9816   3.707   3.789  15.402  0.6076 -0.3358  0.1736
  660MPD2     C 9817   1.836   2.397  12.678 -0.2186  0.0889  1.6099
  660MPD2    C1 9818   1.720   2.378  12.606  0.3493  0.1980 -1.0465
  660MPD2    C2 9819   1.656   2.257  12.611  0.5654 -0.4019  0.9108
  660MPD2    C3 9820   1.701   2.153  12.696  0.5226 -0.2206  0.3770
  660MPD2    C4 9821   1.808   2.177  12.778  0.6922 -0.0469 -0.6515
  660MPD2    C5 9822   1.878   2.287  12.755 -0.5235  0.4590  0.2209
  660MPD2     H 9823   1.560   2.244  12.563  1.0832  0.1271 -0.2705
  660MPD2    H1 9824   1.842   2.102  12.848  0.9609 -1.1171 -1.9386
  660MPD2    H2 9825   1.896   2.485  12.656 -0.1867 -0.3770 -0.2147
  660MPD2    H3 9826   1.968   2.289  12.815  0.1831  0.3719 -0.8383
  660MPD2     N 9827   1.643   2.025  12.706  0.1617 -0.1572 -0.4898
  660MPD2    H5 9828   1.680   1.962  12.778 -0.7532  0.6813  0.7159
  660MPD2    N1 9829   1.688   2.490  12.528  0.2840  0.0934  0.1005
  660MPD2    H7 9830   1.743   2.574  12.544  0.1524  0.3595 -0.8607
  661TMC3    C1 9831   1.549   2.631  12.409 -0.1748  0.6665  0.0567
  661TMC3    C2 9832   1.653   2.715  12.379 -0.2529  0.5791  0.4792
  661TMC3    C3 9833   1.616   2.838  12.326 -0.7418 -0.2629 -0.7078
  661TMC3    C4 9834   1.416   2.669  12.411  0.2051  0.2665 -0.9006
  661TMC3    C5 9835   1.388   2.792  12.368  0.2514 -0.5623  0.2683
  661TMC3    C6 9836   1.486   2.870  12.310 -0.2072 -0.1129  0.4528
  661TMC3     C 9837   1.569   2.499  12.457  1.0869  0.3994 -0.2660
  661TMC3     O 9838   1.479   2.418  12.436 -0.3329  0.0285  0.0592
  661TMC3     H 9839   1.761   2.707  12.384 -0.3377 -1.8663 -1.3925
  661TMC3    H1 9840   1.338   2.610  12.457 -0.3305  1.7836  0.1164
  661TMC3    H2 9841   1.451   2.956  12.253  0.3368  1.5932  2.6840
  661TMC3    C7 9842   1.254   2.809  12.311 -0.4633  0.3189  0.4090
  661TMC3    C8 9843   1.708   2.897  12.225 -0.4755 -0.4815  0.4663
  661TMC3    O1 9844   1.238   2.914  12.250 -0.1268  0.8143 -0.0156
  661TMC3    O2 9845   1.801   2.839  12.170  0.2767 -0.2008  0.4311
  662MPD2     C 9846   2.296   2.199  16.857 -0.2248  0.4318 -0.0935
  662MPD2    C1 9847   2.277   2.127  16.970  0.0485  0.2882 -0.6899
  662MPD2    C2 9848   2.199   2.174  17.072 -0.3436 -0.4421 -0.1434
  662MPD2    C3 9849   2.130   2.288  17.054  0.5409 -0.0981 -0.3509
  662MPD2    C4 9850   2.138   2.362  16.935  0.0753 -0.4464 -0.0597
  662MPD2    C5 9851   2.220   2.314  16.841  0.6725  0.1990  0.2439
  662MPD2     H 9852   2.196   2.114  17.163  0.7136  1.9517  1.4603
  662MPD2    H1 9853   2.087   2.455  16.915 -0.8323 -0.9729 -0.2003
  662MPD2    H2 9854   2.355   2.165  16.772 -0.2883  3.3924 -1.3399
  662MPD2    H3 9855   2.228   2.371  16.749 -0.5125 -0.6028 -0.3526
  662MPD2     N 9856   2.037   2.346  17.150 -0.2682  0.2791  0.4272
  662MPD2    H5 9857   2.002   2.438  17.125  0.5090  0.9232  1.7316
  662MPD2    N1 9858   2.328   2.000  17.000  0.0990  0.3146 -0.0330
  662MPD2    H7 9859   2.297   1.964  17.089 -0.2412  1.7270  0.4130
  663TMC3    C1 9860   2.418   1.794  16.969  0.1610 -0.0193  0.7647
  663TMC3    C2 9861   2.385   1.765  17.099 -0.8705  0.2950 -0.5940
  663TMC3    C3 9862   2.409   1.641  17.153  0.7729  0.3970 -0.4485
  663TMC3    C4 9863   2.486   1.703  16.885 -0.4703 -0.2824  0.5447
  663TMC3    C5 9864   2.493   1.577  16.940  0.4134  0.8107 -0.7366
  663TMC3    C6 9865   2.455   1.546  17.071  0.1371  0.8654 -0.7731
  663TMC3     C 9866   2.406   1.930  16.920 -0.3209 -0.4375 -0.2609
  663TMC3     O 9867   2.458   1.968  16.816 -0.0848  0.2536 -0.4510
  663TMC3     H 9868   2.300   1.820  17.138 -0.6818 -0.1953  0.4779
  663TMC3    H1 9869   2.515   1.715  16.781  2.2758 -2.9947  0.9976
  663TMC3    H2 9870   2.491   1.458  17.123  1.1908  1.1805 -0.9609
  663TMC3    C7 9871   2.471   1.469  16.846 -0.0943  0.0076 -0.3108
  663TMC3    C8 9872   2.301   1.588  17.240 -0.4863  0.5947 -0.0158
  663TMC3    O1 9873   2.480   1.492  16.725 -0.2318  0.3309 -0.4088
  663TMC3    O2 9874   2.282   1.466  17.225 -0.2589  0.1736  0.3185
  664MPD2     C 9875   0.238   0.667  17.732  0.5974 -0.1848 -0.1617
  664MPD2    C1 9876   0.369   0.702  17.751 -1.0643  0.3767 -0.0790
  664MPD2    C2 9877   0.415   0.748   0.116 -0.6644  0.6711  0.4348
  664MPD2    C3 9878   0.329   0.743   0.230 -0.3954 -0.1616 -0.6617
  664MPD2    C4 9879   0.199   0.705   0.206  0.3665 -0.2530 -0.0420
  664MPD2    C5 9880   0.156   0.663   0.080  0.0422 -0.2662 -0.5993
  664MPD2     H 9881   0.518   0.774   0.138 -0.4279 -0.4936  0.6755
  664MPD2    H1 9882   0.133   0.722   0.291 -2.6400 -1.9314 -2.0401
  664MPD2    H2 9883   0.205   0.629  17.636 -2.6507 -1.6442  1.5564
  664MPD2    H3 9884   0.050   0.645   0.062 -0.0012 -1.3906  0.7991
  664MPD2     N 9885   0.377   0.779   0.358  0.0417 -0.3985  0.3300
  664MPD2    H5 9886   0.478   0.794   0.364 -0.0592  0.2981  0.3380
  664MPD2    N1 9887   0.470   0.704  17.652 -0.0863 -0.1192 -0.2652
  664MPD2    H7 9888   0.555   0.751  17.682  0.5532 -0.8871 -0.8929
  665TMC3    C1 9889   0.385   0.851   0.583 -0.1429  0.3387 -0.0434
  665TMC3    C2 9890   0.306   0.874   0.693  0.0231 -0.2775 -0.0467
  665TMC3    C3 9891   0.372   0.938   0.793  0.2523 -0.5001 -0.5148
  665TMC3    C4 9892   0.515   0.893   0.570 -0.3369  0.3599 -0.2992
  665TMC3    C5 9893   0.578   0.949   0.680  0.3840  0.0334  0.1363
  665TMC3    C6 9894   0.503   0.972   0.794 -0.1658  0.2932 -0.9473
  665TMC3     C 9895   0.306   0.790   0.478 -0.2848 -0.4687  0.2241
  665TMC3     O 9896   0.186   0.781   0.507  0.3851  0.0067  0.7064
  665TMC3     H 9897   0.218   0.817   0.721 -1.2169 -0.0746 -3.6045
  665TMC3    H1 9898   0.579   0.876   0.484  0.8898 -0.5386  0.7876
  665TMC3    H2 9899   0.552   1.022   0.877 -1.2605  0.1401 -0.1960
  665TMC3    C7 9900   0.710   1.006   0.654 -0.0494  0.0426 -0.2459
  665TMC3    C8 9901   0.303   0.984   0.913 -0.1033  0.6093 -0.4636
  665TMC3    O1 9902   0.760   1.001   0.539  0.7027 -0.6601  0.3820
  665TMC3    O2 9903   0.366   0.999   1.015  1.0111 -0.3008 -0.1629
  666TMC3    C1 9904   3.405   0.559   9.834  0.0607  1.1649 -1.0160
  666TMC3    C2 9905   3.517   0.519   9.901  0.2304 -0.3407  0.3079
  666TMC3    C3 9906   3.633   0.545   9.835  0.2073 -0.0212  0.0183
  666TMC3    C4 9907   3.399   0.625   9.717  0.3908 -0.6781  0.4296
  666TMC3    C5 9908   3.518   0.655   9.654  0.0255 -0.3172  0.0122
  666TMC3    C6 9909   3.635   0.607   9.715 -0.7677  0.6227 -0.1020
  666TMC3     C 9910   3.275   0.558   9.902 -0.2045  0.1982  0.1858
  666TMC3     O 9911   3.203   0.654   9.879  0.3661 -0.0137 -0.1066
  666TMC3     H 9912   3.516   0.470   9.997  1.8390 -3.3352 -1.1944
  666TMC3    H1 9913   3.306   0.657   9.672  0.6754  0.4593  0.6448
  666TMC3    H2 9914   3.730   0.653   9.690  1.1980 -2.4163  1.7948
  666TMC3    C7 9915   3.529   0.795   9.613  0.1859  0.0803 -0.0744
  666TMC3    C8 9916   3.753   0.485   9.893 -0.4283  0.3755 -1.1433
  666TMC3    O1 9917   3.640   0.850   9.629  0.1496  0.1993  0.1006
  666TMC3    O2 9918   3.741   0.467  10.014 -0.7911 -0.1513 -0.5306
  667MPD2     C 9919   1.282   4.711  14.947 -0.6378 -0.1087  0.2482
  667MPD2    C1 9920   1.163   0.014  15.007  0.6744 -0.5725 -0.7753
  667MPD2    C2 9921   1.053   4.683  14.972  0.1019  0.6517  0.1338
  667MPD2    C3 9922   1.067   4.570  14.894  0.4266 -0.0488  0.0258
  667MPD2    C4 9923   1.184   4.518  14.853 -0.0641 -0.1032  0.0171
  667MPD2    C5 9924   1.294   4.597  14.872  0.1077  0.1455 -0.6982
  667MPD2     H 9925   0.956   4.718  15.002  0.6892  2.4477 -0.0647
  667MPD2    H1 9926   1.197   4.420  14.809  0.4774  1.7515 -3.9220
  667MPD2    H2 9927   1.373   0.027  14.966 -0.7855  0.0775  0.3902
  667MPD2    H3 9928   1.390   4.554  14.847  0.5768 -0.1173  1.5493
  667MPD2     N 9929   0.954   4.493  14.849  0.3436  0.1298  1.1345
  667MPD2    H5 9930   0.976   4.402  14.810  0.5166  0.9267 -0.6341
  667MPD2    N1 9931   1.150   0.128  15.091  0.4008 -0.7523  0.0144
  667MPD2    H7 9932   1.054   0.130  15.123  0.3524 -1.8278 -0.0445
  668TMC3    C1 9933   1.202   0.329  15.210 -0.9521 -0.0747 -0.3162
  668TMC3    C2 9934   1.269   0.451  15.217  0.3545 -0.1273  0.9020
  668TMC3    C3 9935   1.215   0.548  15.288 -0.4751  0.5834 -0.0361
  668TMC3    C4 9936   1.085   0.308  15.287  0.2411  0.1133  0.3903
  668TMC3    C5 9937   1.045   0.408  15.376 -0.4241 -0.2558 -0.3952
  668TMC3    C6 9938   1.104   0.526  15.366  0.2478 -0.2020  0.2227
  668TMC3     C 9939   1.243   0.227  15.115 -0.5178 -0.7141 -0.5350
  668TMC3     O 9940   1.354   0.249  15.062  1.1268 -0.1056  0.1846
  668TMC3     H 9941   1.347   0.479  15.147  0.7035 -0.2976  1.2252
  668TMC3    H1 9942   1.060   0.205  15.311 -1.0575  0.1669 -0.7264
  668TMC3    H2 9943   1.053   0.605  15.421  0.7447 -0.0550  0.4671
  668TMC3    C7 9944   0.913   0.406  15.434 -0.8904 -0.0507  0.4959
  668TMC3    C8 9945   1.233   0.694  15.263  0.4866  0.1759  0.1045
  668TMC3    O1 9946   0.880   0.503  15.505 -0.1299 -0.0371  0.0437
  668TMC3    O2 9947   1.163   0.776  15.325 -0.1432  0.5985 -0.0310
  669TMC3    C1 9948   3.815   4.681  14.609 -0.6345  0.7468  0.4723
  669TMC3    C2 9949   3.703   4.710  14.537 -0.2087  0.0758  0.2408
  669TMC3    C3 9950   3.714   0.066  14.438  0.1214 -0.2738  0.2149
  669TMC3    C4 9951   3.935   0.002  14.573  0.6848 -0.5436  0.3215
  669TMC3    C5 9952   3.939   0.099  14.473  0.3564 -0.4786  0.5343
  669TMC3    C6 9953   3.823   0.133  14.401 -0.1687 -0.2616 -1.0257
  669TMC3     C 9954   3.793   4.588  14.719  0.2432  0.3294 -0.4528
  669TMC3     O 9955   3.674   4.558  14.746 -0.0546 -0.4133 -0.1545
  669TMC3     H 9956   3.606   4.666  14.555  0.5814 -0.6230  2.7526
  669TMC3    H1 9957   4.021   4.718  14.634 -0.5287  0.1930  2.3146
  669TMC3    H2 9958   3.830   0.207  14.322 -1.7756  1.5223  0.5146
  669TMC3    C7 9959   4.062   0.170  14.438  0.5330 -0.4726  0.6071
  669TMC3    C8 9960   3.623   0.069  14.331 -0.7216  0.0869  0.0656
  669TMC3    O1 9961   4.055   0.262  14.354 -0.3056  0.2147  0.6618
  669TMC3    O2 9962   3.563   4.706  14.312 -0.6329  0.0604 -0.2958
  670MPD2     C 9963   2.079   2.227  13.201 -0.0601  1.3286 -0.1339
  670MPD2    C1 9964   2.161   2.253  13.310 -0.7493  0.6691 -0.6689
  670MPD2    C2 9965   2.097   2.277  13.435 -0.2964 -0.2085  0.6026
  670MPD2    C3 9966   1.958   2.275  13.447  0.0514  0.2780  0.3677
  670MPD2    C4 9967   1.886   2.261  13.334  0.2709 -0.1137  1.0505
  670MPD2    C5 9968   1.941   2.231  13.215 -0.2533  0.8633 -0.3407
  670MPD2     H 9969   2.157   2.305  13.521  1.5518  0.4227 -0.8721
  670MPD2    H1 9970   1.778   2.263  13.338  0.1833 -0.6345 -0.9164
  670MPD2    H2 9971   2.124   2.223  13.102  2.9655 -2.1547  1.3852
  670MPD2    H3 9972   1.875   2.230  13.129  0.0334  0.8905 -0.5621
  670MPD2     N 9973   1.904   2.289  13.580 -0.0494  0.1116  0.3595
  670MPD2    H5 9974   1.965   2.309  13.658  1.0235 -0.7454 -0.2467
  670MPD2    N1 9975   2.298   2.278  13.310 -0.0286 -0.4724  0.0614
  670MPD2    H7 9976   2.335   2.313  13.397  1.9503  3.7764 -2.5159
  671TMC3    C1 9977   1.744   2.297  13.755 -0.2265 -0.0999 -0.6293
  671TMC3    C2 9978   1.841   2.287  13.850 -0.2893  0.0216 -0.2298
  671TMC3    C3 9979   1.809   2.238  13.979 -0.0212  0.0370 -0.3964
  671TMC3    C4 9980   1.618   2.297  13.794  0.3246 -0.2445  0.0067
  671TMC3    C5 9981   1.583   2.252  13.918 -0.0025  0.0160  0.2528
  671TMC3    C6 9982   1.675   2.223  14.011 -0.0799 -0.6537  0.2897
  671TMC3     C 9983   1.768   2.279  13.615 -0.3654  0.1425 -0.7491
  671TMC3     O 9984   1.671   2.249  13.544  0.4134 -0.4839 -0.1173
  671TMC3     H 9985   1.935   2.258  13.806 -1.2910 -1.0844 -1.6317
  671TMC3    H1 9986   1.542   2.322  13.721 -0.0645 -0.1041  0.4663
  671TMC3    H2 9987   1.646   2.172  14.102  1.7536 -0.7156  0.8356
  671TMC3    C7 9988   1.471   2.158  13.907 -0.2187 -0.4896 -0.0369
  671TMC3    C8 9989   1.905   2.148  14.045  0.1570  0.0407 -0.4416
  671TMC3    O1 9990   1.478   2.054  13.969 -0.2768  0.0734 -0.2693
  671TMC3    O2 9991   1.998   2.116  13.978 -0.3206  0.6469  0.2462
  672MPD2     C 9992   2.369   4.182   0.820 -0.0843  0.2374  1.0035
  672MPD2    C1 9993   2.487   4.119   0.791  0.1276  0.1644 -0.1278
  672MPD2    C2 9994   2.608   4.185   0.804  0.0449 -0.8102  0.1149
  672MPD2    C3 9995   2.604   4.321   0.849 -0.2361 -0.3766  0.3632
  672MPD2    C4 9996   2.487   4.388   0.866 -0.4434  0.3222  0.4957
  672MPD2    C5 9997   2.368   4.321   0.850  0.1771 -0.0586 -0.3875
  672MPD2     H 9998   2.701   4.130   0.793 -0.1994 -0.9932 -0.9374
  672MPD2    H1 9999   2.486   4.494   0.886  2.3917  0.5472 -0.5816
  672MPD2    H210000   2.275   4.133   0.796  1.0027 -1.6559  0.6079
  672MPD2    H310001   2.275   4.373   0.869  0.0348  0.0149 -1.2921
  672MPD2     N10002   2.716   4.389   0.867  0.5099 -0.1018 -0.9784
  672MPD2    H510003   2.707   4.490   0.873 -1.6963 -0.4891  1.9046
  672MPD2    N110004   2.495   3.979   0.751  0.1241 -0.0581 -0.4051
  672MPD2    H710005   2.585   3.943   0.720 -0.4301 -1.4559 -0.3752
  673TMC3    C110006   2.399   3.784   0.655 -0.2859  0.1996  0.1115
  673TMC3    C210007   2.518   3.716   0.666 -0.2101  0.0047  0.2405
  673TMC3    C310008   2.525   3.586   0.618  0.5435  0.3368 -0.1161
  673TMC3    C410009   2.283   3.730   0.603 -0.1347 -0.9541 -0.1373
  673TMC3    C510010   2.295   3.602   0.550  0.3724 -0.0244  0.0127
  673TMC3    C610011   2.414   3.531   0.561 -0.0168 -0.0468 -0.3051
  673TMC3     C10012   2.379   3.907   0.727  0.8491  0.8089 -0.1131
  673TMC3     O10013   2.276   3.918   0.791 -0.4154  0.2820  0.7918
  673TMC3     H10014   2.602   3.768   0.708  1.6022 -1.2481 -1.8194
  673TMC3    H110015   2.194   3.792   0.603  0.9167  0.5236 -2.1415
  673TMC3    H210016   2.427   3.435   0.511  0.3423  1.3270 -2.8800
  673TMC3    C710017   2.229   3.575   0.424 -0.8381 -0.3486 -0.5992
  673TMC3    C810018   2.649   3.539   0.559 -0.4756  0.2550 -0.0453
  673TMC3    O110019   2.213   3.453   0.400 -0.0967  0.2477  0.3814
  673TMC3    O210020   2.650   3.432   0.501 -0.1932 -0.0402 -0.4890
  674MPD2     C10021   2.995   3.070  17.683  0.2438 -0.0263  0.1996
  674MPD2    C110022   2.930   3.042   0.041 -0.3343 -0.1357 -0.1867
  674MPD2    C210023   2.792   3.015   0.040  0.3565  0.5998  0.1615
  674MPD2    C310024   2.728   3.002  17.678 -0.1585 -0.6065 -0.1576
  674MPD2    C410025   2.793   3.041  17.560  0.6743  0.1211  0.4367
  674MPD2    C510026   2.923   3.081  17.563 -0.4767  0.3563 -0.1459
  674MPD2     H10027   2.731   2.999   0.129  0.7145  1.9003  0.6286
  674MPD2    H110028   2.740   3.036  17.465  1.1682 -0.3193  0.1853
  674MPD2    H210029   3.101   3.092  17.683  0.3730 -0.5911 -3.4103
  674MPD2    H310030   2.972   3.121  17.475  0.5729 -2.0706 -0.6356
  674MPD2     N10031   2.589   2.974  17.683 -0.1393 -0.1568 -0.2694
  674MPD2    H510032   2.548   2.959   0.014 -1.6516  0.6397 -0.8154
  674MPD2    N110033   3.008   3.046   0.159  0.5060  0.0922  0.2247
  674MPD2    H710034   3.108   3.067   0.156 -0.0329  2.9466  2.1995
  675TMC3    C110035   3.033   3.081   0.387 -0.0451 -0.0734  0.1021
  675TMC3    C210036   2.976   3.103   0.503  0.1293 -0.4654 -0.0281
  675TMC3    C310037   3.041   3.168   0.601 -1.4331 -0.4427  0.5366
  675TMC3    C410038   3.161   3.115   0.358 -0.8187  0.0287  0.6648
  675TMC3    C510039   3.237   3.158   0.464 -0.1161 -0.5262  0.1619
  675TMC3    C610040   3.180   3.181   0.592 -0.2112 -0.6736 -0.1607
  675TMC3     C10041   2.948   3.034   0.283 -0.0543  0.1179  0.5099
  675TMC3     O10042   2.832   3.014   0.314 -0.5791 -0.4444  0.2162
  675TMC3     H10043   2.876   3.065   0.521  0.1017  0.1102  1.0299
  675TMC3    H110044   3.208   3.101   0.261 -2.4725 -0.2462 -0.0864
  675TMC3    H210045   3.242   3.215   0.673  1.0572 -0.9279 -1.0314
  675TMC3    C710046   3.376   3.123   0.464 -0.3768 -0.4519 -0.0954
  675TMC3    C810047   2.955   3.218   0.705 -0.6220  0.3550  0.5055
  675TMC3    O110048   3.407   3.048   0.372  0.0839  0.2755 -0.0665
  675TMC3    O210049   2.835   3.196   0.700  0.0375 -0.4664 -0.0409
  676MPD2     C10050   0.192   0.934  10.808 -0.6361  0.0200  0.1464
  676MPD2    C110051   0.061   0.932  10.774 -0.3302  0.3451  0.2950
  676MPD2    C210052   0.002   0.807  10.772  0.1268 -0.8787 -0.1811
  676MPD2    C310053   0.078   0.695  10.792  0.3370  0.7406  0.1572
  676MPD2    C410054   0.212   0.704  10.829  0.0352  0.2139  0.3392
  676MPD2    C510055   0.268   0.825  10.836 -0.0380  0.7745 -0.0029
  676MPD2     H10056   4.636   0.803  10.755  0.1045  1.2553 -0.6240
  676MPD2    H110057   0.265   0.611  10.843 -3.0967 -1.2526  2.6063
  676MPD2    H210058   0.244   1.029  10.817  0.6878 -0.6341 -0.6260
  676MPD2    H310059   0.372   0.834  10.866 -1.1506 -0.1312  4.0648
  676MPD2     N10060   0.021   0.564  10.800  0.3768 -0.0259 -0.3144
  676MPD2    H510061   0.073   0.493  10.850  0.1135 -0.0312 -0.0490
  676MPD2    N110062   4.721   1.050  10.755  0.2369  0.4357  0.6601
  676MPD2    H710063   4.624   1.037  10.731  0.1941  0.2430  0.9359
  677TMC3    C110064   4.641   1.257  10.752 -0.3465  0.3577  0.0939
  677TMC3    C210065   4.520   1.214  10.801  0.1370  0.1312  0.1676
  677TMC3    C310066   4.411   1.299  10.785 -0.6706 -0.0870  0.6715
  677TMC3    C410067   4.648   1.383  10.696  0.0187  0.2506  0.4123
  677TMC3    C510068   4.537   1.456  10.671  0.1643  0.3461 -0.3819
  677TMC3    C610069   4.412   1.413  10.716 -0.1090  0.4376  0.2404
  677TMC3     C10070   0.018   1.176  10.753 -0.1305  0.0846 -0.4452
  677TMC3     O10071   0.126   1.226  10.772 -0.8417 -0.1973  0.6448
  677TMC3     H10072   4.515   1.124  10.862  3.0195 -0.7239 -0.8590
  677TMC3    H110073   0.003   1.423  10.664  0.1074 -0.7835 -0.6016
  677TMC3    H210074   4.317   1.463  10.700 -0.5176  0.2677  2.1546
  677TMC3    C710075   4.545   1.596  10.626 -0.6492  0.0597  0.3539
  677TMC3    C810076   4.279   1.258  10.805  0.4759  0.0387 -0.1013
  677TMC3    O110077   4.483   1.637  10.530  0.1136 -0.1454  0.5506
  677TMC3    O210078   4.233   1.213  10.702  0.0593 -0.2390  0.4796
  678MPD2     C10079   1.567   2.432   1.359  0.2989  0.2083 -1.0062
  678MPD2    C110080   1.586   2.305   1.308 -0.4549 -0.2879 -0.1957
  678MPD2    C210081   1.479   2.232   1.270 -0.5830  0.0647  0.5188
  678MPD2    C310082   1.350   2.277   1.268  0.1853 -0.5493 -0.1393
  678MPD2    C410083   1.331   2.408   1.315  0.1161 -0.3058 -0.4776
  678MPD2    C510084   1.437   2.482   1.366 -0.4402  0.3660 -0.3097
  678MPD2     H10085   1.493   2.133   1.226 -0.6213  0.4960 -0.4602
  678MPD2    H110086   1.229   2.445   1.319  0.2746  0.0603  0.2911
  678MPD2    H210087   1.642   2.495   1.407  0.4769  0.0685 -1.1026
  678MPD2    H310088   1.419   2.574   1.420  1.4344  1.7181 -1.9532
  678MPD2     N10089   1.247   2.196   1.212 -0.1032 -0.6280  0.0898
  678MPD2    H510090   1.272   2.100   1.189  1.7499 -0.3558  0.9955
  678MPD2    N110091   1.723   2.257   1.296  0.6670  0.2011 -0.4009
  678MPD2    H710092   1.737   2.174   1.239  1.8567  0.7788 -0.9466
  679TMC3    C110093   2.188   2.214   1.294  0.3959  0.5402  0.0380
  679TMC3    C210094   2.079   2.268   1.354  0.2132  0.4709 -0.3668
  679TMC3    C310095   1.961   2.256   1.286 -0.0457  0.0944  0.7140
  679TMC3    C410096   2.189   2.151   1.179  0.6290  0.1780  0.8166
  679TMC3    C510097   2.068   2.138   1.114  0.3713  0.2926 -0.1374
  679TMC3    C610098   1.957   2.194   1.163 -0.0307 -0.0516 -0.0596
  679TMC3     C10099   2.308   2.229   1.366 -0.6531  0.0787 -0.2403
  679TMC3     O10100   2.316   2.324   1.444 -0.6109  0.3575 -0.3114
  679TMC3     H10101   2.086   2.339   1.435 -2.2694  0.8533 -0.4813
  679TMC3    H110102   2.284   2.134   1.130  1.5233  1.6039  2.0401
  679TMC3    H210103   1.863   2.182   1.112 -2.4733  2.6017  3.7793
  679TMC3    C710104   2.058   2.066   0.985  0.1698  0.6744  0.0713
  679TMC3    C810105   1.839   2.312   1.343  0.3558 -0.1134 -0.0097
  679TMC3    O110106   1.957   2.086   0.920  0.7400  0.2881 -0.2301
  679TMC3    O210107   1.850   2.407   1.421 -0.2664 -0.6944 -0.3787
  680MPD2     C10108   1.515   4.678  13.563 -0.5216 -0.6673  0.1670
  680MPD2    C110109   1.619   4.589  13.523 -0.4178  0.7166  0.1501
  680MPD2    C210110   1.746   4.617  13.568  0.5121 -0.1389 -1.1353
  680MPD2    C310111   1.785   4.737  13.625  0.3782  0.6211 -0.5133
  680MPD2    C410112   1.680   0.084  13.654  0.2769 -0.0759  0.1652
  680MPD2    C510113   1.548   0.050  13.628 -0.7601 -0.3759  0.3302
  680MPD2     H10114   1.826   4.544  13.570  1.1206  0.5350 -0.8492
  680MPD2    H110115   1.700   0.172  13.714  0.2703  1.8134 -2.6170
  680MPD2    H210116   1.409   4.660  13.547 -0.9339 -1.0973  3.3686
  680MPD2    H310117   1.478   0.118  13.675  1.2374  1.5696  0.4910
  680MPD2     N10118   1.925   0.025  13.645 -0.4808  0.0833  0.1391
  680MPD2    H510119   1.936   0.103  13.708  1.2518  0.5790 -0.7620
  680MPD2    N110120   1.600   4.476  13.438 -0.1119  0.2329  0.6693
  680MPD2    H710121   1.668   4.401  13.452  1.0372  1.0406 -0.5065
  681TMC3    C110122   1.478   4.313  13.350  0.3304  0.3947 -0.4409
  681TMC3    C210123   1.389   4.237  13.416 -0.4746  0.1486 -0.0546
  681TMC3    C310124   1.398   4.100  13.403 -0.5896  0.6479 -0.1240
  681TMC3    C410125   1.586   4.262  13.292 -0.1533 -0.7840  0.9418
  681TMC3    C510126   1.599   4.131  13.282  1.0619 -0.2615  0.0535
  681TMC3    C610127   1.505   4.045  13.335 -0.1115 -0.6056 -0.0808
  681TMC3     C10128   1.480   4.449  13.380 -0.6706  0.4910  0.3521
  681TMC3     O10129   1.388   4.520  13.359 -0.3183 -0.0538  0.4154
  681TMC3     H10130   1.317   4.288  13.479  0.7824 -0.1708  1.6392
  681TMC3    H110131   1.655   4.332  13.246 -3.8235  0.7282 -2.2167
  681TMC3    H210132   1.522   3.938  13.331 -1.8211 -0.8934 -0.0007
  681TMC3    C710133   1.725   4.080  13.245 -0.4243 -0.1509  0.0830
  681TMC3    C810134   1.347   4.023  13.512  0.6266 -0.4461 -0.7634
  681TMC3    O110135   1.766   3.987  13.315 -0.4320 -0.1584  0.1594
  681TMC3    O210136   1.305   3.912  13.486  0.0252  0.0121  0.4631
  682MPD2     C10137   3.467   1.725  10.597  0.3147  0.0144  0.1774
  682MPD2    C110138   3.446   1.589  10.590  0.5157 -0.0733  0.3888
  682MPD2    C210139   3.434   1.518  10.706  0.0023 -0.0145  0.1742
  682MPD2    C310140   3.422   1.579  10.826  0.1952 -0.5497 -0.0207
  682MPD2    C410141   3.451   1.714  10.831 -0.3682 -0.1146 -0.5794
  682MPD2    C510142   3.485   1.786  10.718 -0.2441  0.6446  0.7515
  682MPD2     H10143   3.429   1.412  10.687 -0.0375  0.2359 -1.2170
  682MPD2    H110144   3.471   1.762  10.927 -1.2692 -0.0447 -0.4258
  682MPD2    H210145   3.486   1.792  10.513  1.9700  1.7413  1.8992
  682MPD2    H310146   3.508   1.891  10.730 -0.1985  0.8068 -0.7679
  682MPD2     N10147   3.405   1.504  10.940 -0.2736  0.2141 -0.6638
  682MPD2    H510148   3.425   1.551  11.027 -0.7005  1.2074 -1.1015
  682MPD2    N110149   3.462   1.516  10.471 -0.3161 -0.7799 -0.7703
  682MPD2    H710150   3.458   1.415  10.481 -1.3394 -0.5302  1.3228
  683TMC3    C110151   3.460   1.286  11.271 -0.3261  0.1474 -0.1529
  683TMC3    C210152   3.400   1.161  11.292 -0.7116 -0.1410  0.0206
  683TMC3    C310153   3.311   1.120  11.198 -0.0489 -0.5844 -0.4271
  683TMC3    C410154   3.426   1.364  11.168 -0.2227  0.3468  0.1317
  683TMC3    C510155   3.347   1.308  11.069  0.5212 -0.1593 -0.2676
  683TMC3    C610156   3.281   1.188  11.083 -0.0507  0.6016  0.3561
  683TMC3     C10157   3.510   1.353  11.393  0.0365 -0.2441 -0.1564
  683TMC3     O10158   3.506   1.475  11.398 -0.2568 -0.0368  0.3386
  683TMC3     H10159   3.405   1.105  11.385  1.1307 -2.0383 -1.2266
  683TMC3    H110160   3.442   1.471  11.171  0.0482  0.4269 -3.8261
  683TMC3    H210161   3.212   1.158  11.005  0.6103  3.8359 -1.5167
  683TMC3    C710162   3.340   1.377  10.944  0.3465  0.0384  0.9568
  683TMC3    C810163   3.236   1.008  11.227 -0.0401 -0.7840  0.0636
  683TMC3    O110164   3.277   1.323  10.853  0.0574  0.1625 -0.2518
  683TMC3    O210165   3.118   1.008  11.199  0.4977 -0.2102 -0.6682
  684MPD2     C10166   2.267   0.242  15.896  0.5091 -0.1373  0.0781
  684MPD2    C110167   2.216   0.346  15.826  0.0064  0.0409  0.8087
  684MPD2    C210168   2.214   0.471  15.889  0.8892 -0.6859 -0.3944
  684MPD2    C310169   2.254   0.495  16.019  0.0098  0.5944  0.6461
  684MPD2    C410170   2.315   0.383  16.086  0.1997 -0.2387 -0.4795
  684MPD2    C510171   2.323   0.262  16.019  0.0140 -0.2493 -0.1335
  684MPD2     H10172   2.179   0.554  15.829 -2.8430 -1.2575  0.9760
  684MPD2    H110173   2.346   0.387  16.190  2.7318 -0.3072 -1.2297
  684MPD2    H210174   2.274   0.140  15.861  1.0514 -0.1945  0.3537
  684MPD2    H310175   2.354   0.180  16.083  2.2024 -1.2704 -2.4898
  684MPD2     N10176   2.250   0.625  16.070  0.6808 -0.4061  0.1247
  684MPD2    H510177   2.299   0.626  16.159  1.3736 -1.1425 -0.2438
  684MPD2    N110178   2.175   0.330  15.698 -0.4534 -0.5552  0.0659
  684MPD2    H710179   2.170   0.416  15.645 -2.0238 -0.4430  0.3871
  685TMC3    C110180   2.122   0.245  15.488  0.4139  0.4974  1.1719
  685TMC3    C210181   2.046   0.355  15.478 -0.1602  0.2413 -0.4519
  685TMC3    C310182   2.061   0.445  15.377 -0.1135 -0.5882 -0.0135
  685TMC3    C410183   2.214   0.222  15.399  0.2460 -0.0225  0.5021
  685TMC3    C510184   2.250   0.324  15.316 -0.4504  1.1100 -0.2668
  685TMC3    C610185   2.178   0.432  15.299 -0.2217 -0.1984 -0.0300
  685TMC3     C10186   2.160   0.213  15.626  0.2471  0.1583 -0.0947
  685TMC3     O10187   2.170   0.098  15.659 -0.5853  0.6045 -0.7112
  685TMC3     H10188   1.979   0.358  15.563 -0.9162  0.8205 -1.0545
  685TMC3    H110189   2.288   0.144  15.409 -2.6841 -2.6697  1.4532
  685TMC3    H210190   2.209   0.511  15.230 -1.5328  0.2216 -0.1349
  685TMC3    C710191   2.392   0.343  15.298  0.4768  0.3541  0.3839
  685TMC3    C810192   2.013   0.583  15.374 -0.5156 -0.2634 -0.1747
  685TMC3    O110193   2.430   0.419  15.211 -0.0079  0.0747 -0.1958
  685TMC3    O210194   2.055   0.666  15.291 -0.0836 -0.1662 -0.2482
  686MPD2     C10195   3.733   0.731  14.892  0.4486 -0.1535 -0.4016
  686MPD2    C110196   3.750   0.622  14.975 -0.0995 -0.1773 -0.4072
  686MPD2    C210197   3.827   0.512  14.942 -0.1227  0.6649  0.7016
  686MPD2    C310198   3.892   0.516  14.820 -0.4579 -0.3078 -0.0832
  686MPD2    C410199   3.882   0.630  14.738 -1.0601  0.4981  0.1108
  686MPD2    C510200   3.802   0.738  14.775 -0.1809 -1.0002 -0.1326
  686MPD2     H10201   3.849   0.439  15.018 -2.0505 -3.1352 -2.3888
  686MPD2    H110202   3.937   0.629  14.644  1.1602  0.5525  1.4019
  686MPD2    H210203   3.674   0.816  14.924  1.2989 -0.2993  1.5914
  686MPD2    H310204   3.798   0.820  14.704  0.4567 -0.9711 -0.1336
  686MPD2     N10205   3.970   0.416  14.759 -0.1391 -0.1374 -0.0245
  686MPD2    H510206   4.000   0.445  14.667 -0.4979  2.2310  0.6093
  686MPD2    N110207   3.658   0.616  15.083  0.7697 -0.1981 -0.6004
  686MPD2    H710208   3.618   0.704  15.115  1.6090  0.1567 -0.5256
  687TMC3    C110209   3.906   0.237  14.905  0.0128 -0.3895 -0.2860
  687TMC3    C210210   3.780   0.229  14.858  0.0875 -0.3427  0.3860
  687TMC3    C310211   3.692   0.157  14.938 -0.4401  0.8397  0.4299
  687TMC3    C410212   3.955   0.179  15.020  0.0751  0.1086 -0.5697
  687TMC3    C510213   3.867   0.094  15.084  0.9189  0.1343 -0.3466
  687TMC3    C610214   3.737   0.094  15.047 -0.1912 -0.7564 -0.9524
  687TMC3     C10215   4.009   0.295  14.818  0.3752 -0.5355  0.3631
  687TMC3     O10216   4.084   0.215  14.770  0.1495 -0.3723  0.1814
  687TMC3     H10217   3.748   0.256  14.758  0.9349 -0.5320  0.0626
  687TMC3    H110218   4.060   0.186  15.048 -0.2008  0.7043  0.3258
  687TMC3    H210219   3.660   0.050  15.109  0.4405  2.5371  2.1296
  687TMC3    C710220   3.895   0.064  15.222  0.1341 -0.1025 -0.4142
  687TMC3    C810221   3.550   0.172  14.916 -0.2649  0.3142 -0.0200
  687TMC3    O110222   3.805   0.089  15.302  0.9638  0.6618 -0.3576
  687TMC3    O210223   3.489   0.070  14.948  0.0325  0.0241  0.3134
  688MPD2     C10224   2.841   4.576  16.969 -0.6186  0.1778  0.3442
  688MPD2    C110225   2.758   4.477  17.024 -0.4514 -0.3047 -0.1367
  688MPD2    C210226   2.793   4.346  17.003  0.0690 -0.1205  0.7105
  688MPD2    C310227   2.907   4.314  16.928 -0.0878 -0.5924  0.9502
  688MPD2    C410228   2.977   4.418  16.868 -0.9182  0.1985 -0.2074
  688MPD2    C510229   2.947   4.549  16.891 -1.7071 -0.0453 -0.0384
  688MPD2     H10230   2.736   4.269  17.054 -0.6723  0.7167  1.1327
  688MPD2    H110231   3.060   4.390  16.804 -2.0115  1.4190 -2.1656
  688MPD2    H210232   2.809   4.678  16.987  2.6155  1.2943 -0.2536
  688MPD2    H310233   3.012   4.626  16.850 -0.4073 -0.8939  0.4485
  688MPD2     N10234   2.957   4.182  16.901  0.8565 -0.3031 -0.3557
  688MPD2    H510235   3.051   4.168  16.866  1.8347  0.7723  1.8074
  688MPD2    N110236   2.654   4.502  17.120  0.4728  0.5786  0.1404
  688MPD2    H710237   2.597   4.422  17.149  0.2050  1.0954  1.0537
  689TMC3    C110238   2.555   4.630  17.295 -0.0531 -0.0467  0.4493
  689TMC3    C210239   2.548   0.011  17.358 -0.2649  0.6863 -0.0865
  689TMC3    C310240   2.494   0.014  17.481 -0.0979  1.2689 -0.0708
  689TMC3    C410241   2.509   4.513  17.355 -0.1426  0.3934 -1.1667
  689TMC3    C510242   2.448   4.521  17.477 -0.1152  0.8782 -0.6867
  689TMC3    C610243   2.442   4.640  17.544  0.0321 -0.2529 -0.4111
  689TMC3     C10244   2.619   4.627  17.167 -0.4103 -0.1913  0.0081
  689TMC3     O10245   2.651   4.737  17.117 -0.8863  0.3417 -0.2947
  689TMC3     H10246   2.594   0.098  17.312  1.7054 -0.7015 -0.7272
  689TMC3    H110247   2.528   4.416  17.311 -0.8066 -0.5813  0.6981
  689TMC3    H210248   2.387   4.641  17.637  0.9033  3.5403  0.0557
  689TMC3    C710249   2.389   4.406  17.536 -0.3480  0.3389 -0.2181
  689TMC3    C810250   2.477   0.138  17.559  0.2070  0.4451 -0.0128
  689TMC3    O110251   2.375   4.414  17.655 -0.4914  0.1315  0.2282
  689TMC3    O210252   2.450   0.120  17.674  0.6414 -0.2872  0.0904
  690MPD2     C10253   4.439   1.302  15.359  0.2824  0.5080 -0.0126
  690MPD2    C110254   4.547   1.282  15.439 -0.5365  0.0098  0.3908
  690MPD2    C210255   4.674   1.273  15.383 -0.7406  0.4196 -0.0400
  690MPD2    C310256   4.693   1.288  15.242  0.0423 -0.6990  0.2877
  690MPD2    C410257   4.581   1.302  15.170 -0.8562  0.3133  0.2817
  690MPD2    C510258   4.461   1.312  15.227 -0.1388 -0.5642  0.0357
  690MPD2     H10259   0.012   1.266  15.457 -1.1837 -1.8145  0.2015
  690MPD2    H110260   4.590   1.314  15.063  1.5093  0.1975  0.4559
  690MPD2    H210261   4.336   1.307  15.392  0.3732 -0.0347  0.3524
  690MPD2    H310262   4.379   1.324  15.157  0.1454  0.1751 -0.1671
  690MPD2     N10263   0.076   1.260  15.182 -0.1119 -0.1126 -0.4394
  690MPD2    H510264   0.153   1.263  15.248  1.7847  1.4833 -2.7614
  690MPD2    N110265   4.535   1.280  15.580 -0.8081  0.1831 -0.5882
  690MPD2    H710266   4.615   1.257  15.637 -1.2464  0.3160  0.0771
  691TMC3    C110267   4.442   1.306  15.792 -0.3103 -0.1384 -0.1323
  691TMC3    C210268   4.347   1.367  15.870  0.8231 -0.2512  0.5970
  691TMC3    C310269   4.351   1.342  16.009  0.2695 -0.1987  0.2577
  691TMC3    C410270   4.525   1.212  15.846 -0.3049 -0.0623 -0.4737
  691TMC3    C510271   4.534   1.198  15.984  0.0629  0.1127  0.2876
  691TMC3    C610272   4.448   1.270  16.065  0.2775 -0.0101 -0.0925
  691TMC3     C10273   4.421   1.315  15.650  0.0491  0.2139  0.0417
  691TMC3     O10274   4.321   1.373  15.613 -0.6837 -0.3305 -0.4246
  691TMC3     H10275   4.286   1.441  15.820  2.5626 -0.1998 -1.4705
  691TMC3    H110276   4.570   1.135  15.783  2.8622  1.5478 -0.1928
  691TMC3    H210277   4.439   1.254  16.172  0.8091 -0.5002 -0.1204
  691TMC3    C710278   4.553   1.069  16.044  0.0775  0.0774  0.5417
  691TMC3    C810279   4.225   1.294  16.057  0.4382 -0.6430  0.1823
  691TMC3    O110280   4.586   1.080  16.159  0.1368  0.4380  0.8071
  691TMC3    O210281   4.221   1.222  16.153  0.2378  0.1652 -0.0649
  692TMC3    C110282   1.713   2.073  15.880  0.5640 -0.7857  0.5458
  692TMC3    C210283   1.845   2.093  15.928 -0.2766 -0.6850 -0.7594
  692TMC3    C310284   1.938   1.992  15.927  0.7353 -0.4346 -0.6536
  692TMC3    C410285   1.668   1.950  15.831  0.3087 -0.1355 -0.1707
  692TMC3    C510286   1.767   1.851  15.838 -0.0719  0.8425 -0.9727
  692TMC3    C610287   1.885   1.869  15.905  0.0084 -0.0209 -1.2806
  692TMC3     C10288   1.619   2.182  15.895  0.4652 -0.6700  0.4048
  692TMC3     O10289   1.504   2.141  15.902 -0.3710  0.0791 -0.9523
  692TMC3     H10290   1.863   2.175  15.996  0.9218 -0.3903 -1.4425
  692TMC3    H110291   1.568   1.932  15.792 -0.1925  0.1499  0.9877
  692TMC3    H210292   1.952   1.784  15.906 -0.9417 -0.7488  1.1947
  692TMC3    C710293   1.719   1.715  15.809  0.2823  0.5954  0.6191
  692TMC3    C810294   2.035   1.986  16.036  0.6166  0.1428 -0.0056
  692TMC3    O110295   1.617   1.703  15.746 -0.7115  0.5103  0.1939
  692TMC3    O210296   2.055   1.876  16.089  0.5380 -0.3363 -0.0101
  693MPD2     C10297   1.021   0.333  10.782 -0.2579 -0.2962 -0.4014
  693MPD2    C110298   0.997   0.234  10.874 -0.0655 -0.3063 -0.1136
  693MPD2    C210299   1.104   0.169  10.934 -0.1223 -0.0265 -0.4737
  693MPD2    C310300   1.234   0.201  10.909  0.1466  0.3998  0.8787
  693MPD2    C410301   1.260   0.302  10.826  0.2908  0.0211  0.2711
  693MPD2    C510302   1.157   0.363  10.763  0.1698  0.8818  0.3656
  693MPD2     H10303   1.088   0.088  11.005 -1.9234  0.2044 -0.6074
  693MPD2    H110304   1.365   0.326  10.812  0.2730  0.0154  0.1219
  693MPD2    H210305   0.944   0.401  10.748  0.7302  0.9156 -0.2331
  693MPD2    H310306   1.176   0.431  10.681  2.2229  0.2233  0.3036
  693MPD2     N10307   1.351   0.137  10.956 -0.3113 -0.4890 -0.2869
  693MPD2    H510308   1.436   0.153  10.903 -0.7127 -0.7423 -1.0041
  693MPD2    N110309   0.867   0.198  10.918  0.2759 -0.5243 -0.6103
  693MPD2    H710310   0.858   0.127  10.990  1.9767 -0.0982  0.0239
  694TMC3    C110311   0.637   0.160  10.920 -0.0297  0.7037  0.1790
  694TMC3    C210312   0.563   0.106  10.822  0.7781  0.5300 -0.2440
  694TMC3    C310313   0.494   0.000  10.852  0.2288  0.1378  0.1095
  694TMC3    C410314   0.643   0.102  11.046 -0.1158  0.0893  0.4984
  694TMC3    C510315   0.570   4.729  11.072  0.3718  0.6532 -0.4216
  694TMC3    C610316   0.496   4.677  10.975 -0.4441  0.2809 -0.7005
  694TMC3     C10317   0.743   0.247  10.876 -0.3786 -0.0031 -0.4512
  694TMC3     O10318   0.719   0.314  10.781  0.3473  0.6211  0.2155
  694TMC3     H10319   0.549   0.152  10.725 -0.0877 -0.7410 -0.7214
  694TMC3    H110320   0.711   0.141  11.121 -0.7912 -1.1407  1.7545
  694TMC3    H210321   0.428   4.596  10.997  1.3404 -0.7851  0.9996
  694TMC3    C710322   0.579   4.650  11.194 -0.3810 -0.2378  0.0880
  694TMC3    C810323   0.395   4.685  10.757 -0.0584 -0.0428 -0.0695
  694TMC3    O110324   0.589   4.713  11.296  0.3129 -0.0025 -0.0939
  694TMC3    O210325   0.379   4.564  10.755 -0.0200  0.9197  0.2010
  695MPD2     C10326   2.124   1.336  13.583  0.5235  0.0361 -0.0981
  695MPD2    C110327   2.038   1.376  13.687 -0.1964  0.4684  0.1149
  695MPD2    C210328   1.911   1.406  13.646 -0.3262  0.2413  0.0674
  695MPD2    C310329   1.884   1.431  13.513 -0.0302 -0.4438  0.1778
  695MPD2    C410330   1.969   1.382  13.416  0.4632 -0.2430 -0.7443
  695MPD2    C510331   2.087   1.326  13.450 -0.5509 -0.1214  0.1696
  695MPD2     H10332   1.836   1.425  13.723  0.2443 -0.2760  0.7570
  695MPD2    H110333   1.945   1.386  13.310 -2.1338  0.4097 -0.1309
  695MPD2    H210334   2.229   1.319  13.604  0.7181  1.4547  0.1145
  695MPD2    H310335   2.144   1.284  13.368 -2.1747  1.4484 -1.7608
  695MPD2     N10336   1.756   1.493  13.484  0.4487 -0.7601  0.2353
  695MPD2    H510337   1.694   1.509  13.562  0.3793 -0.4188  0.1084
  695MPD2    N110338   2.077   1.383  13.827 -0.1211  0.4993  0.3497
  695MPD2    H710339   1.999   1.393  13.891 -0.6928 -3.3380  0.2725
  696TMC3    C110340   1.605   1.618  13.343 -0.1518 -0.1521 -0.0409
  696TMC3    C210341   1.522   1.635  13.449 -0.0357 -0.6596  0.3335
  696TMC3    C310342   1.425   1.737  13.433  0.0823 -0.3029 -0.8267
  696TMC3    C410343   1.602   1.698  13.231 -0.2190 -0.1581 -0.0600
  696TMC3    C510344   1.510   1.806  13.225 -0.7490 -0.5909 -0.6559
  696TMC3    C610345   1.422   1.823  13.327  0.1233  0.1812  0.9396
  696TMC3     C10346   1.719   1.529  13.357  0.2782 -0.2313  0.1711
  696TMC3     O10347   1.776   1.513  13.249  0.0295 -0.6281 -0.1741
  696TMC3     H10348   1.525   1.576  13.539  1.4818 -1.5878 -0.3226
  696TMC3    H110349   1.687   1.699  13.164 -0.3133 -0.3749 -0.1815
  696TMC3    H210350   1.350   1.902  13.313 -0.5139 -0.4616  0.5842
  696TMC3    C710351   1.534   1.921  13.142 -0.3764  0.2811 -0.5887
  696TMC3    C810352   1.365   1.789  13.560  0.3022  0.0963  0.5633
  696TMC3    O110353   1.584   1.907  13.029 -0.1498 -0.3985 -0.4206
  696TMC3    O210354   1.432   1.770  13.661 -0.8736  0.1510  0.1058
  697MPD2     C10355   1.533   3.500  15.731 -0.1419  0.0213  0.3924
  697MPD2    C110356   1.505   3.490  15.596  0.6996 -0.5097  0.5908
  697MPD2    C210357   1.529   3.593  15.510  0.7907 -0.4101  0.2226
  697MPD2    C310358   1.566   3.716  15.560  0.1202  0.1110  0.0425
  697MPD2    C410359   1.578   3.727  15.698 -0.1403 -0.0576 -0.2581
  697MPD2    C510360   1.569   3.620  15.783  0.3569 -0.5220  0.0294
  697MPD2     H10361   1.508   3.581  15.405 -0.4668  1.0744  0.3142
  697MPD2    H110362   1.612   3.816  15.749 -1.5016  0.5138 -0.3410
  697MPD2    H210363   1.523   3.423  15.807 -1.1542 -0.3599 -0.1212
  697MPD2    H310364   1.592   3.633  15.888 -2.6934  1.4847  0.4514
  697MPD2     N10365   1.609   3.814  15.470  0.6245 -0.1731 -0.0809
  697MPD2    H510366   1.622   3.780  15.375 -2.3588  1.0100 -0.9213
  697MPD2    N110367   1.459   3.374  15.539  0.2699 -0.3512 -0.6735
  697MPD2    H710368   1.444   3.367  15.439  0.0218  0.6144 -0.7073
  698TMC3    C110369   1.644   4.034  15.390  0.2340  0.1650  0.5597
  698TMC3    C210370   1.710   4.152  15.414 -0.0942  0.1919  0.6639
  698TMC3    C310371   1.754   4.218  15.301 -0.3377 -0.4370  0.6724
  698TMC3    C410372   1.638   3.977  15.268 -0.3522  0.3680 -0.4873
  698TMC3    C510373   1.677   4.053  15.159 -0.0548 -0.7273  0.2211
  698TMC3    C610374   1.729   4.174  15.172 -0.0960  0.2112 -0.0880
  698TMC3     C10375   1.630   3.949  15.502 -0.1570 -0.5184  0.3318
  698TMC3     O10376   1.606   4.004  15.607 -0.1613 -0.1215 -0.2558
  698TMC3     H10377   1.732   4.187  15.514 -1.5746  0.7204  0.8103
  698TMC3    H110378   1.597   3.879  15.251  3.3803 -1.0254 -1.4155
  698TMC3    H210379   1.753   4.245  15.093 -0.9798  0.8244  0.1827
  698TMC3    C710380   1.654   4.004  15.018 -0.2110 -0.2687 -0.3571
  698TMC3    C810381   1.805   4.350  15.346 -0.1790 -0.0255  0.5189
  698TMC3    O110382   1.576   3.914  14.999 -0.5076 -0.0633  0.2617
  698TMC3    O210383   1.754   4.397  15.448  0.6519 -0.6775  0.1099
  699TMC3    C110384   1.475   1.863  12.714 -0.1163  0.3832 -0.3890
  699TMC3    C210385   1.570   1.765  12.734  0.5230 -0.1731 -0.5638
  699TMC3    C310386   1.523   1.634  12.749  0.3219  0.5411 -0.3966
  699TMC3    C410387   1.343   1.830  12.710 -0.2598  0.1654  0.1096
  699TMC3    C510388   1.304   1.703  12.737  0.1963 -0.6291 -0.2138
  699TMC3    C610389   1.390   1.601  12.767  0.8306 -0.7394 -0.0159
  699TMC3     C10390   1.518   1.994  12.663  0.5245 -0.1922  0.7493
  699TMC3     O10391   1.445   2.055  12.587 -0.7416 -0.3456 -0.0150
  699TMC3     H10392   1.672   1.796  12.715  0.5575 -1.3554 -2.3839
  699TMC3    H110393   1.271   1.907  12.685 -1.8291 -0.7095  1.9999
  699TMC3    H210394   1.345   1.505  12.790 -0.0197  0.0471  1.5963
  699TMC3    C710395   1.169   1.676  12.787  0.2606 -0.5766  0.6914
  699TMC3    C810396   1.610   1.529  12.781 -0.0468  0.5270  0.3775
  699TMC3    O110397   1.160   1.611  12.892 -0.5141 -0.0556 -0.5103
  699TMC3    O210398   1.550   1.429  12.820 -0.3108  0.1657 -0.5704
  700TMC3    C110399   0.638   4.491  17.133  0.1347 -0.8507 -0.1258
  700TMC3    C210400   0.743   4.420  17.088 -0.4170 -0.2807 -0.2040
  700TMC3    C310401   0.855   4.416  17.166  0.7821  0.4734  0.0013
  700TMC3    C410402   0.641   4.572  17.242 -0.3423  0.1751 -0.8633
  700TMC3    C510403   0.762   4.579  17.303  0.4568  0.8329  0.5646
  700TMC3    C610404   0.871   4.503  17.270  0.3581 -0.6216 -0.1562
  700TMC3     C10405   0.567   4.545  17.022 -0.3122 -0.3940  0.1443
  700TMC3     O10406   0.450   4.571  17.043  0.4662 -0.4293 -0.5341
  700TMC3     H10407   0.722   4.351  17.008 -1.0979 -1.3624  0.9143
  700TMC3    H110408   0.553   4.629  17.270  0.9092  1.9858 -0.6274
  700TMC3    H210409   0.968   4.510  17.318 -0.3554  1.7520  0.9447
  700TMC3    C710410   0.811   4.694  17.377 -0.6663 -0.7380 -0.0444
  700TMC3    C810411   0.947   4.309  17.136  0.4589  0.2451  0.4072
  700TMC3    O110412   0.931   4.724  17.373  0.4145 -0.0300 -0.1305
  700TMC3    O210413   0.908   4.234  17.050 -0.1112 -0.1322 -0.4655
  701TMC3    C110414   0.664   3.122  15.382 -0.1689 -0.0831  0.5360
  701TMC3    C210415   0.748   3.052  15.298  0.3785  0.3216 -0.1495
  701TMC3    C310416   0.854   3.115  15.246  0.8310  0.2734  0.0480
  701TMC3    C410417   0.699   3.255  15.425  0.8691 -0.8910 -0.3495
  701TMC3    C510418   0.817   3.301  15.382 -0.3900 -0.2337 -1.1409
  701TMC3    C610419   0.898   3.236  15.295 -0.1036  1.0211 -0.0411
  701TMC3     C10420   0.534   3.067  15.420 -0.2308 -0.4949 -0.2674
  701TMC3     O10421   0.472   3.134  15.502  0.2210 -0.5056  0.0565
  701TMC3     H10422   0.720   2.955  15.257 -1.2668  1.0208 -0.6379
  701TMC3    H110423   0.646   3.311  15.501  0.7293 -0.6486 -0.6279
  701TMC3    H210424   0.984   3.289  15.258 -0.2573  1.0647 -0.3398
  701TMC3    C710425   0.865   3.438  15.404  0.4765  0.0140 -0.4280
  701TMC3    C810426   0.907   3.077  15.112 -0.4733 -0.6253  0.4849
  701TMC3    O110427   0.941   3.491  15.322  0.1917 -0.4507 -0.5453
  701TMC3    O210428   1.018   3.121  15.087 -0.2683  0.3031 -0.8105
  702MPD2     C10429   4.299   0.494  10.302  0.5640 -0.6291 -0.4394
  702MPD2    C110430   4.399   0.539  10.387 -0.1940  0.0982  0.5184
  702MPD2    C210431   4.407   0.675  10.408  1.0187 -0.4775 -0.0901
  702MPD2    C310432   4.335   0.769  10.338 -0.1171  0.4069  0.2729
  702MPD2    C410433   4.231   0.718  10.260 -0.6100  0.0381 -0.4162
  702MPD2    C510434   4.219   0.585  10.234 -0.1628 -0.1384  0.6870
  702MPD2     H10435   4.481   0.712  10.477  1.8373 -0.8562 -0.7712
  702MPD2    H110436   4.165   0.779  10.200 -2.2548 -0.7380  0.5839
  702MPD2    H210437   4.294   0.390  10.271  0.6583 -0.6322 -0.4440
  702MPD2    H310438   4.151   0.547  10.158 -0.6369 -1.5964  1.8327
  702MPD2     N10439   4.354   0.909  10.347 -0.2540 -0.3635 -0.4846
  702MPD2    H510440   4.288   0.964  10.293  0.7239  0.9130 -0.3897
  702MPD2    N110441   4.465   0.452  10.480  0.3939  0.2380  0.1641
  702MPD2    H710442   4.522   0.494  10.552  0.8657 -2.5135  1.4035
  703TMC3    C110443   4.466   1.109  10.409 -0.3827 -0.0505  0.4202
  703TMC3    C210444   4.354   1.185  10.422 -0.2744 -0.2305 -0.3349
  703TMC3    C310445   4.358   1.301  10.357  0.0722  0.4865  0.1082
  703TMC3    C410446   4.576   1.146  10.341 -0.3654  0.4691  0.7759
  703TMC3    C510447   4.565   1.253  10.264  0.2609 -0.2269 -0.1684
  703TMC3    C610448   4.461   1.340  10.279 -0.1324 -0.2021 -1.1980
  703TMC3     C10449   4.453   0.967  10.423  0.0304 -0.4873 -0.3269
  703TMC3     O10450   4.523   0.923  10.512 -0.2409  0.1154  0.4895
  703TMC3     H10451   4.266   1.146  10.474 -1.1654  0.9740 -0.9360
  703TMC3    H110452   4.646   1.064  10.327 -0.0806  0.3870  2.7100
  703TMC3    H210453   4.462   1.435  10.225  1.5072  0.7874  0.5596
  703TMC3    C710454   4.686   1.304  10.198 -0.8797  0.4142 -0.4982
  703TMC3    C810455   4.249   1.393  10.367 -0.3548 -0.5357 -0.0364
  703TMC3    O110456   0.056   1.257  10.232 -0.2017  0.1121 -0.0511
  703TMC3    O210457   4.257   1.481  10.279 -0.5915  0.0359 -0.5616
  704TMC3    C110458   2.294   3.924  12.317  0.3449  0.1221  0.0736
  704TMC3    C210459   2.429   3.947  12.291 -0.2767  0.4083 -0.3431
  704TMC3    C310460   2.518   3.912  12.389 -0.5303  0.1896  0.8075
  704TMC3    C410461   2.247   3.846  12.420  0.4178 -1.0378  0.3543
  704TMC3    C510462   2.346   3.791  12.501  0.3199  0.3070 -0.3244
  704TMC3    C610463   2.484   3.827  12.492  0.1781  0.7151 -0.1188
  704TMC3     C10464   2.209   3.927  12.203  0.8985  0.1242  0.2087
  704TMC3     O10465   2.089   3.898  12.215 -0.2536  0.7211  0.3844
  704TMC3     H10466   2.450   4.028  12.222 -0.3379  1.0458  0.3887
  704TMC3    H110467   2.146   3.809  12.406 -0.2385  0.8248  0.1358
  704TMC3    H210468   2.559   3.794  12.564 -0.4059  0.3237  0.3067
  704TMC3    C710469   2.332   3.653  12.536 -0.3865  0.1886 -0.1291
  704TMC3    C810470   2.650   3.887  12.345 -0.1850  0.2135  0.0310
  704TMC3    O110471   2.429   3.590  12.497 -0.4440 -0.1320  0.1170
  704TMC3    O210472   2.672   3.897  12.228  0.0935 -0.4797 -0.0341
  705MPD2     C10473   2.180   1.607  16.741 -0.2481 -0.9349  0.1373
  705MPD2    C110474   2.183   1.714  16.651  0.1909  0.1302 -0.4719
  705MPD2    C210475   2.121   1.832  16.688  0.4132 -0.3758 -0.0615
  705MPD2    C310476   2.033   1.838  16.802  0.1928 -0.7289  0.1611
  705MPD2    C410477   2.033   1.724  16.888  0.5767  0.1631 -0.6534
  705MPD2    C510478   2.109   1.615  16.860  0.1155 -0.2924  0.3069
  705MPD2     H10479   2.135   1.916  16.622  0.5414  0.6260  1.2368
  705MPD2    H110480   1.979   1.725  16.982  1.2292 -0.9687 -0.2616
  705MPD2    H210481   2.242   1.519  16.729  1.1000  0.0446 -0.0799
  705MPD2    H310482   2.115   1.522  16.915 -0.4754 -0.5072  0.0033
  705MPD2     N10483   1.965   1.951  16.841 -0.2428  0.1425  0.4477
  705MPD2    H510484   1.921   1.950  16.933  4.2594 -2.3422  2.5456
  705MPD2    N110485   2.256   1.704  16.534 -0.2171 -0.0371  0.0825
  705MPD2    H710486   2.294   1.790  16.496 -1.3715 -0.0863 -1.1506
  706TMC3    C110487   2.385   1.513  16.128  0.6603  0.4077  0.4381
  706TMC3    C210488   2.418   1.637  16.070 -0.0389 -0.5167 -0.0375
  706TMC3    C310489   2.439   1.733  16.161  0.0444  0.5240 -0.0337
  706TMC3    C410490   2.346   1.494  16.255  0.3037 -0.0866 -0.5806
  706TMC3    C510491   2.343   1.600  16.339  0.1895  0.3172 -0.0178
  706TMC3    C610492   2.389   1.722  16.293 -0.3836  0.2001  0.3541
  706TMC3     C10493   2.362   1.403  16.034 -1.1527 -0.5044 -0.0552
  706TMC3     O10494   2.415   1.297  16.060  0.8288 -0.7012  0.7384
  706TMC3     H10495   2.446   1.642  15.965 -0.9744  0.0331 -0.2578
  706TMC3    H110496   2.293   1.405  16.287  1.2475  0.3199  2.0749
  706TMC3    H210497   2.377   1.811  16.354  1.0781  1.0713 -0.6242
  706TMC3    C710498   2.276   1.585  16.467 -0.7185  0.0221  0.1734
  706TMC3    C810499   2.467   1.863  16.106 -0.3317  0.7684 -0.1696
  706TMC3    O110500   2.209   1.486  16.480  0.2157 -0.1713  0.3739
  706TMC3    O210501   2.470   1.884  15.986  0.3405 -0.0095  0.3782
  707TMC3    C110502   4.076   1.865   1.645 -0.6670 -0.6333  0.4631
  707TMC3    C210503   4.137   1.851   1.773  0.3954 -0.1082 -0.2759
  707TMC3    C310504   4.061   1.795   1.871  0.0674  0.3399 -0.5964
  707TMC3    C410505   3.944   1.836   1.625  0.2932  0.7268 -0.2296
  707TMC3    C510506   3.871   1.788   1.730  0.2897  0.8066 -0.6167
  707TMC3    C610507   3.934   1.752   1.850 -0.6760 -0.3146 -0.9962
  707TMC3     C10508   4.173   1.847   1.540 -0.1289 -1.0020  0.3485
  707TMC3     O10509   4.292   1.879   1.554  0.3812  0.5271  0.2161
  707TMC3     H10510   4.239   1.884   1.790  0.1313  0.4105  0.3292
  707TMC3    H110511   3.898   1.875   1.535  2.2231 -0.2236 -1.6162
  707TMC3    H210512   3.867   1.703   1.920  0.0757 -0.8751 -0.6846
  707TMC3    C710513   3.726   1.798   1.733 -0.1165 -0.4316 -0.0148
  707TMC3    C810514   4.128   1.716   1.974  0.5894  0.2951  0.2712
  707TMC3    O110515   3.673   1.825   1.836 -0.3777  0.0638  0.5652
  707TMC3    O210516   4.065   1.689   2.076  0.1487 -0.0690  0.0332
  708MPD2     C10517   0.794   4.595  13.874  0.2470 -0.4448  0.3407
  708MPD2    C110518   0.667   4.586  13.914 -0.7600 -0.7542  0.7203
  708MPD2    C210519   0.641   4.598  14.053  0.0718 -0.7009 -0.6830
  708MPD2    C310520   0.745   4.618  14.142  0.8730 -0.2569 -0.3536
  708MPD2    C410521   0.874   4.649  14.096  0.4904  0.0969 -0.4528
  708MPD2    C510522   0.891   4.637  13.959  0.4774 -0.1915 -0.0944
  708MPD2     H10523   0.539   4.596  14.089  0.4732 -1.3176  0.4212
  708MPD2    H110524   0.966   4.671  14.148  0.1465 -0.5044  0.4141
  708MPD2    H210525   0.822   4.593  13.769  0.2676 -1.9694  0.3744
  708MPD2    H310526   0.987   4.648  13.910  0.4776 -0.6054 -0.1931
  708MPD2     N10527   0.723   4.604  14.291 -0.6369  0.9521  0.2853
  708MPD2    H510528   0.795   4.651  14.345  1.5429 -0.0939 -1.6689
  708MPD2    N110529   0.561   4.556  13.830 -0.7569 -0.0721 -0.3896
  708MPD2    H710530   0.465   4.550  13.864 -0.4728  2.6171  0.8905
  709TMC3    C110531   0.449   4.434  13.657 -0.0177 -0.1492  0.7589
  709TMC3    C210532   0.377   4.500  13.556 -0.3979  0.3027 -0.4728
  709TMC3    C310533   0.238   4.507  13.570 -0.0372 -0.0481 -0.3554
  709TMC3    C410534   0.389   4.376  13.765  0.6987  0.4937  0.0435
  709TMC3    C510535   0.253   4.400  13.778  0.1250 -0.3874  0.7690
  709TMC3    C610536   0.175   4.460  13.683  0.6101 -0.0528 -0.6991
  709TMC3     C10537   0.570   4.502  13.701  0.0104 -0.1789 -0.0027
  709TMC3     O10538   0.654   4.520  13.614  0.0722 -0.3040 -0.3241
  709TMC3     H10539   0.431   4.537  13.470  2.1652 -0.3225  0.8442
  709TMC3    H110540   0.453   4.330  13.839 -0.7826  0.0149  1.0286
  709TMC3    H210541   0.072   4.488  13.698  0.8581  0.6924 -0.3321
  709TMC3    C710542   0.209   4.392  13.914 -0.4280  0.4920  0.3413
  709TMC3    C810543   0.137   4.523  13.466 -0.3211 -0.4417  0.0489
  709TMC3    O110544   0.283   4.333  13.991  0.6891  0.2685  0.7187
  709TMC3    O210545   0.019   4.507  13.494  0.6800  0.2417 -0.0344
  710TMC3    C110546   1.797   2.080   0.194 -0.4749  0.1553  0.1000
  710TMC3    C210547   1.865   2.055   0.081 -0.2531 -0.2337  0.2440
  710TMC3    C310548   1.974   1.982   0.091  0.2095 -0.0991 -0.3413
  710TMC3    C410549   1.832   2.039   0.318  0.2483  0.5174 -0.3742
  710TMC3    C510550   1.944   1.966   0.323  0.0152 -0.6418  0.0189
  710TMC3    C610551   2.023   1.937   0.213 -0.4964 -0.0951 -0.0602
  710TMC3     C10552   1.697   2.187   0.193 -0.8007  0.4481  0.4126
  710TMC3     O10553   1.612   2.191   0.106 -0.0599 -0.0631 -0.4226
  710TMC3     H10554   1.834   2.102  17.748 -1.2877 -0.1247  0.6419
  710TMC3    H110555   1.768   2.048   0.405  2.4069 -0.0456  1.2601
  710TMC3    H210556   2.109   1.874   0.227 -0.2289  0.3859  0.4302
  710TMC3    C710557   2.007   1.967   0.451 -0.1375  0.2859  0.5366
  710TMC3    C810558   2.030   1.926  17.735 -0.1851 -0.3947  0.1713
  710TMC3    O110559   1.983   2.067   0.517  0.4582  0.6998 -0.6561
  710TMC3    O210560   2.038   1.990  17.634  0.1911 -0.3787 -0.0397
  711TMC3    C110561   1.534   2.541  15.002  0.2026 -0.1761 -0.6342
  711TMC3    C210562   1.513   2.525  15.137 -0.1292  0.0832 -0.0161
  711TMC3    C310563   1.511   2.635  15.224 -1.0485  0.6002  0.0264
  711TMC3    C410564   1.558   2.669  14.957  0.2784  0.2936 -0.0759
  711TMC3    C510565   1.572   2.776  15.042 -0.7503 -0.6219  0.1340
  711TMC3    C610566   1.542   2.760  15.179 -0.0702 -0.3803  0.6208
  711TMC3     C10567   1.496   2.428  14.908 -0.2416  0.0550  0.1150
  711TMC3     O10568   1.424   2.449  14.808 -0.2605 -0.3680 -0.2517
  711TMC3     H10569   1.504   2.422  15.173  1.5473 -0.2528 -0.5826
  711TMC3    H110570   1.588   2.686  14.854 -2.6068  0.1052 -0.9600
  711TMC3    H210571   1.543   2.848  15.242 -2.4525 -0.6723  1.0770
  711TMC3    C710572   1.702   2.843  15.023 -0.1117  0.3784 -0.0113
  711TMC3    C810573   1.583   2.601  15.337 -0.2181  0.0019 -0.1396
  711TMC3    O110574   1.739   2.863  14.912  0.1262 -0.0469  0.2165
  711TMC3    O210575   1.676   2.680  15.353  0.0478  0.0583  0.3732
  712MPD2     C10576   2.719   3.367  13.340  0.1060  0.8171 -0.1142
  712MPD2    C110577   2.605   3.427  13.291 -0.0568 -0.5637  0.3786
  712MPD2    C210578   2.593   3.567  13.302  0.2241  0.4680  0.0042
  712MPD2    C310579   2.696   3.654  13.344 -0.5094 -0.7676 -0.2746
  712MPD2    C410580   2.812   3.590  13.375 -0.8494  0.0833  0.0618
  712MPD2    C510581   2.825   3.452  13.369  0.2881 -1.0607  0.3366
  712MPD2     H10582   2.494   3.612  13.293 -0.5520 -0.8235  2.3739
  712MPD2    H110583   2.901   3.645  13.405 -1.7765  1.7688 -0.2966
  712MPD2    H210584   2.723   3.260  13.360 -2.1656  0.1453 -3.2722
  712MPD2    H310585   2.922   3.420  13.403  0.0330 -2.1877 -0.0185
  712MPD2     N10586   2.679   3.793  13.369 -0.3450 -0.2449  0.4074
  712MPD2    H510587   2.758   3.845  13.406  1.7759 -3.1009 -0.0602
  712MPD2    N110588   2.481   3.362  13.264  0.1570 -0.9473 -0.9014
  712MPD2    H710589   2.401   3.423  13.248 -0.8027 -1.6412  1.2143
  713TMC3    C110590   2.571   4.005  13.389  0.4162 -0.3214 -0.2785
  713TMC3    C210591   2.678   4.049  13.460  0.3499 -0.3723 -0.5428
  713TMC3    C310592   2.688   4.187  13.475 -0.9281  0.2080  0.5669
  713TMC3    C410593   2.486   4.096  13.333  0.1134  0.9811  0.4646
  713TMC3    C510594   2.513   4.228  13.339  0.1198 -0.0568  0.2064
  713TMC3    C610595   2.614   4.279  13.415 -0.4833  0.3069 -0.1349
  713TMC3     C10596   2.561   3.866  13.336 -0.2526 -0.2001 -0.5357
  713TMC3     O10597   2.468   3.835  13.260  0.5973 -0.2996 -0.0680
  713TMC3     H10598   2.745   3.984  13.515  0.5304  1.2691  1.1468
  713TMC3    H110599   2.398   4.065  13.280 -0.4709 -0.2262  2.1328
  713TMC3    H210600   2.638   4.385  13.414 -2.0112  0.6489 -0.9133
  713TMC3    C710601   2.482   4.313  13.226 -0.8271  0.7324  0.5019
  713TMC3    C810602   2.823   4.238  13.496  0.4921 -0.0501  0.1583
  713TMC3    O110603   2.572   4.328  13.147  0.4216 -0.5454 -0.5495
  713TMC3    O210604   2.841   4.354  13.472 -0.2237  0.0173  0.8636
  714MPD2     C10605   1.154   3.608   1.640  0.0171 -0.4129 -0.5879
  714MPD2    C110606   1.117   3.543   1.526 -0.5119  0.5932 -0.0045
  714MPD2    C210607   0.985   3.510   1.515  0.3740  0.1680  0.3485
  714MPD2    C310608   0.887   3.539   1.609 -0.3521 -0.9422  0.3881
  714MPD2    C410609   0.926   3.617   1.714  0.2380  0.5876 -0.3574
  714MPD2    C510610   1.056   3.650   1.730 -0.4320  0.5041  0.5330
  714MPD2     H10611   0.946   3.462   1.426 -0.9983  0.8139  0.5885
  714MPD2    H110612   0.843   3.653   1.774  2.3763  1.9307  1.7992
  714MPD2    H210613   1.256   3.640   1.659  0.8944 -1.4045 -3.6433
  714MPD2    H310614   1.086   3.712   1.813 -2.1120 -2.3829  3.2976
  714MPD2     N10615   0.755   3.503   1.582  0.0108 -0.0560  0.4593
  714MPD2    H510616   0.736   3.422   1.523  0.5778 -0.5461  0.9510
  714MPD2    N110617   1.210   3.503   1.429  0.1345 -0.4963  0.0568
  714MPD2    H710618   1.291   3.565   1.426  0.8866 -1.4059  1.5224
  715TMC3    C110619   1.313   3.378   1.253  0.2522  0.0743  0.2488
  715TMC3    C210620   1.319   3.256   1.199 -0.6265 -0.4167  0.9317
  715TMC3    C310621   1.438   3.214   1.142  0.2921  0.5497 -0.3151
  715TMC3    C410622   1.423   3.463   1.251 -0.0911 -0.7217  0.2846
  715TMC3    C510623   1.534   3.411   1.197 -0.3718 -0.2180 -0.5119
  715TMC3    C610624   1.546   3.288   1.131 -0.1639 -0.1249  0.8763
  715TMC3     C10625   1.193   3.405   1.335 -0.7593  0.8543 -0.8301
  715TMC3     O10626   1.106   3.318   1.326 -0.6382 -0.2260  0.4594
  715TMC3     H10627   1.235   3.188   1.190 -0.1272 -0.9697  0.3791
  715TMC3    H110628   1.410   3.566   1.281 -1.8013 -0.3157 -1.8041
  715TMC3    H210629   1.639   3.254   1.086 -0.7051 -2.2825  1.3780
  715TMC3    C710630   1.662   3.481   1.202 -0.3840  0.2665 -0.2922
  715TMC3    C810631   1.467   3.066   1.141  0.7076 -0.6368  0.8922
  715TMC3    O110632   1.753   3.440   1.131 -0.1681  0.0369  0.6260
  715TMC3    O210633   1.371   2.992   1.138 -0.0963 -0.0388  0.9842
  716MPD2     C10634   3.885   1.355  10.073  0.3987  0.1542 -0.9814
  716MPD2    C110635   3.866   1.309   9.942  0.5881  0.7669 -0.1142
  716MPD2    C210636   3.953   1.213   9.904  0.2430 -0.6268  0.4583
  716MPD2    C310637   4.051   1.159   9.997 -0.4672  0.3882 -0.3466
  716MPD2    C410638   4.057   1.209  10.126  0.3204 -0.2726 -0.3455
  716MPD2    C510639   3.975   1.308  10.168 -0.4007 -0.8603 -0.4253
  716MPD2     H10640   3.958   1.178   9.802  1.4896 -1.4834  0.8097
  716MPD2    H110641   4.135   1.181  10.196 -0.0014 -1.1967 -0.3691
  716MPD2    H210642   3.811   1.421  10.117  2.3444  0.1591  2.2435
  716MPD2    H310643   3.982   1.339  10.272 -2.3926  0.2078 -0.5973
  716MPD2     N10644   4.122   1.050   9.946  0.1088 -0.0199  0.7748
  716MPD2    H510645   4.101   1.011   9.855  1.7497  0.4640  0.1971
  716MPD2    N110646   3.766   1.362   9.861 -0.2112  0.2138  0.2336
  716MPD2    H710647   3.712   1.437   9.904  0.4713  1.9761 -1.9424
  717TMC3    C110648   4.265   0.877   9.904  0.3467 -0.0115  0.6901
  717TMC3    C210649   4.203   0.857   9.784 -0.4511 -0.3408 -0.9102
  717TMC3    C310650   4.261   0.765   9.703 -0.4924  0.0793 -0.3036
  717TMC3    C410651   4.376   0.810   9.946  0.3822 -0.0948  0.2075
  717TMC3    C510652   4.426   0.719   9.860  0.6088 -0.8591  0.2113
  717TMC3    C610653   4.369   0.696   9.741  0.4240 -0.2401  0.3828
  717TMC3     C10654   4.227   0.983   9.997 -0.3114  0.3815  0.3032
  717TMC3     O10655   4.295   1.006  10.093  0.3082  0.3341 -0.1440
  717TMC3     H10656   4.111   0.906   9.757 -1.4849 -0.9087  1.6231
  717TMC3    H110657   4.415   0.823  10.046  0.0332 -1.4763  0.5219
  717TMC3    H210658   4.400   0.615   9.676  0.2569 -0.1697  0.2126
  717TMC3    C710659   4.512   0.617   9.906 -0.1902  0.2941 -0.5703
  717TMC3    C810660   4.171   0.703   9.611 -0.3677 -0.1629  0.2263
  717TMC3    O110661   4.537   0.524   9.828 -0.0679  0.0967  0.2186
  717TMC3    O210662   4.056   0.719   9.647 -0.4496 -0.3444  0.3347
  718MPD2     C10663   3.985   4.352  12.789  0.8869 -0.7482 -0.3047
  718MPD2    C110664   3.924   4.246  12.729 -0.0804  0.3452 -0.2272
  718MPD2    C210665   3.877   4.152  12.821  0.6435  0.0343 -0.5101
  718MPD2    C310666   3.887   4.166  12.958 -0.3739  0.2866 -0.2732
  718MPD2    C410667   3.937   4.283  13.010  0.3496 -0.4200  0.3819
  718MPD2    C510668   3.984   4.377  12.922  1.0193 -0.3544  0.2637
  718MPD2     H10669   3.831   4.062  12.783 -1.9684  1.1144  0.1496
  718MPD2    H110670   3.945   4.299  13.117  3.2322  0.5570  0.0109
  718MPD2    H210671   4.043   4.417  12.725 -0.8951  0.0315 -1.1194
  718MPD2    H310672   4.030   4.462  12.971  0.0529  0.9148 -1.0137
  718MPD2     N10673   3.832   4.060  13.033 -0.8273 -0.0167  0.1214
  718MPD2    H510674   3.825   3.975  12.978  0.4595 -1.2950  1.9200
  718MPD2    N110675   3.904   4.230  12.583  0.2538  0.1069  0.4240
  718MPD2    H710676   3.866   4.139  12.559  2.3485 -0.8885  0.9222
  719TMC3    C110677   3.884   4.249  12.356 -0.4060 -0.5261 -0.4082
  719TMC3    C210678   3.782   4.156  12.381 -0.1046 -0.4378  1.1367
  719TMC3    C310679   3.801   4.029  12.339  0.7406 -0.0535 -0.6870
  719TMC3    C410680   3.995   4.224  12.286  0.0089  0.3709 -0.1442
  719TMC3    C510681   4.002   4.092  12.248  0.0458 -0.2108  0.0085
  719TMC3    C610682   3.916   3.997  12.280 -0.3853 -0.6915  0.9006
  719TMC3     C10683   3.928   4.316  12.482 -0.2634  0.4636 -0.7900
  719TMC3     O10684   3.987   4.425  12.481  0.2272 -0.2992 -0.1532
  719TMC3     H10685   3.693   4.183  12.436  0.0088 -0.4503  1.3283
  719TMC3    H110686   4.074   4.298  12.284  0.6587 -0.3273 -0.1867
  719TMC3    H210687   3.923   3.903  12.226 -1.8351 -0.4792  0.3442
  719TMC3    C710688   4.129   4.058  12.192 -0.1124  0.7437  0.1553
  719TMC3    C810689   3.759   3.924  12.442  0.2588 -0.4235  0.6649
  719TMC3    O110690   4.177   4.141  12.118  0.4436 -0.0276 -0.0737
  719TMC3    O210691   3.732   3.970  12.553 -0.0042  0.2038  0.1211
  720MPD2     C10692   3.347   0.710  13.077 -0.2336  0.0584 -0.7912
  720MPD2    C110693   3.250   0.755  13.159  0.5873 -0.0280 -0.1147
  720MPD2    C210694   3.291   0.812  13.279 -0.2369 -0.9624  0.5136
  720MPD2    C310695   3.425   0.818  13.320 -0.1286  0.6009 -0.3172
  720MPD2    C410696   3.517   0.766  13.238 -1.0172  0.0132 -0.5085
  720MPD2    C510697   3.476   0.719  13.114  0.1901  0.4690  0.3125
  720MPD2     H10698   3.213   0.863  13.335  0.8252 -0.1907  1.2935
  720MPD2    H110699   3.624   0.781  13.247 -0.8957 -1.8370  1.1444
  720MPD2    H210700   3.337   0.671  12.976 -2.7016 -0.1288 -0.4723
  720MPD2    H310701   3.549   0.673  13.048 -1.4097  2.0861 -2.6294
  720MPD2     N10702   3.449   0.893  13.438  0.5262 -0.2172  0.4458
  720MPD2    H510703   3.373   0.946  13.478  1.0520  1.8322 -1.2376
  720MPD2    N110704   3.109   0.727  13.140 -0.8758 -0.0018 -0.3022
  720MPD2    H710705   3.040   0.741  13.213  0.8609 -0.7314  1.4760
  721TMC3    C110706   3.570   0.991  13.610 -0.5005 -0.2201 -0.1552
  721TMC3    C210707   3.452   1.034  13.667  0.1286 -0.1315  0.6371
  721TMC3    C310708   3.447   1.086  13.792 -0.0139 -0.3414  0.1758
  721TMC3    C410709   3.687   1.003  13.680  0.0971 -0.6937  0.0028
  721TMC3    C510710   3.684   1.059  13.805  0.0736  0.1314  0.3691
  721TMC3    C610711   3.565   1.107  13.861  0.1720 -0.1978 -0.1952
  721TMC3     C10712   3.571   0.899  13.495 -0.1574 -0.8207 -0.6248
  721TMC3     O10713   3.666   0.819  13.483 -0.0285 -0.0805 -0.7745
  721TMC3     H10714   3.358   1.003  13.623  0.2626  0.3792  0.0008
  721TMC3    H110715   3.774   0.952  13.640 -0.0343 -2.1557  1.5720
  721TMC3    H210716   3.567   1.156  13.958 -0.2006  0.6642 -0.6208
  721TMC3    C710717   3.776   0.995  13.896  0.6681  0.3045  1.3727
  721TMC3    C810718   3.316   1.117  13.841 -0.8461 -0.0407  0.5804
  721TMC3    O110719   3.725   0.960  13.998 -0.6618 -1.0370 -0.2336
  721TMC3    O210720   3.223   1.129  13.760 -1.0417  0.2710  0.1731
  722MPD2     C10721   1.369   4.218  13.019  0.8025  0.5149 -0.0366
  722MPD2    C110722   1.337   4.334  12.953 -0.2750 -0.8291 -0.6381
  722MPD2    C210723   1.204   4.346  12.916 -0.2965  0.2366  1.0080
  722MPD2    C310724   1.112   4.245  12.933  0.2509 -0.0426 -0.1881
  722MPD2    C410725   1.155   4.135  13.004 -0.8267 -0.0354 -0.0145
  722MPD2    C510726   1.282   4.124  13.052  0.2379  0.2778 -0.3850
  722MPD2     H10727   1.169   4.434  12.863  0.5925  1.8585  3.1425
  722MPD2    H110728   1.086   4.053  13.015 -1.6174  0.9092  1.9549
  722MPD2    H210729   1.474   4.209  13.043  0.6738  0.3552  0.4531
  722MPD2    H310730   1.311   4.034  13.104 -0.0458  2.2440  3.2102
  722MPD2     N10731   0.984   4.252  12.871 -0.0636 -0.2541 -0.3980
  722MPD2    H510732   0.961   4.336  12.818 -0.4251 -0.0069  0.1429
  722MPD2    N110733   1.431   4.422  12.894  0.1274 -0.0864 -0.2625
  722MPD2    H710734   1.386   4.507  12.863 -0.6058 -0.3341  0.1145
  723TMC3    C110735   0.792   4.174  12.781 -0.4082  0.1108 -0.6196
  723TMC3    C210736   0.736   4.065  12.729  0.3791  0.1945  0.6597
  723TMC3    C310737   0.637   4.078  12.635 -0.3893 -0.1970  0.0634
  723TMC3    C410738   0.747   4.304  12.752  0.1332 -0.2526 -0.2486
  723TMC3    C510739   0.638   4.315  12.664  0.0104  0.2884  0.6442
  723TMC3    C610740   0.593   4.200  12.599 -0.7600 -0.3912 -0.3361
  723TMC3     C10741   0.896   4.144  12.864 -0.4090 -0.1011  0.0239
  723TMC3     O10742   0.905   4.032  12.911 -0.7526  0.2770 -0.1649
  723TMC3     H10743   0.777   3.966  12.746  1.4394  0.0930 -2.3945
  723TMC3    H110744   0.793   4.388  12.802  0.5883  1.1552 -3.0043
  723TMC3    H210745   0.509   4.218  12.534  0.4137 -0.1384 -1.8035
  723TMC3    C710746   0.633   4.440  12.588  0.0362 -0.6152 -0.4587
  723TMC3    C810747   0.572   3.962  12.578 -0.2270 -0.6076 -0.4012
  723TMC3    O110748   0.596   4.429  12.471 -0.2698  0.1421 -0.1774
  723TMC3    O210749   0.596   3.856  12.631 -0.1617 -0.8337 -0.5518
  724TMC3    C110750   1.769   2.774  10.438  0.2155  0.4284  1.0391
  724TMC3    C210751   1.709   2.814  10.327  0.1011 -0.5810  0.2407
  724TMC3    C310752   1.767   2.884  10.229 -0.7258  0.2872 -0.2555
  724TMC3    C410753   1.903   2.799  10.451 -0.0770 -0.2181 -0.3210
  724TMC3    C510754   1.968   2.849  10.342 -0.0280 -0.1777  0.4275
  724TMC3    C610755   1.899   2.892  10.231  0.3694 -0.2837 -0.2442
  724TMC3     C10756   1.702   2.698  10.544 -0.4447 -0.2666  1.0225
  724TMC3     O10757   1.764   2.685  10.648  0.6011  0.4851 -0.2251
  724TMC3     H10758   1.601   2.813  10.329  0.0530  2.0511 -0.7199
  724TMC3    H110759   1.956   2.769  10.540  1.8813  0.1779 -1.3537
  724TMC3    H210760   1.950   2.924  10.141  2.1411 -0.4942  0.6898
  724TMC3    C710761   2.098   2.913  10.359 -0.3981  0.4437  0.8956
  724TMC3    C810762   1.685   2.987  10.168  0.3451 -0.2214 -0.2452
  724TMC3    O110763   2.181   2.894  10.269 -0.3029  0.1576  0.5278
  724TMC3    O210764   1.597   2.950  10.095  0.0350 -0.8037 -0.5148
  725TMC3    C110765   3.726   1.297  12.500 -0.3059  0.3021  0.0402
  725TMC3    C210766   3.652   1.339  12.396 -0.2265 -0.3188 -0.3084
  725TMC3    C310767   3.694   1.299  12.274 -0.2628  0.3106 -0.4547
  725TMC3    C410768   3.833   1.208  12.492 -0.4403 -0.1848 -0.0263
  725TMC3    C510769   3.864   1.169  12.363 -0.4487  0.2749 -0.1210
  725TMC3    C610770   3.805   1.222  12.252  0.3874 -0.2286 -0.0526
  725TMC3     C10771   3.675   1.320  12.631 -0.2709 -0.3205 -0.7449
  725TMC3     O10772   3.754   1.349  12.719 -0.0789 -0.3127 -0.2542
  725TMC3     H10773   3.575   1.415  12.402  1.6887  1.5656  0.2959
  725TMC3    H110774   3.885   1.177  12.582 -1.5143 -0.7820  0.3884
  725TMC3    H210775   3.829   1.177  12.157 -2.5942 -2.1187  0.0977
  725TMC3    C710776   3.957   1.060  12.344 -0.2302  0.1318  0.5594
  725TMC3    C810777   3.594   1.282  12.168 -0.5050 -0.3059 -0.4200
  725TMC3    O110778   4.005   1.047  12.234 -0.2575 -0.2788 -0.6080
  725TMC3    O210779   3.571   1.170  12.132  0.6141  0.3541  0.5574
  726MPD2     C10780   0.619   3.323   9.848  0.1019 -1.0975 -0.8795
  726MPD2    C110781   0.628   3.347   9.987 -0.6002 -0.0631  0.1378
  726MPD2    C210782   0.592   3.241  10.075 -0.2470 -0.0688  0.2656
  726MPD2    C310783   0.533   3.123  10.017  1.1498  0.4671 -0.2331
  726MPD2    C410784   0.525   3.107   9.879  0.1488  0.0848 -0.6492
  726MPD2    C510785   0.575   3.203   9.803  0.5222  0.8846 -0.3234
  726MPD2     H10786   0.595   3.253  10.183 -1.0331  2.4932 -0.0019
  726MPD2    H110787   0.488   3.017   9.830  2.4320 -0.6160 -1.0828
  726MPD2    H210788   0.662   3.394   9.779 -0.7124 -0.0941 -0.3423
  726MPD2    H310789   0.571   3.198   9.694  0.1531 -2.4921 -0.1437
  726MPD2     N10790   0.472   3.034  10.097 -0.5240 -0.4123  0.3102
  726MPD2    H510791   0.413   2.965  10.052 -0.6098  0.3499 -0.7335
  726MPD2    N110792   0.676   3.471  10.038 -0.2271 -0.2774 -0.3436
  726MPD2    H710793   0.667   3.469  10.139  2.8479 -0.9817 -0.0864
  727TMC3    C110794   0.726   3.689  10.067  0.1805  0.3116  0.5655
  727TMC3    C210795   0.803   3.671  10.177 -0.3748  0.1494 -0.0367
  727TMC3    C310796   0.797   3.757  10.276 -0.0446 -0.2950  0.0698
  727TMC3    C410797   0.642   3.787  10.054  1.2041 -0.7445 -0.3423
  727TMC3    C510798   0.630   3.875  10.162  0.6729 -0.5544 -0.2012
  727TMC3    C610799   0.708   3.860  10.276  0.0708  0.4349  0.6170
  727TMC3     C10800   0.702   3.590   9.973  0.3685  0.0323 -0.2786
  727TMC3     O10801   0.662   3.626   9.862  0.1670  0.4483  0.2062
  727TMC3     H10802   0.869   3.585  10.186  2.7048  2.3905 -1.1582
  727TMC3    H110803   0.567   3.787   9.975  0.0933 -1.8563  0.7094
  727TMC3    H210804   0.698   3.941  10.347  0.0463  1.0269 -0.0625
  727TMC3    C710805   0.539   3.984  10.140 -0.1901 -0.8264 -0.6777
  727TMC3    C810806   0.923   3.773  10.343  0.0070 -0.5313 -0.2073
  727TMC3    O110807   0.504   4.019  10.027  0.2808 -0.0908 -0.2573
  727TMC3    O210808   1.010   3.686  10.343  0.3900 -0.4513 -0.3086
  728TMC3    C110809   0.237   1.239  15.000 -0.5918 -0.8450 -0.4789
  728TMC3    C210810   0.337   1.230  15.102 -0.1058 -0.2892 -0.9789
  728TMC3    C310811   0.463   1.227  15.054 -0.1451 -0.0186  0.8751
  728TMC3    C410812   0.258   1.252  14.871  0.2228 -0.2210  0.4551
  728TMC3    C510813   0.393   1.244  14.837 -0.8629  0.1579  0.7048
  728TMC3    C610814   0.492   1.218  14.922 -0.1891 -0.2999 -0.7114
  728TMC3     C10815   0.099   1.222  15.048 -0.2917 -1.0273 -0.1450
  728TMC3     O10816   0.016   1.213  14.960  0.3777 -0.0316  0.0859
  728TMC3     H10817   0.328   1.241  15.209 -1.6232  1.1713 -1.2554
  728TMC3    H110818   0.178   1.254  14.798 -0.9011  0.9368  1.7208
  728TMC3    H210819   0.589   1.196  14.880  0.8123 -1.5126  2.2099
  728TMC3    C710820   0.413   1.237  14.695 -0.0549  0.4281  0.2341
  728TMC3    C810821   0.571   1.197  15.146  0.0566 -0.1424 -0.6120
  728TMC3    O110822   0.327   1.190  14.623  0.1731  0.1567 -0.7456
  728TMC3    O210823   0.545   1.142  15.251  0.1912 -0.1876  0.7567
  729MPD2     C10824   3.640   2.814  16.729 -0.1046  0.0446  0.4268
  729MPD2    C110825   3.528   2.857  16.678 -0.7189  0.3845  0.4397
  729MPD2    C210826   3.420   2.879  16.765  0.1428  0.1381  0.0059
  729MPD2    C310827   3.439   2.892  16.895  0.8159  0.0077 -0.2497
  729MPD2    C410828   3.552   2.833  16.951  0.1304 -0.0030  0.7598
  729MPD2    C510829   3.655   2.793  16.868 -0.0746 -1.0308  0.3264
  729MPD2     H10830   3.325   2.909  16.723  0.3380  0.7684  0.0211
  729MPD2    H110831   3.583   2.822  17.054  0.7391 -1.5823  0.4141
  729MPD2    H210832   3.711   2.782  16.654  0.8626  2.7763  0.1986
  729MPD2    H310833   3.735   2.734  16.910  2.1555  1.4282 -0.5284
  729MPD2     N10834   3.355   2.968  16.984 -0.1116  0.4024 -0.7756
  729MPD2    H510835   3.392   2.990  17.075  0.6127  0.8872 -1.1918
  729MPD2    N110836   3.518   2.862  16.533 -0.0171 -0.1712  0.1627
  729MPD2    H710837   3.599   2.822  16.487  0.5662  0.2383  0.8437
  730TMC3    C110838   3.197   3.125  17.053 -0.1864 -0.2130 -0.5978
  730TMC3    C210839   3.237   3.103  17.187  0.2799 -0.2083 -0.3382
  730TMC3    C310840   3.189   3.183  17.285  0.0492  1.0044  0.2597
  730TMC3    C410841   3.117   3.227  17.021 -0.1448  0.2011  0.5891
  730TMC3    C510842   3.079   3.313  17.116  0.3437 -0.2821  0.0051
  730TMC3    C610843   3.095   3.282  17.252 -0.3466  0.2839  0.3648
  730TMC3     C10844   3.236   3.029  16.945 -0.8009 -0.2220  0.5232
  730TMC3     O10845   3.182   3.029  16.835 -0.7631 -0.2056  0.6570
  730TMC3     H10846   3.310   3.029  17.219  1.3366  0.0913 -2.0588
  730TMC3    H110847   3.097   3.250  16.917 -3.7682 -0.9264  1.0122
  730TMC3    H210848   3.061   3.343  17.335 -1.3351 -1.6382  1.3971
  730TMC3    C710849   2.994   3.431  17.085 -0.7773  0.4807 -0.2030
  730TMC3    C810850   3.248   3.178  17.422  0.3807  0.7319  0.8043
  730TMC3    O110851   2.983   3.460  16.968  0.1973 -0.2286  0.6251
  730TMC3    O210852   3.301   3.069  17.449 -0.5159  0.0622  0.0527
  731MPD2     C10853   2.890   0.722  12.180  0.3511 -1.0063  0.8019
  731MPD2    C110854   3.029   0.733  12.170  0.3397  0.5510 -0.0313
  731MPD2    C210855   3.089   0.750  12.291 -0.3832  0.4812  0.8139
  731MPD2    C310856   3.029   0.762  12.412 -0.6138  0.2504  0.2821
  731MPD2    C410857   2.894   0.771  12.414 -0.0133 -0.2285 -0.7379
  731MPD2    C510858   2.828   0.751  12.294  0.4270  0.0236  0.7028
  731MPD2     H10859   3.196   0.736  12.292 -0.1788  2.0482  0.9731
  731MPD2    H110860   2.841   0.787  12.508 -1.1084 -1.4194 -1.1665
  731MPD2    H210861   2.829   0.710  12.092  1.3127  3.3675 -0.4870
  731MPD2    H310862   2.720   0.756  12.292  0.4881  1.2358  0.4333
  731MPD2     N10863   3.114   0.779  12.524  0.0090 -0.4409 -0.6118
  731MPD2    H510864   3.212   0.768  12.502  0.0502 -0.1299 -0.5869
  731MPD2    N110865   3.099   0.745  12.047  0.1895  0.0487 -0.0832
  731MPD2    H710866   3.044   0.747  11.961  1.1540  0.0032 -0.6938
  732TMC3    C110867   3.264   0.803  11.892  0.0094 -0.2843 -0.0798
  732TMC3    C210868   3.169   0.877  11.830  0.7954 -0.4805 -0.5627
  732TMC3    C310869   3.201   0.965  11.741 -0.1118  0.1004  0.6085
  732TMC3    C410870   3.394   0.813  11.855 -0.5181  0.9192 -0.9180
  732TMC3    C510871   3.428   0.898  11.751  0.4107  0.2048  0.5406
  732TMC3    C610872   3.330   0.972  11.693 -0.9458 -0.7587  0.5902
  732TMC3     C10873   3.236   0.759  12.026 -0.0763 -0.2923 -0.2735
  732TMC3     O10874   3.327   0.749  12.107  0.6433  0.2719 -0.0249
  732TMC3     H10875   3.066   0.881  11.864  1.8244 -1.3638  2.6943
  732TMC3    H110876   3.471   0.761  11.910 -1.4628  0.1987 -0.2736
  732TMC3    H210877   3.347   1.047  11.616 -0.3815 -0.4691  1.0020
  732TMC3    C710878   3.523   0.850  11.659  0.5690 -0.6595  0.2191
  732TMC3    C810879   3.095   1.028  11.661  0.0180 -0.1486  0.1984
  732TMC3    O110880   3.496   0.871  11.544  0.3903  0.2060 -0.9821
  732TMC3    O210881   3.109   1.142  11.615  0.2111  0.6272 -0.0556
  733TMC3    C110882   3.594   3.765  13.191  1.0847  0.1178  0.0980
  733TMC3    C210883   3.647   3.884  13.230  0.8887 -1.0363  0.3615
  733TMC3    C310884   3.775   3.912  13.189  0.8138 -0.0994  0.6581
  733TMC3    C410885   3.657   3.680  13.098  1.2571  0.7165 -0.3003
  733TMC3    C510886   3.788   3.711  13.064  0.7860  0.3473 -0.4267
  733TMC3    C610887   3.854   3.824  13.118 -0.1534  0.8149  1.0408
  733TMC3     C10888   3.449   3.741  13.201 -0.7185  0.1662  0.4647
  733TMC3     O10889   3.383   3.829  13.249  0.3085  0.0050 -0.4569
  733TMC3     H10890   3.598   3.963  13.287 -3.4920 -3.2672 -0.3753
  733TMC3    H110891   3.618   3.587  13.058  2.4803 -0.4452  1.2463
  733TMC3    H210892   3.956   3.850  13.094 -0.5011  1.0521 -0.1664
  733TMC3    C710893   3.819   3.704  12.922 -0.4484  0.0311  0.1575
  733TMC3    C810894   3.804   4.049  13.164  0.0726 -0.7104  0.2311
  733TMC3    O110895   3.910   3.774  12.890  0.3276  0.2037 -0.3727
  733TMC3    O210896   3.796   4.133  13.251 -0.4969 -0.4108 -0.0247
  734MPD2     C10897   1.023   1.541  12.103 -0.1029 -0.4349  0.4856
  734MPD2    C110898   0.939   1.464  12.027  0.1997  0.3901 -0.1999
  734MPD2    C210899   0.897   1.527  11.907 -0.2192 -0.2697 -0.6106
  734MPD2    C310900   0.949   1.636  11.846  0.2839  0.3962 -0.3698
  734MPD2    C410901   1.040   1.708  11.920 -0.2831  0.5580 -0.4295
  734MPD2    C510902   1.074   1.659  12.044  0.2723 -0.7131  0.2408
  734MPD2     H10903   0.826   1.467  11.850 -1.1210 -0.0807  0.3172
  734MPD2    H110904   1.073   1.805  11.886 -2.2624  1.5724  0.5273
  734MPD2    H210905   1.050   1.517  12.205  2.1489 -0.3987 -0.1089
  734MPD2    H310906   1.140   1.722  12.103  0.8812  0.1781 -1.3831
  734MPD2     N10907   0.890   1.664  11.722  0.3582  0.6196 -0.0345
  734MPD2    H510908   0.811   1.607  11.692  1.7009 -0.2797 -1.8445
  734MPD2    N110909   0.889   1.340  12.077  0.0253  0.2534 -0.5332
  734MPD2    H710910   0.933   1.307  12.162 -1.0445  1.3828  0.4566
  735TMC3    C110911   0.777   1.130  12.064 -0.1122  0.4568  0.2735
  735TMC3    C210912   0.660   1.071  12.017  0.5644  0.3143 -0.3814
  735TMC3    C310913   0.678   0.947  11.952  0.6424 -0.0774  0.3273
  735TMC3    C410914   0.898   1.060  12.058 -0.2049 -0.0800  0.0647
  735TMC3    C510915   0.909   0.936  11.998 -0.1130 -0.5704  0.1132
  735TMC3    C610916   0.796   0.879  11.943 -0.0820 -0.3483  0.7650
  735TMC3     C10917   0.780   1.273  12.025 -0.1007  0.2629 -0.1642
  735TMC3     O10918   0.694   1.309  11.944  0.7364  0.2991  0.0204
  735TMC3     H10919   0.570   1.129  12.002  0.9409  1.1720  0.7188
  735TMC3    H110920   0.989   1.108  12.093 -1.2236 -0.1080  2.7322
  735TMC3    H210921   0.807   0.791  11.881 -4.0349 -0.4206  0.1370
  735TMC3    C710922   1.036   0.862  12.011  0.2791  0.1781  0.0950
  735TMC3    C810923   0.604   0.937  11.828  0.0368  0.0578 -0.1371
  735TMC3    O110924   1.130   0.938  12.031 -0.4755  0.1462 -0.1520
  735TMC3    O210925   0.605   0.831  11.763 -0.4359 -0.0303 -0.6612
  736MPD2     C10926   1.131   0.513  11.986  0.0289  0.8185 -0.1756
  736MPD2    C110927   1.151   0.644  11.991 -0.0585 -0.3368 -0.3086
  736MPD2    C210928   1.281   0.695  11.992 -0.4092 -0.1957  0.0328
  736MPD2    C310929   1.392   0.609  11.997  0.1999 -0.7202 -0.5263
  736MPD2    C410930   1.372   0.474  11.988  0.3828  0.6527  0.1129
  736MPD2    C510931   1.243   0.430  11.989  0.0797 -0.1656  0.2721
  736MPD2     H10932   1.298   0.802  11.998 -2.3557  0.1840 -0.9412
  736MPD2    H110933   1.459   0.414  12.009 -0.1109  0.0921  0.5664
  736MPD2    H210934   1.032   0.469  11.993  1.1013 -1.7647 -1.1993
  736MPD2    H310935   1.231   0.323  11.993  2.1399 -0.2933  3.0929
  736MPD2     N10936   1.527   0.657  12.001  0.1748 -0.3493 -0.1283
  736MPD2    H510937   1.599   0.587  12.014  0.3199  0.1683  1.8832
  736MPD2    N110938   1.034   0.726  11.991  0.0692 -0.5318 -0.1098
  736MPD2    H710939   0.949   0.671  11.997 -0.7310  0.6737 -0.3761
  737TMC3    C110940   1.700   0.797  11.921 -0.0701  0.0625  0.0450
  737TMC3    C210941   1.730   0.927  11.906 -0.2873  0.3673 -0.1043
  737TMC3    C310942   1.779   0.974  11.784 -0.7051 -0.5760  0.2494
  737TMC3    C410943   1.737   0.706  11.821 -0.1702  0.7470 -0.3022
  737TMC3    C510944   1.776   0.756  11.704 -0.6059  0.3267  0.2398
  737TMC3    C610945   1.805   0.889  11.683 -0.4629  0.6994 -0.2057
  737TMC3     C10946   1.567   0.789  11.971 -0.2765  0.0340 -0.0793
  737TMC3     O10947   1.499   0.890  11.943 -0.0244 -0.1319 -0.1797
  737TMC3     H10948   1.703   1.001  11.981  0.1833 -0.3062  0.7209
  737TMC3    H110949   1.715   0.600  11.828  0.8471  0.5357 -0.2221
  737TMC3    H210950   1.870   0.918  11.601 -0.2164  2.3551  0.5765
  737TMC3    C710951   1.836   0.651  11.620  0.1018 -0.9281 -0.3636
  737TMC3    C810952   1.775   1.117  11.754 -0.0243  0.5416 -0.4647
  737TMC3    O110953   1.863   0.542  11.678 -0.1173 -0.6371 -0.9375
  737TMC3    O210954   1.784   1.196  11.847 -0.4668 -0.4586  0.0457
  738MPD2     C10955   1.895   4.642  15.346  1.2422  0.2228 -0.1011
  738MPD2    C110956   1.904   4.555  15.241  0.2728  0.0483  0.0897
  738MPD2    C210957   1.949   4.602  15.113 -0.2827  0.0414 -0.1819
  738MPD2    C310958   1.984   4.736  15.094 -0.1907  0.9195 -0.2549
  738MPD2    C410959   1.962   0.083  15.203  0.0451  0.2158 -0.9297
  738MPD2    C510960   1.918   0.033  15.323  0.0431 -0.3361 -0.3909
  738MPD2     H10961   1.956   4.528  15.034  1.0356  1.1762 -1.1133
  738MPD2    H110962   1.987   0.188  15.196  1.6409  0.0778  2.4231
  738MPD2    H210963   1.865   4.611  15.446 -1.5643 -2.8115 -1.8736
  738MPD2    H310964   1.924   0.106  15.403  0.1112 -0.5224 -0.2260
  738MPD2     N10965   2.044   0.041  14.977  0.3067  0.0449  0.0248
  738MPD2    H510966   2.079   0.136  14.978  0.8018 -0.1452  1.1924
  738MPD2    N110967   1.864   4.416  15.244 -0.4032  0.1928  0.0961
  738MPD2    H710968   1.884   4.359  15.162 -0.6003  0.5023 -0.1640
  739TMC3    C110969   2.185   0.027  14.798  0.6951  0.2227  1.1746
  739TMC3    C210970   2.207   4.721  14.672 -0.2844 -0.4018  0.4977
  739TMC3    C310971   2.332   4.722  14.625  0.4562  0.1374  0.2715
  739TMC3    C410972   2.293   0.071  14.877 -0.3478 -0.4438 -0.0740
  739TMC3    C510973   2.413   0.065  14.825  0.3589  0.7905 -1.1346
  739TMC3    C610974   2.441   0.025  14.697 -0.4784  0.6277 -0.0101
  739TMC3     C10975   2.068   4.714  14.863  0.5357  0.2145 -0.2135
  739TMC3     O10976   2.037   4.600  14.831  0.0588 -0.0787  0.2944
  739TMC3     H10977   2.134   4.667  14.613 -0.4086 -0.6602  0.8869
  739TMC3    H110978   2.278   0.117  14.974  0.3722 -0.1422 -0.1076
  739TMC3    H210979   2.542   0.032  14.656 -1.0356  1.0800 -1.3189
  739TMC3    C710980   2.516   0.083  14.928 -0.2183  0.1236  0.1839
  739TMC3    C810981   2.343   4.672  14.492 -0.0308 -0.0771 -0.5978
  739TMC3    O110982   2.500   0.139  15.036 -0.1168  0.7946  0.0262
  739TMC3    O210983   2.242   4.665  14.422  0.0105  0.1120 -0.2146
  740TMC3    C110984   2.047   1.105  14.125  0.1468 -0.3746 -0.5886
  740TMC3    C210985   2.165   1.097  14.196  0.0304 -1.0282  0.4751
  740TMC3    C310986   2.264   1.023  14.142 -0.3067  0.4507 -0.1235
  740TMC3    C410987   2.039   1.061  14.000  0.3350 -0.7784  0.9687
  740TMC3    C510988   2.154   1.011  13.941  0.4146 -0.0324  0.4609
  740TMC3    C610989   2.271   0.992  14.006  0.7972 -0.1716  0.0613
  740TMC3     C10990   1.932   1.177  14.175  0.2238  0.8823  0.1368
  740TMC3     O10991   1.847   1.199  14.093  0.2279  0.1331  0.0344
  740TMC3     H10992   2.176   1.136  14.296 -0.5467  1.0065 -0.2464
  740TMC3    H110993   1.958   1.077  13.930 -0.4650 -0.2027  2.0297
  740TMC3    H210994   2.352   0.931  13.966 -0.7773 -1.3361 -1.3142
  740TMC3    C710995   2.148   0.989  13.800  0.6896  0.4707  0.1984
  740TMC3    C810996   2.366   0.965  14.223  0.4417 -0.3298  0.2960
  740TMC3    O110997   2.047   0.948  13.752  0.6091 -0.2762  0.1015
  740TMC3    O210998   2.469   0.921  14.167  0.3162 -0.8420  0.3441
  741TMC3    C110999   2.335   0.307  14.124  0.3901 -1.0733  0.6638
  741TMC3    C211000   2.208   0.273  14.146 -0.4024 -0.5346 -0.1573
  741TMC3    C311001   2.165   0.253  14.276  0.1057 -0.0241  0.1525
  741TMC3    C411002   2.423   0.308  14.226 -0.2236 -0.1738  0.0717
  741TMC3    C511003   2.373   0.301  14.352 -0.1570 -0.5701 -0.0710
  741TMC3    C611004   2.246   0.270  14.386 -0.1778  0.0321 -0.3179
  741TMC3     C11005   2.362   0.322  13.984  0.1861  0.2988 -0.3227
  741TMC3     O11006   2.276   0.297  13.899  0.2629  0.1293  0.1773
  741TMC3     H11007   2.132   0.275  14.069  1.7888 -0.6877 -2.3384
  741TMC3    H111008   2.522   0.349  14.209 -0.4836 -0.4868 -2.2826
  741TMC3    H211009   2.219   0.238  14.487 -2.3434  1.7946 -0.3312
  741TMC3    C711010   2.463   0.306  14.464  0.3366 -0.0285 -0.4066
  741TMC3    C811011   2.043   0.187  14.303 -0.5205  0.1500 -0.0254
  741TMC3    O111012   2.419   0.354  14.569 -0.1104  0.2967  0.1349
  741TMC3    O211013   2.005   0.189  14.417  0.3505 -0.1144  0.3847
  742TMC3    C111014   2.033   3.952  15.146 -0.2283 -0.4627  0.4547
  742TMC3    C211015   1.969   3.846  15.078  0.0596  0.8765 -0.7916
  742TMC3    C311016   2.006   3.833  14.947 -0.3078 -0.3421 -1.0014
  742TMC3    C411017   2.143   4.012  15.092  0.0062  0.1188 -0.4152
  742TMC3    C511018   2.171   4.002  14.958  0.3769  0.4682 -0.7963
  742TMC3    C611019   2.098   3.915  14.881  0.7296  1.3679  0.0280
  742TMC3     C11020   2.029   3.952  15.285  1.2393  0.5311  0.2360
  742TMC3     O11021   2.058   4.057  15.342  0.2245  0.5000  0.1796
  742TMC3     H11022   1.877   3.801  15.113 -0.1731  2.3164  0.4423
  742TMC3    H111023   2.182   4.088  15.158  0.6749 -0.3019 -0.3199
  742TMC3    H211024   2.112   3.903  14.774 -2.9127  1.3404 -0.4768
  742TMC3    C711025   2.314   3.976  14.941  0.0118 -1.0406 -0.3014
  742TMC3    C811026   1.956   3.730  14.861  0.0229 -0.3875  0.4559
  742TMC3    O111027   2.354   3.893  14.859  0.1041 -0.0086 -0.5846
  742TMC3    O211028   2.019   3.700  14.762  0.0372 -0.0265  0.1368
  743MPD2     C11029   0.476   1.340   2.165 -0.0214  1.0441  0.1840
  743MPD2    C111030   0.489   1.275   2.044 -0.0382  0.1588  0.5563
  743MPD2    C211031   0.615   1.228   2.008 -0.1380  0.5853 -0.9478
  743MPD2    C311032   0.730   1.265   2.082 -0.7975 -0.2559 -0.5104
  743MPD2    C411033   0.712   1.348   2.188 -0.0411 -0.2091  0.4254
  743MPD2    C511034   0.588   1.395   2.222 -0.1639 -0.2445 -0.5103
  743MPD2     H11035   0.616   1.173   1.915 -2.2858  0.1443 -0.7073
  743MPD2    H111036   0.795   1.402   2.234  1.8987 -1.1234 -1.9982
  743MPD2    H211037   0.379   1.379   2.195 -1.1396 -1.7593  0.1520
  743MPD2    H311038   0.576   1.467   2.302 -2.2885  0.2706 -1.2891
  743MPD2     N11039   0.852   1.221   2.034 -1.0170  0.1657  0.0694
  743MPD2    H511040   0.857   1.165   1.949 -0.1994  0.1914  0.0953
  743MPD2    N111041   0.368   1.251   1.970  0.3320  0.2292  0.0232
  743MPD2    H711042   0.282   1.296   2.001  0.2197  0.8724 -1.2265
  744TMC3    C111043   0.234   1.207   1.769 -0.1387  0.0968 -0.2417
  744TMC3    C211044   0.129   1.281   1.820  0.1365 -0.2182 -0.0259
  744TMC3    C311045   0.028   1.298   1.737  0.5587 -0.0183  0.0267
  744TMC3    C411046   0.245   1.153   1.644  0.5780 -0.7027 -0.2352
  744TMC3    C511047   0.143   1.187   1.559  0.4082  0.4310 -0.2342
  744TMC3    C611048   0.039   1.262   1.604  0.6881  0.1047 -0.0222
  744TMC3     C11049   0.353   1.180   1.852 -0.8972 -0.6060 -0.4291
  744TMC3     O11050   0.428   1.098   1.803  0.5421  0.0617 -0.3907
  744TMC3     H11051   0.135   1.329   1.917 -2.8668 -2.4587  1.2641
  744TMC3    H111052   0.334   1.112   1.598  1.5187 -0.6989  1.5919
  744TMC3    H211053   4.685   1.259   1.552  0.6586  0.2975  0.0179
  744TMC3    C711054   0.151   1.142   1.422  0.3757 -0.6083 -0.0746
  744TMC3    C811055   4.651   1.363   1.776 -0.1301 -0.0154 -0.3307
  744TMC3    O111056   0.250   1.077   1.387 -0.4383 -0.1371  0.2307
  744TMC3    O211057   4.582   1.424   1.695 -0.4439  0.1769  0.2822
  745TMC3    C111058   2.319   3.195  13.241 -0.4125  0.1904 -0.5780
  745TMC3    C211059   2.241   3.187  13.354  0.2836  0.1974 -0.3158
  745TMC3    C311060   2.115   3.244  13.348  0.1251 -0.3070 -0.1426
  745TMC3    C411061   2.270   3.261  13.129  0.1546 -0.2448 -0.3481
  745TMC3    C511062   2.150   3.323  13.131 -0.0262  0.0086 -0.2084
  745TMC3    C611063   2.061   3.296  13.234 -0.1416  0.2604 -0.2070
  745TMC3     C11064   2.458   3.226  13.277 -0.2256 -0.4694  0.4106
  745TMC3     O11065   2.527   3.129  13.314  0.2115 -0.2714 -0.3221
  745TMC3     H11066   2.284   3.132  13.437 -1.8422 -1.0405 -0.0352
  745TMC3    H111067   2.341   3.283  13.050  0.2935  1.0216  0.1261
  745TMC3    H211068   1.961   3.334  13.222  0.0977  0.6709 -0.9317
  745TMC3    C711069   2.126   3.447  13.063 -0.0237  0.2883 -0.4365
  745TMC3    C811070   2.056   3.302  13.471 -0.2846 -0.6833 -0.2591
  745TMC3    O111071   2.014   3.494  13.075  0.2055 -0.3038 -0.8497
  745TMC3    O211072   1.946   3.357  13.462 -0.6665 -0.4341 -0.7228
  746TMC3    C111073   4.620   0.395  10.777 -1.0172  0.0859 -0.4302
  746TMC3    C211074   4.616   0.341  10.655  0.9767  0.1145  0.9288
  746TMC3    C311075   4.512   0.261  10.612  0.4820 -0.4355 -1.2976
  746TMC3    C411076   4.527   0.352  10.865 -0.0815 -0.0421  0.6371
  746TMC3    C511077   4.424   0.269  10.825 -0.0560  0.2133  0.0783
  746TMC3    C611078   4.416   0.218  10.698 -0.3386  0.2470 -0.1621
  746TMC3     C11079   4.632   0.529  10.776 -0.3396  0.0139  0.2854
  746TMC3     O11080   4.534   0.600  10.758  0.5618  0.3887  0.4864
  746TMC3     H11081   4.685   0.385  10.584  1.7048 -1.4902  0.6274
  746TMC3    H111082   4.513   0.405  10.958 -2.2149  1.9041 -0.7736
  746TMC3    H211083   4.326   0.171  10.660 -0.2759 -0.3509  0.4271
  746TMC3    C711084   4.292   0.316  10.871 -0.4023 -0.5393 -0.0704
  746TMC3    C811085   4.444   0.318  10.494 -0.8771 -0.0357  0.2055
  746TMC3    O111086   4.196   0.295  10.795  0.1583 -0.5489 -0.0160
  746TMC3    O211087   4.356   0.248  10.443 -0.2986  0.3505 -0.2141
  747TMC3    C111088   2.176   0.782  10.611 -0.0015 -0.7569  0.0225
  747TMC3    C211089   2.131   0.702  10.715 -0.0781  0.4216 -0.3123
  747TMC3    C311090   2.152   0.744  10.841 -0.5420  0.0257  0.0596
  747TMC3    C411091   2.228   0.912  10.639 -0.0946 -0.6882  0.4928
  747TMC3    C511092   2.247   0.951  10.767  0.2449 -0.9519  0.1516
  747TMC3    C611093   2.216   0.866  10.871 -0.4878 -0.5370 -0.6776
  747TMC3     C11094   2.174   0.728  10.487  0.3692  0.6886  0.5715
  747TMC3     O11095   2.211   0.799  10.396  0.0741  0.1391 -0.0827
  747TMC3     H11096   2.080   0.608  10.699 -2.0635  1.0622  2.1774
  747TMC3    H111097   2.259   0.972  10.554 -0.8303 -0.1813  0.5865
  747TMC3    H211098   2.227   0.892  10.975 -1.0678 -2.2042 -0.2046
  747TMC3    C711099   2.301   1.086  10.795  0.8484 -0.4490 -0.1464
  747TMC3    C811100   2.133   0.649  10.949 -0.0864  0.0178 -0.4148
  747TMC3    O111101   2.353   1.094  10.905 -0.0505 -0.1128  0.5430
  747TMC3    O211102   2.139   0.529  10.922  0.1757 -0.3534  0.1411
  748MPD2     C11103   3.706   2.013   1.310  0.1427 -0.1677 -0.4080
  748MPD2    C111104   3.785   2.076   1.393 -0.0474 -0.0556 -0.4719
  748MPD2    C211105   3.923   2.086   1.364  0.7904 -1.0498 -0.7080
  748MPD2    C311106   3.971   2.051   1.244 -0.0006  0.0441  0.6164
  748MPD2    C411107   3.889   1.981   1.158 -0.2649  0.0208  0.9857
  748MPD2    C511108   3.756   1.968   1.192  0.0114 -0.0689  0.2941
  748MPD2     H11109   3.994   2.145   1.421 -1.7108  1.0824  0.1898
  748MPD2    H111110   3.920   1.946   1.061 -0.0901 -1.4666  1.5864
  748MPD2    H211111   3.600   1.999   1.331  0.1446  1.0235  0.4024
  748MPD2    H311112   3.686   1.921   1.124  1.4011 -1.6117 -0.0677
  748MPD2     N11113   4.106   2.077   1.217  0.8110 -0.6500 -0.1997
  748MPD2    H511114   4.159   2.130   1.285 -0.5217  0.5230 -0.0969
  748MPD2    N111115   3.723   2.108   1.521 -0.0140  0.0176 -0.2432
  748MPD2    H711116   3.621   2.110   1.519 -0.0584 -0.7202  2.0778
  749TMC3    C111117   4.313   2.092   1.105 -0.0931  0.8633 -0.3129
  749TMC3    C211118   4.381   2.069   1.222  0.0813 -0.2741 -0.6548
  749TMC3    C311119   4.513   2.111   1.223  0.3729 -0.1371 -0.1746
  749TMC3    C411120   4.369   2.142   0.992 -1.1074  0.2098 -0.0508
  749TMC3    C511121   4.501   2.176   1.002  0.0080  0.5785  0.4451
  749TMC3    C611122   4.580   2.163   1.113 -0.5424  0.6039  0.2580
  749TMC3     C11123   4.172   2.047   1.097  0.6477  0.6615 -0.0907
  749TMC3     O11124   4.131   2.018   0.987 -0.4602  0.1014  0.2939
  749TMC3     H11125   4.340   2.018   1.309  1.5411 -2.0309 -1.0067
  749TMC3    H111126   4.303   2.189   0.919 -1.6566 -0.1670  0.2025
  749TMC3    H211127   4.680   2.206   1.118 -0.8123  1.0243  2.1423
  749TMC3    C711128   4.563   2.256   0.904 -0.2507 -0.7855 -0.4169
  749TMC3    C811129   4.585   2.086   1.343  0.0996  0.4003 -0.4382
  749TMC3    O111130   4.616   2.361   0.939  0.3666 -0.3935 -0.8767
  749TMC3    O211131   4.528   2.118   1.448 -0.0918  0.3529  0.1011
  750MPD2     C11132   4.434   2.731  11.360  0.1777  0.3254  0.1046
  750MPD2    C111133   4.388   2.637  11.451 -0.2327  0.0750  0.1699
  750MPD2    C211134   4.391   2.496  11.428 -0.0792 -0.4648  0.4795
  750MPD2    C311135   4.452   2.455  11.309  0.2366 -0.5147  0.5803
  750MPD2    C411136   4.496   2.547  11.218  0.1247  0.3056  0.3165
  750MPD2    C511137   4.495   2.680  11.247 -0.2720 -0.1021  0.0675
  750MPD2     H11138   4.345   2.427  11.498  0.8806 -1.2726  0.3107
  750MPD2    H111139   4.543   2.523  11.123 -1.8921  1.0727 -0.8610
  750MPD2    H211140   4.441   2.834  11.393 -0.2613  1.1214 -2.2972
  750MPD2    H311141   4.538   2.750  11.176 -0.4441  0.8890  0.9489
  750MPD2     N11142   4.475   2.317  11.279 -0.3196 -0.4906  0.1800
  750MPD2    H511143   4.521   2.296  11.191 -2.2183  1.6691 -1.3277
  750MPD2    N111144   4.329   2.697  11.564  0.0145 -0.1886 -0.0621
  750MPD2    H711145   4.351   2.796  11.574  0.4648 -0.3874  0.8831
  751TMC3    C111146   4.506   2.084  11.325  0.7863 -0.2499  0.7466
  751TMC3    C211147   4.498   1.976  11.409  0.0250 -0.1113  0.2733
  751TMC3    C311148   4.509   1.849  11.355  0.7991  0.4513 -0.8480
  751TMC3    C411149   4.530   2.064  11.191 -0.2738 -0.2473  0.4764
  751TMC3    C511150   4.553   1.938  11.150  0.2305 -0.2369  1.2738
  751TMC3    C611151   4.553   1.829  11.230 -0.3026  0.1366 -0.1802
  751TMC3     C11152   4.453   2.212  11.361  0.4364 -0.3250 -0.4564
  751TMC3     O11153   4.388   2.210  11.465  0.2474  0.0277  0.3016
  751TMC3     H11154   4.460   1.997  11.508 -0.0154 -2.7815  0.8324
  751TMC3    H111155   4.529   2.131  11.106  0.7440  0.2893  0.8817
  751TMC3    H211156   4.570   1.732  11.184  0.4072 -0.8842  2.1981
  751TMC3    C711157   4.512   1.908  11.012  0.2392  0.0882 -0.5657
  751TMC3    C811158   4.378   1.780  11.367 -0.2649 -0.6130 -0.6351
  751TMC3    O111159   4.536   1.997  10.934 -0.0894  0.0411  1.4164
  751TMC3    O211160   4.313   1.779  11.264  0.4247  0.2670 -0.7029
  752TMC3    C111161   3.616   3.166  17.363  0.2968 -0.7115 -0.0649
  752TMC3    C211162   3.613   3.036  17.408 -0.4429 -0.3975 -0.1382
  752TMC3    C311163   3.658   3.013  17.536  0.0880 -0.0803 -0.4923
  752TMC3    C411164   3.669   3.267  17.435 -0.4243  0.5141 -0.0715
  752TMC3    C511165   3.726   3.238  17.554  0.3097  0.0688  0.4067
  752TMC3    C611166   3.721   3.110  17.610 -0.0113  0.0113  0.0464
  752TMC3     C11167   3.564   3.191  17.231  0.6374 -0.5083  0.0285
  752TMC3     O11168   3.533   3.093  17.167  0.3720 -0.2042 -0.0243
  752TMC3     H11169   3.568   2.958  17.348 -0.8389 -0.6258  0.4479
  752TMC3    H111170   3.691   3.365  17.394 -0.6398  0.1820 -0.9756
  752TMC3    H211171   3.781   3.076  17.694 -1.1737 -0.1986  0.7876
  752TMC3    C711172   3.731   3.343  17.646  0.1853  0.2681  0.2801
  752TMC3    C811173   3.670   2.878  17.583 -0.1741  0.0729 -0.7018
  752TMC3    O111174   3.654   3.434  17.625  0.0116  0.0033 -0.1703
  752TMC3    O211175   3.672   2.796  17.494 -0.0249  0.1611  0.3490
  753TMC3    C111176   1.195   3.110  13.419 -0.2112 -0.3181  0.1844
  753TMC3    C211177   1.250   3.122  13.544 -0.1379  0.4543  0.1989
  753TMC3    C311178   1.355   3.036  13.580  0.2200 -0.1017 -0.6742
  753TMC3    C411179   1.250   3.029  13.323 -0.1422 -0.3932 -0.6546
  753TMC3    C511180   1.358   2.955  13.361 -0.8489  0.4091  0.0385
  753TMC3    C611181   1.400   2.947  13.490  0.5415 -0.8464 -0.2727
  753TMC3     C11182   1.093   3.214  13.386  0.1599  0.3159  0.2380
  753TMC3     O11183   1.071   3.299  13.468 -0.1638  0.1853 -0.3138
  753TMC3     H11184   1.207   3.186  13.621 -0.0874  0.1885  0.4466
  753TMC3    H111185   1.200   3.022  13.227 -0.9796  0.2799 -0.2733
  753TMC3    H211186   1.484   2.881  13.511  1.0214 -0.1366  0.0200
  753TMC3    C711187   1.428   2.886  13.259  0.5325  0.0861 -0.1040
  753TMC3    C811188   1.385   3.005  13.717 -0.0743 -0.1666  0.7335
  753TMC3    O111189   1.502   2.788  13.286  0.3228  0.4030 -0.1213
  753TMC3    O211190   1.449   2.904  13.742  0.0598  0.7869 -0.4333
  754MPD2     C11191   4.302   1.965  13.637  0.3833 -0.1419  0.0792
  754MPD2    C111192   4.311   1.841  13.568 -0.4132  0.0842  0.5741
  754MPD2    C211193   4.199   1.765  13.543  0.2761  0.2637  0.4932
  754MPD2    C311194   4.071   1.822  13.563  0.8946  0.0866 -0.0945
  754MPD2    C411195   4.068   1.941  13.631  0.5786  0.4294  0.1581
  754MPD2    C511196   4.181   2.010  13.672  0.1505  0.2892 -0.0995
  754MPD2     H11197   4.207   1.671  13.488 -0.4526  0.8792 -0.6623
  754MPD2    H111198   3.973   1.979  13.667  0.3645  1.1933 -1.2484
  754MPD2    H211199   4.390   2.020  13.671  0.5997  0.2278 -1.0739
  754MPD2    H311200   4.170   2.103  13.727 -1.1606  0.3010 -0.3818
  754MPD2     N11201   3.945   1.766  13.511  0.4727 -0.1204  0.1636
  754MPD2    H511202   3.862   1.820  13.535  0.7783 -0.3754  1.7709
  754MPD2    N111203   4.442   1.809  13.521  0.4404 -0.0462  0.8419
  754MPD2    H711204   4.506   1.884  13.544  1.1313 -0.2349 -0.4638
  755MPD2     C11205   3.333   2.165  13.820  0.5466 -0.1694 -0.1914
  755MPD2    C111206   3.263   2.085  13.742 -0.1621  1.0812  0.0509
  755MPD2    C211207   3.327   2.003  13.650 -0.1816 -0.7900 -0.2876
  755MPD2    C311208   3.462   1.991  13.641  0.1433 -0.1912  0.2558
  755MPD2    C411209   3.532   2.070  13.722  0.4599  0.3376  0.3289
  755MPD2    C511210   3.473   2.153  13.810 -0.1109  0.1714 -0.9702
  755MPD2     H11211   3.274   1.942  13.578  0.4645 -0.7500 -0.7887
  755MPD2    H111212   3.640   2.065  13.728  0.4380  2.0472  2.0155
  755MPD2    H211213   3.289   2.241  13.883 -0.4515 -0.5513 -0.4321
  755MPD2    H311214   3.540   2.212  13.872 -0.8434 -0.0343  0.0321
  755MPD2     N11215   3.533   1.908  13.552  0.4999 -0.7381 -0.2677
  755MPD2    H511216   3.633   1.923  13.546  0.5914 -1.2790 -0.1328
  755MPD2    N111217   3.127   2.072  13.754 -0.2047 -0.3574 -0.4815
  755MPD2    H711218   3.079   2.006  13.694  0.3189 -0.1020 -1.1708
  756MPD2     C11219   4.295   3.544  10.139  0.0482  0.0012  0.3384
  756MPD2    C111220   4.190   3.459  10.117 -0.0387  0.3835 -0.3432
  756MPD2    C211221   4.076   3.496  10.048 -0.2412 -0.1216 -0.5864
  756MPD2    C311222   4.069   3.622   9.984 -0.2237  0.3907  0.2433
  756MPD2    C411223   4.177   3.708  10.009  0.4327 -0.0715  0.3938
  756MPD2    C511224   4.285   3.674  10.085  0.2148  0.2939  0.1965
  756MPD2     H11225   3.994   3.427  10.034 -1.0067  0.5622  0.6018
  756MPD2    H111226   4.177   3.804   9.958  0.7632 -0.3858 -0.1999
  756MPD2    H211227   4.388   3.528  10.193  0.1021  0.6462  0.4415
  756MPD2    H311228   4.368   3.742  10.100  0.4477  0.3159 -1.2142
  756MPD2     N11229   3.959   3.663   9.904 -0.4513  0.3575  0.4692
  756MPD2    H511230   3.886   3.594   9.888 -0.4218  0.1913  1.0566
  756MPD2    N111231   4.199   3.326  10.168  0.4038 -0.6714  0.0883
  756MPD2    H711232   4.112   3.273  10.168 -1.3399  2.2087 -1.5867
  757MPD2     C11233   3.258   3.248   9.948  0.4619  0.3907  0.1522
  757MPD2    C111234   3.389   3.220   9.911 -0.0215  0.4259 -0.0040
  757MPD2    C211235   3.477   3.324   9.890 -0.0411 -0.2940 -1.2999
  757MPD2    C311236   3.427   3.455   9.907  0.6689  0.7284 -0.6689
  757MPD2    C411237   3.298   3.481   9.941 -0.1824  0.7432 -0.5710
  757MPD2    C511238   3.216   3.378   9.966 -0.2061 -0.7075 -0.4395
  757MPD2     H11239   3.573   3.308   9.843  1.1244 -2.4317  1.7828
  757MPD2    H111240   3.255   3.580   9.941  1.1760  1.3379 -1.1088
  757MPD2    H211241   3.184   3.170   9.966  2.4263 -1.0354  2.1177
  757MPD2    H311242   3.116   3.402  10.002  0.6626  2.6405 -0.2297
  757MPD2     N11243   3.514   3.560   9.863 -0.5577 -0.0383 -0.0724
  757MPD2    H511244   3.613   3.538   9.855 -0.7236 -0.2524 -1.5365
  757MPD2    N111245   3.417   3.084   9.876  0.2551  0.0643  0.4356
  757MPD2    H711246   3.339   3.020   9.887 -0.0021  0.6106  1.7354
  758MPD2     C11247   4.219   1.646  16.009  0.4761 -0.1832 -0.3461
  758MPD2    C111248   4.345   1.698  16.055 -0.5088  0.1534 -0.5592
  758MPD2    C211249   4.361   1.744  16.180 -0.9765 -0.1313  0.6236
  758MPD2    C311250   4.251   1.748  16.263  0.2374 -0.4058 -0.3300
  758MPD2    C411251   4.133   1.698  16.218 -0.7711 -0.0794 -0.1182
  758MPD2    C511252   4.115   1.659  16.090 -0.4185  0.7892  0.3867
  758MPD2     H11253   4.454   1.793  16.205 -0.4897 -0.1834 -1.1153
  758MPD2    H111254   4.049   1.694  16.287 -1.3097 -0.7547 -0.8062
  758MPD2    H211255   4.207   1.609  15.908 -0.1352  2.1154 -1.1190
  758MPD2    H311256   4.016   1.621  16.066 -1.0649  2.3889  0.4957
  758MPD2     N11257   4.259   1.801  16.393 -0.0357 -0.2444 -0.3025
  758MPD2    H511258   4.170   1.816  16.440  0.7245  0.5508  0.8913
  758MPD2    N111259   4.465   1.691  15.983 -0.6055  0.1511 -0.0318
  758MPD2    H711260   4.551   1.701  16.037 -0.3712 -1.0281 -0.1762
  759MPD2     C11261   3.352   0.868  10.506  0.2085 -0.8141  0.3845
  759MPD2    C111262   3.219   0.831  10.521  0.1084 -0.2454 -0.1259
  759MPD2    C211263   3.147   0.845  10.407  0.2285 -0.5283 -0.0365
  759MPD2    C311264   3.191   0.898  10.289  0.1581  0.4219 -0.0613
  759MPD2    C411265   3.313   0.947  10.282  0.1390 -0.2417 -0.2894
  759MPD2    C511266   3.392   0.926  10.389 -0.4210  0.8280 -0.1153
  759MPD2     H11267   3.043   0.818  10.395 -0.2297  1.8508 -1.2715
  759MPD2    H111268   3.349   1.007  10.199 -2.2240  1.9174  0.2441
  759MPD2    H211269   3.428   0.854  10.582  1.0211  0.0048 -0.2835
  759MPD2    H311270   3.496   0.955  10.391 -0.5959  1.4757 -0.3417
  759MPD2     N11271   3.091   0.925  10.192  0.6348  0.0702  0.6580
  759MPD2    H511272   2.992   0.916  10.216  0.8142  0.0278  1.3809
  759MPD2    N111273   3.162   0.767  10.636 -0.3185  0.9006 -0.2864
  759MPD2    H711274   3.072   0.726  10.615 -0.9737  1.7396  0.8781
  760MPD2     C11275   2.543   2.284  12.161 -1.1422 -0.4819  0.3156
  760MPD2    C111276   2.663   2.344  12.147 -0.0546 -0.1889 -0.0711
  760MPD2    C211277   2.752   2.292  12.049  0.1444 -0.2693  0.2138
  760MPD2    C311278   2.715   2.182  11.973 -0.2907 -0.1986  0.0560
  760MPD2    C411279   2.597   2.116  11.990 -0.0795  0.2106 -0.6921
  760MPD2    C511280   2.522   2.169  12.092 -0.5188  0.0592  0.1873
  760MPD2     H11281   2.851   2.335  12.040 -0.0316  0.1579  0.3439
  760MPD2    H111282   2.570   2.023  11.940  1.3726 -0.9555  0.6953
  760MPD2    H211283   2.476   2.322  12.238 -1.3529  1.1218 -0.6649
  760MPD2    H311284   2.421   2.131  12.106 -0.1958 -1.2815 -1.0778
  760MPD2     N11285   2.806   2.121  11.878 -0.4528  0.6156 -0.5983
  760MPD2    H511286   2.790   2.023  11.856 -1.5815  0.9327 -1.1371
  760MPD2    N111287   2.700   2.463  12.215 -0.3905 -0.3769  0.0601
  760MPD2    H711288   2.620   2.518  12.245 -0.1733  0.4912 -0.9377
  761MPD2     C11289   3.964   1.661  11.648  0.0516  0.0910 -0.1281
  761MPD2    C111290   3.990   1.654  11.517 -0.2851 -0.1842  0.9533
  761MPD2    C211291   4.117   1.691  11.463  0.5103 -0.7870  0.6415
  761MPD2    C311292   4.213   1.741  11.548  0.4458 -0.1771 -0.4920
  761MPD2    C411293   4.186   1.752  11.682 -0.2621 -0.3804 -0.1026
  761MPD2    C511294   4.062   1.719  11.726  0.0079 -0.1518 -0.1831
  761MPD2     H11295   4.143   1.664  11.362 -0.7176  1.0448 -0.1610
  761MPD2    H111296   4.265   1.781  11.750 -0.3565  0.8114 -0.4970
  761MPD2    H211297   3.869   1.628  11.689 -0.1574 -0.1055 -0.7779
  761MPD2    H311298   4.031   1.740  11.828 -2.1433  1.9958 -1.2892
  761MPD2     N11299   4.338   1.778  11.500 -0.4675 -0.0242 -0.3768
  761MPD2    H511300   4.406   1.810  11.567  0.9876 -0.2817 -1.7224
  761MPD2    N111301   3.879   1.614  11.436 -0.1601  0.3726 -0.4002
  761MPD2    H711302   3.806   1.557  11.478  0.0237 -1.0155 -1.9868
  762MPD2     C11303   3.839   1.610  10.581  0.3662 -0.1960 -0.4394
  762MPD2    C111304   3.878   1.507  10.657 -0.5930 -0.1275 -0.5161
  762MPD2    C211305   3.980   1.421  10.616 -0.1524  0.6116  0.2187
  762MPD2    C311306   4.056   1.455  10.507 -0.0456  0.3536  0.1315
  762MPD2    C411307   4.002   1.556  10.421 -0.1055 -0.1462 -1.1484
  762MPD2    C511308   3.890   1.630  10.456 -0.2405 -0.3576  0.1851
  762MPD2     H11309   4.016   1.339  10.677  0.9131  1.6613  1.0032
  762MPD2    H111310   4.056   1.589  10.333  1.1717  0.8702  0.0068
  762MPD2    H211311   3.748   1.665  10.605  0.1959 -0.2831 -0.8802
  762MPD2    H311312   3.855   1.710  10.392  1.4924  2.3975  2.6823
  762MPD2     N11313   4.163   1.374  10.474  0.6267 -0.6432  0.1101
  762MPD2    H511314   4.176   1.297  10.539 -1.3393 -0.8824  0.2211
  762MPD2    N111315   3.830   1.479  10.788 -0.0229  0.3565 -0.2304
  762MPD2    H711316   3.860   1.397  10.839  2.4890  1.2871 -0.2105
  763MPD2     C11317   1.726   1.827  16.235  0.0857 -0.2976 -0.5425
  763MPD2    C111318   1.636   1.922  16.182  0.1072  0.7946  0.1075
  763MPD2    C211319   1.663   2.055  16.214 -0.0412 -0.4453 -0.3799
  763MPD2    C311320   1.772   2.102  16.284  0.0966 -0.0221  0.3897
  763MPD2    C411321   1.853   2.002  16.334 -0.5884 -0.8791 -0.0287
  763MPD2    C511322   1.835   1.867  16.310  0.1356 -0.9607 -0.6533
  763MPD2     H11323   1.589   2.128  16.182  0.6407 -0.7715 -2.6394
  763MPD2    H111324   1.945   2.038  16.378  0.3305 -2.9295 -0.2793
  763MPD2    H211325   1.707   1.721  16.228 -0.2382 -0.3734  1.5590
  763MPD2    H311326   1.899   1.789  16.350 -0.1831  0.2161  2.1948
  763MPD2     N11327   1.802   2.239  16.302 -0.1816  0.1353  0.0397
  763MPD2    H511328   1.885   2.253  16.358 -1.8642  1.3598  2.2293
  763MPD2    N111329   1.516   1.886  16.117  0.5594 -0.7306 -0.1850
  763MPD2    H711330   1.450   1.957  16.086  2.2447 -0.3488 -2.9116
  764MPD2     C11331   4.338   3.392   0.132  0.3816  0.1274  0.0995
  764MPD2    C111332   4.254   3.503   0.151  0.7600  0.4365  0.4391
  764MPD2    C211333   4.241   3.560   0.276 -0.1320 -0.7336 -0.2996
  764MPD2    C311334   4.307   3.507   0.380  1.2123 -0.3783 -0.2621
  764MPD2    C411335   4.389   3.402   0.357  0.6944 -0.3081  0.3034
  764MPD2    C511336   4.400   3.338   0.242 -0.0571 -0.1593  0.1445
  764MPD2     H11337   4.160   3.628   0.298 -0.6431 -1.0945 -1.1093
  764MPD2    H111338   4.447   3.359   0.438 -0.6490  1.7938  2.4028
  764MPD2    H211339   4.341   3.337   0.039 -1.1034  1.1844 -0.5716
  764MPD2    H311340   4.460   3.249   0.234 -0.1995 -0.2369 -0.0543
  764MPD2     N11341   4.283   3.559   0.509  1.0386 -0.6182 -0.0408
  764MPD2    H511342   4.208   3.627   0.521 -0.1105 -1.6926 -1.0222
  764MPD2    N111343   4.168   3.550   0.049  0.2999  0.4067  0.0104
  764MPD2    H711344   4.116   3.632   0.077 -1.3875 -0.7372  0.1765
  765MPD2     C11345   3.731   1.197  15.965  0.4937 -0.0454 -0.5082
  765MPD2    C111346   3.759   1.321  15.914  0.2478  0.7316 -0.3666
  765MPD2    C211347   3.893   1.363  15.911 -0.0421  0.2582  0.0301
  765MPD2    C311348   3.992   1.287  15.974  0.3341  0.0548  1.1369
  765MPD2    C411349   3.964   1.159  16.022 -0.2527  0.6700  0.1701
  765MPD2    C511350   3.836   1.121  16.011  0.4468  0.2435 -0.0075
  765MPD2     H11351   3.929   1.453  15.863  0.2233 -0.1892 -0.6142
  765MPD2    H111352   4.038   1.093  16.067 -0.3296  1.1182  0.9505
  765MPD2    H211353   3.629   1.165  15.979  0.1700  0.7018 -1.1724
  765MPD2    H311354   3.810   1.030  16.063 -0.0437 -0.1541 -0.9607
  765MPD2     N11355   4.123   1.340  15.974  0.0783 -0.1104  0.0885
  765MPD2    H511356   4.142   1.431  15.934 -3.1729  0.8611  0.7416
  765MPD2    N111357   3.653   1.398  15.860 -0.1994  0.0791  0.3262
  765MPD2    H711358   3.565   1.352  15.840 -0.3780 -0.6423  2.7839
  766MPD2     C11359   3.372   1.253  15.288  0.8759 -0.5633 -0.2558
  766MPD2    C111360   3.473   1.346  15.305  0.0784 -0.2731  0.9675
  766MPD2    C211361   3.573   1.358  15.211 -0.5666  0.3386  0.1429
  766MPD2    C311362   3.588   1.263  15.113  0.1266  0.5143 -0.2963
  766MPD2    C411363   3.484   1.178  15.085 -0.4286 -0.1934 -0.6389
  766MPD2    C511364   3.380   1.172  15.172  0.0631 -0.1531  0.1764
  766MPD2     H11365   3.647   1.437  15.222 -3.0200  2.4799  1.1051
  766MPD2    H111366   3.487   1.117  14.995 -1.1517 -0.3597 -0.5478
  766MPD2    H211367   3.289   1.237  15.356  0.3703 -0.2814 -0.8036
  766MPD2    H311368   3.313   1.089  15.153  0.4978 -0.2479 -0.9167
  766MPD2     N11369   3.695   1.270  15.024  0.3278 -0.0427 -0.1867
  766MPD2    H511370   3.668   1.242  14.930  2.3922 -1.2918 -0.4292
  766MPD2    N111371   3.447   1.440  15.406  0.3846 -0.5548 -0.1553
  766MPD2    H711372   3.386   1.399  15.476 -0.8541  0.3568 -0.6925
  767MPD2     C11373   3.349   1.526  15.017 -0.7329 -0.1353 -0.0820
  767MPD2    C111374   3.460   1.569  14.951  0.0622  0.2775  0.2350
  767MPD2    C211375   3.488   1.539  14.816 -0.4166 -0.8233 -0.5241
  767MPD2    C311376   3.379   1.473  14.752 -0.3244  0.4427 -0.2122
  767MPD2    C411377   3.267   1.430  14.818  0.4712 -0.5156 -0.6572
  767MPD2    C511378   3.255   1.454  14.952 -0.5631 -0.1634 -0.2792
  767MPD2     H11379   3.581   1.561  14.764 -0.3080 -0.5847 -0.2217
  767MPD2    H111380   3.179   1.390  14.769 -0.3345 -2.1084  2.0712
  767MPD2    H211381   3.344   1.535  15.125  0.3593  1.6970 -0.1991
  767MPD2    H311382   3.177   1.418  15.019  1.9903  0.5999  3.1432
  767MPD2     N11383   3.394   1.459  14.607 -0.1468 -0.2614 -0.1541
  767MPD2    H511384   3.484   1.476  14.563 -0.3483 -0.4458 -0.6426
  767MPD2    N111385   3.550   1.641  15.036  0.4593  0.2545  0.4811
  767MPD2    H711386   3.521   1.652  15.133  3.7083  0.6211  1.4103
  768MPD2     C11387   3.742   4.716  10.814  0.0943  0.2909 -0.2932
  768MPD2    C111388   3.804   0.099  10.800  0.4225  1.1156 -0.4077
  768MPD2    C211389   3.942   0.097  10.810 -0.0613  0.0845 -1.1350
  768MPD2    C311390   4.008   4.722  10.849  0.7741  0.6516  0.8350
  768MPD2    C411391   3.941   4.601  10.868  0.1599 -0.6526  0.3322
  768MPD2    C511392   3.807   4.601  10.848  0.0019  0.3502  0.5603
  768MPD2     H11393   4.003   0.182  10.781  1.2741 -0.4801  0.0094
  768MPD2    H111394   3.993   4.510  10.894  0.8125  0.1727  1.9329
  768MPD2    H211395   3.634   4.711  10.821  0.2110 -2.0832  0.1732
  768MPD2    H311396   3.752   4.508  10.858  2.0681 -0.8324  0.9518
  768MPD2     N11397   4.151   4.734  10.871  0.6600 -0.1803  0.0521
  768MPD2    H511398   4.188   0.086  10.854  0.6434 -0.3617 -0.9279
  768MPD2    N111399   3.747   0.220  10.767  0.6889 -0.0207 -0.2630
  768MPD2    H711400   3.805   0.303  10.759  1.2319 -0.3021  0.9164
  769MPD2     C11401   0.873   2.908  14.629  0.2595 -0.1790 -0.8766
  769MPD2    C111402   0.745   2.918  14.679  1.0341 -0.0275  0.1434
  769MPD2    C211403   0.727   2.949  14.817 -0.4615  0.0181  0.0526
  769MPD2    C311404   0.839   2.980  14.893 -0.6893  0.2938  0.3863
  769MPD2    C411405   0.969   2.984  14.835 -0.0911  0.0596 -0.6839
  769MPD2    C511406   0.981   2.947  14.705  0.6658 -0.3290 -0.6064
  769MPD2     H11407   0.631   2.933  14.865 -0.6518  1.5421  0.1820
  769MPD2    H111408   1.054   3.009  14.896 -0.6599  1.2763 -0.3903
  769MPD2    H211409   0.889   2.887  14.524  0.9443 -1.1866 -0.5701
  769MPD2    H311410   1.076   2.947  14.654  0.7706  2.3415 -0.4112
  769MPD2     N11411   0.817   3.018  15.027 -0.7180 -0.3919  0.0009
  769MPD2    H511412   0.719   3.019  15.054 -0.3998  0.1257  1.1581
  769MPD2    N111413   0.636   2.896  14.598 -0.2021  0.5971  0.0123
  769MPD2    H711414   0.651   2.857  14.506 -0.0181 -0.7261  0.5926
  770MPD2     C11415   0.215   2.042  14.384 -0.2878 -0.6088 -0.5304
  770MPD2    C111416   0.174   2.072  14.510 -0.4230 -0.1800  0.2613
  770MPD2    C211417   0.184   2.202  14.545 -0.3612 -0.5901  0.2531
  770MPD2    C311418   0.240   2.291  14.457  0.0788 -0.2163  0.4257
  770MPD2    C411419   0.285   2.256  14.334 -0.3541  0.2264  0.0002
  770MPD2    C511420   0.265   2.128  14.290  0.1391 -0.3624 -0.4532
  770MPD2     H11421   0.168   2.239  14.645  0.8406  1.7654 -0.4288
  770MPD2    H111422   0.324   2.321  14.257  1.7867 -0.7518  0.2769
  770MPD2    H211423   0.217   1.937  14.357  0.6286 -0.5817 -0.5618
  770MPD2    H311424   0.316   2.089  14.203 -1.5556 -2.7676 -0.3790
  770MPD2     N11425   0.266   2.420  14.509 -0.3038 -0.0838  0.8599
  770MPD2    H511426   0.224   2.440  14.599  1.4976  3.2946  0.9348
  770MPD2    N111427   0.140   1.973  14.606 -0.1219  0.5844  0.3000
  770MPD2    H711428   0.165   1.876  14.588 -0.1569  0.6266  0.0352
  771MPD2     C11429   1.607   0.475  13.058  0.4049  0.3161  0.1799
  771MPD2    C111430   1.536   0.589  13.096 -0.4125  0.2450 -0.3594
  771MPD2    C211431   1.398   0.594  13.073 -0.2401 -0.4931 -0.7999
  771MPD2    C311432   1.327   0.499  12.997  0.1721 -0.1463  0.5388
  771MPD2    C411433   1.399   0.387  12.953  0.3603  0.3514 -0.0062
  771MPD2    C511434   1.535   0.375  12.987  0.0526 -0.1610  0.1495
  771MPD2     H11435   1.350   0.685  13.108 -1.5437 -2.4485  2.5142
  771MPD2    H111436   1.356   0.306  12.894  0.8709  0.7756 -0.9471
  771MPD2    H211437   1.712   0.467  13.082  0.0794  1.3037  1.9290
  771MPD2    H311438   1.590   0.285  12.965  0.9085  0.2933  0.4390
  771MPD2     N11439   1.195   0.531  12.956  0.2759 -0.0171  0.6360
  771MPD2    H511440   1.162   0.615  13.002 -3.4584 -0.6790 -0.7870
  771MPD2    N111441   1.595   0.701  13.169 -0.6889  0.2767 -0.0225
  771MPD2    H711442   1.532   0.779  13.186  0.9680  1.0663  2.4503
  772MPD2     C11443   1.331   1.359  13.239 -0.1739 -0.0191  0.0459
  772MPD2    C111444   1.362   1.278  13.342 -0.0395 -0.5703 -0.1842
  772MPD2    C211445   1.282   1.269  13.460  0.4116 -0.7902  0.6297
  772MPD2    C311446   1.174   1.345  13.475 -0.5058  0.3985 -0.5837
  772MPD2    C411447   1.137   1.428  13.371 -0.6279  0.4013  0.4526
  772MPD2    C511448   1.218   1.434  13.258 -0.2667  0.4430 -0.1324
  772MPD2     H11449   1.310   1.199  13.539 -2.3397  0.5898  2.8449
  772MPD2    H111450   1.039   1.473  13.376 -0.5329  0.4546  1.6922
  772MPD2    H211451   1.375   1.354  13.140  0.7735 -0.8328  0.4984
  772MPD2    H311452   1.177   1.491  13.175  0.5468 -0.9337 -1.4555
  772MPD2     N11453   1.081   1.336  13.582  0.2104  0.0515 -0.0224
  772MPD2    H511454   1.013   1.410  13.594 -0.5427 -0.5593 -0.5639
  772MPD2    N111455   1.473   1.194  13.318  0.1039  0.4897  0.1774
  772MPD2    H711456   1.518   1.208  13.227 -3.9996 -1.1426 -2.1004
  773MPD2     C11457   0.491   2.807   0.268 -0.2077  0.2245  0.2012
  773MPD2    C111458   0.508   2.717   0.167  0.3821  0.2391  0.4538
  773MPD2    C211459   0.624   2.641   0.154  0.0703  0.4893  0.4028
  773MPD2    C311460   0.718   2.643   0.253 -0.6843  0.6289 -0.2175
  773MPD2    C411461   0.697   2.727   0.362  0.2053  0.6540 -0.7448
  773MPD2    C511462   0.593   2.810   0.360 -0.3266  0.3994 -0.3274
  773MPD2     H11463   0.629   2.575   0.069  1.5607  0.4096  0.5577
  773MPD2    H111464   0.761   2.744   0.448  0.1102 -0.3065 -0.4851
  773MPD2    H211465   0.409   2.877   0.280  0.3268  1.2399 -2.1336
  773MPD2    H311466   0.576   2.874   0.446 -2.0168  1.3527 -1.3909
  773MPD2     N11467   0.815   2.537   0.253 -0.2340 -0.3393 -0.1367
  773MPD2    H511468   0.832   2.484   0.168  2.5548 -0.0724  0.2415
  773MPD2    N111469   0.415   2.704   0.062 -0.1969  0.0926  0.2594
  773MPD2    H711470   0.436   2.628  17.758  3.0894  2.4238 -1.4398
  774MPD2     C11471   0.247   0.979  13.336 -0.2818 -0.3155 -0.1935
  774MPD2    C111472   0.141   1.019  13.414 -0.2841  0.1986  0.1551
  774MPD2    C211473   0.090   1.146  13.417 -0.3890 -0.2964 -0.5508
  774MPD2    C311474   0.161   1.241  13.349 -0.9642  0.5325  0.1803
  774MPD2    C411475   0.271   1.211  13.271 -0.0359  0.3834 -0.6158
  774MPD2    C511476   0.307   1.079  13.267 -0.2795 -0.1510  0.2074
  774MPD2     H11477   0.003   1.169  13.477 -0.0856  1.7798 -0.9043
  774MPD2    H111478   0.326   1.288  13.217  0.9940  0.8362  1.0940
  774MPD2    H211479   0.273   0.876  13.317  1.3823 -0.6768  3.8921
  774MPD2    H311480   0.400   1.055  13.218 -1.0965  2.3083 -2.5543
  774MPD2     N11481   0.114   1.374  13.371  0.3915 -0.3643  0.3213
  774MPD2    H511482   0.015   1.375  13.394  0.5674  3.3736  0.8988
  774MPD2    N111483   0.091   0.915  13.492  0.4632 -0.1200 -0.0092
  774MPD2    H711484   0.147   0.830  13.495  1.3593  0.4666 -0.4176
  775MPD2     C11485   0.658   2.669  15.551  0.4935  0.7678  0.8851
  775MPD2    C111486   0.699   2.776  15.630 -0.8594  0.1035 -0.2537
  775MPD2    C211487   0.824   2.842  15.599 -0.2016 -0.4176  0.6854
  775MPD2    C311488   0.898   2.799  15.491  0.6002  0.0242  0.2931
  775MPD2    C411489   0.860   2.691  15.416 -0.1569 -0.0376  0.0894
  775MPD2    C511490   0.742   2.625  15.451 -0.3701  1.1695 -0.2766
  775MPD2     H11491   0.845   2.932  15.656 -0.2105 -0.3950  0.6532
  775MPD2    H111492   0.914   2.672  15.324 -1.0093 -0.1444 -0.3883
  775MPD2    H211493   0.566   2.619  15.579  1.5265 -0.8828  1.3094
  775MPD2    H311494   0.711   2.537  15.396 -1.0737  1.7808 -0.8527
  775MPD2     N11495   1.019   2.857  15.457 -0.1389 -0.4151  0.1886
  775MPD2    H511496   1.068   2.821  15.375 -0.1756  2.0515 -0.9267
  775MPD2    N111497   0.619   2.806  15.744 -0.3400  0.6904  0.2323
  775MPD2    H711498   0.543   2.740  15.760  0.5555 -0.1747  0.9609
  776MPD2     C11499   3.863   3.321  11.880  0.2939  0.4988  0.2514
  776MPD2    C111500   3.981   3.274  11.834 -0.3177  0.2417  0.7877
  776MPD2    C211501   4.065   3.367  11.763  0.2162  0.4391  0.4005
  776MPD2    C311502   4.014   3.493  11.740  0.0129 -0.1771  0.2266
  776MPD2    C411503   3.892   3.533  11.780 -0.8183 -1.1324  0.5364
  776MPD2    C511504   3.822   3.444  11.858 -0.4403  0.2452  0.3444
  776MPD2     H11505   4.162   3.337  11.725  0.7150  1.3032  0.9968
  776MPD2    H111506   3.859   3.637  11.773  1.0721 -0.5025  0.9880
  776MPD2    H211507   3.797   3.259  11.938 -0.4409  0.3598 -0.7217
  776MPD2    H311508   3.732   3.472  11.912 -0.9893 -1.0045  0.0814
  776MPD2     N11509   4.086   3.579  11.659  0.3898 -0.1997 -0.2452
  776MPD2    H511510   4.035   3.656  11.618  1.3335 -0.2228 -1.4902
  776MPD2    N111511   4.022   3.140  11.861  0.3710  0.5084  0.0226
  776MPD2    H711512   3.956   3.092  11.922 -1.9210  1.5422 -1.6720
  777MPD2     C11513   0.923   1.467   0.746 -0.8039  0.6184 -0.3117
  777MPD2    C111514   0.838   1.429   0.856  0.8768  0.2213  0.2224
  777MPD2    C211515   0.782   1.305   0.855 -0.6444  0.0526 -0.0111
  777MPD2    C311516   0.805   1.220   0.749  0.6286  0.1899  0.0984
  777MPD2    C411517   0.898   1.254   0.651 -0.6340 -0.4704  0.5066
  777MPD2    C511518   0.961   1.375   0.654 -0.1747 -0.5847 -0.2006
  777MPD2     H11519   0.703   1.282   0.925  0.0722 -0.0305  0.7766
  777MPD2    H111520   0.942   1.183   0.582  0.1897  1.5691 -1.0640
  777MPD2    H211521   0.965   1.566   0.733  1.2261 -0.1736  0.3176
  777MPD2    H311522   1.043   1.395   0.587 -0.8265 -1.0060 -1.1227
  777MPD2     N11523   0.734   1.100   0.751 -0.1729  0.6612  0.0074
  777MPD2    H511524   0.680   1.082   0.835  1.1710 -0.1312  0.6974
  777MPD2    N111525   0.814   1.521   0.957  0.2883 -0.3249  0.4017
  777MPD2    H711526   0.859   1.612   0.954 -0.4261 -0.0294 -0.9831
  778MPD2     C11527   1.275   0.958  15.139 -0.1401  0.3988 -0.5781
  778MPD2    C111528   1.326   0.844  15.086 -0.1846  0.4806 -0.8730
  778MPD2    C211529   1.377   0.857  14.959  0.0702  0.1509 -0.1054
  778MPD2    C311530   1.382   0.973  14.892  0.8360 -0.1519 -0.2290
  778MPD2    C411531   1.334   1.086  14.952  0.2925  0.0283 -0.2517
  778MPD2    C511532   1.282   1.078  15.079  0.2670  0.1336 -0.0456
  778MPD2     H11533   1.422   0.768  14.916 -1.0725 -0.4707 -0.0005
  778MPD2    H111534   1.348   1.189  14.923 -0.7780  0.6153  1.2769
  778MPD2    H211535   1.229   0.968  15.237  0.1036  2.0658 -0.6294
  778MPD2    H311536   1.248   1.173  15.120  0.4291  0.0766  0.2214
  778MPD2     N11537   1.429   0.987  14.757  0.4446  0.1420  0.1818
  778MPD2    H511538   1.473   0.905  14.716 -1.2503 -0.9508  0.5782
  778MPD2    N111539   1.307   0.717  15.150  0.3723  0.0442 -0.2096
  778MPD2    H711540   1.329   0.634  15.095  1.9692  0.0610  0.4105
  779MPD2     C11541   0.922   4.117  14.445  0.3380 -0.5819 -0.1698
  779MPD2    C111542   1.057   4.120  14.417  0.8597 -0.8008 -0.0638
  779MPD2    C211543   1.133   4.231  14.441  0.1171  0.8709  0.3732
  779MPD2    C311544   1.074   4.352  14.478 -0.4362 -0.5254 -0.1640
  779MPD2    C411545   0.938   4.348  14.499  0.6901  0.5291 -0.2345
  779MPD2    C511546   0.857   4.237  14.480  0.2264  0.2180 -0.4364
  779MPD2     H11547   1.241   4.224  14.439  0.2431  2.8720 -0.5663
  779MPD2    H111548   0.880   4.438  14.517 -0.2151 -0.7684  3.2607
  779MPD2    H211549   0.859   4.030  14.441  0.0628 -0.4056  0.4440
  779MPD2    H311550   0.750   4.238  14.496  0.3289 -1.6615  0.2919
  779MPD2     N11551   1.150   4.473  14.486 -0.6259 -0.0073  0.4318
  779MPD2    H511552   1.251   4.465  14.478 -0.5618  0.9353  0.3435
  779MPD2    N111553   1.131   4.004  14.377 -0.4017 -0.2151  0.4524
  779MPD2    H711554   1.230   4.012  14.360 -0.3225 -1.0741  0.4983
  780MPD2     C11555   0.356   0.285   0.354 -0.4730 -0.4008  0.0853
  780MPD2    C111556   0.407   0.161   0.374  0.8060 -0.5862  0.6780
  780MPD2    C211557   0.533   0.127   0.319  0.5489 -0.2681 -0.2134
  780MPD2    C311558   0.593   0.210   0.228 -0.9895 -0.1844  0.0893
  780MPD2    C411559   0.538   0.339   0.204  0.4643  0.1218 -0.0867
  780MPD2    C511560   0.417   0.368   0.263  1.1772  0.5115  0.1182
  780MPD2     H11561   0.575   0.031   0.346  2.2011  0.6927  0.5852
  780MPD2    H111562   0.586   0.410   0.138 -1.1108  0.7448 -0.5577
  780MPD2    H211563   0.265   0.317   0.402 -0.2512  1.3677 -0.6664
  780MPD2    H311564   0.365   0.457   0.232  1.1544 -0.2414 -2.0035
  780MPD2     N11565   0.707   0.159   0.166  0.0720  0.2652 -0.0474
  780MPD2    H511566   0.733   0.062   0.184 -0.6499  0.0527 -0.1768
  780MPD2    N111567   0.329   0.082   0.468  0.3367 -0.4707  0.0603
  780MPD2    H711568   0.237   0.113   0.495  1.9836  2.7612  1.9349
  781MPD2     C11569   2.320   1.863  11.996 -0.0983 -0.4047 -0.2169
  781MPD2    C111570   2.389   1.758  11.945  0.8113 -0.1975  0.2417
  781MPD2    C211571   2.416   1.746  11.807 -0.6744 -0.1439 -0.0397
  781MPD2    C311572   2.370   1.839  11.718 -0.4487  0.4583 -0.2798
  781MPD2    C411573   2.295   1.947  11.772  0.3067  0.2864  0.3129
  781MPD2    C511574   2.277   1.959  11.912 -0.7568 -0.5263  0.2278
  781MPD2     H11575   2.473   1.656  11.785  0.7467  1.0059 -1.0157
  781MPD2    H111576   2.263   2.024  11.704  1.0059  1.0089  0.8015
  781MPD2    H211577   2.309   1.871  12.104 -0.5390  2.1257 -0.4494
  781MPD2    H311578   2.217   2.045  11.939 -2.1037 -1.1191 -0.8682
  781MPD2     N11579   2.400   1.839  11.581 -0.3320  0.5309  1.0321
  781MPD2    H511580   2.338   1.886  11.516 -0.1844 -0.6019  0.0826
  781MPD2    N111581   2.421   1.659  12.036  0.2885  0.0714  0.3243
  781MPD2    H711582   2.426   1.682  12.135  0.6562 -0.0205  0.3293
  782MPD2     C11583   4.389   2.542  10.070  0.0274 -0.5752 -0.6242
  782MPD2    C111584   4.481   2.450  10.114 -0.0806 -0.1304 -0.1482
  782MPD2    C211585   4.610   2.496  10.145 -0.0385 -0.3275  0.6171
  782MPD2    C311586   4.634   2.631  10.140 -0.5033  0.0188  0.2642
  782MPD2    C411587   4.536   2.716  10.098  0.5617  0.3780 -0.2404
  782MPD2    C511588   4.415   2.676  10.057  0.0544  0.4413 -0.3560
  782MPD2     H11589   4.683   2.430  10.191 -0.0543  0.1656  1.3563
  782MPD2    H111590   4.559   2.821  10.084 -0.7262  0.4471 -1.8384
  782MPD2    H211591   4.285   2.515  10.056 -0.7512  2.1522 -0.1386
  782MPD2    H311592   4.348   2.747  10.009  0.5279  2.0717  1.3538
  782MPD2     N11593   0.015   2.673  10.200 -0.7505 -0.4134 -0.2530
  782MPD2    H511594   0.062   2.606  10.260 -0.9676 -1.9731 -1.8076
  782MPD2    N111595   4.450   2.309  10.142  0.2293  0.1716 -0.1022
  782MPD2    H711596   4.528   2.256  10.178  1.1990  0.8232 -1.2596
  783MPD2     C11597   4.199   1.727  10.944  0.0600 -0.2889 -0.0261
  783MPD2    C111598   4.322   1.785  10.911 -0.4442 -0.1046 -0.5281
  783MPD2    C211599   4.339   1.831  10.782  0.8034 -0.1301 -0.1844
  783MPD2    C311600   4.238   1.831  10.687 -0.0142 -0.4058 -0.5374
  783MPD2    C411601   4.116   1.774  10.715  0.2657 -0.3911 -0.5256
  783MPD2    C511602   4.103   1.732  10.841  0.1795 -0.1642  0.2378
  783MPD2     H11603   4.435   1.874  10.758  1.3976 -1.4029 -0.0683
  783MPD2    H111604   4.030   1.776  10.649  0.8919  1.2578 -1.3017
  783MPD2    H211605   4.167   1.712  11.046 -1.4335  1.0168 -0.2856
  783MPD2    H311606   4.003   1.709  10.878 -0.3419 -1.2673 -1.8739
  783MPD2     N11607   4.272   1.884  10.558 -0.2908 -0.2080  0.2081
  783MPD2    H511608   4.369   1.902  10.535 -1.0511  1.2333 -1.8720
  783MPD2    N111609   4.407   1.822  11.018  0.4273  0.5523  0.9435
  783MPD2    H711610   4.365   1.799  11.108 -1.5893 -0.0974 -0.1634
  784MPD2     C11611   3.160   3.512   0.524 -0.2153 -0.3785  0.0036
  784MPD2    C111612   3.121   3.581   0.637 -0.5147 -0.0498  0.3828
  784MPD2    C211613   2.991   3.615   0.655  0.7670  0.3040  0.1763
  784MPD2    C311614   2.893   3.573   0.566 -0.0239  0.5654  0.3106
  784MPD2    C411615   2.930   3.506   0.459  0.0580 -0.9965 -0.0377
  784MPD2    C511616   3.061   3.474   0.438 -0.5297 -0.3590  1.4709
  784MPD2     H11617   2.955   3.673   0.739  0.4620 -0.0546  0.2947
  784MPD2    H111618   2.852   3.459   0.400 -0.0648  0.4911 -1.0488
  784MPD2    H211619   3.263   3.482   0.509 -0.3621  0.8231 -3.3400
  784MPD2    H311620   3.086   3.408   0.356  1.6365  1.4500  0.6514
  784MPD2     N11621   2.760   3.608   0.603 -1.1112 -0.7005 -0.5884
  784MPD2    H511622   2.748   3.663   0.687 -1.4619  0.0594 -1.1410
  784MPD2    N111623   3.202   3.610   0.748 -0.5558 -0.5204  0.1386
  784MPD2    H711624   3.169   3.687   0.805  2.6647  0.7591  0.2816
  785MPD2     C11625   2.134   1.383  10.011 -0.3364 -0.2494 -0.5124
  785MPD2    C111626   2.201   1.267   9.970 -0.0057 -0.4820  0.0048
  785MPD2    C211627   2.281   1.206  10.069  0.2796  0.7231 -0.0957
  785MPD2    C311628   2.299   1.262  10.192  0.1404  0.0156  0.1914
  785MPD2    C411629   2.237   1.384  10.222  0.1793  0.3961  0.3223
  785MPD2    C511630   2.154   1.439  10.136  0.3756 -0.5365 -0.0359
  785MPD2     H11631   2.339   1.116  10.053 -0.2402  0.2805  0.5324
  785MPD2    H111632   2.261   1.431  10.317  2.8864 -1.0685  0.3600
  785MPD2    H211633   2.056   1.425   9.949 -0.9323 -0.0572  0.3683
  785MPD2    H311634   2.094   1.524  10.165  0.7932 -0.6648  1.2014
  785MPD2     N11635   2.385   1.197  10.284 -0.2102 -0.4779  0.0170
  785MPD2    H511636   2.408   1.103  10.256  2.8550  0.0256  0.8316
  785MPD2    N111637   2.186   1.212   9.844 -0.0181  0.6867 -0.6542
  785MPD2    H711638   2.221   1.117   9.838 -1.6260 -0.0104  0.9567
  786MPD2     C11639   1.565   3.442  14.669  0.1654 -0.9623 -0.1962
  786MPD2    C111640   1.695   3.460  14.620 -0.0350 -0.6076  0.7996
  786MPD2    C211641   1.781   3.547  14.685  0.0550  0.0560  0.5210
  786MPD2    C311642   1.741   3.609  14.804  0.6281  0.1713  0.3450
  786MPD2    C411643   1.611   3.596  14.850  0.3031 -0.4359 -0.2248
  786MPD2    C511644   1.527   3.517  14.782 -0.3743 -0.7234 -0.3792
  786MPD2     H11645   1.882   3.571  14.652 -0.3395  0.9494 -0.0103
  786MPD2    H111646   1.576   3.647  14.939  0.3009  0.3906 -0.6934
  786MPD2    H211647   1.485   3.381  14.630 -0.7154  1.5878 -2.3984
  786MPD2    H311648   1.428   3.508  14.825  0.9574  0.7808  2.9923
  786MPD2     N11649   1.828   3.690  14.885  0.1769  0.1200 -0.2978
  786MPD2    H511650   1.783   3.722  14.971 -0.2438 -0.9667 -0.1052
  786MPD2    N111651   1.731   3.388  14.499 -0.7773  0.1342 -0.1211
  786MPD2    H711652   1.826   3.406  14.468 -0.9117  1.3626  0.1565
  787MPD2     C11653   2.073   2.829  14.583  0.1625  0.1133  0.9735
  787MPD2    C111654   2.012   2.837  14.457  0.0783 -0.1110  0.3291
  787MPD2    C211655   2.010   2.722  14.383 -0.3081 -0.9897 -0.4868
  787MPD2    C311656   2.083   2.613  14.422  0.4673 -0.1459 -0.3173
  787MPD2    C411657   2.153   2.608  14.543  0.1460  0.2992  0.4630
  787MPD2    C511658   2.141   2.718  14.628  0.2288  0.2669  0.9661
  787MPD2     H11659   1.958   2.703  14.291  0.9721 -0.1813 -1.3744
  787MPD2    H111660   2.223   2.530  14.569  1.0212  1.1113  0.5795
  787MPD2    H211661   2.075   2.914  14.651  1.1258  0.6272  0.3183
  787MPD2    H311662   2.188   2.723  14.726  0.5544 -1.7812  0.9166
  787MPD2     N11663   2.083   2.503  14.335  0.6898 -0.3588 -0.2017
  787MPD2    H511664   2.011   2.518  14.264  1.4408  2.0601 -0.4487
  787MPD2    N111665   1.953   2.956  14.412 -0.3859 -0.3283 -0.5372
  787MPD2    H711666   1.954   3.037  14.473 -0.6952  0.0469 -1.0337
  788MPD2     C11667   4.042   2.394   1.043  0.1085  0.5710 -0.3527
  788MPD2    C111668   4.038   2.349   0.912 -0.0198  0.4224  0.4628
  788MPD2    C211669   4.126   2.402   0.821 -0.3245  0.0929 -0.0121
  788MPD2    C311670   4.216   2.502   0.862 -0.4926 -0.6551  0.0180
  788MPD2    C411671   4.212   2.549   0.999 -0.3201  0.5390 -0.4381
  788MPD2    C511672   4.122   2.503   1.084  0.6460 -0.0996 -0.2858
  788MPD2     H11673   4.118   2.372   0.717 -0.3080  0.7345 -0.2023
  788MPD2    H111674   4.273   2.622   1.053  2.0192 -1.8888  0.2120
  788MPD2    H211675   3.974   2.358   1.120  0.6496 -0.1416 -0.2127
  788MPD2    H311676   4.131   2.537   1.186 -0.8713  2.0622 -0.8960
  788MPD2     N11677   4.305   2.568   0.769 -0.1815 -0.0531  0.0083
  788MPD2    H511678   4.365   2.638   0.812 -0.6799  1.0914 -1.1275
  788MPD2    N111679   3.934   2.251   0.882 -0.1335  0.2265 -0.7659
  788MPD2    H711680   3.880   2.211   0.959  0.9742  1.0603  0.4491
  789MPD2     C11681   4.281   1.555  16.759 -0.6991  0.2362  0.7695
  789MPD2    C111682   4.157   1.583  16.701  0.0089 -0.0701 -1.1587
  789MPD2    C211683   4.092   1.688  16.766 -0.1536 -0.2218  0.1489
  789MPD2    C311684   4.140   1.766  16.866 -0.5875 -0.0103  0.8622
  789MPD2    C411685   4.259   1.734  16.922  0.3966 -0.4587  0.1525
  789MPD2    C511686   4.322   1.621  16.878  0.3776 -0.8594  0.1867
  789MPD2     H11687   3.990   1.702  16.733  0.2979 -1.7892 -1.8715
  789MPD2    H111688   4.314   1.791  16.997 -0.1036 -0.0015  0.1733
  789MPD2    H211689   4.347   1.477  16.722  0.1202  0.6487  1.3547
  789MPD2    H311690   4.408   1.595  16.939 -0.6209 -1.4375  1.3386
  789MPD2     N11691   4.074   1.870  16.924 -0.2036 -0.0795  0.5389
  789MPD2    H511692   4.122   1.919  16.999 -0.4551  0.5827  0.2722
  789MPD2    N111693   4.096   1.508  16.596 -0.0549 -0.3439 -0.4332
  789MPD2    H711694   4.002   1.535  16.568  0.0709  0.8730  0.3037
  790MPD2     C11695   0.556   3.532  13.148  0.0649 -0.2460 -0.0957
  790MPD2    C111696   0.531   3.451  13.258  0.2737 -0.1074  0.1922
  790MPD2    C211697   0.406   3.388  13.267  0.2539 -0.3775 -0.2323
  790MPD2    C311698   0.303   3.408  13.180  1.4249 -0.0558  0.4557
  790MPD2    C411699   0.324   3.501  13.085 -0.4378  0.5369 -0.6316
  790MPD2    C511700   0.449   3.558  13.066  0.3877  0.7312 -0.4556
  790MPD2     H11701   0.393   3.315  13.346 -1.8650  2.0096  1.6068
  790MPD2    H111702   0.252   3.524  13.007 -1.1595 -1.7990 -0.6756
  790MPD2    H211703   0.650   3.585  13.135 -0.3879  0.5340 -0.2233
  790MPD2    H311704   0.472   3.621  12.981 -0.9365  1.6122 -0.1642
  790MPD2     N11705   0.188   3.330  13.195 -0.7210 -0.0563  0.1506
  790MPD2    H511706   0.193   3.266  13.274 -1.2739 -0.5102 -0.1763
  790MPD2    N111707   0.636   3.434  13.348 -0.1550 -0.2364  0.3051
  790MPD2    H711708   0.714   3.498  13.334  0.8593 -1.5422  0.0005
  791MPD2     C11709   4.237   3.291  12.819  0.4019 -0.0570  0.6838
  791MPD2    C111710   4.251   3.183  12.902  0.4582  0.4878 -0.0129
  791MPD2    C211711   4.150   3.095  12.929 -0.5628 -0.2578 -0.2033
  791MPD2    C311712   4.023   3.121  12.876  1.0630  0.0338 -0.0073
  791MPD2    C411713   4.004   3.231  12.798  0.7192 -0.1140  0.0725
  791MPD2    C511714   4.112   3.308  12.770  0.4640  0.4915 -0.1937
  791MPD2     H11715   4.167   3.005  12.987 -1.2147 -0.5971 -0.5478
  791MPD2    H111716   3.912   3.269  12.755  0.1387 -1.5530  0.0702
  791MPD2    H211717   4.323   3.356  12.808  1.3567 -1.3209  0.7264
  791MPD2    H311718   4.100   3.384  12.694 -0.2759  1.6468  1.0703
  791MPD2     N11719   3.920   3.028  12.909 -0.0448 -0.0611  0.0928
  791MPD2    H511720   3.951   2.942  12.954 -3.5064 -0.9833  0.7113
  791MPD2    N111721   4.378   3.164  12.949  0.7041  0.1250  0.8446
  791MPD2    H711722   4.449   3.229  12.915 -0.2261  0.8663  0.3064
  792MPD2     C11723   0.111   3.044  11.214  0.2956  0.0243  0.2003
  792MPD2    C111724   0.055   3.145  11.137  1.1727 -0.1817  0.2707
  792MPD2    C211725   4.665   3.179  11.164 -0.8520 -0.2609  0.0356
  792MPD2    C311726   4.586   3.119  11.261 -0.3626  0.4546  0.2875
  792MPD2    C411727   4.647   3.029  11.343  0.1151  0.2369  0.7601
  792MPD2    C511728   0.035   2.989  11.321  0.3250  0.2447 -0.4966
  792MPD2     H11729   4.623   3.262  11.110  1.2040 -0.3510 -1.7003
  792MPD2    H111730   4.586   2.991  11.424 -2.1669  0.2121 -0.9530
  792MPD2    H211731   0.217   3.020  11.212  0.3946  0.4849 -0.0473
  792MPD2    H311732   0.088   2.925  11.390 -0.0632  0.4716  0.0167
  792MPD2     N11733   4.453   3.159  11.302  0.0806  0.5353 -0.5928
  792MPD2    H511734   4.414   3.114  11.384  1.8863 -0.4112 -0.2420
  792MPD2    N111735   0.135   3.218  11.046  0.2073  0.4532  0.2970
  792MPD2    H711736   0.234   3.195  11.045 -0.5743 -2.6636 -2.8218
  793MPD2     C11737   3.873   3.021  10.691 -0.2485 -0.1073  0.1189
  793MPD2    C111738   3.998   3.074  10.682 -0.1847 -0.3722  0.0538
  793MPD2    C211739   4.044   3.160  10.775 -0.3834 -0.0440 -0.9254
  793MPD2    C311740   3.966   3.203  10.881  0.3531  0.0330  0.3851
  793MPD2    C411741   3.833   3.155  10.883 -0.2198 -0.6816  0.1296
  793MPD2    C511742   3.792   3.063  10.796  0.4393 -1.1386 -0.6861
  793MPD2     H11743   4.148   3.192  10.778 -0.6236  0.6159  0.3629
  793MPD2    H111744   3.756   3.207  10.939  1.5714  1.3772  0.6863
  793MPD2    H211745   3.834   2.948  10.621 -0.0777  1.2295 -1.3797
  793MPD2    H311746   3.689   3.030  10.798  0.0133  0.2009 -1.0887
  793MPD2     N11747   4.021   3.300  10.970 -0.8251 -0.2510 -0.7110
  793MPD2    H511748   4.122   3.314  10.965 -0.8812  1.3686  2.7153
  793MPD2    N111749   4.082   3.049  10.571  0.1082  0.2349  0.4172
  793MPD2    H711750   4.166   3.106  10.567  0.2772  0.1890  3.5018
  794MPD2     C11751   4.431   3.014  17.472  0.7976 -0.3852 -0.7511
  794MPD2    C111752   4.449   2.890  17.416  0.2437 -0.0943 -0.0684
  794MPD2    C211753   4.367   2.840  17.312 -0.1559 -1.3090  0.3089
  794MPD2    C311754   4.269   2.924  17.263 -0.2843 -0.0062  0.1085
  794MPD2    C411755   4.266   3.056  17.307 -0.2895  0.6377 -0.8903
  794MPD2    C511756   4.344   3.097  17.408 -0.2610  0.4102  0.1033
  794MPD2     H11757   4.387   2.737  17.287  1.0750 -0.9526 -0.1647
  794MPD2    H111758   4.200   3.131  17.265 -0.3801  0.4087 -1.1565
  794MPD2    H211759   4.486   3.056  17.556  0.4463 -0.7011 -0.3635
  794MPD2    H311760   4.340   3.197  17.450 -0.8105  0.6848 -0.6168
  794MPD2     N11761   4.176   2.885  17.165 -0.3038 -0.5195  0.0010
  794MPD2    H511762   4.128   2.962  17.120 -1.6573 -1.3309  0.0448
  794MPD2    N111763   4.547   2.804  17.462  0.1618  0.0177  0.5544
  794MPD2    H711764   4.536   2.705  17.444  0.6870  0.0408  0.1158
  795MPD2     C11765   2.236   4.698  13.006 -0.0687 -0.0122  0.5010
  795MPD2    C111766   2.138   4.617  13.050 -0.4045  0.2272  1.0923
  795MPD2    C211767   2.175   4.506  13.124 -0.1608  1.0370  0.2963
  795MPD2    C311768   2.312   4.479  13.142  0.4695 -0.3233  0.1530
  795MPD2    C411769   2.411   4.568  13.101  0.6785 -0.1188  0.3349
  795MPD2    C511770   2.371   4.681  13.033 -0.1219  0.5428  0.1593
  795MPD2     H11771   2.098   4.442  13.166  0.7836 -0.9929 -1.0931
  795MPD2    H111772   2.515   4.551  13.125  1.0865  1.8067 -0.0516
  795MPD2    H211773   2.206   0.037  12.939  0.3888 -0.9138 -0.7659
  795MPD2    H311774   2.439   0.015  12.994 -1.5070  2.2127  0.9368
  795MPD2     N11775   2.350   4.368  13.224 -0.3410 -0.3525  0.1554
  795MPD2    H511776   2.281   4.345  13.295 -0.0539  1.7582  1.1227
  795MPD2    N111777   2.001   4.636  13.020 -0.0708  0.8112  0.3573
  795MPD2    H711778   1.940   4.568  13.063 -0.3501  0.1752 -1.0357
  796MPD2     C11779   1.751   1.199  15.850 -0.1218 -0.3856 -0.0272
  796MPD2    C111780   1.855   1.258  15.915 -0.0120  0.3823  0.2024
  796MPD2    C211781   1.864   1.395  15.920 -0.0213  0.4956 -0.1415
  796MPD2    C311782   1.784   1.478  15.850 -0.5836  0.6497  0.3174
  796MPD2    C411783   1.673   1.418  15.789 -0.4615 -0.2256  0.1432
  796MPD2    C511784   1.655   1.280  15.792 -0.3399 -0.5325  0.4122
  796MPD2     H11785   1.950   1.441  15.969  0.2580  1.4083 -1.4970
  796MPD2    H111786   1.595   1.481  15.749  0.1352  0.0838 -0.5553
  796MPD2    H211787   1.737   1.092  15.843  0.2788 -0.3596 -1.3884
  796MPD2    H311788   1.565   1.242  15.744 -0.6278  1.2012 -0.4151
  796MPD2     N11789   1.799   1.620  15.866 -0.5242  0.0821 -0.4693
  796MPD2    H511790   1.874   1.644  15.930  0.3810 -2.9010 -0.3700
  796MPD2    N111791   1.947   1.169  15.973  0.4606 -0.0648  0.2478
  796MPD2    H711792   1.923   1.074  15.943  1.2270  0.9694 -3.6880
  797MPD2     C11793   3.429   1.570  17.219  0.2592  0.0821  0.1914
  797MPD2    C111794   3.329   1.534  17.310  0.3113  0.1690 -0.0381
  797MPD2    C211795   3.248   1.419  17.285  0.3455  0.0631 -0.1146
  797MPD2    C311796   3.260   1.357  17.155  0.2371 -0.3448 -0.0045
  797MPD2    C411797   3.356   1.395  17.063  0.4156 -0.6529  0.0785
  797MPD2    C511798   3.443   1.499  17.101 -0.2762  0.0896  0.7101
  797MPD2     H11799   3.173   1.392  17.358 -1.8957 -0.3202 -2.5593
  797MPD2    H111800   3.384   1.347  16.970 -0.2334  0.6494 -0.7959
  797MPD2    H211801   3.496   1.654  17.232 -1.0104  1.3302 -1.1903
  797MPD2    H311802   3.529   1.513  17.037  1.4877 -0.5056  2.9856
  797MPD2     N11803   3.175   1.245  17.124  0.7660  0.1838 -0.4596
  797MPD2    H511804   3.200   1.194  17.039 -1.6710  1.6910 -2.0814
  797MPD2    N111805   3.290   1.622  17.411  0.4246 -0.0519  0.0626
  797MPD2    H711806   3.217   1.582  17.469  0.8308 -0.7938  0.0703
  798MPD2     C11807   2.559   1.421  17.425  0.9071  0.9642  0.2562
  798MPD2    C111808   2.689   1.389  17.386  0.7302 -0.2441 -0.1696
  798MPD2    C211809   2.787   1.470  17.436 -0.4877 -0.4279  0.8980
  798MPD2    C311810   2.761   1.581  17.514  0.3017  0.6650  0.1084
  798MPD2    C411811   2.629   1.609  17.549 -0.4292  0.4757 -0.0591
  798MPD2    C511812   2.532   1.529  17.496  0.2756  0.3840  0.3449
  798MPD2     H11813   2.893   1.453  17.416 -0.3725  0.4505  0.7436
  798MPD2    H111814   2.596   1.697  17.603 -0.8306  0.5311 -0.3939
  798MPD2    H211815   2.470   1.366  17.397  1.6994 -0.5058  0.5970
  798MPD2    H311816   2.427   1.550  17.517  0.2063 -0.2552  0.6478
  798MPD2     N11817   2.879   1.650  17.560 -0.3626  0.2383  0.8521
  798MPD2    H511818   2.969   1.606  17.539 -0.2963  2.2064 -2.9053
  798MPD2    N111819   2.723   1.283  17.303  0.5646  0.2605  0.6667
  798MPD2    H711820   2.823   1.269  17.298  0.7093  0.3150  3.7430
  799MPD2     C11821   1.610   2.549  14.379  0.2889 -0.8017  0.2437
  799MPD2    C111822   1.548   2.462  14.294  0.3704 -0.2926 -0.0866
  799MPD2    C211823   1.510   2.512  14.169  0.0016 -0.0732 -0.3524
  799MPD2    C311824   1.548   2.637  14.127  0.4881 -0.7536  0.3666
  799MPD2    C411825   1.620   2.713  14.213 -0.3044  0.1323  0.0112
  799MPD2    C511826   1.653   2.668  14.339  0.1718 -0.2021  0.4413
  799MPD2     H11827   1.443   2.449  14.111  0.1309 -0.4710 -0.0672
  799MPD2    H111828   1.663   2.803  14.171 -1.6898  0.7379 -0.1341
  799MPD2    H211829   1.629   2.531  14.485 -1.2084 -2.1480  0.2708
  799MPD2    H311830   1.704   2.735  14.408 -1.1491  1.2725 -0.0169
  799MPD2     N11831   1.540   2.673  13.987 -0.4483 -0.6342 -0.2142
  799MPD2    H511832   1.596   2.751  13.953 -1.6288  0.7002  0.8711
  799MPD2    N111833   1.515   2.330  14.324 -0.1199  0.7171  0.0192
  799MPD2    H711834   1.445   2.292  14.260  0.4937 -1.4947  0.6540
  800MPD2     C11835   2.091   3.532  13.928 -0.2565  0.1296  0.5245
  800MPD2    C111836   2.210   3.479  13.898 -0.3980 -0.1634  0.4837
  800MPD2    C211837   2.224   3.396  13.782  0.0248 -0.1387  0.2912
  800MPD2    C311838   2.120   3.376  13.695 -0.5914  0.3077 -0.0224
  800MPD2    C411839   2.000   3.435  13.729  1.2424  0.3339 -0.6190
  800MPD2    C511840   1.983   3.512  13.846 -0.5852 -0.1811  0.7829
  800MPD2     H11841   2.323   3.364  13.753  0.5449  1.3933  0.3782
  800MPD2    H111842   1.907   3.413  13.677  1.5802 -0.1926 -0.9927
  800MPD2    H211843   2.078   3.598  14.013 -1.2065  0.0283  0.4571
  800MPD2    H311844   1.895   3.574  13.845 -0.8771 -0.6168 -0.8862
  800MPD2     N11845   2.145   3.301  13.578 -0.4541  0.2875 -0.5174
  800MPD2    H511846   2.241   3.284  13.550  0.2034 -1.2226  2.6238
  800MPD2    N111847   2.312   3.517  13.983  0.0745  0.4326 -0.5874
  800MPD2    H711848   2.289   3.577  14.062 -0.3500 -0.9771  0.3461
  801MPD2     C11849   2.477   4.180  14.258 -0.0786  0.5411  0.0397
  801MPD2    C111850   2.398   4.072  14.247  0.0185  0.0622  0.0872
  801MPD2    C211851   2.261   4.089  14.266 -0.1311  0.8380 -0.1861
  801MPD2    C311852   2.202   4.222  14.275 -0.5700 -0.0110  1.4891
  801MPD2    C411853   2.292   4.325  14.285  0.3051  0.0397 -0.7596
  801MPD2    C511854   2.427   4.307  14.281 -0.3194  0.6099  0.1241
  801MPD2     H11855   2.206   3.996  14.257  1.3628 -0.0725  0.0916
  801MPD2    H111856   2.266   4.429  14.295 -1.4763 -0.5754  1.0834
  801MPD2    H211857   2.585   4.173  14.264 -0.2256 -2.7856 -1.0581
  801MPD2    H311858   2.498   4.388  14.290 -2.4774  2.5297  0.0385
  801MPD2     N11859   2.065   4.237  14.301  0.1006  0.0517 -0.2074
  801MPD2    H511860   2.026   4.326  14.329 -0.7503  0.0084 -1.2447
  801MPD2    N111861   2.450   3.937  14.231  0.2489  0.2574 -0.3804
  801MPD2    H711862   2.382   3.862  14.233 -0.0531  0.5179 -0.8161
  802MPD2     C11863   1.855   1.282   0.083 -0.7010 -0.1260  0.2300
  802MPD2    C111864   1.795   1.202  17.748 -0.3288 -0.2556 -0.0239
  802MPD2    C211865   1.874   1.101  17.692 -0.3897  0.2685 -0.3416
  802MPD2    C311866   1.999   1.076  17.734  0.3931  0.4375  0.6072
  802MPD2    C411867   2.057   1.156   0.072 -0.3982 -0.0868 -0.1475
  802MPD2    C511868   1.982   1.259   0.126  0.2967 -0.0213 -0.3483
  802MPD2     H11869   1.838   1.043  17.608  0.4920 -0.2878 -0.3461
  802MPD2    H111870   2.159   1.145   0.107 -0.2831 -2.0746 -1.1338
  802MPD2    H211871   1.793   1.349   0.141 -1.0949 -1.2489  1.1141
  802MPD2    H311872   2.025   1.325   0.200  0.4619 -1.8593  1.2070
  802MPD2     N11873   2.067   0.961  17.681  0.3218 -0.4333 -0.0028
  802MPD2    H511874   2.017   0.905  17.613  0.0338  1.9282 -1.7344
  802MPD2    N111875   1.662   1.201  17.705  0.5330  0.0777  0.0262
  802MPD2    H711876   1.635   1.124  17.645  1.7406  0.9087 -1.5767
  803MPD2     C11877   2.824   3.276  11.878  0.1379 -0.1336  0.2510
  803MPD2    C111878   2.895   3.270  11.997  0.5462 -0.1603 -0.4398
  803MPD2    C211879   2.848   3.194  12.097  0.0528  0.1445  0.2921
  803MPD2    C311880   2.727   3.127  12.088  0.5525  0.0906 -0.1436
  803MPD2    C411881   2.654   3.131  11.971 -0.5885  0.0734  0.0038
  803MPD2    C511882   2.708   3.199  11.869  0.2016 -0.1249 -0.2962
  803MPD2     H11883   2.906   3.168  12.185 -1.9253 -2.3964  0.8358
  803MPD2    H111884   2.554   3.091  11.965 -0.9865  1.1427 -0.5914
  803MPD2    H211885   2.854   3.325  11.787 -3.0017 -1.6502 -1.5875
  803MPD2    H311886   2.669   3.195  11.768 -0.5493  0.7492 -0.0511
  803MPD2     N11887   2.670   3.067  12.202  0.3562  0.3385 -0.4009
  803MPD2    H511888   2.592   3.004  12.188  0.3847  0.3044 -0.4054
  803MPD2    N111889   3.025   3.334  12.011  0.2282 -0.1314  0.3366
  803MPD2    H711890   3.071   3.319  12.100  1.6928  0.9319 -0.2495
  804MPD2     C11891   2.861   0.145  16.666 -0.1968 -0.0839  0.6619
  804MPD2    C111892   2.775   0.132  16.767  0.2363 -0.0112 -0.1197
  804MPD2    C211893   2.806   0.191  16.886  0.1881 -0.3224  0.2068
  804MPD2    C311894   2.929   0.257  16.910  0.8743  0.1991  0.2241
  804MPD2    C411895   3.011   0.276  16.800 -0.1417 -0.6836  0.4878
  804MPD2    C511896   2.971   0.224  16.675 -0.2725 -0.0299  0.0470
  804MPD2     H11897   2.744   0.173  16.973  0.4658 -1.9205  0.0858
  804MPD2    H111898   3.097   0.341  16.808 -1.2691  0.8778  0.0474
  804MPD2    H211899   2.836   0.096  16.572  1.4972 -0.2828  0.3101
  804MPD2    H311900   3.029   0.248  16.586  0.9597  1.4754  1.2409
  804MPD2     N11901   2.970   0.323  17.024 -0.0176 -0.0998  0.5263
  804MPD2    H511902   3.063   0.364  17.028  0.2769 -0.5926 -1.3825
  804MPD2    N111903   2.663   0.042  16.771  0.1986  1.2546  0.3588
  804MPD2    H711904   2.615   0.036  16.860  0.1390 -1.4068  0.1511
  805MPD2     C11905   1.656   2.260  15.477 -0.0821  0.4537  0.6043
  805MPD2    C111906   1.666   2.400  15.465  0.3621 -0.1527 -0.0756
  805MPD2    C211907   1.779   2.466  15.522 -0.2161 -0.1585 -0.6744
  805MPD2    C311908   1.865   2.393  15.604  0.0873 -0.4894  0.4309
  805MPD2    C411909   1.852   2.257  15.618 -0.2489  0.3145  0.2880
  805MPD2    C511910   1.760   2.188  15.542 -0.3496  0.0427  0.2987
  805MPD2     H11911   1.787   2.574  15.515  2.2150 -0.2472  0.5440
  805MPD2    H111912   1.933   2.199  15.660  0.2731  0.2844 -0.7782
  805MPD2    H211913   1.578   2.210  15.420 -0.6008  0.4487  1.3178
  805MPD2    H311914   1.768   2.080  15.539 -0.7461 -0.0439  2.5927
  805MPD2     N11915   1.955   2.470  15.674 -0.4996 -0.0477 -0.8664
  805MPD2    H511916   1.977   2.564  15.643  3.1839  0.1523  2.3605
  805MPD2    N111917   1.574   2.473  15.383  0.2064 -0.3001  0.3358
  805MPD2    H711918   1.496   2.421  15.344  0.1952  0.9224 -1.2541
  806MPD2     C11919   2.833   3.458   1.151 -0.5512  0.2076  1.0567
  806MPD2    C111920   2.965   3.478   1.124 -0.8076  0.7914 -0.6851
  806MPD2    C211921   3.019   3.431   1.004 -0.1644 -0.8105 -1.5330
  806MPD2    C311922   2.953   3.341   0.916 -0.1611  0.0042  0.0747
  806MPD2    C411923   2.822   3.315   0.956 -0.7603  0.3424 -0.2301
  806MPD2    C511924   2.767   3.391   1.061  0.2026  0.4097 -0.4801
  806MPD2     H11925   3.126   3.442   0.989  0.1842  0.9725  2.3956
  806MPD2    H111926   2.756   3.244   0.908  0.7262 -2.0471  1.2351
  806MPD2    H211927   2.788   3.509   1.235  0.2975 -1.2537  2.4137
  806MPD2    H311928   2.663   3.369   1.080 -0.0155  0.5244 -1.5773
  806MPD2     N11929   3.024   3.272   0.808  1.0276 -0.6513 -0.0237
  806MPD2    H511930   3.121   3.296   0.793  0.8656 -0.6175 -1.0056
  806MPD2    N111931   3.041   3.537   1.229  0.4980 -0.4734 -0.1228
  806MPD2    H711932   2.993   3.546   1.318 -1.2085 -2.2266 -0.8472
  807MPD2     C11933   2.927   3.383   1.838  0.0188  0.2816  0.3897
  807MPD2    C111934   2.945   3.337   1.710 -0.2355  0.3772  0.5346
  807MPD2    C211935   2.837   3.280   1.648  0.1533 -0.5728  0.1801
  807MPD2    C311936   2.711   3.261   1.712  0.0729  0.3384  0.1470
  807MPD2    C411937   2.694   3.310   1.837  0.0616 -0.4217 -0.5262
  807MPD2    C511938   2.806   3.372   1.897 -0.9631  0.3214  0.0749
  807MPD2     H11939   2.850   3.257   1.543  0.1113 -0.1125  0.0767
  807MPD2    H111940   2.600   3.310   1.890  0.4826  2.3033  0.2149
  807MPD2    H211941   2.999   3.441   1.895 -0.1563 -1.4660  2.3908
  807MPD2    H311942   2.795   3.413   1.997  1.2035  0.0052  0.4389
  807MPD2     N11943   2.611   3.193   1.633  0.2309  0.1761 -0.1044
  807MPD2    H511944   2.646   3.154   1.546 -0.7104 -1.1397  0.1093
  807MPD2    N111945   3.057   3.370   1.624  0.6848  0.2660 -0.0778
  807MPD2    H711946   3.055   3.363   1.523 -0.0121  2.2284 -0.1987
  808MPD2     C11947   2.617   3.911  10.294 -0.1216  0.2262  0.0271
  808MPD2    C111948   2.511   3.992  10.337 -0.1208  0.8344  0.1320
  808MPD2    C211949   2.535   4.132  10.351  0.1817 -0.5893  0.0148
  808MPD2    C311950   2.662   4.186  10.331  0.0188  0.3313  0.2593
  808MPD2    C411951   2.760   4.102  10.294  0.5220 -0.1242  0.1378
  808MPD2    C511952   2.742   3.970  10.281 -0.1271  0.0389  0.2365
  808MPD2     H11953   2.451   4.192  10.384  1.2155  0.0000  1.5507
  808MPD2    H111954   2.865   4.131  10.293  0.1774  1.1863  2.4680
  808MPD2    H211955   2.621   3.802  10.291 -2.6084  0.1482 -0.2623
  808MPD2    H311956   2.832   3.910  10.279  0.1241  0.4871 -1.6580
  808MPD2     N11957   2.687   4.322  10.353  0.8993  0.0086  0.0542
  808MPD2    H511958   2.784   4.351  10.348  1.4488 -2.0619 -1.1270
  808MPD2    N111959   2.387   3.935  10.361 -0.0012 -0.3191  0.4149
  808MPD2    H711960   2.320   3.997  10.405  0.0131  0.6030 -0.8361
  809MPD2     C11961   2.819   0.262   9.661 -0.2532 -0.6536 -0.3968
  809MPD2    C111962   2.867   0.134   9.701  0.3115 -0.0392  0.7283
  809MPD2    C211963   2.858   0.095   9.827  0.4492 -0.9248  0.0690
  809MPD2    C311964   2.777   0.164   9.916 -0.0470  0.1537  0.6586
  809MPD2    C411965   2.719   0.285   9.879 -0.8649 -0.0418  0.4561
  809MPD2    C511966   2.747   0.339   9.754  0.4388  0.6604 -0.0215
  809MPD2     H11967   2.901   4.739   9.850  0.2509 -0.9899  0.1773
  809MPD2    H111968   2.651   0.334   9.948 -2.1949 -1.3769  0.0949
  809MPD2    H211969   2.846   0.307   9.567  0.4478  2.0271  1.0700
  809MPD2    H311970   2.700   0.436   9.742  1.6831  1.1529 -0.9009
  809MPD2     N11971   2.747   0.120  10.047 -0.3161  0.5621 -0.4924
  809MPD2    H511972   2.678   0.179  10.093 -0.0896  0.0734  0.4804
  809MPD2    N111973   2.941   0.055   9.607 -0.5745 -0.0883  0.1692
  809MPD2    H711974   2.976   4.711   9.651  1.6642  0.3606 -0.7272
  810MPD2     C11975   1.449   2.965  10.909  0.7437  0.3592 -0.3119
  810MPD2    C111976   1.446   3.009  10.779 -0.1849  0.1915  0.0054
  810MPD2    C211977   1.490   3.142  10.756  0.1014 -0.3730  0.0701
  810MPD2    C311978   1.538   3.215  10.863 -0.3337 -0.4094  0.2447
  810MPD2    C411979   1.540   3.163  10.987  0.4719 -0.2153 -0.1022
  810MPD2    C511980   1.487   3.037  11.012 -0.1846  0.2703  0.1973
  810MPD2     H11981   1.482   3.182  10.655 -0.9009  0.8060  0.6143
  810MPD2    H111982   1.582   3.213  11.073 -0.9652 -1.1579  1.1348
  810MPD2    H211983   1.397   2.873  10.935 -1.5460  1.6459 -0.3413
  810MPD2    H311984   1.482   2.985  11.107 -2.1907 -0.6445 -0.3995
  810MPD2     N11985   1.586   3.350  10.845 -0.5400 -0.2189  0.2876
  810MPD2    H511986   1.643   3.386  10.921  2.6417 -0.0138 -2.2319
  810MPD2    N111987   1.401   2.929  10.678  0.2814 -0.3813  0.1332
  810MPD2    H711988   1.326   2.863  10.696 -2.0054  1.7012 -1.7634
  811MPD2     C11989   1.026   3.273   9.922 -0.5618  0.7149  0.1474
  811MPD2    C111990   1.135   3.280  10.008  0.3898  0.0520  0.4617
  811MPD2    C211991   1.179   3.404  10.040 -0.1104 -0.6520  0.2328
  811MPD2    C311992   1.134   3.519   9.979 -0.3530  0.2478  0.6011
  811MPD2    C411993   1.031   3.510   9.884  0.3186  0.6138 -0.0350
  811MPD2    C511994   0.980   3.386   9.861  0.0688 -0.0477 -0.0420
  811MPD2     H11995   1.253   3.422  10.117  0.3297  0.6292 -0.4986
  811MPD2    H111996   0.983   3.591   9.831 -2.9490 -0.0705  1.8667
  811MPD2    H211997   0.991   3.175   9.891  0.9969 -0.1368  1.0837
  811MPD2    H311998   0.895   3.368   9.796  0.0159 -0.7050  0.2099
  811MPD2     N11999   1.189   3.643  10.018  0.5681  0.2651 -0.1886
  811MPD2    H512000   1.275   3.631  10.071 -0.5607  1.4194  1.9358
  811MPD2    N112001   1.167   3.163  10.079 -0.1154  0.0748  0.3765
  811MPD2    H712002   1.117   3.077  10.058  0.1819  0.5115 -2.1152
  812MPD2     C12003   0.349   2.576  12.014 -0.9624 -0.3549  0.2522
  812MPD2    C112004   0.370   2.702  12.059  0.9712 -0.0532  0.5383
  812MPD2    C212005   0.470   2.729  12.153 -0.4397 -0.3865 -0.0127
  812MPD2    C312006   0.555   2.632  12.191 -0.0807 -0.1707 -0.1803
  812MPD2    C412007   0.536   2.503  12.141 -0.6984 -0.0866  0.1060
  812MPD2    C512008   0.430   2.476  12.053  0.3935 -0.3158 -0.6497
  812MPD2     H12009   0.495   2.821  12.204  0.0714  0.1814 -1.2828
  812MPD2    H112010   0.596   2.420  12.175  2.4194  1.6701 -1.0913
  812MPD2    H212011   0.261   2.546  11.957 -0.7713 -0.4816  0.0219
  812MPD2    H312012   0.425   2.373  12.018 -1.6173 -0.4572  0.0831
  812MPD2     N12013   0.638   2.659  12.305  0.6406  0.4013 -0.0146
  812MPD2    H512014   0.633   2.753  12.342  1.5935  0.5791 -0.3411
  812MPD2    N112015   0.275   2.807  12.027 -0.0226  0.1839 -0.3847
  812MPD2    H712016   0.192   2.775  11.978  0.1740 -1.0748  0.0934
  813MPD2     C12017   4.555   4.631  12.655 -0.2950 -0.7879  0.0609
  813MPD2    C112018   4.601   0.020  12.693 -0.7003 -0.6706  0.0640
  813MPD2    C212019   4.554   0.083  12.811 -0.0903  0.4119 -0.3880
  813MPD2    C312020   4.450   0.028  12.884 -0.1565 -0.6464 -0.5217
  813MPD2    C412021   4.396   4.647  12.837  0.2771  0.0107 -0.1574
  813MPD2    C512022   4.447   4.585  12.725 -0.2314  0.1803  0.0384
  813MPD2     H12023   4.606   0.172  12.846  0.0710 -0.3974  1.4459
  813MPD2    H112024   4.308   4.602  12.882  0.2050  1.4749  1.1480
  813MPD2    H212025   4.590   4.576  12.569 -0.5895 -0.3435 -0.3357
  813MPD2    H312026   4.397   4.495  12.691 -1.9209  0.1778  2.5343
  813MPD2     N12027   4.395   0.102  12.998 -0.3075 -0.0300  0.1175
  813MPD2    H512028   4.448   0.183  13.027  1.2201 -0.9809  0.0227
  813MPD2    N112029   4.720   0.064  12.625  0.2976  0.5677 -0.2133
  813MPD2    H712030   0.022   4.738  12.562  1.8426 -1.0565  2.5217
  814MPD2     C12031   0.214   1.141  11.829 -0.1159  0.2906  0.6987
  814MPD2    C112032   0.242   1.275  11.798 -0.3338  0.3763 -0.9153
  814MPD2    C212033   0.310   1.350  11.887 -0.1790 -0.1944  0.0090
  814MPD2    C312034   0.360   1.303  12.007  0.5508  0.4693 -0.2956
  814MPD2    C412035   0.320   1.175  12.046 -0.2032  0.8624  0.7485
  814MPD2    C512036   0.251   1.095  11.958 -0.8297 -0.4155 -0.2081
  814MPD2     H12037   0.330   1.452  11.856 -1.0722 -0.6745 -2.1202
  814MPD2    H112038   0.350   1.120  12.134 -0.9429 -0.9719 -0.1328
  814MPD2    H212039   0.174   1.077  11.751  0.7522 -0.4910  0.9027
  814MPD2    H312040   0.238   0.992  11.988  2.5253 -0.2280  1.8285
  814MPD2     N12041   0.444   1.377  12.103  0.2206  0.3983 -0.2007
  814MPD2    H512042   0.475   1.323  12.184  1.1216 -0.6259 -1.2386
  814MPD2    N112043   0.214   1.327  11.670 -0.3830 -0.2793  0.4271
  814MPD2    H712044   0.250   1.420  11.653 -0.9890 -0.0693  0.3050
  815MPD2     C12045   0.671   4.659  11.694  0.0380 -0.1120  0.6534
  815MPD2    C112046   0.692   4.535  11.652 -0.3627  0.6064 -0.8554
  815MPD2    C212047   0.627   4.436  11.720 -0.0022  0.7016 -0.0894
  815MPD2    C312048   0.538   4.455  11.820 -0.1972  0.5510 -0.4980
  815MPD2    C412049   0.518   4.586  11.863 -0.0427 -0.4662 -0.1225
  815MPD2    C512050   0.599   4.682  11.805  0.0366  0.3264 -0.7943
  815MPD2     H12051   0.638   4.334  11.685 -0.4951  0.7501 -0.3762
  815MPD2    H112052   0.451   4.610  11.944  1.5812  3.3568  0.0849
  815MPD2    H212053   0.727   4.738  11.645  0.1367 -0.0500  0.8691
  815MPD2    H312054   0.580   0.038  11.851  1.7016  0.5321 -0.5276
  815MPD2     N12055   0.450   4.349  11.848  0.3525  0.0234  0.0094
  815MPD2    H512056   0.471   4.260  11.802  0.2491  1.1809 -2.3018
  815MPD2    N112057   0.767   4.512  11.538  0.1057 -0.1599  0.3806
  815MPD2    H712058   0.798   4.592  11.483  0.6861  0.3794  1.4858
  816MPD2     C12059   1.278   4.219  17.264 -0.7200 -0.7793  0.3087
  816MPD2    C112060   1.162   4.205  17.199 -0.6528 -0.8626  0.9025
  816MPD2    C212061   1.153   4.090  17.124 -0.0444 -0.6282  0.5474
  816MPD2    C312062   1.249   3.996  17.123 -0.5352  0.3562 -0.4204
  816MPD2    C412063   1.356   4.007  17.207  0.6786  0.2520 -0.7618
  816MPD2    C512064   1.376   4.124  17.270  0.7076  0.7582 -0.4399
  816MPD2     H12065   1.065   4.076  17.061  0.1983  0.2929  0.0154
  816MPD2    H112066   1.435   3.934  17.214  1.6002  1.3316  0.0072
  816MPD2    H212067   1.301   4.307  17.322 -0.2732 -0.7411  0.0664
  816MPD2    H312068   1.465   4.144  17.329  1.0479 -0.8198 -0.4174
  816MPD2     N12069   1.230   3.890  17.028 -0.1469  0.3272 -0.5190
  816MPD2    H512070   1.143   3.890  16.976  0.3333  0.8851 -1.3229
  816MPD2    N112071   1.063   4.311  17.205  0.7114  0.1519  0.2013
  816MPD2    H712072   1.089   4.393  17.259 -1.8390  1.5609 -0.7374
  817MPD2     C12073   4.628   1.054   9.906 -0.5188 -0.0162  0.4203
  817MPD2    C112074   4.666   0.990   9.783  0.1182 -0.4262  0.1618
  817MPD2    C212075   4.586   1.008   9.671 -0.2223 -0.6672  0.6455
  817MPD2    C312076   4.470   1.079   9.670  0.3583  0.6342  0.1631
  817MPD2    C412077   4.445   1.159   9.784  0.2415  0.1449 -0.7116
  817MPD2    C512078   4.523   1.140   9.900 -0.5380  0.3096 -0.2336
  817MPD2     H12079   4.605   0.945   9.585 -1.8110 -1.2974  0.7582
  817MPD2    H112080   4.370   1.237   9.784  1.0529  0.9279  3.6719
  817MPD2    H212081   4.688   1.044   9.995  1.1006  2.4168 -0.4047
  817MPD2    H312082   4.493   1.188   9.993  3.4351  0.4742  0.9661
  817MPD2     N12083   4.378   1.062   9.561  0.4950  0.5067  0.2902
  817MPD2    H512084   4.417   1.015   9.480  2.4733  2.0484  0.3468
  817MPD2    N112085   0.042   0.906   9.780 -1.3170  0.0725 -0.2377
  817MPD2    H712086   0.069   0.870   9.690  2.4504 -0.2935  1.0519
  818MPD2     C12087   3.268   1.218   9.712  0.7498 -0.2805  0.4437
  818MPD2    C112088   3.377   1.158   9.770 -0.7883 -0.2274 -0.1902
  818MPD2    C212089   3.431   1.045   9.711  0.5577 -0.7130 -0.1319
  818MPD2    C312090   3.373   0.984   9.600  0.6221 -0.1904 -0.5706
  818MPD2    C412091   3.262   1.041   9.549 -0.5982 -0.5787  0.4685
  818MPD2    C512092   3.212   1.163   9.600  0.4428 -0.2375  0.5765
  818MPD2     H12093   3.511   0.992   9.761  1.7170  0.1233 -1.0911
  818MPD2    H112094   3.207   1.009   9.462 -2.3591 -1.2543  1.8305
  818MPD2    H212095   3.223   1.313   9.737  1.5480  0.3365 -0.4653
  818MPD2    H312096   3.132   1.217   9.549 -0.4831 -2.5929 -0.5015
  818MPD2     N12097   3.415   0.852   9.569  0.1110  0.0901 -0.5198
  818MPD2    H512098   3.354   0.784   9.525 -1.3944  0.9164  0.2724
  818MPD2    N112099   3.432   1.200   9.895  0.2195 -0.1223 -0.2123
  818MPD2    H712100   3.502   1.137   9.934 -1.0088 -1.7507 -0.6330
  819MPD2     C12101   2.950   2.736  15.702  0.4481  0.5537 -0.3965
  819MPD2    C112102   2.826   2.736  15.756  0.0643  0.7075  0.0082
  819MPD2    C212103   2.808   2.741  15.890  0.2452 -0.2571  0.2658
  819MPD2    C312104   2.928   2.754  15.962 -0.0836  0.0867 -1.1519
  819MPD2    C412105   3.051   2.779  15.907  0.3832  0.7559  0.0172
  819MPD2    C512106   3.067   2.767  15.779 -0.1627 -0.8558  0.0910
  819MPD2     H12107   2.711   2.712  15.929 -0.5539 -0.6905 -2.0540
  819MPD2    H112108   3.138   2.790  15.970 -0.3220  1.4738  0.8714
  819MPD2    H212109   2.979   2.703  15.603 -1.2821 -1.9989 -0.0285
  819MPD2    H312110   3.163   2.777  15.730 -0.7349 -0.2637 -0.9318
  819MPD2     N12111   2.921   2.722  16.095  0.3107  0.0321  0.0166
  819MPD2    H512112   2.830   2.706  16.136  0.7695 -1.3094  0.5407
  819MPD2    N112113   2.730   2.709  15.657  0.1600  0.3522  0.7949
  819MPD2    H712114   2.758   2.695  15.560  0.9446 -0.7259  1.1886
  820MPD2     C12115   1.957   3.007  15.057  0.2317  0.3115  0.5890
  820MPD2    C112116   1.906   2.916  15.146 -0.4999 -0.3888 -0.7953
  820MPD2    C212117   1.984   2.863  15.246 -0.1188  0.5014  0.6593
  820MPD2    C312118   2.112   2.906  15.260 -0.1685 -0.7982  0.3136
  820MPD2    C412119   2.166   3.008  15.177 -0.2919 -0.0506  0.9889
  820MPD2    C512120   2.078   3.057  15.081 -0.4594  0.1487 -0.0552
  820MPD2     H12121   1.945   2.796  15.322  0.9040  0.3068  1.0217
  820MPD2    H112122   2.259   3.061  15.195  0.4721 -0.7603 -0.7968
  820MPD2    H212123   1.904   3.045  14.971 -1.6641  0.0705  1.6467
  820MPD2    H312124   2.108   3.146  15.026 -1.2987 -0.8232 -2.0494
  820MPD2     N12125   2.202   2.855  15.362  0.2241  0.5101 -0.6899
  820MPD2    H512126   2.298   2.887  15.360 -0.1057  1.5300 -0.1256
  820MPD2    N112127   1.781   2.853  15.137  0.3820  0.0429  0.6548
  820MPD2    H712128   1.748   2.811  15.224  2.6138  0.2300  1.6159
  821MPD2     C12129   2.155   3.722  12.952 -0.3254  0.2972 -0.2675
  821MPD2    C112130   2.259   3.631  12.965 -0.4356 -0.3097  0.3010
  821MPD2    C212131   2.384   3.659  12.921 -0.7172 -0.1770 -0.1504
  821MPD2    C312132   2.413   3.783  12.881 -0.7520  0.2339  0.1061
  821MPD2    C412133   2.312   3.879  12.867 -1.2238  0.5852  0.0116
  821MPD2    C512134   2.182   3.844  12.895 -0.3680  0.4314  0.7086
  821MPD2     H12135   2.466   3.588  12.918  0.4034  1.0844  0.1056
  821MPD2    H112136   2.325   3.982  12.836  1.3736 -0.4311 -2.2793
  821MPD2    H212137   2.052   3.697  12.975  0.1653 -0.8916  0.6384
  821MPD2    H312138   2.107   3.914  12.859 -0.4945  0.7919  1.6545
  821MPD2     N12139   2.551   3.814  12.860 -0.6438 -0.1111 -0.3161
  821MPD2    H512140   2.617   3.742  12.888 -2.5688 -1.5588  0.5196
  821MPD2    N112141   2.240   3.504  13.020 -0.0349 -0.4105 -0.0593
  821MPD2    H712142   2.326   3.450  13.030  0.9078  1.2486  0.8057
  822MPD2     C12143   3.076   3.778  15.516  0.2152 -0.4727  0.2773
  822MPD2    C112144   3.091   3.773  15.653 -0.2279 -0.1138  0.4844
  822MPD2    C212145   3.050   3.882  15.720 -0.0658 -0.0922 -0.2031
  822MPD2    C312146   3.010   3.999  15.651 -0.6175  0.1204  0.0360
  822MPD2    C412147   3.007   4.011  15.515 -0.4785 -0.4548  0.2772
  822MPD2    C512148   3.041   3.896  15.444  0.5667  0.1437 -0.0460
  822MPD2     H12149   3.082   3.888  15.823 -0.1975 -1.5716 -0.0900
  822MPD2    H112150   3.001   4.107  15.466 -1.5439  0.0418  1.3594
  822MPD2    H212151   3.096   3.686  15.464 -3.5733 -1.2146  0.1764
  822MPD2    H312152   3.026   3.883  15.337  1.9931  0.0680 -0.2350
  822MPD2     N12153   2.965   4.108  15.731 -0.6567  0.2885 -0.2573
  822MPD2    H512154   2.959   4.090  15.831 -1.2094  1.7973 -0.0182
  822MPD2    N112155   3.127   3.654  15.718  0.1617 -0.4976  0.4212
  822MPD2    H712156   3.127   3.651  15.820 -0.4797  2.5494  0.4919
  823MPD2     C12157   2.854   4.432  16.422  0.4927 -0.3577 -0.1279
  823MPD2    C112158   2.779   4.348  16.340  0.2195 -0.3907  0.1050
  823MPD2    C212159   2.702   4.244  16.396 -0.2695  0.2203 -0.4031
  823MPD2    C312160   2.704   4.217  16.535 -0.0643  0.0035 -0.0288
  823MPD2    C412161   2.764   4.308  16.618  0.6941 -1.5929 -0.8537
  823MPD2    C512162   2.825   4.417  16.557  0.0569 -0.3600  1.1812
  823MPD2     H12163   2.652   4.177  16.328  0.4949  0.0025 -0.7423
  823MPD2    H112164   2.759   4.295  16.725  2.5925  2.6504 -0.2598
  823MPD2    H212165   2.915   4.516  16.392  1.5579 -0.7387  0.9747
  823MPD2    H312166   2.855   4.490  16.631  0.3122  0.9752 -0.2382
  823MPD2     N12167   2.644   4.104  16.599 -0.8451 -0.0795  0.4945
  823MPD2    H512168   2.643   4.093  16.699 -3.3477 -1.7049  0.2936
  823MPD2    N112169   2.789   4.368  16.199  0.2807 -0.1164 -0.8983
  823MPD2    H712170   2.854   4.443  16.174  1.1464 -1.5531 -2.8994
  824MPD2     C12171   3.464   2.839  15.965 -0.6185  0.6406 -0.5321
  824MPD2    C112172   3.503   2.929  15.874 -0.4530 -0.0518  0.2369
  824MPD2    C212173   3.606   2.902  15.793  0.4572 -0.4749  0.3060
  824MPD2    C312174   3.680   2.781  15.794 -0.1755 -0.1082  0.6831
  824MPD2    C412175   3.639   2.698  15.895  0.3036 -0.0456  0.3437
  824MPD2    C512176   3.539   2.731  15.980 -0.9084 -0.3765  0.2673
  824MPD2     H12177   3.642   2.976  15.722 -2.0020  1.0742  0.6603
  824MPD2    H112178   3.689   2.608  15.929  0.5285  0.2463  0.7829
  824MPD2    H212179   3.378   2.851  16.029 -0.6631  0.1893 -0.5100
  824MPD2    H312180   3.511   2.661  16.059 -1.6052 -1.8459 -1.2778
  824MPD2     N12181   3.777   2.755  15.695 -0.4214 -0.2187 -0.5787
  824MPD2    H512182   3.785   2.813  15.612 -0.4444 -2.0912 -1.8929
  824MPD2    N112183   3.435   3.049  15.870 -0.2609  0.8925  0.0044
  824MPD2    H712184   3.361   3.059  15.939  0.5716 -2.5679  1.4349
  825MPD2     C12185   4.528   2.783  15.219  0.1645 -0.0258  0.0108
  825MPD2    C112186   4.416   2.829  15.284  0.7512 -0.1827 -0.0020
  825MPD2    C212187   4.392   2.960  15.275 -0.0775 -0.0876 -0.1502
  825MPD2    C312188   4.478   3.049  15.212 -0.8805 -0.1234 -0.4232
  825MPD2    C412189   4.598   3.008  15.156  0.8780 -0.1085 -0.3106
  825MPD2    C512190   4.612   2.868  15.159 -0.2280 -0.1168 -0.9313
  825MPD2     H12191   4.307   3.008  15.321 -2.2325 -1.8913 -2.2179
  825MPD2    H112192   4.670   3.076  15.114  1.3121 -2.3554 -3.2000
  825MPD2    H212193   4.538   2.679  15.189  2.0843 -0.8445  3.5735
  825MPD2    H312194   4.700   2.819  15.121  1.1308  1.0874  0.6411
  825MPD2     N12195   4.456   3.191  15.204 -0.2643 -0.6072 -0.2254
  825MPD2    H512196   4.536   3.236  15.161 -0.6530  0.1654 -0.1417
  825MPD2    N112197   4.329   2.736  15.360  0.6513 -0.3277 -0.3411
  825MPD2    H712198   4.334   2.635  15.344  2.5752  0.0426 -2.1652
  826MPD2     C12199   3.913   2.596  13.339  0.2458 -0.2058 -0.0942
  826MPD2    C112200   3.970   2.693  13.418  0.0162 -0.5904  1.0810
  826MPD2    C212201   3.894   2.763  13.508 -0.0858  0.0836  0.0009
  826MPD2    C312202   3.760   2.732  13.522  0.2174 -0.1119 -0.1757
  826MPD2    C412203   3.705   2.637  13.447  0.3561 -0.2786  0.5174
  826MPD2    C512204   3.777   2.572  13.352  0.0104 -0.6077 -0.5044
  826MPD2     H12205   3.938   2.830  13.581 -2.3340 -1.2427  2.5771
  826MPD2    H112206   3.598   2.619  13.449  0.1406  1.2789  2.8462
  826MPD2    H212207   3.972   2.536  13.271  2.9996  0.6971  1.5110
  826MPD2    H312208   3.735   2.498  13.285 -0.2885 -0.3069 -0.6541
  826MPD2     N12209   3.675   2.794  13.616  0.4710 -0.0670 -0.7231
  826MPD2    H512210   3.581   2.756  13.622 -0.7420  3.3129  1.5621
  826MPD2    N112211   4.111   2.707  13.417  0.2576 -0.3240  0.8345
  826MPD2    H712212   4.158   2.646  13.351  0.2848  0.8521 -0.2211
  827MPD2     C12213   4.361   4.450   9.966  0.3659  0.4998  0.2481
  827MPD2    C112214   4.292   4.418  10.081 -0.7834 -0.5132 -0.0809
  827MPD2    C212215   4.155   4.455  10.095  0.6220 -0.6246  0.0119
  827MPD2    C312216   4.089   4.531  10.001  0.1267 -0.0857 -0.3104
  827MPD2    C412217   4.159   4.562   9.884 -0.0336  0.1611 -0.9754
  827MPD2    C512218   4.293   4.528   9.870 -0.2896  0.1236  0.5964
  827MPD2     H12219   4.105   4.457  10.191 -1.0357  4.0063 -0.9623
  827MPD2    H112220   4.114   4.618   9.802 -0.1363  2.3804  0.6134
  827MPD2    H212221   4.467   4.432   9.954 -0.0075 -0.2487 -1.8920
  827MPD2    H312222   4.333   4.560   9.774 -1.0624 -1.2573 -0.1786
  827MPD2     N12223   3.954   4.574  10.022  0.3141  0.2132 -0.1565
  827MPD2    H512224   3.906   4.544  10.106  1.2694 -3.0028 -0.7347
  827MPD2    N112225   4.362   4.347  10.187  0.3355 -0.1893 -0.4066
  827MPD2    H712226   4.459   4.323  10.172 -0.5306 -4.3438  0.9345
  828MPD2     C12227   2.552   4.274  12.406  0.7289  0.0883 -1.1795
  828MPD2    C112228   2.591   4.262  12.274  1.0105  0.3073 -0.5134
  828MPD2    C212229   2.730   4.244  12.257  0.3777  0.2207 -0.4899
  828MPD2    C312230   2.817   4.235  12.362 -0.5268 -0.2738  0.4350
  828MPD2    C412231   2.772   4.241  12.491 -0.6232  0.4155  0.3531
  828MPD2    C512232   2.636   4.262  12.509 -0.1125  0.1429  0.3326
  828MPD2     H12233   2.766   4.240  12.155  2.1133 -0.8712  0.1692
  828MPD2    H112234   2.837   4.232  12.578 -0.8207 -0.8141  0.3703
  828MPD2    H212235   2.449   4.297  12.430  1.2258  1.0343  0.0205
  828MPD2    H312236   2.590   4.266  12.607  1.3420 -1.4133  1.0828
  828MPD2     N12237   2.955   4.218  12.343  0.1967  0.4738  0.3232
  828MPD2    H512238   3.014   4.195  12.423  0.5720  0.9681  0.1908
  828MPD2    N112239   2.509   4.286  12.156  0.6866  0.2091  0.6206
  828MPD2    H712240   2.559   4.277  12.068 -1.9840  1.8110 -1.0706
  829MPD2     C12241   2.679   4.470  11.330 -0.2322  0.5851  0.3291
  829MPD2    C112242   2.550   4.421  11.314  0.0869 -0.4106 -0.9787
  829MPD2    C212243   2.474   4.393  11.427 -0.2291 -0.3030 -0.0423
  829MPD2    C312244   2.522   4.403  11.555  0.2292 -0.4086 -0.3730
  829MPD2    C412245   2.650   4.449  11.571  0.2284 -0.9422  0.6881
  829MPD2    C512246   2.724   4.492  11.460  0.1047 -0.0871 -0.2722
  829MPD2     H12247   2.376   4.351  11.406 -0.4689  0.2186  0.0449
  829MPD2    H112248   2.696   4.460  11.669 -0.4953 -0.1203  0.9353
  829MPD2    H212249   2.735   4.506  11.244  0.9834  2.1513  1.7882
  829MPD2    H312250   2.823   4.533  11.478  0.2424 -1.6650  2.5891
  829MPD2     N12251   2.452   4.378  11.673 -0.3021  0.1161  0.0428
  829MPD2    H512252   2.500   4.385  11.762  1.4221  0.7339 -0.9408
  829MPD2    N112253   2.507   4.406  11.185 -0.4175 -0.1428  0.1526
  829MPD2    H712254   2.569   4.440  11.112 -1.0668  1.7811  0.5038
  830MPD2     C12255   2.840   2.075  16.062  0.4398 -0.4806 -0.3978
  830MPD2    C112256   2.910   2.190  16.049  1.2077  0.0067  0.3518
  830MPD2    C212257   2.956   2.230  15.923  0.4434  0.2584  0.5306
  830MPD2    C312258   2.931   2.149  15.817 -0.1730  0.4769 -0.1631
  830MPD2    C412259   2.881   2.022  15.834  0.5392  0.2551  0.2972
  830MPD2    C512260   2.832   1.989  15.955 -0.0886  0.2273  0.1813
  830MPD2     H12261   3.000   2.328  15.905  2.7879 -1.4467 -3.1779
  830MPD2    H112262   2.885   1.953  15.751 -1.4346 -2.0509  2.1207
  830MPD2    H212263   2.787   2.054  16.154 -1.8080  1.4035 -1.2760
  830MPD2    H312264   2.774   1.897  15.964  1.4194 -0.8123 -0.7123
  830MPD2     N12265   2.961   2.194  15.688 -0.9181  0.9341  0.2936
  830MPD2    H512266   2.930   2.135  15.612 -1.0719  2.3976 -0.7771
  830MPD2    N112267   2.928   2.284  16.153  0.3975 -0.1011  0.4282
  830MPD2    H712268   2.970   2.370  16.121 -1.7546  0.1533 -1.7238
  831MPD2     C12269   3.168   4.058  16.397 -0.3663 -0.7830 -0.1920
  831MPD2    C112270   3.162   4.064  16.261 -0.3291 -0.2903  0.1398
  831MPD2    C212271   3.043   4.040  16.199  0.2201 -0.2476 -1.0297
  831MPD2    C312272   2.928   3.994  16.266  0.8139 -0.6748  0.7433
  831MPD2    C412273   2.932   3.998  16.405  0.5953  0.0741  0.1603
  831MPD2    C512274   3.052   4.030  16.472  0.5476 -0.0278 -0.6916
  831MPD2     H12275   3.042   4.046  16.091  1.2140 -0.1825 -1.0311
  831MPD2    H112276   2.849   3.964  16.466  0.8650 -0.0340  0.4697
  831MPD2    H212277   3.263   4.070  16.447 -1.4646 -1.8509  2.1607
  831MPD2    H312278   3.061   4.025  16.580  1.6223  0.4157 -0.7614
  831MPD2     N12279   2.808   3.950  16.198  0.0121  0.3311 -0.1270
  831MPD2    H512280   2.725   3.927  16.252 -1.2030 -1.4711 -2.7465
  831MPD2    N112281   3.288   4.091  16.192  0.4945  0.8691 -0.0797
  831MPD2    H712282   3.374   4.095  16.246  0.4408 -0.1213  0.0768
  832MPD2     C12283   1.693   0.396  16.939 -0.0952  0.6030  0.0810
  832MPD2    C112284   1.640   0.507  16.888  0.2679  0.2952  0.6629
  832MPD2    C212285   1.539   0.494  16.790 -1.3006 -0.9922  0.5765
  832MPD2    C312286   1.494   0.367  16.747 -0.1538  0.0247  0.5479
  832MPD2    C412287   1.559   0.257  16.798 -0.1874  0.5903 -0.4876
  832MPD2    C512288   1.656   0.280  16.891  0.1522 -1.1552  0.2453
  832MPD2     H12289   1.489   0.586  16.762  1.9374 -0.0879 -2.2911
  832MPD2    H112290   1.537   0.152  16.783 -1.6329  0.6145  1.4852
  832MPD2    H212291   1.763   0.392  17.021  1.1723 -0.5888 -1.0647
  832MPD2    H312292   1.719   0.198  16.923 -0.6872 -0.8091  2.7789
  832MPD2     N12293   1.388   0.340  16.651  0.3162  0.0739 -0.1527
  832MPD2    H512294   1.376   0.242  16.627  0.1867  0.9282 -3.5623
  832MPD2    N112295   1.667   0.634  16.941  0.3590 -0.1655  0.0368
  832MPD2    H712296   1.615   0.720  16.923 -0.3343 -0.4704  0.5969
  833MPD2     C12297   3.503   1.827  12.707  0.0265  0.0662  0.1660
  833MPD2    C112298   3.468   1.913  12.608  0.0243  0.2018  0.3179
  833MPD2    C212299   3.563   1.936  12.505  0.3227  0.3461 -0.0861
  833MPD2    C312300   3.664   1.847  12.485  1.0255 -0.0434 -0.1523
  833MPD2    C412301   3.696   1.760  12.588 -0.4090  0.3659  0.2228
  833MPD2    C512302   3.617   1.750  12.699  0.5363  0.2782  0.2442
  833MPD2     H12303   3.541   2.004  12.423 -0.6411  1.3874  1.0485
  833MPD2    H112304   3.787   1.702  12.587 -0.8186 -0.2718 -0.3963
  833MPD2    H212305   3.436   1.803  12.789  1.3174 -2.6409  0.4395
  833MPD2    H312306   3.635   1.678  12.778  0.7109  0.5696  0.4689
  833MPD2     N12307   3.751   1.855  12.371 -0.0697 -0.5268  0.3690
  833MPD2    H512308   3.815   1.778  12.358  0.3790  0.1581 -1.4416
  833MPD2    N112309   3.335   1.974  12.604  0.3651  0.1597  0.3071
  833MPD2    H712310   3.271   1.939  12.674 -0.3010 -2.4472 -1.5860
  834MPD2     C12311   3.709   1.196  11.648 -0.0531  0.3802  0.3017
  834MPD2    C112312   3.636   1.295  11.601 -0.7245  0.0651  0.5722
  834MPD2    C212313   3.628   1.417  11.669 -0.2111 -0.1454  0.2005
  834MPD2    C312314   3.693   1.431  11.794  0.8335  0.3459 -0.0424
  834MPD2    C412315   3.775   1.320  11.834 -0.3387  0.1392  0.4872
  834MPD2    C512316   3.776   1.201  11.767 -0.7207  0.3484 -0.3926
  834MPD2     H12317   3.570   1.498  11.626 -0.1178  0.2128  0.7578
  834MPD2    H112318   3.849   1.321  11.913  1.8727 -0.5826 -1.5802
  834MPD2    H212319   3.712   1.098  11.602 -2.2413  0.9591 -1.0434
  834MPD2    H312320   3.847   1.122  11.790  0.0063  1.1033 -0.0917
  834MPD2     N12321   3.694   1.556  11.862  0.1635  0.1080 -0.6378
  834MPD2    H512322   3.631   1.620  11.815  2.8413  1.1500 -2.7928
  834MPD2    N112323   3.570   1.263  11.480 -0.1087  0.2332 -0.2606
  834MPD2    H712324   3.583   1.167  11.452  0.5703  0.3176 -0.2215
  835MPD2     C12325   3.764   4.161  11.033  0.0574 -0.9895  0.3165
  835MPD2    C112326   3.712   4.247  11.133  0.8221  0.7472  0.0667
  835MPD2    C212327   3.789   4.273  11.235 -0.3644 -0.6655 -0.9632
  835MPD2    C312328   3.915   4.214  11.243  0.6539  0.4425  0.0344
  835MPD2    C412329   3.972   4.125  11.147  0.3544  0.2650 -0.1778
  835MPD2    C512330   3.889   4.101  11.038  0.4575  0.6023 -0.3351
  835MPD2     H12331   3.742   4.343  11.303 -1.2992 -2.0953 -0.1454
  835MPD2    H112332   4.074   4.091  11.156 -0.2210 -0.8907  1.9275
  835MPD2    H212333   3.699   4.146  10.948 -0.3066  1.5208  0.1476
  835MPD2    H312334   3.915   4.041  10.951  0.2788  0.3002 -0.1807
  835MPD2     N12335   3.991   4.244  11.350 -0.6625 -0.4438 -0.6203
  835MPD2    H512336   4.048   4.170  11.389 -0.4802 -0.3515 -0.7112
  835MPD2    N112337   3.583   4.306  11.131 -0.5150  0.4557  0.1348
  835MPD2    H712338   3.570   4.383  11.196  1.1231  1.7720 -1.0834
  836MPD2     C12339   3.460   4.382  11.843 -0.4471  0.2563 -0.3471
  836MPD2    C112340   3.583   4.364  11.908 -0.1779 -0.1807 -0.0885
  836MPD2    C212341   3.589   4.383  12.042  0.4073  0.2024  0.3963
  836MPD2    C312342   3.480   4.439  12.108 -0.1797  0.0228 -0.2635
  836MPD2    C412343   3.362   4.455  12.039 -0.1747  0.5773 -0.6331
  836MPD2    C512344   3.350   4.414  11.907  0.3414  0.4189  0.0801
  836MPD2     H12345   3.684   4.371  12.093  0.5663 -1.1799 -0.2255
  836MPD2    H112346   3.269   4.488  12.084  0.7420 -2.2112  3.3102
  836MPD2    H212347   3.450   4.365  11.736  0.6944 -0.9145 -0.2633
  836MPD2    H312348   3.254   4.434  11.859  0.5620  0.3198 -0.4064
  836MPD2     N12349   3.486   4.480  12.243  0.1811 -0.5370 -0.4754
  836MPD2    H512350   3.406   4.526  12.285  0.6954 -2.4349  2.6070
  836MPD2    N112351   3.695   4.329  11.832 -0.3430 -0.2557  0.0544
  836MPD2    H712352   3.696   4.343  11.731  0.8742  1.3468  0.2877
  837MPD2     C12353   1.751   4.182   9.919  0.3489 -0.3579 -0.9204
  837MPD2    C112354   1.696   4.196  10.042 -0.5078 -0.6245  0.2185
  837MPD2    C212355   1.729   4.303  10.122  0.8927  0.4841  0.4889
  837MPD2    C312356   1.819   4.398  10.084 -0.6253 -0.4367 -0.3081
  837MPD2    C412357   1.883   4.377   9.959 -0.4750 -0.0640 -0.6731
  837MPD2    C512358   1.854   4.260   9.888  0.5235 -0.6305  0.0682
  837MPD2     H12359   1.685   4.307  10.221  1.5297 -3.6222  0.9456
  837MPD2    H112360   1.973   4.433   9.939 -0.4653  0.1206 -0.1066
  837MPD2    H212361   1.735   4.091   9.863 -2.7040 -0.6429  0.4307
  837MPD2    H312362   1.911   4.232   9.800 -0.4997 -1.6758 -0.2553
  837MPD2     N12363   1.830   4.515  10.160 -0.9248 -0.5578  0.5578
  837MPD2    H512364   1.802   4.519  10.257 -1.5727  0.1079  0.3409
  837MPD2    N112365   1.598   4.106  10.087  0.3488 -0.0067 -0.3035
  837MPD2    H712366   1.561   4.114  10.181  0.8733  0.0742 -0.1006
  838MPD2     C12367   4.699   2.337  11.591  0.3774  0.1362 -0.3134
  838MPD2    C112368   0.061   2.249  11.594  0.1492 -0.7550 -0.2816
  838MPD2    C212369   0.104   2.215  11.721  0.2342  0.7517 -0.1251
  838MPD2    C312370   0.052   2.266  11.842  0.0675  0.9394 -0.1265
  838MPD2    C412371   4.689   2.359  11.828  0.4417 -0.3446  0.2865
  838MPD2    C512372   4.645   2.390  11.703  0.5110  0.7371 -0.1881
  838MPD2     H12373   0.183   2.141  11.728 -1.2701 -0.8187  0.4048
  838MPD2    H112374   4.649   2.415  11.911 -2.0646 -2.3297  0.3975
  838MPD2    H212375   4.668   2.380  11.497 -0.5661 -4.1416 -1.9392
  838MPD2    H312376   4.575   2.471  11.685  0.5744  1.1649  1.5073
  838MPD2     N12377   0.095   2.214  11.972 -0.3860  0.2883 -0.6944
  838MPD2    H512378   0.167   2.142  11.981  0.1606  1.1427  1.9980
  838MPD2    N112379   0.137   2.202  11.484  0.4041  0.5215 -0.2235
  838MPD2    H712380   0.206   2.128  11.494 -1.6370 -1.6021 -1.8203
  839MPD2     C12381   4.670   1.867  10.585  0.0737 -0.0844 -0.4333
  839MPD2    C112382   4.676   1.791  10.697 -0.5645  0.1287 -0.7239
  839MPD2    C212383   0.011   1.834  10.803  0.4195 -0.5298 -0.1073
  839MPD2    C312384   0.073   1.955  10.796  0.6133  0.2089 -0.0563
  839MPD2    C412385   0.059   2.040  10.689  0.2322  0.4787 -0.0863
  839MPD2    C512386   4.731   1.987  10.582  0.3415  0.5013  0.0898
  839MPD2     H12387   0.007   1.769  10.890  0.2011  0.5920  0.7238
  839MPD2    H112388   0.096   2.141  10.677 -0.7486  0.5061 -2.9129
  839MPD2    H212389   4.610   1.835  10.500 -0.8733  0.0399  0.1958
  839MPD2    H312390   4.724   2.042  10.489 -1.0203 -0.6740 -0.5100
  839MPD2     N12391   0.145   2.002  10.903  0.5761 -0.2737 -0.3021
  839MPD2    H512392   0.184   2.096  10.893 -1.3535  0.6903  1.2159
  839MPD2    N112393   4.610   1.671  10.717  0.6735  0.3902 -0.1375
  839MPD2    H712394   4.637   1.621  10.801 -1.2577 -0.7094 -0.1627
  840MPD2     C12395   4.736   0.019  10.452  0.6239  0.3889  0.1962
  840MPD2    C112396   0.038   4.646  10.518 -0.0608 -0.2267 -0.2618
  840MPD2    C212397   0.147   4.651  10.601 -0.1443  0.5012  0.2157
  840MPD2    C312398   0.222   0.027  10.608  0.1001 -0.6877 -0.6619
  840MPD2    C412399   0.179   0.138  10.539  0.3690  0.3502  0.3436
  840MPD2    C512400   0.067   0.133  10.460 -0.1453 -0.2299 -0.0360
  840MPD2     H12401   0.178   4.557  10.646 -2.5317 -0.1155  0.5591
  840MPD2    H112402   0.232   0.231  10.554 -0.7903  0.4948  3.4303
  840MPD2    H212403   4.647   0.019  10.390  1.1879 -1.7635 -0.6460
  840MPD2    H312404   0.026   0.219  10.408  0.1170 -2.2031 -3.5346
  840MPD2     N12405   0.328   0.046  10.696  0.1471 -0.3510  0.1712
  840MPD2    H512406   0.352   0.141  10.719 -0.0996 -0.2495  0.0105
  840MPD2    N112407   4.692   4.532  10.504  0.2214 -0.0881 -0.3372
  840MPD2    H712408   4.605   4.533  10.453  1.2110  0.3289 -2.0341
  841MPD2     C12409   4.650   4.504  14.558  0.4768  0.0260 -0.2095
  841MPD2    C112410   4.716   4.400  14.494  0.3190  0.2194 -0.4846
  841MPD2    C212411   0.098   4.363  14.551  0.2094  0.2459 -0.3130
  841MPD2    C312412   0.151   4.421  14.663 -0.3270  0.0322 -0.4005
  841MPD2    C412413   0.082   4.514  14.731  0.3350 -0.1452 -0.4520
  841MPD2    C512414   4.700   4.560  14.671  0.1878  0.2045  0.0494
  841MPD2     H12415   0.159   4.291  14.497 -0.3005 -0.0818 -0.4484
  841MPD2    H112416   0.113   4.563  14.822  0.3142  0.4166 -0.7461
  841MPD2    H212417   4.564   4.555  14.516 -0.1545 -2.0801 -1.4300
  841MPD2    H312418   4.659   4.645  14.725 -1.0891 -0.4938  0.1824
  841MPD2     N12419   0.281   4.381  14.698  0.1745  0.4337 -0.8294
  841MPD2    H512420   0.325   4.309  14.641 -0.4978 -0.8277  0.2419
  841MPD2    N112421   4.678   4.347  14.367 -0.1679 -0.3241  0.5724
  841MPD2    H712422   0.003   4.277  14.335 -1.4701 -1.0369 -0.5444
  842MPD2     C12423   0.811   0.478  16.626  0.1485 -0.5013  0.7551
  842MPD2    C112424   0.692   0.456  16.693  0.5891  0.6229  0.9202
  842MPD2    C212425   0.680   0.470  16.825  0.1634 -0.1775 -0.1070
  842MPD2    C312426   0.781   0.531  16.895  0.2715 -0.3724 -1.1305
  842MPD2    C412427   0.900   0.560  16.832 -0.3627  0.5227  0.8361
  842MPD2    C512428   0.914   0.534  16.698  0.5757 -0.3488 -0.1750
  842MPD2     H12429   0.588   0.447  16.878  1.0402 -0.3788  1.3249
  842MPD2    H112430   0.984   0.605  16.885 -0.4209 -1.3941  2.5457
  842MPD2    H212431   0.814   0.452  16.521  1.6918  0.4764  0.5625
  842MPD2    H312432   1.002   0.576  16.650 -0.8487 -1.9437 -4.2230
  842MPD2     N12433   0.768   0.572  17.027 -0.6391  0.4312  0.1346
  842MPD2    H512434   0.842   0.623  17.074  0.8539 -1.6840  0.1059
  842MPD2    N112435   0.591   0.412  16.607 -0.3312 -0.4220 -0.6428
  842MPD2    H712436   0.610   0.399  16.508 -0.6694  0.1819 -0.7810
  843MPD2     C12437   3.539   2.366   0.496  0.2915 -1.0904  0.1364
  843MPD2    C112438   3.430   2.438   0.542 -0.0781  0.3233  0.2798
  843MPD2    C212439   3.440   2.511   0.661 -0.0431 -0.0089  0.3684
  843MPD2    C312440   3.557   2.521   0.719 -0.2829 -0.0258  0.1464
  843MPD2    C412441   3.663   2.439   0.686  0.7539 -0.3620 -0.6218
  843MPD2    C512442   3.656   2.366   0.571  0.5699  1.1734  0.3900
  843MPD2     H12443   3.361   2.583   0.679 -0.9504 -1.3718  1.7354
  843MPD2    H112444   3.750   2.442   0.751  0.0425 -1.6261  0.3972
  843MPD2    H212445   3.539   2.302   0.409 -1.8363  1.4518 -1.7465
  843MPD2    H312446   3.744   2.311   0.539  0.2924  1.1021 -0.2576
  843MPD2     N12447   3.578   2.614   0.830  0.3101  0.4534  0.2832
  843MPD2    H512448   3.674   2.624   0.862  0.4562  0.4162 -0.1514
  843MPD2    N112449   3.319   2.435   0.455  0.2624 -0.3555 -0.7473
  843MPD2    H712450   3.339   2.379   0.373 -0.3547  0.0544 -1.1824
  844MPD2     C12451   1.669   4.506  16.498  0.6586 -0.2927  0.3163
  844MPD2    C112452   1.629   4.589  16.399  0.0775  0.8151 -0.9618
  844MPD2    C212453   1.670   4.722  16.396  0.3142  0.5776  0.4189
  844MPD2    C312454   1.746   0.030  16.507 -0.1683 -0.5662 -0.9778
  844MPD2    C412455   1.772   4.693  16.620  0.0732  0.1067  0.3933
  844MPD2    C512456   1.732   4.561  16.609  0.8445  0.0232 -0.3955
  844MPD2     H12457   1.642   0.049  16.316 -2.7953 -1.2798 -0.0702
  844MPD2    H112458   1.816   4.719  16.715 -2.5952  0.8997  1.3899
  844MPD2    H212459   1.640   4.402  16.507 -1.2009  0.4795  3.4646
  844MPD2    H312460   1.755   4.489  16.686  0.4860 -1.0906 -1.3288
  844MPD2     N12461   1.776   0.173  16.516  0.4936  0.0917 -0.2978
  844MPD2    H512462   1.750   0.232  16.437 -1.0227  3.7910  2.9492
  844MPD2    N112463   1.540   4.547  16.290  0.6023  0.1345  0.9462
  844MPD2    H712464   1.508   4.615  16.222 -0.6610 -1.5738 -0.1592
  845MPD2     C12465   1.383   1.055  16.362 -0.7132 -0.3544  0.3645
  845MPD2    C112466   1.471   1.094  16.463 -0.3155 -0.1299 -0.4929
  845MPD2    C212467   1.553   0.997  16.512 -0.9124  0.1890 -0.4211
  845MPD2    C312468   1.549   0.868  16.454  0.7241  0.0758 -0.3830
  845MPD2    C412469   1.455   0.833  16.362 -0.5279  0.2600  0.4206
  845MPD2    C512470   1.382   0.930  16.308 -0.2149  0.0926  0.4583
  845MPD2     H12471   1.634   1.019  16.580 -1.6034  1.3123  0.0552
  845MPD2    H112472   1.442   0.731  16.328 -1.3050  0.1793  0.9579
  845MPD2    H212473   1.316   1.120  16.307 -0.8826 -0.5463  0.3426
  845MPD2    H312474   1.311   0.903  16.231 -0.6365 -0.4128  1.0268
  845MPD2     N12475   1.646   0.783  16.504 -0.1694 -0.7656  1.0084
  845MPD2    H512476   1.714   0.816  16.572 -0.2536  1.5144  0.0242
  845MPD2    N112477   1.481   1.226  16.499 -0.1890  0.1395  0.0365
  845MPD2    H712478   1.447   1.303  16.441 -1.2385  1.0927  1.9381
  846MPD2     C12479   2.362   1.029  13.336  0.2825  0.0631  0.2109
  846MPD2    C112480   2.429   1.113  13.426  0.5135  0.3766 -0.4239
  846MPD2    C212481   2.395   1.106  13.555 -0.4371  0.4331 -0.4849
  846MPD2    C312482   2.294   1.022  13.606  0.3362  0.3167 -0.4321
  846MPD2    C412483   2.222   0.949  13.516  0.5020 -0.4349  0.0225
  846MPD2    C512484   2.264   0.945  13.384 -0.8600  0.0446 -0.1669
  846MPD2     H12485   2.440   1.178  13.622  0.4287 -1.0165  0.5014
  846MPD2    H112486   2.153   0.871  13.545  0.6244 -0.4993  0.1358
  846MPD2    H212487   2.392   1.022  13.232  0.4518 -0.3693  0.2918
  846MPD2    H312488   2.222   0.873  13.314  2.3999 -0.5051 -1.5439
  846MPD2     N12489   2.264   1.022  13.741  0.1255 -0.8422  0.5016
  846MPD2    H512490   2.335   1.070  13.795  2.4181 -3.2952 -0.3372
  846MPD2    N112491   2.534   1.200  13.381 -0.3783  0.2414  0.5829
  846MPD2    H712492   2.589   1.256  13.446 -0.1634 -1.0182  1.4796
  847MPD2     C12493   2.975   2.137  14.488 -0.1007  1.0069 -0.5261
  847MPD2    C112494   2.998   2.264  14.535 -0.0371 -0.0370  0.1693
  847MPD2    C212495   3.130   2.292  14.573  0.3428 -0.2791  0.4285
  847MPD2    C312496   3.226   2.189  14.576 -0.0146  0.7096 -0.4645
  847MPD2    C412497   3.201   2.063  14.533 -0.7952  0.2130 -0.1758
  847MPD2    C512498   3.073   2.039  14.486 -0.3674 -0.2365 -0.1862
  847MPD2     H12499   3.153   2.388  14.616 -0.6767 -1.0657  2.7479
  847MPD2    H112500   3.262   1.976  14.552 -0.5830  0.1057 -1.3486
  847MPD2    H212501   2.874   2.110  14.461  1.1391 -2.3198 -1.8262
  847MPD2    H312502   3.042   1.939  14.460  1.5019 -1.3541  1.8935
  847MPD2     N12503   3.358   2.207  14.622 -0.2618  0.2236 -0.4392
  847MPD2    H512504   3.419   2.129  14.644 -0.3092 -0.3022 -2.1881
  847MPD2    N112505   2.900   2.370  14.539  0.3334 -0.1528 -0.5510
  847MPD2    H712506   2.928   2.461  14.573 -1.3721  0.8478 -1.7854
  848MPD2     C12507   1.073   0.430  15.929 -0.0405  0.2630  0.0043
  848MPD2    C112508   1.058   0.529  16.022  0.3279 -0.1732 -0.3022
  848MPD2    C212509   1.058   0.667  15.988  0.4354  0.0092 -0.0871
  848MPD2    C312510   1.052   0.698  15.855  0.1105 -0.4740  0.1350
  848MPD2    C412511   1.062   0.597  15.762 -0.5486 -0.0500  0.1144
  848MPD2    C512512   1.077   0.470  15.801  0.2793 -0.1955 -0.5814
  848MPD2     H12513   1.041   0.733  16.073  2.3457  0.0379  0.2736
  848MPD2    H112514   1.047   0.618  15.657  1.1289 -0.0880 -0.1324
  848MPD2    H212515   1.087   0.325  15.950  0.8870  0.7089  1.6378
  848MPD2    H312516   1.076   0.387  15.731  0.9654  0.1863 -1.0407
  848MPD2     N12517   1.013   0.826  15.806  0.0304  1.6315  0.0798
  848MPD2    H512518   0.961   0.834  15.720 -0.8231  0.0330  0.4445
  848MPD2    N112519   1.055   0.500  16.157  0.2750  0.0365  0.1717
  848MPD2    H712520   1.077   0.571  16.227 -2.4542  0.9286  0.1249
  849MPD2     C12521   4.712   4.630  14.073  0.1575 -0.2343 -0.6286
  849MPD2    C112522   0.082   4.551  14.059  0.2327  0.0635  0.6329
  849MPD2    C212523   0.171   4.556  14.158  0.6247  0.9531  0.2172
  849MPD2    C312524   0.154   4.633  14.270 -0.3091 -0.0988 -0.0012
  849MPD2    C412525   0.035   4.707  14.287 -0.5771  0.0412 -0.3451
  849MPD2    C512526   4.688   4.704  14.188  0.4496  0.8864 -0.2599
  849MPD2     H12527   0.262   4.496  14.157  0.1469  0.2482 -0.8888
  849MPD2    H112528   0.014   0.024  14.376 -0.7981 -1.5875  0.6584
  849MPD2    H212529   4.638   4.638  13.995 -0.4233 -2.8982 -0.3304
  849MPD2    H312530   4.596   0.020  14.196 -1.1274 -1.5180 -1.4274
  849MPD2     N12531   0.265   4.642  14.353 -0.0402 -0.0495  0.3412
  849MPD2    H512532   0.349   4.594  14.322 -0.0679 -0.0734  0.3025
  849MPD2    N112533   0.102   4.478  13.938 -0.5980 -0.7330 -0.2238
  849MPD2    H712534   0.054   4.518  13.858 -0.2905  0.0336 -0.0276
  850MPD2     C12535   3.208   3.436  14.657  0.8683 -0.0369 -0.4308
  850MPD2    C112536   3.189   3.490  14.786 -0.6134  0.2730 -0.1347
  850MPD2    C212537   3.300   3.568  14.830 -0.0836 -0.2687  0.4073
  850MPD2    C312538   3.425   3.566  14.770 -0.0419  0.7135  0.1844
  850MPD2    C412539   3.434   3.505  14.644  0.1452  0.4466  0.3212
  850MPD2    C512540   3.322   3.447  14.590 -0.4322  0.0749  0.5013
  850MPD2     H12541   3.298   3.606  14.932  3.0564  0.5566  0.1552
  850MPD2    H112542   3.531   3.503  14.596  0.2029  2.5535  0.3617
  850MPD2    H212543   3.131   3.379  14.605 -1.4129  2.2718  0.4195
  850MPD2    H312544   3.333   3.408  14.489  1.9950  0.0917  0.7731
  850MPD2     N12545   3.544   3.608  14.831  0.0497  0.1266 -0.7933
  850MPD2    H512546   3.630   3.574  14.788  0.1018 -0.5747 -0.1389
  850MPD2    N112547   3.062   3.491  14.853 -0.3191 -0.1996 -0.7882
  850MPD2    H712548   3.047   3.560  14.925 -2.2627 -0.5564 -0.8458
  851MPD2     C12549   3.229   3.115  15.385 -0.6046 -0.1781 -0.1454
  851MPD2    C112550   3.108   3.074  15.316  0.1033 -0.5003 -0.3906
  851MPD2    C212551   3.077   2.941  15.314 -0.0034  0.0180 -0.8936
  851MPD2    C312552   3.169   2.845  15.349 -0.7435 -0.3326 -0.3574
  851MPD2    C412553   3.281   2.893  15.411  0.0017 -0.3671 -0.3916
  851MPD2    C512554   3.313   3.021  15.432 -1.0326 -0.2432  0.0346
  851MPD2     H12555   2.983   2.901  15.278  0.0739 -2.1491  1.3281
  851MPD2    H112556   3.361   2.832  15.452  0.4110  0.6096  0.2649
  851MPD2    H212557   3.246   3.221  15.392  1.1436 -0.4694 -0.0484
  851MPD2    H312558   3.406   3.041  15.484 -0.9178  0.9304 -0.6077
  851MPD2     N12559   3.138   2.712  15.317  0.7026  0.0220  0.3041
  851MPD2    H512560   3.044   2.684  15.290  0.2539 -0.0558  1.9749
  851MPD2    N112561   3.014   3.172  15.268 -0.0143 -0.6213  0.0163
  851MPD2    H712562   3.041   3.270  15.265 -2.0274 -0.0069  1.9846
  852MPD2     C12563   3.043   1.468  10.462  0.2036  0.4085 -0.3904
  852MPD2    C112564   2.962   1.407  10.367 -0.0068  0.1402 -0.6737
  852MPD2    C212565   2.973   1.448  10.240  0.0519 -0.4401 -0.2586
  852MPD2    C312566   3.065   1.550  10.207  0.0002 -0.0360 -0.2900
  852MPD2    C412567   3.149   1.608  10.303 -0.2372  0.2012 -0.1748
  852MPD2    C512568   3.131   1.567  10.431 -0.5211 -0.1779  0.2949
  852MPD2     H12569   2.927   1.391  10.161  2.3465 -0.5116 -1.5325
  852MPD2    H112570   3.213   1.693  10.279 -0.8171  0.6445 -0.1607
  852MPD2    H212571   3.037   1.446  10.568  0.2686 -0.1991 -0.5103
  852MPD2    H312572   3.198   1.613  10.503 -1.1057 -0.8031  1.2364
  852MPD2     N12573   3.075   1.579  10.070 -1.1448 -0.2767  0.0145
  852MPD2    H512574   3.012   1.521  10.014 -1.5760  1.2904 -1.1298
  852MPD2    N112575   2.874   1.299  10.399 -0.8265  0.3198 -0.0412
  852MPD2    H712576   2.819   1.253  10.327 -0.7416  0.1610 -0.0056
  853MPD2     C12577   0.124   0.753  12.264 -1.0020  0.3589 -0.4521
  853MPD2    C112578   0.035   0.859  12.249 -0.1821  1.2668  0.2694
  853MPD2    C212579   4.724   0.883  12.124 -0.9265  0.1366 -0.4721
  853MPD2    C312580   0.029   0.803  12.015  0.8627  0.2641  0.3233
  853MPD2    C412581   0.121   0.699  12.035 -0.2618 -0.2964 -0.9211
  853MPD2    C512582   0.167   0.678  12.159  0.6813 -0.1647 -0.2226
  853MPD2     H12583   4.644   0.953  12.107 -1.9722 -0.8343  0.4118
  853MPD2    H112584   0.144   0.632  11.953  0.7069  0.5363 -1.3304
  853MPD2    H212585   0.161   0.721  12.361 -3.3439 -0.5382  0.1521
  853MPD2    H312586   0.226   0.592  12.187  0.9745  0.8808  2.4173
  853MPD2     N12587   4.713   0.807  11.886  0.4707 -0.6062 -0.2462
  853MPD2    H512588   4.739   0.729  11.825 -0.6230  0.8645 -2.6082
  853MPD2    N112589   0.003   0.929  12.362 -0.1297 -0.1156 -0.5257
  853MPD2    H712590   0.053   0.901  12.446  1.0613 -0.2959 -1.2966
  854MPD2     C12591   1.883   1.038  12.688  0.4252 -0.5114 -0.5616
  854MPD2    C112592   1.859   0.947  12.584 -0.1648  0.4526  0.3477
  854MPD2    C212593   1.922   0.820  12.582  0.0416 -0.4034 -0.2904
  854MPD2    C312594   2.017   0.785  12.674  0.4808 -0.1932  0.3360
  854MPD2    C412595   2.044   0.881  12.771 -0.1477  0.3711 -0.2162
  854MPD2    C512596   1.983   1.006  12.779  0.3706 -0.0606  0.7362
  854MPD2     H12597   1.908   0.743  12.507  0.7476  0.1587 -0.9995
  854MPD2    H112598   2.112   0.847  12.848  0.4125  1.1856 -0.3551
  854MPD2    H212599   1.837   1.136  12.688  0.6904 -0.3835  1.4527
  854MPD2    H312600   2.015   1.077  12.854 -0.1620  0.4032  0.5182
  854MPD2     N12601   2.092   0.664  12.691 -0.2273  0.1054 -0.2042
  854MPD2    H512602   2.172   0.675  12.752 -1.6362  0.3614  1.6140
  854MPD2    N112603   1.763   0.981  12.485  0.1365 -0.2554 -0.2452
  854MPD2    H712604   1.718   1.071  12.487 -2.4746 -1.5757  0.4987
  855MPD2     C12605   2.674   0.122  13.251  0.0232  0.3698  0.6363
  855MPD2    C112606   2.540   0.143  13.260  0.7782 -0.1512  0.4077
  855MPD2    C212607   2.485   0.210  13.158 -0.7735  0.1257 -0.0652
  855MPD2    C312608   2.553   0.246  13.040 -0.4824  0.3339 -0.3568
  855MPD2    C412609   2.687   0.229  13.031 -0.1514 -0.4229  0.5784
  855MPD2    C512610   2.747   0.170  13.144  0.3348 -0.2199  0.0104
  855MPD2     H12611   2.379   0.233  13.154 -0.2864  2.9452  3.7762
  855MPD2    H112612   2.743   0.248  12.941 -0.0776  1.4763  1.0339
  855MPD2    H212613   2.731   0.077  13.332 -0.5990 -2.2368 -0.4014
  855MPD2    H312614   2.852   0.149  13.132  0.5020  0.7649 -0.1649
  855MPD2     N12615   2.492   0.297  12.925  0.6891 -0.3093  0.1100
  855MPD2    H512616   2.548   0.311  12.842  1.8028 -0.6551  0.8112
  855MPD2    N112617   2.452   0.091  13.360  0.2942  1.1563 -0.0756
  855MPD2    H712618   2.358   0.127  13.346 -0.3337 -0.4512  0.0440
  856MPD2     C12619   3.742   1.377  13.670  0.2429 -0.2240  0.2113
  856MPD2    C112620   3.804   1.478  13.745  0.3879 -0.8279 -0.4996
  856MPD2    C212621   3.723   1.588  13.785 -0.7478  0.5206 -0.0137
  856MPD2    C312622   3.586   1.591  13.768 -0.4521 -0.2078 -0.0003
  856MPD2    C412623   3.531   1.490  13.699 -0.6854  0.1898 -0.1659
  856MPD2    C512624   3.604   1.388  13.646 -0.0794  0.4860  0.1205
  856MPD2     H12625   3.780   1.661  13.841 -3.7920  0.6468  2.9260
  856MPD2    H112626   3.424   1.493  13.687 -0.8530 -0.1388  1.2141
  856MPD2    H212627   3.806   1.298  13.631 -1.6549 -2.1498  0.9499
  856MPD2    H312628   3.558   1.307  13.591 -0.6401 -0.2048  1.6029
  856MPD2     N12629   3.498   1.685  13.833  0.1175 -0.1889  0.0641
  856MPD2    H512630   3.399   1.671  13.819  0.1464 -0.0239 -0.3027
  856MPD2    N112631   3.945   1.479  13.775 -0.2174 -0.6566  0.4424
  856MPD2    H712632   3.978   1.563  13.821  1.0391 -0.9671  0.0907
  857MPD2     C12633   0.408   3.729  12.156 -0.4056 -0.2713  1.0373
  857MPD2    C112634   0.455   3.674  12.276 -0.7182  0.1450 -0.2632
  857MPD2    C212635   0.493   3.754  12.375 -0.0256  0.1689  0.1137
  857MPD2    C312636   0.496   3.894  12.357  0.1649 -0.3305  0.6358
  857MPD2    C412637   0.443   3.946  12.244 -0.3818  0.1858  0.4581
  857MPD2    C512638   0.401   3.864  12.137  0.1091 -0.9024 -0.1675
  857MPD2     H12639   0.524   3.717  12.472 -1.8380  2.3601  1.5563
  857MPD2    H112640   0.438   4.054  12.234  0.4761  0.1194 -0.6092
  857MPD2    H212641   0.374   3.662  12.078 -1.6375  1.8180 -0.2380
  857MPD2    H312642   0.381   3.909  12.040 -1.2620  2.3044  1.6142
  857MPD2     N12643   0.538   3.987  12.450  0.1846 -0.3325 -0.2583
  857MPD2    H512644   0.540   4.083  12.418 -1.3689  1.0249  3.7178
  857MPD2    N112645   0.467   3.537  12.280 -0.0634 -0.8986  0.9650
  857MPD2    H712646   0.454   3.488  12.192  1.5220 -1.2587  0.9231
  858MPD2     C12647   1.698   3.065  16.274 -0.3311  0.6277 -1.0632
  858MPD2    C112648   1.779   2.970  16.342  0.2115 -0.4112 -0.0997
  858MPD2    C212649   1.819   3.006  16.474 -0.8755 -0.1264  0.3570
  858MPD2    C312650   1.775   3.125  16.540 -0.3716 -0.1067  0.1908
  858MPD2    C412651   1.698   3.211  16.465  0.0397 -0.3545  0.2435
  858MPD2    C512652   1.658   3.180  16.339 -0.1775  0.7480  0.2182
  858MPD2     H12653   1.875   2.932  16.529 -0.2879  0.5552  0.6840
  858MPD2    H112654   1.657   3.306  16.498  0.4356  0.0862 -0.5301
  858MPD2    H212655   1.666   3.052  16.171 -1.3133  0.0256 -0.6844
  858MPD2    H312656   1.597   3.254  16.288 -0.4644  1.1293  1.1226
  858MPD2     N12657   1.811   3.161  16.674  0.1797  0.5874  0.6409
  858MPD2    H512658   1.790   3.257  16.697  0.3971 -0.0670  3.5696
  858MPD2    N112659   1.828   2.850  16.289 -0.0407 -0.9199 -0.0561
  858MPD2    H712660   1.886   2.794  16.350  4.3578  0.4643 -2.9548
  859MPD2     C12661   0.070   0.145  15.643 -0.2651  0.9009 -0.5159
  859MPD2    C112662   0.100   0.075  15.521  0.6930  0.0741  0.4088
  859MPD2    C212663   0.122   4.682  15.537  0.1941  0.4136  0.2182
  859MPD2    C312664   0.121   4.613  15.659 -0.1796 -0.4496  0.8844
  859MPD2    C412665   0.068   4.681  15.767  0.0083  0.4836  0.0248
  859MPD2    C512666   0.041   0.076  15.759  0.2495 -0.4448 -0.3900
  859MPD2     H12667   0.140   4.620  15.450  0.3662  0.7954 -0.0199
  859MPD2    H112668   0.058   4.627  15.860 -1.4620 -3.4609 -2.3779
  859MPD2    H212669   0.052   0.252  15.649  2.2168  1.2416  0.5453
  859MPD2    H312670   0.021   0.140  15.844  3.0140  0.5847 -0.5077
  859MPD2     N12671   0.166   4.481  15.685 -0.3144 -0.2466 -0.4798
  859MPD2    H512672   0.153   4.451  15.781  0.1927 -0.3714 -0.4514
  859MPD2    N112673   0.127   0.159  15.408 -0.1047  1.2838 -0.1097
  859MPD2    H712674   0.127   0.260  15.418  0.7570  1.3364 -0.5857
  860MPD2     C12675   2.857   1.069  11.487 -0.5105 -0.3223 -0.2499
  860MPD2    C112676   2.878   0.960  11.568  0.0494 -0.2976 -0.0935
  860MPD2    C212677   2.776   0.866  11.580  0.4227  0.0782 -0.3729
  860MPD2    C312678   2.661   0.877  11.499  0.1553  0.5699  0.2847
  860MPD2    C412679   2.644   0.987  11.418 -0.9453 -0.0047  0.1722
  860MPD2    C512680   2.740   1.082  11.417  0.2038  0.4532  0.2951
  860MPD2     H12681   2.785   0.777  11.642  1.4027  1.2832  1.2080
  860MPD2    H112682   2.555   1.012  11.362 -0.2180 -0.7222 -1.3009
  860MPD2    H212683   2.931   1.148  11.478 -0.1832 -0.5826  0.1894
  860MPD2    H312684   2.712   1.173  11.364  0.7705 -0.3178 -1.2939
  860MPD2     N12685   2.573   0.767  11.503 -0.3008  0.2177 -0.1310
  860MPD2    H512686   2.589   0.701  11.578  0.3495 -0.7086 -1.0794
  860MPD2    N112687   2.993   0.941  11.639 -0.1565 -0.2396 -0.1853
  860MPD2    H712688   3.008   0.850  11.684 -2.7334 -1.1330 -1.1634
  861MPD2     C12689   1.315   3.332  11.241 -0.0099 -0.2933  0.5739
  861MPD2    C112690   1.380   3.434  11.171 -0.2534  0.4779 -0.0871
  861MPD2    C212691   1.325   3.480  11.051 -0.0268  0.3145 -0.2752
  861MPD2    C312692   1.212   3.423  10.995 -0.4338 -0.1209  0.1163
  861MPD2    C412693   1.162   3.308  11.055 -0.8279  0.8516  0.0975
  861MPD2    C512694   1.210   3.267  11.176  0.0269  0.6003 -0.3633
  861MPD2     H12695   1.383   3.561  11.007  1.6534 -0.2534  0.8645
  861MPD2    H112696   1.070   3.263  11.018 -0.5431 -0.5616  1.1171
  861MPD2    H212697   1.350   3.289  11.334 -0.0904  2.0906  1.7234
  861MPD2    H312698   1.163   3.184  11.227  0.0678  0.5908 -0.3406
  861MPD2     N12699   1.134   3.471  10.885 -0.7138  0.2511  0.0995
  861MPD2    H512700   1.047   3.427  10.855 -0.5293 -1.6067  2.2622
  861MPD2    N112701   1.499   3.498  11.215  0.0240 -0.7335 -0.2656
  861MPD2    H712702   1.530   3.575  11.156  0.7987 -2.0047 -1.5088
  862MPD2     C12703   0.475   3.389  10.543  0.2813 -0.2844 -0.3442
  862MPD2    C112704   0.563   3.356  10.645 -0.1321 -0.3282 -0.4274
  862MPD2    C212705   0.533   3.250  10.730 -0.0127 -0.2901 -0.0424
  862MPD2    C312706   0.418   3.176  10.708  0.0844 -0.6259  0.2971
  862MPD2    C412707   0.339   3.206  10.598  0.0716 -0.5037 -0.1684
  862MPD2    C512708   0.362   3.321  10.522  0.1635 -0.5213  1.0029
  862MPD2     H12709   0.584   3.242  10.825 -0.8211 -0.1244  0.4037
  862MPD2    H112710   0.247   3.152  10.580 -0.6162  1.4143 -2.4520
  862MPD2    H212711   0.496   3.466  10.470  0.5128 -0.6547 -0.6700
  862MPD2    H312712   0.291   3.345  10.443  2.8853  0.4399 -1.1740
  862MPD2     N12713   0.372   3.070  10.795 -0.3216  0.4683 -0.2105
  862MPD2    H512714   0.278   3.034  10.786 -1.5803  3.0280  2.7451
  862MPD2    N112715   0.683   3.436  10.675  0.0741  0.2796 -0.6691
  862MPD2    H712716   0.749   3.402  10.745 -0.5014  1.7072  0.5439
  863MPD2     C12717   0.093   1.703  16.906  0.0171  0.0143 -0.2696
  863MPD2    C112718   0.064   1.839  16.893  1.0229  0.2538  0.6117
  863MPD2    C212719   0.155   1.929  16.949  0.1743  0.2196 -0.2274
  863MPD2    C312720   0.280   1.890  16.989 -0.1774  1.0251 -0.1503
  863MPD2    C412721   0.319   1.754  16.979  0.6081  0.3813  0.3334
  863MPD2    C512722   0.218   1.667  16.943 -0.2122 -0.1922 -0.0588
  863MPD2     H12723   0.127   2.033  16.958  0.9512  0.2672  1.6237
  863MPD2    H112724   0.411   1.716  17.021  0.6084 -1.1255 -1.0371
  863MPD2    H212725   0.017   1.630  16.882 -0.8935  0.5883  0.7973
  863MPD2    H312726   0.247   1.564  16.961  1.2155  0.6124  2.3377
  863MPD2     N12727   0.365   1.988  17.051  0.0255  0.0229 -0.1556
  863MPD2    H512728   0.323   2.081  17.046 -2.3688 -0.8270  4.9377
  863MPD2    N112729   4.687   1.871  16.828  0.5206  0.4244 -0.5781
  863MPD2    H712730   4.646   1.788  16.785 -1.4761  0.9225  0.3837
  864MPD2     C12731   0.316   3.204  17.128 -0.2388 -0.0798 -0.0814
  864MPD2    C112732   0.354   3.119  17.024  0.4889  0.1602 -0.2839
  864MPD2    C212733   0.384   3.174  16.901 -0.4133 -0.2353 -0.5954
  864MPD2    C312734   0.374   3.312  16.887  0.2336  0.1630  0.4314
  864MPD2    C412735   0.331   3.388  16.991  0.5069  0.0688  0.1493
  864MPD2    C512736   0.309   3.340  17.113 -0.3923 -0.0629 -0.2311
  864MPD2     H12737   0.418   3.113  16.819 -2.4561  0.0762 -1.6698
  864MPD2    H112738   0.330   3.497  16.991 -2.1090  0.0287  0.6776
  864MPD2    H212739   0.302   3.163  17.227  3.6990  0.6595  0.7610
  864MPD2    H312740   0.272   3.395  17.199  3.1955 -0.8177  1.7990
  864MPD2     N12741   0.385   3.383  16.764  0.7955  0.1729 -0.3300
  864MPD2    H512742   0.375   3.484  16.764 -1.0510 -0.0155 -0.8582
  864MPD2    N112743   0.360   2.976  17.029  0.6836  0.0348  0.3237
  864MPD2    H712744   0.381   2.931  16.941  2.0950  2.6590 -0.6809
  865MPD2     C12745   0.306   3.511  15.912 -0.6908  0.1390 -0.3028
  865MPD2    C112746   0.299   3.432  16.019 -0.1315  0.7438 -0.2763
  865MPD2    C212747   0.263   3.496  16.143 -0.3397  0.3466  0.8458
  865MPD2    C312748   0.227   3.632  16.144 -0.0386  0.5977 -0.2069
  865MPD2    C412749   0.221   3.705  16.028 -0.4900 -0.1297  0.2337
  865MPD2    C512750   0.271   3.647  15.915  0.6293  0.2883  0.4321
  865MPD2     H12751   0.255   3.436  16.234  0.5778 -0.4096  0.4393
  865MPD2    H112752   0.185   3.807  16.018  0.2729  0.4036  2.8788
  865MPD2    H212753   0.330   3.463  15.817  0.7121  2.5081 -1.1556
  865MPD2    H312754   0.276   3.698  15.819 -1.6604 -0.5077 -0.0954
  865MPD2     N12755   0.188   3.704  16.264 -0.4491 -0.0468  0.9265
  865MPD2    H512756   0.139   3.792  16.250  1.5052  0.7064 -1.2517
  865MPD2    N112757   0.335   3.289  16.002 -0.1032  0.5047  0.3467
  865MPD2    H712758   0.342   3.249  15.909  0.5810 -3.3967  2.0704
  866MPD2     C12759   2.126   3.941  11.069 -0.2330 -0.4620 -0.0866
  866MPD2    C112760   2.060   3.825  11.052 -0.1934  0.7591  0.0078
  866MPD2    C212761   1.918   3.828  11.042 -0.4251  0.4808 -0.0025
  866MPD2    C312762   1.858   3.951  11.050 -0.0804  0.2360 -0.0677
  866MPD2    C412763   1.926   4.063  11.075 -0.0953  0.2585 -0.0362
  866MPD2    C512764   2.058   4.054  11.103  0.0991  0.2054 -0.8967
  866MPD2     H12765   1.859   3.742  11.013 -1.6539  1.1116  0.6445
  866MPD2    H112766   1.872   4.157  11.076  1.2486  1.0131  1.6796
  866MPD2    H212767   2.231   3.939  11.094 -0.4778 -1.0435  0.9228
  866MPD2    H312768   2.118   4.141  11.130 -2.3157  2.2738 -2.2360
  866MPD2     N12769   1.722   3.970  11.026 -0.2942 -0.2270  0.9895
  866MPD2    H512770   1.692   4.067  11.026  1.3018  0.2670 -1.7005
  866MPD2    N112771   2.141   3.710  11.046 -0.3727  0.2013 -0.2600
  866MPD2    H712772   2.239   3.722  11.067 -0.6906  0.0222  1.3600
  867MPD2     C12773   3.768   3.380  16.827 -0.9685  0.0128  0.4493
  867MPD2    C112774   3.828   3.304  16.918  0.0301  0.2268 -0.2197
  867MPD2    C212775   3.842   3.357  17.041  0.1837 -0.4356 -0.0491
  867MPD2    C312776   3.813   3.488  17.072  0.5820 -0.4843  0.2406
  867MPD2    C412777   3.750   3.562  16.984  0.3603  0.1142  0.2375
  867MPD2    C512778   3.734   3.508  16.856 -0.2841 -0.0480 -0.1169
  867MPD2     H12779   3.881   3.291  17.117  0.0238  0.4588  0.8030
  867MPD2    H112780   3.712   3.662  17.000  1.5740  0.5399  0.4829
  867MPD2    H212781   3.748   3.339  16.728 -0.5687 -0.8832  0.7373
  867MPD2    H312782   3.679   3.566  16.783 -2.7555  0.1882  1.9270
  867MPD2     N12783   3.840   3.542  17.196  0.1003 -0.2611 -0.0492
  867MPD2    H512784   3.812   3.637  17.218 -1.7120 -0.0366 -3.2578
  867MPD2    N112785   3.857   3.170  16.881 -0.6230  0.3295 -0.0295
  867MPD2    H712786   3.843   3.136  16.786 -0.6133 -0.1791  0.1528
  868MPD2     C12787   0.853   1.844  12.679  0.1401 -0.2237  0.2790
  868MPD2    C112788   0.932   1.770  12.765  0.3280  0.0785  0.1599
  868MPD2    C212789   0.877   1.721  12.880 -0.0763  1.1783  0.2504
  868MPD2    C312790   0.754   1.751  12.927 -0.1744 -0.2087  0.8780
  868MPD2    C412791   0.672   1.831  12.843  1.2317 -0.1282  1.0332
  868MPD2    C512792   0.724   1.872  12.716 -0.6980  0.2735  0.2743
  868MPD2     H12793   0.951   1.679  12.947  0.8116  2.1045 -0.1452
  868MPD2    H112794   0.580   1.873  12.883  0.0867 -0.0275 -1.7238
  868MPD2    H212795   0.896   1.886  12.589 -0.2441 -0.6795 -0.1103
  868MPD2    H312796   0.670   1.942  12.653  1.1125 -0.5782 -2.2419
  868MPD2     N12797   0.735   1.709  13.062 -0.3219 -0.1480 -0.0564
  868MPD2    H512798   0.788   1.639  13.113 -1.1660 -2.1454 -1.9503
  868MPD2    N112799   1.069   1.757  12.728  0.0108  1.4679 -0.2072
  868MPD2    H712800   1.086   1.795  12.635 -1.4211  1.9276 -0.2812
  869MPD2     C12801   2.205   1.378   0.897 -0.8616  0.7390 -0.4402
  869MPD2    C112802   2.224   1.471   0.987  1.1616  0.4519 -0.3526
  869MPD2    C212803   2.351   1.512   1.029  0.1024 -0.3079  0.0100
  869MPD2    C312804   2.463   1.468   0.958  0.0812 -0.2569  0.0282
  869MPD2    C412805   2.440   1.379   0.850  0.9716 -0.1100 -0.5700
  869MPD2    C512806   2.311   1.332   0.824  0.2813 -0.3852  1.1312
  869MPD2     H12807   2.362   1.591   1.103 -0.5173  0.7788 -1.0386
  869MPD2    H112808   2.527   1.343   0.796  1.0796 -2.4343  1.1424
  869MPD2    H212809   2.104   1.341   0.888 -0.0254 -1.2884 -1.4545
  869MPD2    H312810   2.300   1.271   0.736 -0.8325 -0.0187  1.0256
  869MPD2     N12811   2.596   1.514   0.992  0.0635 -0.2339 -0.1226
  869MPD2    H512812   2.673   1.478   0.936 -1.4934 -0.7082 -1.9527
  869MPD2    N112813   2.103   1.505   1.044  0.0906 -0.4369  0.2524
  869MPD2    H712814   2.020   1.457   1.011 -0.0733 -0.9567  1.4169
  870MPD2     C12815   1.896   4.045   1.116  0.4877 -0.3056  0.8400
  870MPD2    C112816   2.004   4.130   1.102 -0.0805  0.2311 -0.2262
  870MPD2    C212817   1.982   4.264   1.073  0.4599 -0.1487 -0.0068
  870MPD2    C312818   1.850   4.307   1.050 -0.3392 -0.3112 -0.0814
  870MPD2    C412819   1.750   4.219   1.074 -0.0921  0.2263 -0.1142
  870MPD2    C512820   1.767   4.093   1.108  0.5873 -0.9093 -0.0508
  870MPD2     H12821   2.068   4.324   1.047  0.6667 -1.2631 -1.9385
  870MPD2    H112822   1.648   4.252   1.061 -0.0264  0.4015 -0.1907
  870MPD2    H212823   1.912   3.943   1.150  1.1964 -0.6915 -0.6414
  870MPD2    H312824   1.685   4.024   1.125  0.7783 -0.9430  0.7115
  870MPD2     N12825   1.814   4.435   1.009  0.0809 -0.5190 -0.0225
  870MPD2    H512826   1.890   4.497   0.980 -0.1229  0.9591  2.5827
  870MPD2    N112827   2.136   4.078   1.119  0.3511 -0.2907  0.0804
  870MPD2    H712828   2.133   3.977   1.127  1.0024 -0.0928  2.7241
  871MPD2     C12829   2.502   3.283  16.532 -0.2476 -0.6440 -0.3718
  871MPD2    C112830   2.596   3.380  16.576 -0.2726 -0.2663 -0.0974
  871MPD2    C212831   2.729   3.347  16.573  0.3890  0.1254 -0.5159
  871MPD2    C312832   2.770   3.229  16.527 -0.4288  0.1812  0.5229
  871MPD2    C412833   2.679   3.132  16.496 -0.4528 -0.0437  0.0208
  871MPD2    C512834   2.545   3.158  16.499  0.2820 -0.6780 -0.0491
  871MPD2     H12835   2.805   3.413  16.613 -0.0792  0.3788 -0.0449
  871MPD2    H112836   2.701   3.038  16.446 -0.3218 -0.2511  0.4712
  871MPD2    H212837   2.398   3.309  16.515  0.5659  2.9569  0.0724
  871MPD2    H312838   2.477   3.088  16.452  0.6731  0.7604 -2.7936
  871MPD2     N12839   2.905   3.201  16.520  0.1291 -0.2396 -0.2071
  871MPD2    H512840   2.965   3.267  16.569 -0.8331 -0.0896  0.7651
  871MPD2    N112841   2.560   3.511  16.609 -0.4493 -0.0624  0.0951
  871MPD2    H712842   2.638   3.575  16.624  0.1403 -0.3680 -1.6232
  872MPD2     C12843   4.183   0.719  14.022 -0.1940  0.2020 -0.2307
  872MPD2    C112844   4.215   0.807  13.924 -0.0540  0.8073  0.0731
  872MPD2    C212845   4.125   0.896  13.865  0.6910 -0.3008 -0.0608
  872MPD2    C312846   4.001   0.894  13.916 -1.1727 -0.0341  0.2855
  872MPD2    C412847   3.967   0.823  14.031  0.4774  0.4206 -0.3786
  872MPD2    C512848   4.062   0.732  14.079 -0.3768 -0.3426  0.1063
  872MPD2     H12849   4.149   0.960  13.781  1.9021 -1.9840 -0.9927
  872MPD2    H112850   3.867   0.823  14.073  1.0925  0.3667  1.0909
  872MPD2    H212851   4.254   0.654  14.072  0.7210  2.0904  0.9824
  872MPD2    H312852   4.027   0.670  14.161 -0.5324 -1.3128 -0.7059
  872MPD2     N12853   3.906   0.975  13.849  0.2039 -0.2389 -0.2145
  872MPD2    H512854   3.933   1.027  13.766  1.7636  0.9354  1.0368
  872MPD2    N112855   4.343   0.793  13.860  0.1860  0.0839 -0.3777
  872MPD2    H712856   4.362   0.863  13.790  2.2885  0.8546  0.9351
  873MPD2     C12857   1.329   1.824   0.673 -0.2496  0.7070  0.0497
  873MPD2    C112858   1.245   1.771   0.767 -0.0164  0.3274 -0.3349
  873MPD2    C212859   1.259   1.647   0.816  0.1505  0.1033 -1.0306
  873MPD2    C312860   1.348   1.561   0.753 -0.6829  0.5759 -0.0916
  873MPD2    C412861   1.423   1.613   0.649  0.5901 -0.0627 -0.0029
  873MPD2    C512862   1.421   1.744   0.617  0.4533 -0.6300  0.5969
  873MPD2     H12863   1.201   1.615   0.902 -0.1782  0.3646 -1.1562
  873MPD2    H112864   1.494   1.545   0.604  1.0297  0.6027 -0.3062
  873MPD2    H212865   1.332   1.929   0.644 -0.1013  1.0964  1.4501
  873MPD2    H312866   1.496   1.789   0.553 -0.0776  0.7523  0.9608
  873MPD2     N12867   1.352   1.423   0.778  0.2585 -0.2634 -0.4211
  873MPD2    H512868   1.391   1.356   0.712  1.2941  0.3932 -0.4698
  873MPD2    N112869   1.158   1.872   0.825  0.2581 -0.5515  0.2493
  873MPD2    H712870   1.160   1.963   0.781 -1.7179 -1.0090 -0.7529
  874MPD2     C12871   0.170   0.807  15.969 -0.1514  0.3316 -0.1030
  874MPD2    C112872   0.284   0.771  16.038 -0.2365  0.1912  0.0503
  874MPD2    C212873   0.404   0.838  16.000  0.3913 -0.4426 -0.1651
  874MPD2    C312874   0.414   0.925  15.891  0.0164 -0.1526 -0.0444
  874MPD2    C412875   0.297   0.955  15.822  0.4231  0.0647  0.1987
  874MPD2    C512876   0.176   0.906  15.872  0.6084  0.0677 -0.5484
  874MPD2     H12877   0.494   0.812  16.054  1.2020  3.4183  0.3576
  874MPD2    H112878   0.300   1.027  15.741 -0.9187  0.5673  0.5878
  874MPD2    H212879   0.073   0.762  15.988  0.0193  0.7594  1.7428
  874MPD2    H312880   0.085   0.935  15.821 -0.3545  2.0584  2.3500
  874MPD2     N12881   0.542   0.969  15.854 -0.6804 -0.2064  0.1456
  874MPD2    H512882   0.618   0.920  15.900 -0.0847 -1.2825 -1.9446
  874MPD2    N112883   0.272   0.688  16.159 -0.3501  0.0498 -0.1340
  874MPD2    H712884   0.176   0.665  16.181  0.1937 -1.7363  0.3636
  875MPD2     C12885   1.783   3.889  14.541 -0.3253 -0.2346  0.1156
  875MPD2    C112886   1.661   3.882  14.608 -0.1136  0.0353 -0.3259
  875MPD2    C212887   1.641   3.942  14.729 -0.2496  0.1017  0.4125
  875MPD2    C312888   1.743   4.011  14.790  0.2751  0.7234 -0.3809
  875MPD2    C412889   1.862   4.031  14.711  0.7494  1.1083 -0.3607
  875MPD2    C512890   1.881   3.966  14.590  0.3277 -0.2446  0.0966
  875MPD2     H12891   1.541   3.940  14.771 -1.7306  0.3762 -3.1438
  875MPD2    H112892   1.942   4.088  14.757  1.0798 -0.3165  0.8230
  875MPD2    H212893   1.809   3.820  14.462  0.3632 -0.4172  0.5052
  875MPD2    H312894   1.977   3.969  14.541 -0.6326  0.2552 -1.7606
  875MPD2     N12895   1.740   4.055  14.925 -0.0685 -0.3038  0.8451
  875MPD2    H512896   1.814   4.109  14.970  0.6461 -0.2508 -0.4102
  875MPD2    N112897   1.546   3.824  14.546 -0.0579  0.1193  0.6487
  875MPD2    H712898   1.460   3.829  14.600  0.1310  2.0119  0.7837
  876MPD2     C12899   0.162   0.463  15.883  0.4130  0.0907  0.8795
  876MPD2    C112900   0.295   0.481  15.861 -0.4066  0.2322  0.5595
  876MPD2    C212901   0.385   0.407  15.943 -0.9254 -0.7887 -0.5986
  876MPD2    C312902   0.345   0.327  16.049 -0.1709  0.0692  0.3567
  876MPD2    C412903   0.210   0.322  16.077  0.4000  0.4823  0.6459
  876MPD2    C512904   0.122   0.399  15.998  0.3687 -0.3579  0.3033
  876MPD2     H12905   0.491   0.401  15.921 -0.8912 -0.6334 -0.4731
  876MPD2    H112906   0.172   0.274  16.166  0.3195 -1.4632 -0.4383
  876MPD2    H212907   0.092   0.519  15.823  1.2493  0.4506  0.2470
  876MPD2    H312908   0.015   0.399  16.017  0.2239 -0.0840 -0.5024
  876MPD2     N12909   0.440   0.249  16.122  0.2931 -0.0908 -0.1385
  876MPD2    H512910   0.531   0.252  16.079 -0.3605 -0.6708 -1.5685
  876MPD2    N112911   0.335   0.571  15.761 -0.1421 -0.1102 -0.9219
  876MPD2    H712912   0.263   0.622  15.711 -1.3062 -1.8960 -1.0611
  877MPD2     C12913   0.237   0.832  15.034  0.2291 -0.0228  0.1488
  877MPD2    C112914   0.370   0.835  15.073 -0.6153 -0.4777  0.1936
  877MPD2    C212915   0.465   0.854  14.973 -0.3893 -0.8579  0.0859
  877MPD2    C312916   0.431   0.890  14.844 -0.0206 -0.2941  0.1814
  877MPD2    C412917   0.299   0.887  14.810  0.1989 -0.4671 -0.6629
  877MPD2    C512918   0.204   0.850  14.905  0.3511  0.5818  0.6206
  877MPD2     H12919   0.569   0.844  15.000 -0.2459 -0.0888 -0.1992
  877MPD2    H112920   0.267   0.910  14.710 -0.0185  1.0053 -0.2461
  877MPD2    H212921   0.159   0.829  15.109  0.2197 -2.2049  0.0412
  877MPD2    H312922   0.100   0.846  14.878  0.7594  2.6342 -1.1687
  877MPD2     N12923   0.526   0.934  14.748 -0.2464  0.3960 -0.4685
  877MPD2    H512924   0.483   0.946  14.657 -0.1492  3.4350 -0.1222
  877MPD2    N112925   0.419   0.830  15.209 -0.0464  0.3992  0.4153
  877MPD2    H712926   0.519   0.821  15.222 -0.4774 -1.6785  2.3203
  878MPD2     C12927   0.021   4.586  12.981 -0.5598  0.5984  0.0968
  878MPD2    C112928   0.133   4.658  13.003  0.1552  0.3666 -0.0382
  878MPD2    C212929   0.191   4.648  13.126 -0.5040 -0.0945  0.1389
  878MPD2    C312930   0.138   4.562  13.224  0.4609 -0.8428  0.1320
  878MPD2    C412931   0.019   4.497  13.199  0.0251 -0.6218 -0.0774
  878MPD2    C512932   4.712   4.502  13.075 -0.1571 -0.5051  0.5070
  878MPD2     H12933   0.283   4.700  13.148 -1.7812  2.1446  0.2374
  878MPD2    H112934   4.716   4.432  13.274  1.9675 -1.0250  0.6990
  878MPD2    H212935   4.721   4.579  12.880  2.1381 -2.3425 -0.7851
  878MPD2    H312936   4.632   4.435  13.045 -1.2114  1.1608 -0.3522
  878MPD2     N12937   0.200   4.556  13.352 -0.0052  0.4714 -0.0266
  878MPD2    H512938   0.296   4.587  13.359 -0.3750  1.9914 -1.6479
  878MPD2    N112939   0.187   4.713  12.885 -0.1407 -0.5097  0.0481
  878MPD2    H712940   0.133   4.711  12.799 -0.9713 -1.0319  0.5798
  879MPD2     C12941   0.959   2.156  16.515 -0.3385  0.2849  0.5264
  879MPD2    C112942   0.911   2.152  16.640 -0.2892 -0.1385 -0.1956
  879MPD2    C212943   0.830   2.041  16.682  0.7562  0.0529 -0.1549
  879MPD2    C312944   0.807   1.950  16.580 -0.2638 -1.0207 -0.3921
  879MPD2    C412945   0.846   1.963  16.444 -0.4519 -0.3468  0.0070
  879MPD2    C512946   0.928   2.063  16.418  0.7867  0.2123  0.1255
  879MPD2     H12947   0.789   2.035  16.782  0.9724 -2.1377 -0.1972
  879MPD2    H112948   0.824   1.894  16.363  0.6515  0.6337 -1.1423
  879MPD2    H212949   1.027   2.237  16.494  0.3995 -0.5433 -0.3011
  879MPD2    H312950   0.964   2.079  16.317  0.5146 -2.6955 -0.4288
  879MPD2     N12951   0.733   1.833  16.609 -0.3563 -0.0594 -0.0559
  879MPD2    H512952   0.721   1.769  16.530 -0.2178 -0.5165  0.2926
  879MPD2    N112953   0.949   2.258  16.721  0.0449  0.2684  0.2903
  879MPD2    H712954   0.991   2.335  16.670  0.8894 -0.9003 -0.7920
  880MPD2     C12955   2.065   3.705  17.715 -0.7965 -0.1544 -0.1591
  880MPD2    C112956   2.052   3.812   0.037  0.4494  0.6155 -0.9453
  880MPD2    C212957   2.091   3.804   0.174  0.2335  0.1021  0.5267
  880MPD2    C312958   2.121   3.683   0.225  0.8658  0.3709  0.9958
  880MPD2    C412959   2.110   3.569   0.149  0.1992 -0.0399 -0.1655
  880MPD2    C512960   2.097   3.585   0.012 -0.2747  0.2146  0.1931
  880MPD2     H12961   2.089   3.893   0.236  1.1818  0.7357 -0.3407
  880MPD2    H112962   2.141   3.475   0.193 -0.4763  0.8412  2.1777
  880MPD2    H212963   2.039   3.704  17.610 -2.7985 -0.4402  0.3254
  880MPD2    H312964   2.097   3.490  17.719  1.5684  0.7170 -0.7082
  880MPD2     N12965   2.186   3.686   0.356 -0.1910  0.3319  0.4538
  880MPD2    H512966   2.198   3.774   0.406 -0.7315  1.2171 -0.9707
  880MPD2    N112967   2.011   3.929  17.729  0.5129 -0.2529 -0.0694
  880MPD2    H712968   1.987   3.922  17.631  1.4247  0.6506 -0.3522
  881MPD2     C12969   2.252   0.077  17.247  0.3863  0.3545 -0.0832
  881MPD2    C112970   2.245   4.685  17.203 -0.1009 -1.0256 -0.0225
  881MPD2    C212971   2.161   4.600  17.275 -0.4629 -0.4411 -0.0327
  881MPD2    C312972   2.104   4.642  17.403  0.0771 -0.8473  0.4804
  881MPD2    C412973   2.107   0.039  17.428  0.6467 -0.0131 -0.7557
  881MPD2    C512974   2.178   0.120  17.344  0.6306  0.1630 -0.0743
  881MPD2     H12975   2.165   4.496  17.247 -0.9041  0.2979 -2.8323
  881MPD2    H112976   2.070   0.077  17.522  0.1753  1.0845 -1.3769
  881MPD2    H212977   2.292   0.147  17.175  0.4258  0.7505  0.3191
  881MPD2    H312978   2.182   0.225  17.372 -0.1578  0.7684 -2.2701
  881MPD2     N12979   2.061   4.550  17.505  0.1047  0.1721  0.4102
  881MPD2    H512980   2.018   4.589  17.588 -0.1761 -4.0416  2.2328
  881MPD2    N112981   2.291   4.653  17.074 -1.1909  0.2841 -0.1909
  881MPD2    H712982   2.356   4.719  17.033 -0.7983 -0.8550 -1.3929
  882MPD2     C12983   0.519   0.552  14.380  0.1669 -0.3554  0.3776
  882MPD2    C112984   0.498   0.682  14.335  0.0069 -0.4762 -0.2599
  882MPD2    C212985   0.372   0.716  14.291  0.1686 -0.2545 -0.5898
  882MPD2    C312986   0.263   0.630  14.306  0.4897 -0.1964 -0.3420
  882MPD2    C412987   0.291   0.504  14.369 -0.5176 -0.6883  0.3866
  882MPD2    C512988   0.418   0.464  14.395 -0.2189 -0.5674  0.0989
  882MPD2     H12989   0.357   0.815  14.250 -1.1959 -0.5138 -0.7240
  882MPD2    H112990   0.210   0.433  14.383 -1.2427  0.1653  0.5335
  882MPD2    H212991   0.609   0.510  14.423  1.5592 -1.2604 -3.4100
  882MPD2    H312992   0.439   0.365  14.433  0.3483 -0.6771 -0.4878
  882MPD2     N12993   0.130   0.668  14.275  0.1851  0.3062 -0.8112
  882MPD2    H512994   0.066   0.589  14.283  2.9729 -1.8875 -0.2225
  882MPD2    N112995   0.609   0.762  14.338 -0.2056  0.0664 -0.4374
  882MPD2    H712996   0.695   0.717  14.369 -0.6805  0.8391  2.0208
  883MPD2     C12997   2.549   0.663  15.759  0.2378 -0.5214 -0.6977
  883MPD2    C112998   2.547   0.801  15.756 -1.0070  0.2085 -0.6889
  883MPD2    C212999   2.571   0.868  15.872  0.3128  0.7571  0.2582
  883MPD2    C313000   2.608   0.805  15.990 -0.0434 -0.2360  0.1285
  883MPD2    C413001   2.611   0.668  15.990 -0.2404 -0.2597  0.4413
  883MPD2    C513002   2.567   0.600  15.882  0.0443 -0.1951 -0.2111
  883MPD2     H13003   2.557   0.976  15.869  1.3803  0.8660 -0.7191
  883MPD2    H113004   2.619   0.607  16.080 -1.5463 -2.1733 -0.7442
  883MPD2    H213005   2.527   0.597  15.676 -0.5165 -0.6105 -0.4266
  883MPD2    H313006   2.548   0.493  15.883 -2.1578  0.2032  0.8574
  883MPD2     N13007   2.655   0.890  16.084  0.0010 -0.2387  0.5098
  883MPD2    H513008   2.667   0.989  16.069 -0.8815 -0.4781 -1.7823
  883MPD2    N113009   2.519   0.879  15.639  0.0314  0.8951 -0.0561
  883MPD2    H713010   2.527   0.979  15.650  0.1103  0.7332  1.2903
  884MPD2     C13011   4.427   1.636  15.249  0.3638  0.6510 -0.7944
  884MPD2    C113012   4.395   1.701  15.137  0.3079 -0.3816  0.0813
  884MPD2    C213013   4.276   1.776  15.141 -0.7119  0.6461 -0.0495
  884MPD2    C313014   4.192   1.768  15.250 -0.0533 -0.6530  0.2060
  884MPD2    C413015   4.228   1.701  15.361 -0.5753 -0.3013  0.0516
  884MPD2    C513016   4.347   1.630  15.358  0.8698  0.0818 -0.2378
  884MPD2     H13017   4.248   1.840  15.058 -0.8687  0.3172 -0.2494
  884MPD2    H113018   4.168   1.694  15.451 -2.0364 -0.5133 -0.9336
  884MPD2    H213019   4.521   1.582  15.253 -1.3348 -2.3882 -1.0138
  884MPD2    H313020   4.382   1.579  15.447 -0.5654  0.4535  0.5424
  884MPD2     N13021   4.070   1.837  15.246 -0.0803 -0.1632 -0.5409
  884MPD2    H513022   4.044   1.895  15.167  0.0416 -2.7907 -2.4616
  884MPD2    N113023   4.477   1.714  15.023 -0.2748 -0.2492 -0.6617
  884MPD2    H713024   4.435   1.760  14.943  0.7098  0.1270 -0.9613
  885MPD2     C13025   2.646   2.629   0.349  0.4535 -0.9727  0.0338
  885MPD2    C113026   2.775   2.670   0.363  0.3661 -0.0358 -0.3455
  885MPD2    C213027   2.844   2.693   0.241  0.1127 -0.2919  0.2339
  885MPD2    C313028   2.783   2.664   0.118  0.2283  0.9491  0.4261
  885MPD2    C413029   2.647   2.629   0.117  0.2551 -0.4407  0.3218
  885MPD2    C513030   2.583   2.610   0.233  0.6823  0.4949  0.5348
  885MPD2     H13031   2.944   2.736   0.245 -0.0854  0.2246 -0.4363
  885MPD2    H113032   2.594   2.595   0.029 -1.3903 -1.1227  1.5850
  885MPD2    H213033   2.601   2.609   0.445 -0.8895  0.3676 -0.3129
  885MPD2    H313034   2.477   2.586   0.240  0.9440  0.0259  3.0301
  885MPD2     N13035   2.867   2.669   0.001  0.0007  0.3534 -0.1870
  885MPD2    H513036   2.968   2.676   0.012  0.0299 -1.4842  0.8535
  885MPD2    N113037   2.829   2.699   0.492  0.5052 -0.1695 -0.3056
  885MPD2    H713038   2.775   2.685   0.577  0.8333  0.2621 -0.0216
  886MPD2     C13039   3.906   0.602  15.506 -0.0092  0.3756  0.3319
  886MPD2    C113040   4.011   0.545  15.448  0.3455  0.1628 -0.0290
  886MPD2    C213041   4.050   0.590  15.329  0.4351  0.0926  0.4578
  886MPD2    C313042   3.984   0.695  15.269 -0.5516 -0.2623  0.1313
  886MPD2    C413043   3.875   0.749  15.322 -0.5975 -0.0488  0.1104
  886MPD2    C513044   3.833   0.693  15.438  0.1716  0.2047  0.5684
  886MPD2     H13045   4.142   0.556  15.282  0.9625  0.4061  1.2645
  886MPD2    H113046   3.824   0.834  15.277 -0.3052  1.0228  1.7883
  886MPD2    H213047   3.868   0.550  15.594 -0.2493  1.6373  0.9720
  886MPD2    H313048   3.742   0.721  15.489  1.3758 -0.5651  3.1566
  886MPD2     N13049   4.050   0.752  15.154  0.1290 -0.1393  1.0515
  886MPD2    H513050   4.139   0.710  15.132  0.0196  0.7855 -1.1502
  886MPD2    N113051   4.089   0.454  15.522  0.4555  0.6880 -0.0936
  886MPD2    H713052   4.066   0.440  15.620 -1.3616  2.4352 -0.2747
  887MPD2     C13053   4.523   0.561  16.085 -0.0409  0.4186 -0.3915
  887MPD2    C113054   4.484   0.598  15.956 -0.0455 -0.0604 -0.0338
  887MPD2    C213055   4.487   0.730  15.918 -0.2805 -0.3170 -0.9032
  887MPD2    C313056   4.527   0.828  16.012 -0.2706  0.4642  0.0288
  887MPD2    C413057   4.546   0.794  16.148 -0.3409  0.9173  0.0039
  887MPD2    C513058   4.550   0.661  16.172  0.2462 -0.0918 -0.5951
  887MPD2     H13059   4.441   0.752  15.823 -1.3280 -1.0713 -0.5737
  887MPD2    H113060   4.562   0.863  16.229 -2.2574  1.6530 -0.2421
  887MPD2    H213061   4.525   0.460  16.125  0.8536  1.1170  1.3578
  887MPD2    H313062   4.569   0.624  16.272 -0.0979 -0.8560 -0.8159
  887MPD2     N13063   4.522   0.962  15.967 -1.1644 -0.0409  1.0713
  887MPD2    H513064   4.487   0.984  15.875  2.1649  0.4371 -0.0831
  887MPD2    N113065   4.435   0.510  15.860  0.0848 -0.0164  0.6838
  887MPD2    H713066   4.415   0.559  15.773 -0.7525 -0.7724  0.4520
  888MPD2     C13067   1.801   0.333  15.080  0.0071 -0.2757 -0.0735
  888MPD2    C113068   1.739   0.388  15.187  0.0478  1.1169 -0.2751
  888MPD2    C213069   1.703   0.524  15.196  0.0025 -0.0687  0.2349
  888MPD2    C313070   1.749   0.609  15.094  0.6533 -0.0035 -0.4509
  888MPD2    C413071   1.808   0.546  14.980  1.1287 -0.6909 -0.0602
  888MPD2    C513072   1.836   0.415  14.970 -0.7389 -0.3730  0.9177
  888MPD2     H13073   1.645   0.553  15.282 -0.7010  0.9519 -0.5913
  888MPD2    H113074   1.848   0.598  14.894  1.5108  0.3355  0.7400
  888MPD2    H213075   1.800   0.226  15.065 -0.5730 -0.4421  1.1706
  888MPD2    H313076   1.873   0.366  14.881  0.2237 -1.6712  2.0233
  888MPD2     N13077   1.714   0.745  15.098  1.2869  0.3337 -0.2337
  888MPD2    H513078   1.673   0.774  15.186 -0.0117  1.7352 -1.3091
  888MPD2    N113079   1.692   0.285  15.270  0.1564  0.4677 -0.3300
  888MPD2    H713080   1.700   0.192  15.230  2.0464 -0.5325  2.3876
  889MPD2     C13081   0.550   4.728  12.497  0.0136  0.2193  0.2525
  889MPD2    C113082   0.633   4.692  12.606 -0.2910 -0.0044 -0.0380
  889MPD2    C213083   0.655   0.048  12.701  0.5244  0.0758 -0.9529
  889MPD2    C313084   0.642   0.183  12.668  0.4040 -0.7836  0.1335
  889MPD2    C413085   0.583   0.219  12.544 -0.7254  0.0608  0.2329
  889MPD2    C513086   0.528   0.119  12.467  0.3054  0.1519 -0.0944
  889MPD2     H13087   0.712   0.010  12.785  2.3271  2.1444 -1.2197
  889MPD2    H113088   0.562   0.321  12.516 -0.2474  0.7397  2.3190
  889MPD2    H213089   0.514   4.650  12.431  0.3082 -1.0887  1.6486
  889MPD2    H313090   0.468   0.144  12.381 -0.0594  0.8769  0.3671
  889MPD2     N13091   0.700   0.273  12.761 -0.7957 -0.6886  0.0214
  889MPD2    H513092   0.745   0.232  12.842  1.5060  1.3902 -0.2112
  889MPD2    N113093   0.657   4.554  12.657 -0.5606  0.1111  0.3056
  889MPD2    H713094   0.679   4.553  12.756 -2.4336  1.7832  0.7520
  890MPD2     C13095   0.643   1.452  14.295 -0.3132 -0.7530  0.6209
  890MPD2    C113096   0.697   1.510  14.410  0.1668 -0.0556  0.2090
  890MPD2    C213097   0.647   1.460  14.529  0.0294  0.8280  0.4584
  890MPD2    C313098   0.554   1.363  14.538  0.7915  0.7685  0.2280
  890MPD2    C413099   0.497   1.305  14.424  0.7791  0.0247  0.2978
  890MPD2    C513100   0.546   1.352  14.304 -0.3169 -0.1187  0.3474
  890MPD2     H13101   0.676   1.502  14.624 -0.0033 -1.0157  1.2962
  890MPD2    H113102   0.419   1.231  14.427  0.5505  0.2137 -1.4832
  890MPD2    H213103   0.680   1.483  14.198 -2.5522 -1.6286 -0.4885
  890MPD2    H313104   0.495   1.310  14.218 -0.6512 -1.5717  1.2530
  890MPD2     N13105   0.515   1.325  14.666  0.4289 -0.4499 -0.1833
  890MPD2    H513106   0.564   1.367  14.744 -2.6874  0.7448  1.1090
  890MPD2    N113107   0.783   1.624  14.406  0.2440  0.6062  0.2291
  890MPD2    H713108   0.783   1.672  14.316 -0.7145 -1.5732 -0.9338
  891MPD2     C13109   3.199   0.053  16.447  0.1245 -0.0774  0.8332
  891MPD2    C113110   3.235   0.183  16.399 -0.5280  0.0815  0.5863
  891MPD2    C213111   3.358   0.232  16.436  0.5970  0.1138 -0.4334
  891MPD2    C313112   3.448   0.164  16.523  0.0235 -0.1080 -0.3076
  891MPD2    C413113   3.412   0.037  16.558 -0.0911  0.2793  0.0655
  891MPD2    C513114   3.288   4.728  16.523 -0.3973  0.5628  0.9709
  891MPD2     H13115   3.386   0.323  16.385 -2.7780  0.4785 -1.6434
  891MPD2    H113116   3.480   4.717  16.616  2.0329  0.6720 -2.0039
  891MPD2    H213117   3.104   0.001  16.450 -1.2564  2.4230  0.1391
  891MPD2    H313118   3.256   4.646  16.586  1.7485  1.6380  3.4256
  891MPD2     N13119   3.581   0.216  16.557  0.0157 -0.4379 -0.3854
  891MPD2    H513120   3.602   0.306  16.515  0.2553 -0.8807 -1.2032
  891MPD2    N113121   3.144   0.260  16.321 -0.2061  0.0697 -0.1128
  891MPD2    H713122   3.051   0.221  16.309 -0.6340  1.4509 -1.2774
  892MPD2     C13123   4.486   1.408  14.699  0.2923 -0.1419  0.5721
  892MPD2    C113124   4.381   1.340  14.658 -0.4752 -0.2659 -0.6120
  892MPD2    C213125   4.404   1.246  14.568  0.2754 -0.4220  0.0043
  892MPD2    C313126   4.523   1.209  14.522  0.2451  0.7042  0.1810
  892MPD2    C413127   4.634   1.280  14.561 -0.1712 -0.2181 -0.6198
  892MPD2    C513128   4.612   1.379  14.649 -0.2665 -0.3198 -0.0798
  892MPD2     H13129   4.316   1.198  14.526  1.0055 -2.5296  0.8830
  892MPD2    H113130   4.729   1.258  14.513 -0.3620 -0.3811 -0.9256
  892MPD2    H213131   4.470   1.484  14.775 -0.6872 -0.9057  1.1249
  892MPD2    H313132   4.699   1.430  14.687 -0.1107 -0.2902 -0.4754
  892MPD2     N13133   4.542   1.122  14.411  0.5142  0.2957  0.1375
  892MPD2    H513134   4.636   1.118  14.373  0.5037  1.2199  0.0234
  892MPD2    N113135   4.251   1.353  14.706 -0.1496 -0.0505 -0.0040
  892MPD2    H713136   4.178   1.330  14.640  0.0954 -0.1247 -0.2529
  893MPD2     C13137   1.067   0.214   0.782  0.9336  0.5126 -0.5007
  893MPD2    C113138   1.070   0.349   0.788  0.4072  0.3014 -0.4652
  893MPD2    C213139   0.952   0.409   0.838 -0.1257  0.6097 -0.6629
  893MPD2    C313140   0.852   0.334   0.894  0.7710 -0.4290  0.4101
  893MPD2    C413141   0.860   0.199   0.898  0.4191  0.1924  0.3507
  893MPD2    C513142   0.963   0.140   0.832 -0.0337 -0.2231 -0.5224
  893MPD2     H13143   0.948   0.517   0.845 -0.9785  0.3487  2.8048
  893MPD2    H113144   0.780   0.142   0.943 -0.0478  1.5754  1.2803
  893MPD2    H213145   1.142   0.161   0.725 -0.5766 -1.3906 -0.7352
  893MPD2    H313146   0.960   0.032   0.830  1.7772 -0.2456 -2.0142
  893MPD2     N13147   0.737   0.393   0.949 -0.7826  0.2812 -0.8321
  893MPD2    H513148   0.692   0.326   1.012  2.5311 -1.0663  0.1521
  893MPD2    N113149   1.181   0.414   0.742  0.6915 -0.3709  0.0246
  893MPD2    H713150   1.248   0.348   0.704  0.2604 -0.3054 -0.8512
  894MPD2     C13151   0.053   2.813   1.400  0.2115 -0.0865 -0.9705
  894MPD2    C113152   4.722   2.931   1.392  0.3024  1.1346  0.1494
  894MPD2    C213153   0.045   3.051   1.419 -0.0962 -0.4805 -0.0511
  894MPD2    C313154   0.179   3.056   1.461 -0.2580 -0.5337  0.4675
  894MPD2    C413155   0.249   2.938   1.480  0.4238  0.2605  0.0527
  894MPD2    C513156   0.180   2.819   1.453  0.6371  0.2202 -0.3251
  894MPD2     H13157   4.737   3.146   1.403 -2.2231 -2.0066 -2.5841
  894MPD2    H113158   0.347   2.934   1.526 -0.7835  1.2866  2.7151
  894MPD2    H213159   0.009   2.718   1.374 -0.8946 -0.5054  2.4095
  894MPD2    H313160   0.226   2.720   1.452  2.8058  1.2511 -2.0781
  894MPD2     N13161   0.234   3.186   1.472 -0.3958 -0.0721 -0.4642
  894MPD2    H513162   0.164   3.259   1.474 -0.6025 -0.2610 -0.9301
  894MPD2    N113163   4.593   2.934   1.342  0.1125 -0.2827 -0.2040
  894MPD2    H713164   4.548   3.024   1.328 -1.2768 -0.8887  0.3131
  895MPD2     C13165   3.968   0.316  13.568  0.6558 -0.1648 -0.5834
  895MPD2    C113166   3.913   0.367  13.450  0.0165 -0.3896  0.2750
  895MPD2    C213167   3.813   0.291  13.392 -0.0160 -0.3270 -0.3683
  895MPD2    C313168   3.770   0.169  13.436 -0.4589  0.0236 -0.1692
  895MPD2    C413169   3.835   0.117  13.543 -0.0192 -0.2736  0.0494
  895MPD2    C513170   3.923   0.190  13.613  0.0394 -0.2558 -0.0924
  895MPD2     H13171   3.774   0.334  13.300  1.4869  1.5402 -0.1296
  895MPD2    H113172   3.801   0.022  13.582 -1.2929  0.2135  0.1199
  895MPD2    H213173   4.050   0.366  13.618 -0.2622 -0.6075  1.3360
  895MPD2    H313174   3.969   0.146  13.701 -1.2480  1.5923  1.5143
  895MPD2     N13175   3.675   0.087  13.368  0.9426  0.6148  0.4859
  895MPD2    H513176   3.673   4.732  13.401 -0.8792  1.2590  2.2892
  895MPD2    N113177   3.943   0.497  13.396 -0.3000 -0.4126  0.3208
  895MPD2    H713178   3.901   0.530  13.310 -0.3591  0.6462  0.7527
  896MPD2     C13179   1.489   3.772   1.025 -0.4918 -0.1427  0.1189
  896MPD2    C113180   1.448   3.668   0.946  0.0603  0.7229  0.1898
  896MPD2    C213181   1.319   3.627   0.953  0.3101  0.0416 -0.6979
  896MPD2    C313182   1.229   3.678   1.050  0.1575  0.3661 -0.1370
  896MPD2    C413183   1.278   3.778   1.128  0.4536  0.2484 -0.5315
  896MPD2    C513184   1.406   3.827   1.121  0.7516 -0.1514  0.1379
  896MPD2     H13185   1.283   3.546   0.892 -1.1869 -0.2072  0.5227
  896MPD2    H113186   1.219   3.831   1.202  2.7491 -1.6354  2.6397
  896MPD2    H213187   1.587   3.817   1.018 -0.1784 -0.9778 -0.9007
  896MPD2    H313188   1.433   3.906   1.190  0.3789  0.7983 -0.8120
  896MPD2     N13189   1.094   3.622   1.057 -0.0798 -0.2472  0.0480
  896MPD2    H513190   1.071   3.552   0.987 -1.6303 -1.1613  1.4720
  896MPD2    N113191   1.542   3.607   0.859  0.0021 -0.4624  0.0046
  896MPD2    H713192   1.638   3.640   0.862 -1.1143  2.8579 -0.5350
  897MPD2     C13193   1.973   4.159  10.638  0.5038  0.7970 -0.3091
  897MPD2    C113194   1.981   4.296  10.603  0.3945 -0.7870 -0.2318
  897MPD2    C213195   1.898   4.386  10.672 -0.0986  0.5454  0.2233
  897MPD2    C313196   1.817   4.338  10.772 -1.0985 -0.3791  0.3084
  897MPD2    C413197   1.809   4.204  10.793 -0.1554  0.0133  0.3011
  897MPD2    C513198   1.890   4.113  10.732  0.0090 -0.4303 -1.1853
  897MPD2     H13199   1.907   4.494  10.674  0.0604  0.5029  1.6776
  897MPD2    H113200   1.749   4.152  10.868  2.6351 -0.7187  2.0273
  897MPD2    H213201   2.041   4.097  10.582  0.0442  0.5586 -0.6017
  897MPD2    H313202   1.886   4.007  10.752  0.3134 -0.1096  0.5998
  897MPD2     N13203   1.759   4.432  10.856  0.4139  0.4908 -0.1932
  897MPD2    H513204   1.783   4.525  10.825 -0.6074  1.2959  1.4413
  897MPD2    N113205   2.085   4.343  10.511  0.4339  0.4118 -0.0922
  897MPD2    H713206   2.165   4.283  10.493  0.3402  0.4407 -0.6163
  898MPD2     C13207   4.065   0.962   0.412  0.3434  0.6790  0.0725
  898MPD2    C113208   4.129   1.019   0.303  0.5836 -0.4812 -0.6574
  898MPD2    C213209   4.058   1.096   0.214 -0.0265  0.3199 -0.7598
  898MPD2    C313210   3.926   1.115   0.225  0.3991 -0.0611 -0.3031
  898MPD2    C413211   3.860   1.071   0.339  0.2914  0.1632 -0.2733
  898MPD2    C513212   3.926   0.985   0.420 -0.2234  0.2035  0.9107
  898MPD2     H13213   4.102   1.130   0.121  0.9658  2.6348  0.5474
  898MPD2    H113214   3.757   1.097   0.361 -0.6510 -2.5748 -1.5299
  898MPD2    H213215   4.112   0.912   0.496 -2.2944 -2.5483 -0.4049
  898MPD2    H313216   3.883   0.941   0.509 -2.1555  2.8528  1.3168
  898MPD2     N13217   3.862   1.192   0.121  0.5417  0.1749  0.3170
  898MPD2    H513218   3.923   1.219   0.044 -1.9525  1.2592 -1.2809
  898MPD2    N113219   4.269   1.012   0.286  0.6810 -0.3392 -0.1619
  898MPD2    H713220   4.307   1.064   0.208  1.3850 -1.2033 -0.3943
  899MPD2     C13221   0.846   1.839  17.630 -0.8198  0.5280 -0.1174
  899MPD2    C113222   0.787   1.956  17.648 -0.0006  0.0817  0.6548
  899MPD2    C213223   0.753   1.999   0.013 -0.2137  0.5996  0.7344
  899MPD2    C313224   0.779   1.919   0.120  0.9000  0.5138  0.8699
  899MPD2    C413225   0.846   1.797   0.100  0.0249 -0.0097 -0.4059
  899MPD2    C513226   0.877   1.752  17.733  0.1119  0.7013 -0.0567
  899MPD2     H13227   0.693   2.089   0.022 -0.0901  0.7178  0.3870
  899MPD2    H113228   0.866   1.726   0.180 -1.0835  0.1233 -0.0017
  899MPD2    H213229   0.864   1.796  17.533  0.7275  0.7826  0.0597
  899MPD2    H313230   0.930   1.661  17.707 -2.2741 -0.5635 -0.5386
  899MPD2     N13231   0.724   1.934   0.252  0.1833 -0.7709  0.0149
  899MPD2    H513232   0.721   1.859   0.321  0.0074 -1.0330 -0.2788
  899MPD2    N113233   0.760   2.034  17.526  0.2478 -0.1992  0.4943
  899MPD2    H713234   0.790   1.992  17.438 -1.3886  0.7767 -0.5312
  900MPD2     C13235   4.657   2.891  12.742 -0.1753 -0.4303  0.3559
  900MPD2    C113236   4.563   2.812  12.794 -0.9255  0.1149 -0.0745
  900MPD2    C213237   4.424   2.828  12.771  0.3552 -0.8830 -1.0456
  900MPD2    C313238   4.380   2.941  12.688 -0.4068  0.3547  0.2349
  900MPD2    C413239   4.483   3.019  12.634  0.3806  0.5229 -0.0985
  900MPD2    C513240   4.620   2.997  12.665  1.4438  0.5356  0.1657
  900MPD2     H13241   4.350   2.763  12.816  2.1094 -0.2070  2.7871
  900MPD2    H113242   4.457   3.105  12.573 -0.2058  1.5707  1.6405
  900MPD2    H213243   0.021   2.870  12.762  0.1674  0.4494 -0.4814
  900MPD2    H313244   4.694   3.054  12.610  2.1018  1.0911  1.6413
  900MPD2     N13245   4.249   2.945  12.650 -0.4941  1.1403  0.4287
  900MPD2    H513246   4.178   2.888  12.694 -0.4909 -0.5949 -1.8686
  900MPD2    N113247   4.612   2.695  12.860 -0.5968  0.3033 -0.0087
  900MPD2    H713248   4.710   2.681  12.840 -0.4999  0.1420  0.5636
  901MPD2     C13249   4.486   1.628  13.132 -0.1900 -0.0988 -0.2217
  901MPD2    C113250   4.610   1.652  13.070 -0.4745  0.8253 -0.3188
  901MPD2    C213251   4.635   1.784  13.034  0.5329  0.0992  0.3330
  901MPD2    C313252   4.547   1.885  13.055 -0.2393 -0.0165 -0.6928
  901MPD2    C413253   4.424   1.856  13.106 -0.3121 -0.3330 -0.7743
  901MPD2    C513254   4.393   1.730  13.145 -0.0700 -0.0065 -0.3406
  901MPD2     H13255   4.735   1.806  12.997  0.9387  0.1870  1.5046
  901MPD2    H113256   4.346   1.929  13.124 -0.2242 -0.5441  0.4326
  901MPD2    H213257   4.460   1.532  13.175 -0.4330  1.3919  2.9727
  901MPD2    H313258   4.292   1.713  13.180 -0.3851  1.6516 -0.4481
  901MPD2     N13259   4.594   2.008  13.011 -0.1743  0.3365  0.2960
  901MPD2    H513260   4.680   2.002  12.958 -0.4268 -0.6352 -0.0080
  901MPD2    N113261   4.706   1.544  13.059 -0.2300  0.1345 -0.0194
  901MPD2    H713262   4.680   1.448  13.081  4.3985 -0.6372  2.3214
  902MPD2     C13263   3.979   0.753  12.540 -0.2164  0.0038  0.7068
  902MPD2    C113264   4.020   0.840  12.448  0.2619  0.5791 -0.3877
  902MPD2    C213265   4.116   0.806  12.356  0.6428 -0.3612  0.2472
  902MPD2    C313266   4.173   0.679  12.361 -0.0760 -0.1767 -1.0547
  902MPD2    C413267   4.119   0.587  12.454 -0.0603  0.0443 -0.2169
  902MPD2    C513268   4.026   0.627  12.544  0.1469  0.8497  0.7584
  902MPD2     H13269   4.151   0.881  12.286 -0.8394 -0.6551 -0.8052
  902MPD2    H113270   4.155   0.485  12.461  0.2331  0.1629  0.0011
  902MPD2    H213271   3.905   0.779  12.615  1.0694 -2.3613  2.7460
  902MPD2    H313272   4.000   0.559  12.623  0.9010  0.3869  0.6077
  902MPD2     N13273   4.270   0.633  12.276  0.2040  0.1057  0.1909
  902MPD2    H513274   4.261   0.534  12.254 -1.2799  0.4876 -0.9222
  902MPD2    N113275   3.958   0.968  12.451 -0.1701 -0.0026 -0.0417
  902MPD2    H713276   3.910   0.995  12.537 -1.9190 -0.9286 -0.7161
  903MPD2     C13277   3.974   0.652  11.520  0.5567  0.0415  0.1905
  903MPD2    C113278   3.993   0.708  11.641 -0.4036  0.3925 -0.4009
  903MPD2    C213279   3.888   0.765  11.708  0.6909  0.2170 -1.0397
  903MPD2    C313280   3.762   0.777  11.642 -0.4526 -0.0538 -0.3876
  903MPD2    C413281   3.739   0.704  11.524  0.4670 -0.0614 -0.0035
  903MPD2    C513282   3.845   0.649  11.463  0.3037  0.6011  0.4012
  903MPD2     H13283   3.909   0.801  11.808 -2.2350  0.9503 -0.6873
  903MPD2    H113284   3.637   0.687  11.492  0.0314  0.7573  0.9193
  903MPD2    H213285   4.055   0.596  11.474 -1.2759 -2.2951 -0.1958
  903MPD2    H313286   3.823   0.600  11.369  0.5098  1.5989 -0.1686
  903MPD2     N13287   3.653   0.835  11.712  0.3922  0.0261  0.0910
  903MPD2    H513288   3.665   0.863  11.809 -1.6023  0.3082  0.2680
  903MPD2    N113289   4.132   0.701  11.687  0.2114 -0.0196 -0.3801
  903MPD2    H713290   4.192   0.639  11.634  1.8228  0.8538  0.4441
  904MPD2     C13291   3.343   4.172  13.829 -0.2142  0.3310  0.2433
  904MPD2    C113292   3.380   4.300  13.859 -0.0164 -0.0376  0.2152
  904MPD2    C213293   3.502   4.326  13.921  0.3042 -0.5481 -0.7036
  904MPD2    C313294   3.581   4.223  13.956  0.1096  0.4652 -0.2023
  904MPD2    C413295   3.548   4.093  13.914  0.5696  0.0697  0.3605
  904MPD2    C513296   3.433   4.063  13.844  0.4921 -0.9295 -0.4688
  904MPD2     H13297   3.532   4.426  13.948 -0.3479  0.0265 -2.1294
  904MPD2    H113298   3.614   4.012  13.942  0.6888 -0.8558 -2.6135
  904MPD2    H213299   3.246   4.148  13.786 -0.5092 -0.4699  1.3334
  904MPD2    H313300   3.396   3.962  13.830  0.3251 -0.8217 -0.8377
  904MPD2     N13301   3.708   4.242  14.025  0.7772  0.1387 -0.4308
  904MPD2    H513302   3.738   4.338  14.036 -0.2556  0.3206  0.7754
  904MPD2    N113303   3.311   4.415  13.824 -0.5744 -0.3131  0.3099
  904MPD2    H713304   3.368   4.496  13.845  0.5114 -1.8846  3.3441
  905MPD2     C13305   2.859   4.504  13.207 -0.0303 -0.3501  0.6351
  905MPD2    C113306   2.949   4.592  13.256  0.0308  0.1014  0.0010
  905MPD2    C213307   3.032   4.655  13.169  0.4755  0.4387  0.0918
  905MPD2    C313308   3.027   4.637  13.039  0.5627  0.9329  0.1582
  905MPD2    C413309   2.926   4.561  12.988  0.6878  0.1720 -0.7567
  905MPD2    C513310   2.839   4.501  13.071  0.0661  0.2659 -0.7341
  905MPD2     H13311   3.090   4.739  13.206  0.1921  0.4546  0.5046
  905MPD2    H113312   2.912   4.546  12.882  1.7863  1.9428 -1.1604
  905MPD2    H213313   2.792   4.451  13.273 -0.3814 -0.8234 -0.1020
  905MPD2    H313314   2.757   4.446  13.028  0.2811 -0.7652  0.1698
  905MPD2     N13315   3.122   4.689  12.951 -0.4048 -0.1368 -0.3699
  905MPD2    H513316   3.089   4.672  12.856  0.0691 -1.4351 -0.3035
  905MPD2    N113317   2.945   4.606  13.397  0.0325 -0.3474 -0.4212
  905MPD2    H713318   2.896   4.536  13.452 -0.1601 -0.3015 -0.5319
  906MPD2     C13319   0.460   4.479  11.395 -0.3598 -0.0391  0.3788
  906MPD2    C113320   0.521   4.436  11.279  1.2390 -0.4076 -0.1768
  906MPD2    C213321   0.515   4.300  11.260  0.5053 -0.1821  0.2478
  906MPD2    C313322   0.475   4.214  11.361  0.4355 -1.1308 -0.5730
  906MPD2    C413323   0.425   4.260  11.481  0.0241 -0.0956  0.3868
  906MPD2    C513324   0.413   4.394  11.489  0.1096 -0.3537 -0.4047
  906MPD2     H13325   0.540   4.253  11.165 -1.4517  1.5705 -1.1223
  906MPD2    H113326   0.396   4.195  11.564  1.5263  1.0062  1.7695
  906MPD2    H213327   0.447   4.582  11.425 -0.0514 -0.0790  0.6561
  906MPD2    H313328   0.374   4.430  11.583  1.2275  0.5100 -0.2790
  906MPD2     N13329   0.462   4.071  11.348  0.6696 -0.2183  0.3726
  906MPD2    H513330   0.411   4.021  11.421 -0.5249 -0.0889 -0.3619
  906MPD2    N113331   0.559   4.519  11.172 -0.4948  0.3421 -0.0403
  906MPD2    H713332   0.572   4.482  11.079  0.8856 -0.7375  0.5899
  907MPD2     C13333   4.321   3.950  15.458  0.3244 -0.0255 -0.9581
  907MPD2    C113334   4.354   3.813  15.462  0.0758 -0.3746 -0.0724
  907MPD2    C213335   4.409   3.760  15.579  0.0469  0.0809 -0.0937
  907MPD2    C313336   4.418   3.831  15.696  0.3158 -0.3245 -0.6992
  907MPD2    C413337   4.376   3.963  15.687  0.9448  0.8600  0.3678
  907MPD2    C513338   4.329   4.019  15.574  0.9070  0.3275 -0.6038
  907MPD2     H13339   4.443   3.657  15.575 -0.5885  0.0541 -4.6926
  907MPD2    H113340   4.390   4.036  15.766  2.0605  0.6490  0.3675
  907MPD2    H213341   4.283   3.999  15.369  0.3978  2.1011  0.1835
  907MPD2    H313342   4.300   4.123  15.573  0.6201  0.2594  0.6678
  907MPD2     N13343   4.477   3.772  15.808  0.0090  0.4617  0.6905
  907MPD2    H513344   4.511   3.677  15.796 -0.1605  0.2666  1.7519
  907MPD2    N113345   4.329   3.720  15.361 -0.4427  0.0451 -0.3914
  907MPD2    H713346   4.366   3.627  15.379  0.3297  0.5363  0.5633
  908MPD2     C13347   2.551   3.899   9.934  0.4240  0.1064  0.3411
  908MPD2    C113348   2.413   3.883   9.957  0.1451  0.1401  0.8768
  908MPD2    C213349   2.346   4.005   9.996 -0.0275 -0.4236 -0.0146
  908MPD2    C313350   2.423   4.121  10.016  0.3797 -0.3138  0.4681
  908MPD2    C413351   2.560   4.124   9.996 -0.5971  0.3126 -0.0920
  908MPD2    C513352   2.622   4.015   9.952  0.2786  0.5009 -0.0634
  908MPD2     H13353   2.239   4.008  10.008 -0.1414 -1.9430 -0.6200
  908MPD2    H113354   2.632   4.203  10.015 -0.2720 -0.8313  3.3872
  908MPD2    H213355   2.609   3.816   9.894 -1.6909 -0.5667 -1.3257
  908MPD2    H313356   2.728   4.016   9.929  0.2789  2.2076  0.0481
  908MPD2     N13357   2.358   4.240  10.054 -0.2624 -0.1409  0.2061
  908MPD2    H513358   2.259   4.235  10.077 -0.5467 -0.0136 -1.0214
  908MPD2    N113359   2.351   3.762   9.920  0.5452  0.3499 -0.1248
  908MPD2    H713360   2.405   3.686   9.882  1.0221 -0.2021  1.6716
  909MPD2     C13361   2.310   2.504  11.807 -0.2635 -0.6176  0.5097
  909MPD2    C113362   2.280   2.624  11.758 -0.1242 -0.1413  0.3039
  909MPD2    C213363   2.221   2.719  11.836  0.6800  0.5371 -0.5172
  909MPD2    C313364   2.186   2.705  11.970  0.0731  0.2707  0.1848
  909MPD2    C413365   2.225   2.581  12.025  0.4031  0.2356  0.4914
  909MPD2    C513366   2.281   2.486  11.941  0.1533  0.1125 -0.8688
  909MPD2     H13367   2.195   2.813  11.790  3.2903  0.2113 -2.6452
  909MPD2    H113368   2.204   2.542  12.124  0.5035  2.4719  1.4092
  909MPD2    H213369   2.358   2.419  11.759 -0.0943 -0.1529 -0.1406
  909MPD2    H313370   2.319   2.400  11.996 -2.7359  0.0058  0.9628
  909MPD2     N13371   2.136   2.808  12.049  0.4497  0.1535 -0.0051
  909MPD2    H513372   2.115   2.895  12.001 -1.8955 -0.6561 -0.4125
  909MPD2    N113373   2.303   2.662  11.625  0.2324 -0.0301 -0.2195
  909MPD2    H713374   2.299   2.758  11.591  0.1077 -0.1831 -0.6307
  910MPD2     C13375   3.584   4.375  16.205  0.3162 -0.6259  0.1291
  910MPD2    C113376   3.693   4.374  16.126  0.3503 -0.1031  0.1201
  910MPD2    C213377   3.681   4.430  15.997 -0.9267 -0.6535  0.0257
  910MPD2    C313378   3.554   4.484  15.955 -0.3561 -0.2790 -0.4894
  910MPD2    C413379   3.450   4.485  16.041 -0.3388  0.3197 -0.2876
  910MPD2    C513380   3.465   4.428  16.167  0.3171 -0.0570  0.2037
  910MPD2     H13381   3.768   4.413  15.935  0.7470 -1.2156  2.5014
  910MPD2    H113382   3.354   4.529  16.017 -1.1696 -1.3500 -0.0478
  910MPD2    H213383   3.594   4.339  16.307  2.0206  0.1428  0.2389
  910MPD2    H313384   3.386   4.435  16.241 -1.0130 -1.5546 -1.0878
  910MPD2     N13385   3.539   4.535  15.826 -0.1422 -0.1349 -0.0620
  910MPD2    H513386   3.445   4.568  15.803 -0.0344  1.1309  1.3305
  910MPD2    N113387   3.812   4.309  16.159 -0.3822 -0.1000  0.4470
  910MPD2    H713388   3.890   4.310  16.095 -0.7040  0.1571  0.0639
  911MPD2     C13389   2.100   0.362  16.341  0.3079 -0.4399  0.2192
  911MPD2    C113390   2.028   0.283  16.254 -0.0818 -0.4634 -0.8455
  911MPD2    C213391   1.927   0.346  16.187  0.4520  0.8442  0.0494
  911MPD2    C313392   1.895   0.478  16.213  0.7280 -0.3267  0.5147
  911MPD2    C413393   1.972   0.554  16.297 -0.4152 -0.4884  0.4706
  911MPD2    C513394   2.081   0.498  16.358 -0.4193  0.3121 -0.0210
  911MPD2     H13395   1.864   0.288  16.121  0.8527  0.8678 -0.3545
  911MPD2    H113396   1.947   0.657  16.321  1.2746 -0.0533  0.3787
  911MPD2    H213397   2.193   0.325  16.382  1.2306  1.4309 -0.1567
  911MPD2    H313398   2.151   0.552  16.419 -1.3505  0.3899  0.9788
  911MPD2     N13399   1.784   0.532  16.155 -0.0807  0.2127  0.2515
  911MPD2    H513400   1.735   0.472  16.089 -0.9687 -0.6329  1.7035
  911MPD2    N113401   2.052   0.141  16.250  0.0809  0.0439 -0.2368
  911MPD2    H713402   2.130   0.110  16.307 -0.1523 -1.1318 -0.5710
  912MPD2     C13403   1.319   0.292  15.685  0.8710  0.3878 -0.4056
  912MPD2    C113404   1.345   0.294  15.818  0.2280  0.6102  0.1309
  912MPD2    C213405   1.335   0.176  15.890  0.1379 -0.1652 -0.1930
  912MPD2    C313406   1.313   0.059  15.830 -0.1873 -0.2217  0.0390
  912MPD2    C413407   1.274   0.060  15.696 -0.2666  0.3675  0.0457
  912MPD2    C513408   1.281   0.178  15.621  0.2421 -0.2753  0.5171
  912MPD2     H13409   1.369   0.175  15.993  1.1374  0.1996 -0.5124
  912MPD2    H113410   1.233   4.714  15.645  2.2765 -0.3039 -0.8472
  912MPD2    H213411   1.318   0.386  15.632 -1.9793  1.5015  1.6143
  912MPD2    H313412   1.274   0.180  15.513  0.4626 -0.7125  0.4960
  912MPD2     N13413   1.332   4.682  15.908 -0.5137  0.4955 -0.1203
  912MPD2    H513414   1.362   4.687  16.005 -4.1239 -0.8409  1.0434
  912MPD2    N113415   1.365   0.419  15.878  0.1847  0.9774  0.4875
  912MPD2    H713416   1.386   0.495  15.814 -1.0196  0.1222 -0.9168
  913MPD2     C13417   1.569   1.319  10.467 -0.2171 -0.7292  0.5914
  913MPD2    C113418   1.613   1.405  10.564  1.0202 -0.5150  0.2655
  913MPD2    C213419   1.557   1.535  10.566 -0.3851 -0.9930 -0.0145
  913MPD2    C313420   1.468   1.580  10.473 -0.1189 -1.0426  0.2763
  913MPD2    C413421   1.419   1.496  10.377  0.3122 -0.8536 -0.6900
  913MPD2    C513422   1.480   1.368  10.374  0.2783 -0.0987  0.3991
  913MPD2     H13423   1.576   1.606  10.646 -0.4637 -0.7715 -0.1948
  913MPD2    H113424   1.355   1.524  10.294  0.6956  0.1208 -0.6605
  913MPD2    H213425   1.602   1.216  10.456  0.5092 -0.1760 -2.3300
  913MPD2    H313426   1.449   1.294  10.301  0.1117 -0.0740  0.4451
  913MPD2     N13427   1.401   1.708  10.480  0.3374 -0.0605  0.3706
  913MPD2    H513428   1.326   1.726  10.413  0.5103  1.1957  0.5109
  913MPD2    N113429   1.704   1.354  10.657 -0.4182 -0.2799 -0.5863
  913MPD2    H713430   1.726   1.255  10.643 -2.5043 -0.8684  0.2628
  914MPD2     C13431   0.133   1.592  12.220 -0.6168  0.1377  0.0324
  914MPD2    C113432   0.112   1.671  12.329 -0.8751  0.3089  0.2743
  914MPD2    C213433   0.118   1.613  12.457 -0.2059 -0.2864 -0.3008
  914MPD2    C313434   0.148   1.480  12.470 -0.0936 -0.3664 -0.0676
  914MPD2    C413435   0.152   1.398  12.360  0.4164  0.4221 -0.5045
  914MPD2    C513436   0.145   1.453  12.234  0.4201 -0.0010  0.8191
  914MPD2     H13437   0.088   1.656  12.552 -0.4382 -0.3974 -0.3239
  914MPD2    H113438   0.172   1.292  12.366  1.5978  0.6988  0.4540
  914MPD2    H213439   0.149   1.634  12.121 -1.5028  0.0942 -0.1348
  914MPD2    H313440   0.153   1.392  12.144 -1.6664 -0.7279  1.1365
  914MPD2     N13441   0.153   1.435  12.600  0.1948  0.3155  0.0095
  914MPD2    H513442   0.124   1.501  12.672  1.0429  1.4674 -0.7021
  914MPD2    N113443   0.086   1.807  12.306  0.1745  0.4095  0.0415
  914MPD2    H713444   0.069   1.844  12.213 -2.1615 -2.1500 -0.5603
  915MPD2     C13445   2.170   1.223  15.589  1.2704  0.2327  0.0396
  915MPD2    C113446   2.109   1.348  15.626  0.4553 -0.2918 -0.6604
  915MPD2    C213447   2.160   1.428  15.730  0.1755  0.2070  0.2857
  915MPD2    C313448   2.252   1.372  15.815 -0.0053 -0.6102 -0.3323
  915MPD2    C413449   2.313   1.255  15.786  0.3754  0.1243 -0.3623
  915MPD2    C513450   2.272   1.184  15.675 -0.1880  0.1933  0.0799
  915MPD2     H13451   2.131   1.530  15.751 -0.6186  0.2828 -1.1721
  915MPD2    H113452   2.383   1.208  15.854  0.1814 -0.8889 -0.8658
  915MPD2    H213453   2.135   1.168  15.503 -2.8931  1.4243  0.9375
  915MPD2    H313454   2.304   1.082  15.656 -1.2165 -0.2705  0.8256
  915MPD2     N13455   2.288   1.451  15.923  0.0541 -0.0863  0.0970
  915MPD2    H513456   2.242   1.542  15.926  3.5120  1.6398  1.2847
  915MPD2    N113457   2.011   1.410  15.547  0.3155 -0.3162 -0.2533
  915MPD2    H713458   1.989   1.502  15.582  1.3695 -0.0329 -0.3207
  916MPD2     C13459   0.910   0.124  15.810  0.2785  0.3414 -0.4638
  916MPD2    C113460   0.880   0.005  15.859 -0.4194 -0.4107 -0.8393
  916MPD2    C213461   0.907   4.637  15.781  0.3390 -0.7532 -0.5521
  916MPD2    C313462   0.948   4.647  15.648  0.0333 -0.1994  0.0307
  916MPD2    C413463   0.962   0.034  15.591  1.2184 -0.0679 -0.2907
  916MPD2    C513464   0.942   0.138  15.678 -0.1546 -0.6725  0.7132
  916MPD2     H13465   0.883   4.538  15.819  0.1855 -0.2792  0.5850
  916MPD2    H113466   0.992   0.054  15.489 -0.9769 -0.1326 -0.9509
  916MPD2    H213467   0.906   0.209  15.878 -1.7583 -0.1161 -0.0113
  916MPD2    H313468   0.959   0.240  15.645 -0.1284 -1.2522 -1.0907
  916MPD2     N13469   0.984   4.525  15.588 -0.2124 -0.0297  0.0067
  916MPD2    H513470   0.978   4.434  15.633  2.0698  0.2753  0.9259
  916MPD2    N113471   0.838   0.002  15.995  0.4700 -0.6640 -0.7556
  916MPD2    H713472   0.820   0.093  16.036 -0.5772 -0.4466 -1.7068
  917MPD2     C13473   1.204   2.069  12.319  0.4561  0.7225 -0.3717
  917MPD2    C113474   1.102   2.038  12.231 -0.0934  0.4621  0.1182
  917MPD2    C213475   1.113   2.102  12.105 -0.5242  0.2130  0.0680
  917MPD2    C313476   1.199   2.208  12.080 -0.0525  1.1753 -0.2161
  917MPD2    C413477   1.273   2.249  12.188  0.5137  0.0033  0.4175
  917MPD2    C513478   1.282   2.178  12.297 -0.4877 -0.4822  0.0853
  917MPD2     H13479   1.047   2.069  12.026  0.0420  3.1851 -1.6564
  917MPD2    H113480   1.344   2.329  12.172  0.9483 -0.5142 -0.2922
  917MPD2    H213481   1.222   2.004  12.404  1.2170  0.4783 -0.7181
  917MPD2    H313482   1.359   2.192  12.371  0.3983 -3.3026 -0.3012
  917MPD2     N13483   1.199   2.290  11.962 -0.0434 -0.5263 -0.0886
  917MPD2    H513484   1.264   2.368  11.961  1.6167 -1.8784  2.3273
  917MPD2    N113485   1.015   1.938  12.272 -0.0171 -0.8845 -0.9281
  917MPD2    H713486   1.056   1.874  12.340  0.4137 -1.8315 -2.0853
  918MPD2     C13487   1.016   2.770  12.133  0.0699  0.4061  0.3998
  918MPD2    C113488   1.080   2.667  12.203 -0.0615 -0.3245 -0.4504
  918MPD2    C213489   1.033   2.541  12.188  0.1318  0.5545 -0.0608
  918MPD2    C313490   0.928   2.507  12.106  0.4267  0.8847 -0.4446
  918MPD2    C413491   0.866   2.605  12.042 -0.3696  0.8859  0.5459
  918MPD2    C513492   0.910   2.734  12.060  0.1459 -0.3358 -0.2173
  918MPD2     H13493   1.080   2.458  12.240  0.2489  1.9640  2.0608
  918MPD2    H113494   0.773   2.589  11.989  0.6058  0.4915 -1.0418
  918MPD2    H213495   1.032   2.877  12.139 -3.0089  0.7188  2.6702
  918MPD2    H313496   0.852   2.809  12.007  1.4363  0.5768 -0.3385
  918MPD2     N13497   0.887   2.371  12.091 -0.3000  0.2115 -0.5834
  918MPD2    H513498   0.931   2.309  12.158 -1.4924  0.5810  0.5597
  918MPD2    N113499   1.190   2.690  12.288 -0.5655  0.1982 -0.2127
  918MPD2    H713500   1.241   2.611  12.326  2.3226  0.8410 -2.7262
  919MPD2     C13501   1.744   1.390  11.628  0.0673  0.5325 -0.0465
  919MPD2    C113502   1.721   1.273  11.570  0.1444 -0.3175  0.2590
  919MPD2    C213503   1.662   1.277  11.444 -0.5641 -0.3767 -0.1126
  919MPD2    C313504   1.639   1.392  11.379  0.2831  0.5878 -0.3933
  919MPD2    C413505   1.656   1.516  11.436  0.1964  0.1720  0.4965
  919MPD2    C513506   1.705   1.510  11.565 -0.5507  0.1974 -0.0437
  919MPD2     H13507   1.621   1.188  11.399  1.4339 -1.5180  0.3254
  919MPD2    H113508   1.636   1.611  11.388  2.4652  0.4691  0.1534
  919MPD2    H213509   1.771   1.393  11.733 -1.2516 -1.0132  0.3333
  919MPD2    H313510   1.722   1.605  11.615 -1.3581 -0.0008  0.6013
  919MPD2     N13511   1.586   1.393  11.251  0.5341  0.1340  0.1430
  919MPD2    H513512   1.576   1.486  11.211 -0.3970 -1.0682 -2.4686
  919MPD2    N113513   1.745   1.142  11.624 -1.0533  0.4534  0.4696
  919MPD2    H713514   1.738   1.062  11.562 -1.7981  0.5368  0.4377
  920MPD2     C13515   0.860   1.771  10.694 -0.8269  0.0658  0.5852
  920MPD2    C113516   0.926   1.721  10.584  0.1719 -0.3553  0.1032
  920MPD2    C213517   1.053   1.665  10.615  0.5485 -0.1544 -0.2959
  920MPD2    C313518   1.101   1.656  10.743  0.2173  0.0687  0.0757
  920MPD2    C413519   1.035   1.710  10.846 -0.5943  0.2883  0.3504
  920MPD2    C513520   0.913   1.768  10.820 -0.7080  0.8783 -0.8361
  920MPD2     H13521   1.107   1.616  10.534 -0.8368 -1.4903 -0.4036
  920MPD2    H113522   1.073   1.703  10.947  1.2101 -0.1320 -0.3656
  920MPD2    H213523   0.758   1.806  10.690 -0.4436  1.1363  0.0833
  920MPD2    H313524   0.855   1.796  10.907  0.5241 -1.4870  0.7459
  920MPD2     N13525   1.214   1.577  10.765  0.2293 -0.4476 -0.4689
  920MPD2    H513526   1.247   1.528  10.682  0.9172  0.2571 -0.6235
  920MPD2    N113527   0.872   1.715  10.455  0.4026  0.4571  0.0485
  920MPD2    H713528   0.925   1.686  10.373 -1.3404 -1.4553 -0.4104
  921MPD2     C13529   2.495   0.346  16.541  0.3251  0.5068  0.5275
  921MPD2    C113530   2.534   0.282  16.429  0.3487 -0.1785  0.7220
  921MPD2    C213531   2.469   0.167  16.388  0.3175  0.0190 -0.0269
  921MPD2    C313532   2.365   0.118  16.469 -0.0885  0.1297 -0.8378
  921MPD2    C413533   2.326   0.183  16.580  0.3953 -0.0791  0.3947
  921MPD2    C513534   2.389   0.301  16.614 -0.5540  0.4536 -0.1191
  921MPD2     H13535   2.513   0.107  16.310 -1.4968 -0.6619 -0.5153
  921MPD2    H113536   2.236   0.159  16.636  0.0426 -2.9383 -1.3662
  921MPD2    H213537   2.544   0.440  16.567  1.2161 -0.1954  1.4010
  921MPD2    H313538   2.343   0.370  16.684 -1.6256  0.6044 -0.9774
  921MPD2     N13539   2.293   4.734  16.436  0.0032  0.1757  0.5532
  921MPD2    H513540   2.217   4.707  16.498 -1.1677  0.8156 -0.6263
  921MPD2    N113541   2.654   0.325  16.361  0.2373  0.4482  0.1063
  921MPD2    H713542   2.716   0.394  16.402  1.6451 -0.3611 -0.6488
  922MPD2     C13543   3.423   3.356   0.109  0.3506  0.7795  0.6418
  922MPD2    C113544   3.340   3.452   0.056  0.4988  0.3795 -0.4155
  922MPD2    C213545   3.285   3.431  17.694  0.4586  0.2737 -0.0848
  922MPD2    C313546   3.310   3.313  17.630  0.2756  0.3176 -0.4811
  922MPD2    C413547   3.392   3.212  17.685  0.1525 -0.3039  0.3351
  922MPD2    C513548   3.441   3.237   0.051 -0.5201 -0.0834  0.8494
  922MPD2     H13549   3.217   3.507  17.657 -0.3725 -0.3407  0.1638
  922MPD2    H113550   3.430   3.131  17.624  3.1221  0.6059  0.9415
  922MPD2    H213551   3.460   3.366   0.210 -1.9142  2.9804  1.2838
  922MPD2    H313552   3.507   3.161   0.091  2.3651  1.0881 -1.6670
  922MPD2     N13553   3.245   3.298  17.499 -0.1054 -0.3941  0.3296
  922MPD2    H513554   3.190   3.378  17.470 -0.4960 -0.4386  0.9534
  922MPD2    N113555   3.302   3.568   0.127 -0.5580 -0.1500 -0.1657
  922MPD2    H713556   3.234   3.627   0.081 -0.0978  0.6062  0.1039
  923MPD2     C13557   4.049   0.560   9.135  0.4467  0.0529  0.3538
  923MPD2    C113558   3.963   0.589   9.238  0.4301  0.9555  0.1931
  923MPD2    C213559   4.019   0.632   9.357 -1.1656 -0.9687  0.0613
  923MPD2    C313560   4.160   0.630   9.374  0.3451 -0.3674  0.6873
  923MPD2    C413561   4.245   0.595   9.276 -0.6155  0.3115  0.0732
  923MPD2    C513562   4.192   0.561   9.155 -0.0225 -0.6079  0.3317
  923MPD2     H13563   3.953   0.668   9.435  0.3093 -1.2502  1.4371
  923MPD2    H113564   4.353   0.596   9.288 -0.4500 -0.4047 -1.3471
  923MPD2    H213565   4.005   0.523   9.043 -0.0720 -1.0627  1.0521
  923MPD2    H313566   4.264   0.547   9.076  0.3390 -1.4646  0.8157
  923MPD2     N13567   4.226   0.672   9.497  0.8909  0.3087  0.2231
  923MPD2    H513568   4.327   0.674   9.489  0.7197 -0.8424 -2.4397
  923MPD2    N113569   3.827   0.584   9.203 -0.4408 -0.1581  0.1865
  923MPD2    H713570   3.801   0.550   9.111  2.4732 -1.4833 -0.1402
  924MPD2     C13571   4.554   3.136  15.561  0.1565  0.3774 -0.1533
  924MPD2    C113572   4.479   3.142  15.678 -0.1491 -0.0761  0.5482
  924MPD2    C213573   4.531   3.220  15.782 -0.0081  0.6954  0.2800
  924MPD2    C313574   4.639   3.308  15.762 -0.8842  1.1165 -0.3681
  924MPD2    C413575   4.714   3.301  15.640  0.0322 -0.0563  0.1593
  924MPD2    C513576   4.672   3.204  15.550 -0.3818  0.3333  0.4621
  924MPD2     H13577   4.468   3.234  15.870 -0.7465  0.3465 -0.1907
  924MPD2    H113578   0.068   3.351  15.624 -0.0093  1.2696  4.0814
  924MPD2    H213579   4.513   3.089  15.473 -2.5266 -0.0550  1.3207
  924MPD2    H313580   4.725   3.194  15.456 -1.7755 -1.1101 -0.1617
  924MPD2     N13581   4.686   3.402  15.856 -0.4408  0.0476  0.4422
  924MPD2    H513582   0.011   3.472  15.826 -0.3464 -0.7771 -1.3045
  924MPD2    N113583   4.358   3.066  15.690  0.9277  0.6600 -0.0089
  924MPD2    H713584   4.309   3.032  15.608 -1.3043  0.7414  1.2861
  925MPD2     C13585   3.067   1.094  14.023  0.5453 -0.1005 -0.1608
  925MPD2    C113586   3.199   1.094  14.063 -0.3456  0.2914 -0.0663
  925MPD2    C213587   3.222   1.104  14.196 -0.1881  0.5077  0.0427
  925MPD2    C313588   3.120   1.110  14.291  0.0919 -0.1538 -0.4851
  925MPD2    C413589   2.991   1.114  14.244 -0.4098 -0.2016 -0.3845
  925MPD2    C513590   2.964   1.111  14.110 -0.5065 -0.0457 -0.3680
  925MPD2     H13591   3.327   1.114  14.222  0.0146 -2.7718  0.5147
  925MPD2    H113592   2.912   1.117  14.318 -0.1373 -0.6188 -0.0800
  925MPD2    H213593   3.043   1.080  13.918 -0.4060  0.7052 -0.0557
  925MPD2    H313594   2.864   1.111  14.067  0.0272  2.7465 -1.5886
  925MPD2     N13595   3.133   1.098  14.431  0.5391 -0.5098  0.4159
  925MPD2    H513596   3.050   1.105  14.490 -0.8174 -1.0113 -1.4538
  925MPD2    N113597   3.315   1.102  13.981 -0.3232 -0.4775  0.3715
  925MPD2    H713598   3.405   1.091  14.027 -0.9244  1.7860  2.0800
  926MPD2     C13599   2.011   4.074  13.153 -0.5305  0.1578  0.3340
  926MPD2    C113600   1.916   4.147  13.084  0.0023  0.4802 -0.1104
  926MPD2    C213601   1.946   4.230  12.977  0.7358  0.5083  0.8257
  926MPD2    C313602   2.087   4.235  12.942  0.1337 -0.0857  0.3141
  926MPD2    C413603   2.180   4.165  13.016  0.1595 -0.0727 -0.4890
  926MPD2    C513604   2.140   4.086  13.116 -0.7123 -0.1567 -0.1327
  926MPD2     H13605   1.868   4.293  12.937  0.5787 -0.5803 -0.5717
  926MPD2    H113606   2.288   4.175  13.003  0.2132  0.0937  0.0810
  926MPD2    H213607   1.992   4.011  13.239  0.1477 -0.2374  0.2002
  926MPD2    H313608   2.220   4.022  13.152  0.7373  2.3119  1.0470
  926MPD2     N13609   2.133   4.325  12.846  1.1995  0.5796  0.6798
  926MPD2    H513610   2.233   4.319  12.827  1.6856  2.3757  2.6197
  926MPD2    N113611   1.781   4.150  13.136 -0.2898 -0.6263  0.4108
  926MPD2    H713612   1.718   4.213  13.088  2.2651 -0.5740 -2.8068
  927MPD2     C13613   2.046   1.570  17.673 -0.8686 -0.7790 -0.4515
  927MPD2    C113614   2.080   1.700  17.654 -0.2180  0.1743  0.7623
  927MPD2    C213615   2.157   1.741  17.542 -0.3044 -0.0300 -0.3353
  927MPD2    C313616   2.192   1.642  17.454 -0.2942 -0.3060  0.6174
  927MPD2    C413617   2.159   1.506  17.481  0.5712  0.6725  0.0284
  927MPD2    C513618   2.081   1.469  17.586  0.2716 -0.1787 -0.4063
  927MPD2     H13619   2.181   1.845  17.520 -0.0847  0.3597  1.7323
  927MPD2    H113620   2.173   1.425  17.411  0.0072  0.6296 -0.0416
  927MPD2    H213621   1.996   1.528  17.760 -2.4553 -0.0005 -1.0079
  927MPD2    H313622   2.039   1.370  17.597 -0.4163  0.2844  1.0888
  927MPD2     N13623   2.263   1.676  17.338 -0.3714  0.1168  0.3996
  927MPD2    H513624   2.297   1.772  17.335  0.8955 -0.3847 -0.8888
  927MPD2    N113625   2.038   1.789  17.752  0.3557 -0.4138 -0.3640
  927MPD2    H713626   2.006   1.754   0.082 -0.8617  0.3684 -0.4949
  928MPD2     C13627   4.630   1.146   1.171 -0.7956 -0.5412  0.0549
  928MPD2    C113628   0.016   1.138   1.216  0.3731  0.7803  0.0315
  928MPD2    C213629   0.115   1.097   1.127 -0.5049 -0.0658 -0.1062
  928MPD2    C313630   0.079   1.058   0.990  0.0659 -0.7494  0.0588
  928MPD2    C413631   4.688   1.075   0.949  0.5991 -0.5828  0.6915
  928MPD2    C513632   4.596   1.120   1.037 -0.7905 -0.2432 -0.2218
  928MPD2     H13633   0.217   1.086   1.161 -0.3732 -0.7004 -0.6921
  928MPD2    H113634   4.659   1.042   0.850 -0.6979 -1.6909  1.4505
  928MPD2    H213635   4.559   1.191   1.240 -0.9296 -1.2125  0.3530
  928MPD2    H313636   4.496   1.137   1.000 -0.3523  0.9038 -0.9017
  928MPD2     N13637   0.167   1.020   0.887 -0.3279  0.2845  0.0553
  928MPD2    H513638   0.130   1.008   0.793  0.7997 -0.5142 -0.2879
  928MPD2    N113639   0.036   1.164   1.356  0.5042  0.2578 -0.3074
  928MPD2    H713640   4.696   1.196   1.409  0.3411  0.4751 -0.6880
  929MPD2     C13641   4.229   0.283   9.899  0.6921 -0.2624 -0.0466
  929MPD2    C113642   4.126   0.278   9.991  0.2869  0.3945  0.1141
  929MPD2    C213643   4.010   0.347   9.971 -0.0935 -0.2540 -0.1821
  929MPD2    C313644   3.987   0.409   9.847  0.5034  1.0419 -0.9053
  929MPD2    C413645   4.088   0.410   9.752 -0.2394 -0.6354 -0.5432
  929MPD2    C513646   4.207   0.342   9.778  0.1209  0.5859 -0.1150
  929MPD2     H13647   3.922   0.328  10.031 -0.9242  0.6521 -1.1068
  929MPD2    H113648   4.061   0.445   9.653  0.7203 -0.9215 -0.9063
  929MPD2    H213649   4.326   0.241   9.922  1.2215  0.3745 -1.1099
  929MPD2    H313650   4.274   0.335   9.693  0.8088 -0.6165  0.5273
  929MPD2     N13651   3.858   0.462   9.809 -0.2046 -0.5233  0.5031
  929MPD2    H513652   3.846   0.484   9.711 -0.4685 -0.5238  0.5339
  929MPD2    N113653   4.148   0.201  10.109  0.4956 -0.6600 -0.7291
  929MPD2    H713654   4.238   0.156  10.121  0.5280  0.0368  1.7596
  930MPD2     C13655   1.141   2.204  13.784 -0.5615  0.1399 -0.1549
  930MPD2    C113656   1.261   2.146  13.794 -0.8691  0.5806  0.1281
  930MPD2    C213657   1.299   2.026  13.729  1.0366 -0.2945 -0.1257
  930MPD2    C313658   1.212   1.975  13.633 -0.3540  0.1760  0.0608
  930MPD2    C413659   1.092   2.042  13.616  0.1848 -0.6766 -0.4128
  930MPD2    C513660   1.056   2.147  13.694 -0.8844  0.9970 -0.4734
  930MPD2     H13661   1.398   1.985  13.746  1.4089  1.0931  1.0229
  930MPD2    H113662   1.018   2.017  13.540 -0.2029 -1.4859  0.2259
  930MPD2    H213663   1.124   2.300  13.830  0.4698 -0.3955  1.3301
  930MPD2    H313664   0.959   2.195  13.686 -0.2971  2.1259 -0.7766
  930MPD2     N13665   1.252   1.871  13.545  0.2286 -0.3060 -0.3295
  930MPD2    H513666   1.203   1.863  13.457  1.0800 -3.1958 -0.5381
  930MPD2    N113667   1.361   2.217  13.861  0.0197 -0.0289  0.1730
  930MPD2    H713668   1.356   2.317  13.879  0.6843  0.0608 -0.1271
  931MPD2     C13669   2.236   1.744   0.622 -0.2800  0.4598 -0.2279
  931MPD2    C113670   2.139   1.845   0.611  0.4555 -0.3726  0.0418
  931MPD2    C213671   2.103   1.917   0.722 -0.0157 -0.4667  0.1379
  931MPD2    C313672   2.178   1.899   0.838  0.4978  0.6427  0.1840
  931MPD2    C413673   2.270   1.802   0.849 -0.9112  0.1866 -0.0523
  931MPD2    C513674   2.293   1.720   0.741 -0.0234 -0.2287 -0.5518
  931MPD2     H13675   2.028   1.995   0.720  0.4425 -0.0701 -2.5732
  931MPD2    H113676   2.339   1.791   0.933 -1.5408  0.5953  0.5171
  931MPD2    H213677   2.268   1.689   0.534 -0.5668  1.6245 -1.0726
  931MPD2    H313678   2.369   1.644   0.748  0.1459 -0.1271 -1.2545
  931MPD2     N13679   2.162   1.981   0.956  0.4341 -0.1487  0.2734
  931MPD2    H513680   2.234   1.970   1.026  0.3207 -1.9096  0.1077
  931MPD2    N113681   2.088   1.861   0.482  0.6352 -0.1038  0.0693
  931MPD2    H713682   2.097   1.780   0.423  0.8559  1.2135 -1.6973
  932MPD2     C13683   3.153   0.765  11.379 -0.4423  0.2385 -0.0828
  932MPD2    C113684   3.275   0.788  11.316 -0.1233 -0.6919  1.2018
  932MPD2    C213685   3.366   0.682  11.306  0.5923  0.6664 -0.3759
  932MPD2    C313686   3.332   0.555  11.351 -0.1772 -0.3771  0.1235
  932MPD2    C413687   3.210   0.541  11.416  0.5555 -0.0167  0.0367
  932MPD2    C513688   3.120   0.642  11.425  0.3705 -0.6334 -0.1298
  932MPD2     H13689   3.458   0.703  11.253  0.0002 -0.9732 -2.0666
  932MPD2    H113690   3.184   0.449  11.468 -0.9248 -0.0861 -0.8248
  932MPD2    H213691   3.089   0.851  11.396 -0.1890  0.7483 -1.7117
  932MPD2    H313692   3.029   0.618  11.479  0.8200  0.3856  1.0669
  932MPD2     N13693   3.434   0.457  11.348  0.2243  0.3141  0.2970
  932MPD2    H513694   3.523   0.476  11.303  0.9980  0.0178  1.7365
  932MPD2    N113695   3.315   0.910  11.269  0.4911  0.3338  0.5927
  932MPD2    H713696   3.413   0.913  11.243  0.3415  2.9490  0.3105
  933MPD2     C13697   4.499   1.379   2.114  0.2002 -0.5570  0.2945
  933MPD2    C113698   4.520   1.412   1.986 -0.4761  0.8279  0.3036
  933MPD2    C213699   4.435   1.512   1.937 -0.2549  0.1615  0.0890
  933MPD2    C313700   4.324   1.560   2.001 -0.3390  0.5807 -0.5682
  933MPD2    C413701   4.309   1.512   2.132 -0.2535  0.1499  0.5536
  933MPD2    C513702   4.405   1.431   2.194 -0.2183 -0.8005 -0.1727
  933MPD2     H13703   4.462   1.545   1.837  1.0293  1.1551  0.7612
  933MPD2    H113704   4.231   1.555   2.194 -0.9967 -0.2218 -0.1105
  933MPD2    H213705   4.565   1.315   2.171 -1.3169 -2.8411 -0.5258
  933MPD2    H313706   4.400   1.392   2.295  0.5319 -1.5037 -0.4079
  933MPD2     N13707   4.247   1.659   1.935  0.8816 -0.0477 -0.0762
  933MPD2    H513708   4.262   1.675   1.836 -1.1588  0.2926 -0.3294
  933MPD2    N113709   4.625   1.350   1.911  0.3954 -0.1880 -0.4102
  933MPD2    H713710   4.682   1.286   1.966  0.4824 -0.8648 -1.3028
  934MPD2     C13711   1.973   3.846   1.398 -0.3388 -0.4394  0.2961
  934MPD2    C113712   1.999   3.722   1.339 -0.0442 -0.6341 -0.1954
  934MPD2    C213713   1.894   3.644   1.291  0.2630  0.6002 -0.2730
  934MPD2    C313714   1.763   3.682   1.308  0.2139  0.4185 -0.5741
  934MPD2    C413715   1.734   3.805   1.369 -0.7168 -0.4534 -0.3605
  934MPD2    C513716   1.841   3.888   1.411  0.4058  0.0625  0.0242
  934MPD2     H13717   1.916   3.543   1.258 -0.8419  1.2987 -3.1509
  934MPD2    H113718   1.634   3.838   1.396  0.5128  3.8799 -1.0269
  934MPD2    H213719   2.046   3.915   1.438 -1.6283  2.0891 -1.6549
  934MPD2    H313720   1.820   3.984   1.457 -0.7637  1.0469 -2.5604
  934MPD2     N13721   1.657   3.597   1.280  0.6036  0.4096 -0.2857
  934MPD2    H513722   1.569   3.624   1.323 -0.3463 -1.4827 -1.0299
  934MPD2    N113723   2.133   3.669   1.339  0.0276 -1.0078 -0.3327
  934MPD2    H713724   2.150   3.574   1.308  1.0858 -1.2006  0.8422
  935MPD2     C13725   1.769   2.664   1.204 -0.0759 -0.2515  0.1388
  935MPD2    C113726   1.661   2.683   1.121  0.1751 -0.5348 -0.5764
  935MPD2    C213727   1.600   2.805   1.111 -0.5998 -0.1819  0.7221
  935MPD2    C313728   1.649   2.908   1.181  0.6484 -0.2109 -0.0589
  935MPD2    C413729   1.760   2.889   1.252  0.5731  0.5448 -0.1869
  935MPD2    C513730   1.820   2.769   1.265  0.4752  0.9738 -0.0912
  935MPD2     H13731   1.517   2.826   1.045 -1.2257  0.5014  1.7221
  935MPD2    H113732   1.816   2.963   1.310  1.8730 -2.1005  1.9525
  935MPD2    H213733   1.805   2.566   1.231 -1.5130 -1.0832 -0.8949
  935MPD2    H313734   1.900   2.752   1.337 -0.2999  2.0197  1.0209
  935MPD2     N13735   1.599   3.037   1.170 -0.0160 -0.0233 -0.0700
  935MPD2    H513736   1.661   3.106   1.211  1.7538 -2.8323  1.9688
  935MPD2    N113737   1.606   2.579   1.044  0.9901  0.1272 -0.1166
  935MPD2    H713738   1.521   2.590   0.991  0.1503 -2.0172  0.7879
  936MPD2     C13739   3.723   3.463  12.656  0.2924 -0.9794  0.7981
  936MPD2    C113740   3.759   3.581  12.715 -0.6076  0.3463  0.1720
  936MPD2    C213741   3.776   3.692  12.630 -0.1263  0.2148 -0.0204
  936MPD2    C313742   3.765   3.681  12.494  0.4509 -0.4137  0.4019
  936MPD2    C413743   3.744   3.559  12.433 -0.5683 -0.0177 -0.3529
  936MPD2    C513744   3.721   3.454  12.517 -0.0054 -0.1836 -0.3400
  936MPD2     H13745   3.787   3.792  12.672  1.0516  0.7013 -1.4854
  936MPD2    H113746   3.718   3.548  12.328 -3.6991 -0.5975  0.4974
  936MPD2    H213747   3.690   3.376  12.711 -4.1300 -0.1888 -0.5667
  936MPD2    H313748   3.692   3.362  12.467  0.3484 -0.5752  0.1735
  936MPD2     N13749   3.774   3.791  12.407 -0.2446  1.0004 -0.3001
  936MPD2    H513750   3.772   3.771  12.308 -1.5051 -0.5700  0.0322
  936MPD2    N113751   3.756   3.600  12.853 -0.5794 -0.2338 -0.3808
  936MPD2    H713752   3.693   3.546  12.912 -2.2177  1.0350 -0.9617
  937MPD2     C13753   2.005   0.511  11.418  0.0353  0.0377 -0.1622
  937MPD2    C113754   1.947   0.636  11.393 -0.2176 -0.4153  0.2174
  937MPD2    C213755   1.988   0.701  11.285 -0.0185  0.4617 -0.6814
  937MPD2    C313756   2.069   0.644  11.190 -0.8421  0.8572 -0.3687
  937MPD2    C413757   2.131   0.524  11.220  0.4690 -1.2883  0.3965
  937MPD2    C513758   2.091   0.460  11.333  0.1994  0.5790  0.0266
  937MPD2     H13759   1.945   0.800  11.280  1.6729  1.1992 -0.6360
  937MPD2    H113760   2.205   0.479  11.155 -0.2042  1.6371 -2.3937
  937MPD2    H213761   1.983   0.450  11.504 -2.8527  1.0073 -0.1936
  937MPD2    H313762   2.144   0.369  11.358 -0.6715 -0.5635 -2.3000
  937MPD2     N13763   2.085   0.711  11.066 -0.4919  0.3687  0.5823
  937MPD2    H513764   2.041   0.801  11.056 -0.6048  0.4222  1.6535
  937MPD2    N113765   1.868   0.700  11.493 -0.3815  0.2871 -0.1789
  937MPD2    H713766   1.829   0.787  11.457  0.4544 -0.5087 -3.0764
  938MPD2     C13767   4.659   2.377   0.422 -0.7046  0.0288  0.0415
  938MPD2    C113768   4.712   2.437   0.531  0.0405 -0.0547  0.3654
  938MPD2    C213769   4.662   2.398   0.654  0.3523  0.5262 -0.2723
  938MPD2    C313770   4.580   2.281   0.662  0.1337 -0.0892  0.1200
  938MPD2    C413771   4.542   2.219   0.546  0.7380  0.2950  0.1061
  938MPD2    C513772   4.572   2.268   0.428  0.8784 -0.3934 -0.1073
  938MPD2     H13773   4.696   2.449   0.744 -1.9075 -0.6110  1.2444
  938MPD2    H113774   4.492   2.123   0.556 -0.8458  1.3311  2.0076
  938MPD2    H213775   4.679   2.412   0.321 -1.0971  1.3570  0.4226
  938MPD2    H313776   4.538   2.217   0.338  0.9094  0.5847 -0.6731
  938MPD2     N13777   4.535   2.221   0.777  0.1169  0.1153  0.0930
  938MPD2    H513778   4.475   2.139   0.768 -0.9676  0.8552  0.5262
  938MPD2    N113779   0.052   2.553   0.525  0.2883 -0.2241  0.6127
  938MPD2    H713780   0.062   2.609   0.610  0.2195  0.6401  0.0553
  939MPD2     C13781   1.087   3.701   0.546  0.8272 -0.0270  0.4914
  939MPD2    C113782   0.990   3.631   0.470 -0.9263 -0.1807  0.3604
  939MPD2    C213783   1.037   3.524   0.391  0.0629 -0.1181  0.0754
  939MPD2    C313784   1.171   3.499   0.383  0.1693  0.2209 -0.0259
  939MPD2    C413785   1.261   3.569   0.461  0.3161 -0.4400 -0.1260
  939MPD2    C513786   1.216   3.669   0.541 -0.7349 -0.3711 -0.1800
  939MPD2     H13787   0.973   3.458   0.334 -3.6273  2.1582  1.6238
  939MPD2    H113788   1.365   3.544   0.442  0.0983 -1.3339 -0.1353
  939MPD2    H213789   1.064   3.775   0.621  0.5140 -0.0180  0.3846
  939MPD2    H313790   1.290   3.723   0.599  0.4580 -0.3295 -1.7424
  939MPD2     N13791   1.216   3.393   0.297 -0.2594 -0.0738  0.5087
  939MPD2    H513792   1.144   3.338   0.252  0.2462 -1.6507  1.6183
  939MPD2    N113793   0.856   3.667   0.490  0.3015 -0.0725 -0.3121
  939MPD2    H713794   0.829   3.735   0.560  2.5489 -0.3893  0.8875
  940MPD2     C13795   0.580   3.718  13.612 -0.3978  0.6665  0.7495
  940MPD2    C113796   0.470   3.635  13.595 -0.1159  0.0868  0.4218
  940MPD2    C213797   0.382   3.663  13.485  0.3570  0.1285  0.7069
  940MPD2    C313798   0.419   3.759  13.390 -0.1166  0.6827  1.0065
  940MPD2    C413799   0.537   3.830  13.408  0.8568  0.1895  0.4062
  940MPD2    C513800   0.619   3.807  13.517 -0.9062 -0.2557  0.3033
  940MPD2     H13801   0.296   3.598  13.477  2.0753 -2.2953  1.6837
  940MPD2    H113802   0.561   3.908  13.336  3.9215  0.4763  1.7805
  940MPD2    H213803   0.639   3.721  13.703 -0.0474 -0.5832  0.5742
  940MPD2    H313804   0.702   3.873  13.539 -0.9250 -0.5053  1.1045
  940MPD2     N13805   0.346   3.808  13.279  0.1994 -0.2594  0.6433
  940MPD2    H513806   0.399   3.862  13.212  0.8657 -0.0103  1.3688
  940MPD2    N113807   0.438   3.533  13.689 -0.0990  0.2530 -1.0096
  940MPD2    H713808   0.347   3.493  13.672 -0.9354  0.1692  3.5424
  941MPD2     C13809   3.509   3.625  10.247  0.2396  0.0646 -0.2935
  941MPD2    C113810   3.629   3.607  10.191 -0.1037  0.0359 -0.2314
  941MPD2    C213811   3.672   3.471  10.177 -0.7160 -0.4573  0.0543
  941MPD2    C313812   3.591   3.365  10.204  0.1643 -0.0961 -0.0109
  941MPD2    C413813   3.467   3.389  10.253 -0.9741 -0.0943 -0.4131
  941MPD2    C513814   3.422   3.518  10.263 -0.0043  0.4387  0.0739
  941MPD2     H13815   3.776   3.453  10.150 -0.5473 -0.7381  0.9173
  941MPD2    H113816   3.391   3.318  10.282  0.6198 -2.2333 -1.4794
  941MPD2    H213817   3.470   3.718  10.288 -0.5349 -0.0640 -0.7354
  941MPD2    H313818   3.321   3.526  10.300 -0.1426  0.9192 -0.4174
  941MPD2     N13819   3.635   3.230  10.200  0.1605  0.3270  0.3281
  941MPD2    H513820   3.559   3.167  10.221 -0.1909  1.0638  1.2948
  941MPD2    N113821   3.718   3.708  10.171 -0.1579 -0.0886  0.3341
  941MPD2    H713822   3.818   3.692  10.163 -0.2281  0.0750 -0.7971
  942MPD2     C13823   2.262   4.582   9.828 -0.0626  0.0694 -0.0978
  942MPD2    C113824   2.346   4.554   9.717 -0.7197  0.0542  0.5781
  942MPD2    C213825   2.405   4.657   9.644  0.0558  0.5870  0.6649
  942MPD2    C313826   2.380   0.045   9.681 -0.4042 -0.7291  0.5218
  942MPD2    C413827   2.297   0.068   9.784 -0.2463  0.4006 -0.3358
  942MPD2    C513828   2.245   4.711   9.865  0.2138  0.3334  0.1119
  942MPD2     H13829   2.470   4.627   9.563 -2.4565  0.8668 -1.4660
  942MPD2    H113830   2.289   0.166   9.829 -0.4471 -0.3047  1.1893
  942MPD2    H213831   2.217   4.504   9.889 -0.3733  1.4952  1.5073
  942MPD2    H313832   2.174   4.733   9.945 -0.0167 -0.3309  0.0890
  942MPD2     N13833   2.441   0.156   9.602 -0.5142 -0.1248  0.3749
  942MPD2    H513834   2.418   0.248   9.637 -1.5560  0.8576 -2.8721
  942MPD2    N113835   2.363   4.423   9.670 -0.3419 -0.1336  0.9049
  942MPD2    H713836   2.441   4.410   9.606  0.9848  2.0870  2.0804
  943MPD2     C13837   2.321   2.878   9.486  0.0342 -0.1772  0.1892
  943MPD2    C113838   2.285   2.889   9.618 -0.0513  0.7388  0.8439
  943MPD2    C213839   2.368   2.943   9.718  0.8276  0.0588  0.5937
  943MPD2    C313840   2.504   2.968   9.684 -0.0940  0.4014  0.0183
  943MPD2    C413841   2.540   2.958   9.552  0.2546  0.2230 -0.0392
  943MPD2    C513842   2.455   2.905   9.460 -0.3497  0.2097  0.2242
  943MPD2     H13843   2.323   2.975   9.811 -0.4871 -0.5294  0.1565
  943MPD2    H113844   2.642   2.982   9.523  0.2708  1.4891  1.0476
  943MPD2    H213845   2.248   2.848   9.412 -2.0015  2.0355  1.2879
  943MPD2    H313846   2.494   2.901   9.360  2.2551  3.4173  1.1034
  943MPD2     N13847   2.605   3.016   9.769 -0.0232  0.3820 -0.0394
  943MPD2    H513848   2.694   3.037   9.726 -0.0055 -0.0361 -0.2086
  943MPD2    N113849   2.149   2.865   9.646  0.2695 -0.8545  0.0794
  943MPD2    H713850   2.092   2.842   9.564 -1.3652  0.7695  0.7601
  944MPD2     C13851   1.821   2.776  11.016  0.4751  0.5710 -0.9428
  944MPD2    C113852   1.904   2.728  11.118 -0.3647  1.1931 -0.0353
  944MPD2    C213853   1.959   2.821  11.209  0.2090 -0.0421 -0.0490
  944MPD2    C313854   1.933   2.958  11.200  0.5699  0.0035  0.1314
  944MPD2    C413855   1.862   3.012  11.098  0.0503 -0.1134  0.6159
  944MPD2    C513856   1.810   2.913  11.006 -0.0821  0.0298 -0.1125
  944MPD2     H13857   2.031   2.798  11.286  0.7743 -2.1685 -1.2251
  944MPD2    H113858   1.825   3.113  11.085 -1.0474 -0.4393  1.2257
  944MPD2    H213859   1.770   2.720  10.938  0.3132  0.5315 -0.8098
  944MPD2    H313860   1.751   2.952  10.924 -0.6779 -0.6833 -0.0253
  944MPD2     N13861   1.983   3.033  11.310  0.4370  0.8916  0.3927
  944MPD2    H513862   2.025   2.974  11.381  1.1921 -0.8604 -1.5319
  944MPD2    N113863   1.927   2.593  11.130  0.2985 -0.1319 -0.5233
  944MPD2    H713864   1.905   2.537  11.048  0.7786 -0.4857 -0.4137
    1TMC1    C113865   0.843   3.322  14.770  0.1621  0.2319 -0.0660
    1TMC1    C213866   0.901   3.309  14.647 -0.5655  0.2953  0.1192
    1TMC1    C313867   1.035   3.331  14.636 -0.1813  0.5051  0.0358
    1TMC1    C413868   0.921   3.352  14.877 -0.2427  0.0528 -0.3183
    1TMC1    C513869   1.056   3.383  14.859 -0.4503  0.6405  0.5809
    1TMC1    C613870   1.113   3.385  14.733  0.0144  0.5342  0.2122
    1TMC1     C13871   0.700   3.325  14.781 -0.6508 -0.1764  0.1885
    1TMC1     O13872   0.659   3.311  14.894 -0.9598 -0.3517 -0.2398
    1TMC1     H13873   0.841   3.268  14.567  1.2450  0.5654 -1.3858
    1TMC1    H113874   0.869   3.359  14.972  0.6160  0.5565  0.1201
    1TMC1    H213875   1.216   3.418  14.727  0.6304 -1.4646 -0.3063
    1TMC1    C713876   1.120   3.455  14.967 -0.7380  0.1840  0.6781
    1TMC1    C813877   1.100   3.295  14.513  0.5027 -0.0108 -0.9463
    1TMC1    O113878   1.220   3.520  14.947  0.0944  0.3460  0.7322
    1TMC1    O213879   1.065   3.206  14.435 -0.1958 -0.1421  0.3970
    1TMC1    O313880   1.123   3.362  15.068  0.3471 -0.6863 -0.4889
    1TMC1    H313881   1.070   3.281  15.052 -1.3145 -0.0450  1.8392
    1TMC1    O513882   1.177   3.406  14.481 -0.3678  0.1866  0.1019
    1TMC1    H513883   1.164   3.484  14.539 -0.4041  2.1123 -2.4964
    2MPD2     C13884   0.313   3.634  14.673  0.7161  0.0820 -0.7015
    2MPD2    C113885   0.385   3.620  14.558  0.2569  0.3757  0.6472
    2MPD2    C213886   0.493   3.537  14.558  0.1911  0.3201 -0.0957
    2MPD2    C313887   0.530   3.476  14.675 -0.0638 -0.0535  0.0116
    2MPD2    C413888   0.456   3.495  14.790  0.0749  0.2605 -0.5487
    2MPD2    C513889   0.347   3.575  14.789  0.3511  0.2862 -0.2645
    2MPD2     H13890   0.572   3.535  14.484 -1.0576 -1.3692 -1.3707
    2MPD2    H113891   0.478   3.453  14.887 -1.6532  1.3702  0.3280
    2MPD2    H213892   0.227   3.698  14.685  0.1031 -0.7048 -0.9129
    2MPD2    H313893   0.293   3.586  14.882 -0.2274 -0.4610 -0.5124
    2MPD2     N13894   0.643   3.392  14.675  0.2996 -0.1410 -0.0389
    2MPD2    H513895   0.693   3.389  14.587  0.1737  1.2206 -0.1597
    2MPD2    N113896   0.344   3.696  14.444  0.3148  0.1863 -0.0215
    2MPD2    H713897   0.274   3.770  14.449  0.0376  0.0653 -2.2096
    3TMC2    C113898   0.376   3.812  14.249 -0.4608  0.1195  1.3311
    3TMC2    C213899   0.283   3.907  14.294 -0.2783  0.2136  0.5721
    3TMC2    C313900   0.244   4.003  14.206 -0.6384  0.0166  0.2130
    3TMC2    C413901   0.423   3.812  14.121  0.0826  0.4634  0.2853
    3TMC2    C513902   0.396   3.924  14.047  0.6592 -0.2251  0.1561
    3TMC2    C613903   0.301   4.016  14.079 -0.2340 -0.3594 -0.3855
    3TMC2     C13904   0.417   3.695  14.325 -0.1316  0.0913  0.6576
    3TMC2     O13905   0.507   3.624  14.288  0.2533  0.7377  0.5626
    3TMC2     H13906   0.243   3.909  14.395 -2.3521 -3.2902 -0.1885
    3TMC2    H113907   0.482   3.734  14.073 -0.2404  0.4880 -0.1580
    3TMC2    H213908   0.265   4.102  14.024  2.6232  0.0556 -1.6188
    3TMC2    C713909   0.486   3.964  13.943 -0.6351 -0.3259 -0.1998
    3TMC2    C813910   0.159   4.102  14.266  0.1933  0.0288  0.0872
    3TMC2    O113911   0.604   3.951  13.965  0.4935  1.2270 -0.0654
    3TMC2    O213912   0.089   4.088  14.364 -0.0015  0.0729  0.1262
    3TMC2    O513913   0.166   4.217  14.207 -0.2629  0.3286  0.1919
    3TMC2    H513914   0.238   4.234  14.143  0.5468 -0.8564  0.7778
    4TMC2    C113915   0.116   4.184  13.017 -0.0778 -0.6000 -0.7334
    4TMC2    C213916   0.211   4.248  12.938 -0.3575 -0.2960 -0.1592
    4TMC2    C313917   0.318   4.293  13.004 -0.6560  0.1418  0.2460
    4TMC2    C413918   0.136   4.156  13.150 -0.2838 -1.0110 -0.3717
    4TMC2    C513919   0.252   4.200  13.207 -0.3008 -0.2440 -0.2567
    4TMC2    C613920   0.345   4.274  13.137 -0.9715  0.2799  0.3332
    4TMC2     C13921   4.715   4.167  12.980  0.2767  0.2113  0.3512
    4TMC2     O13922   4.654   4.094  13.059 -0.1543  0.5560 -0.0437
    4TMC2     H13923   0.200   4.274  12.833 -0.1123 -0.0662 -0.1279
    4TMC2    H113924   0.055   4.123  13.213  1.3814 -1.0506  1.7359
    4TMC2    H213925   0.432   4.311  13.190 -1.5710  0.7930  0.9548
    4TMC2    C713926   0.290   4.153  13.336  0.2688  0.2285 -0.3511
    4TMC2    C813927   0.414   4.379  12.935 -0.2652 -0.2604 -0.5007
    4TMC2    O113928   0.201   4.114  13.409 -0.2967 -0.0947  0.7667
    4TMC2    O213929   0.385   4.453  12.840 -0.4031 -0.0963  0.6911
    4TMC2    O513930   0.534   4.328  12.960 -0.1065 -0.6966 -0.3131
    4TMC2    H513931   0.536   4.252  13.022  2.5346  0.5047  1.0657
    5MPD2     C13932   4.347   4.120  12.615 -0.0046 -0.3320 -0.2785
    5MPD2    C113933   4.445   4.208  12.576  0.0263 -0.8687  0.2056
    5MPD2    C213934   4.556   4.236  12.651 -0.0065  0.5014  0.1080
    5MPD2    C313935   4.568   4.186  12.776  0.6364 -0.7342  0.6182
    5MPD2    C413936   4.469   4.097  12.814  0.2513  0.3481  0.1123
    5MPD2    C513937   4.361   4.054  12.732 -0.4506  0.0667 -0.6211
    5MPD2     H13938   4.640   4.290  12.608 -0.2309 -1.0469 -2.2295
    5MPD2    H113939   4.460   4.044  12.909 -0.2664  0.6337  0.2191
    5MPD2    H213940   4.269   4.086  12.549 -0.9437 -1.0654  1.2114
    5MPD2    H313941   4.295   3.971  12.754  1.2801 -0.2789  3.3842
    5MPD2     N13942   4.682   4.212  12.854  0.5269 -0.1484  0.1140
    5MPD2    H513943   4.738   4.288  12.816  0.5944  0.8058  2.1237
    5MPD2    N113944   4.419   4.266  12.446 -0.2678  0.4626  0.6355
    5MPD2    H713945   4.332   4.243  12.400  0.4089  1.2709 -1.0478
    6MPD1     C13946   4.179   1.333  12.455 -0.1448  1.2664  0.1444
    6MPD1    C113947   4.160   1.290  12.584 -0.2380  0.4886  0.2305
    6MPD1    C213948   4.213   1.168  12.619 -0.8993 -0.3863 -0.8242
    6MPD1    C313949   4.263   1.079  12.531  0.3432 -0.3066  0.1407
    6MPD1    C413950   4.288   1.121  12.403  0.1324  0.4394  1.0354
    6MPD1    C513951   4.244   1.250  12.368 -0.7458 -0.1560 -0.1039
    6MPD1     H13952   4.204   1.129  12.720  0.5350 -2.5677 -1.5458
    6MPD1    H113953   4.338   1.060  12.328 -1.4794  0.3783  0.0022
    6MPD1    H213954   4.138   1.429  12.426  0.9797  1.4796 -0.7189
    6MPD1    H313955   4.258   1.284  12.266  1.5865 -0.3564  0.1297
    6MPD1     N13956   4.292   0.941  12.559  0.2185 -0.0960  0.6314
    6MPD1    H513957   4.345   0.897  12.485 -1.1799 -1.4727  0.4453
    6MPD1    N113958   4.107   1.376  12.680  0.3633 -0.1511 -0.1847
    6MPD1    H613959   4.059   1.457  12.642  3.3165  1.7904  0.2362
    6MPD1    H713960   4.053   1.328  12.752  1.3490 -1.3159 -0.2075
    7MPD2     C13961   4.113   0.180  12.788  0.1392  0.4733 -0.0997
    7MPD2    C113962   4.196   0.228  12.687  0.4511  0.8643  0.3568
    7MPD2    C213963   4.212   0.146  12.577 -0.5822  0.2210  0.2533
    7MPD2    C313964   4.146   0.024  12.565 -0.6464  0.0353  0.3225
    7MPD2    C413965   4.057   4.727  12.664  0.0574  0.6046  0.4048
    7MPD2    C513966   4.047   0.060  12.777  0.7151 -0.2100 -0.4965
    7MPD2     H13967   4.301   0.163  12.518  0.2636  0.1224  1.4907
    7MPD2    H113968   4.001   4.635  12.658  0.2119  0.5658 -0.5394
    7MPD2    H213969   4.100   0.238  12.879 -0.6035 -1.0067  0.7476
    7MPD2    H313970   3.985   0.033  12.862  1.5753  1.5827  0.7105
    7MPD2     N13971   4.162   4.670  12.457  0.3055 -0.0662  0.2756
    7MPD2    H513972   4.131   4.573  12.466  2.4727 -0.9958 -2.3751
    7MPD2    N113973   4.273   0.347  12.702  0.1744 -1.0316 -0.6450
    7MPD2    H713974   4.329   0.372  12.620  2.0906 -1.0175  0.6498
    8TMC3    C113975   4.284   4.610  12.260 -0.0195 -0.0570  1.2483
    8TMC3    C213976   4.316   4.493  12.328  0.4272  0.6435 -0.3313
    8TMC3    C313977   4.428   4.424  12.285 -0.4518 -0.2561 -0.0932
    8TMC3    C413978   4.358   4.668  12.162 -0.8554 -0.5099  0.1263
    8TMC3    C513979   4.472   4.598  12.134 -0.5550 -0.8567  0.0237
    8TMC3    C613980   4.508   4.480  12.189  1.1730 -0.1182  0.3813
    8TMC3     C13981   4.225   4.710  12.340  0.3366  0.9461  0.3368
    8TMC3     O13982   4.264   0.081  12.315 -0.2583  0.1489 -0.3767
    8TMC3     H13983   4.244   4.456  12.400  1.3715 -1.1141 -0.2951
    8TMC3    H113984   4.326   0.011  12.100  1.4689 -0.3210 -0.8484
    8TMC3    H213985   4.602   4.429  12.172  1.5798  0.3101  1.3607
    8TMC3    C713986   4.581   4.688  12.156  0.2087  0.4416 -0.1745
    8TMC3    C813987   4.501   4.353  12.385  0.7616 -0.3983 -0.6264
    8TMC3    O113988   4.692   4.649  12.137  0.5050  0.1433  0.0065
    8TMC3    O213989   4.614   4.383  12.413  0.0397 -0.1599  0.2598
    9TMC3    C113990   4.326   0.748  12.667  0.8513  0.1413 -0.0600
    9TMC3    C213991   4.422   0.713  12.572 -0.7609  0.1253 -0.2744
    9TMC3    C313992   4.490   0.592  12.596 -0.6614 -0.8174 -0.0754
    9TMC3    C413993   4.284   0.662  12.769  0.6594  0.0193  0.0260
    9TMC3    C513994   4.355   0.544  12.779  0.7838  0.5149 -0.5636
    9TMC3    C613995   4.463   0.509  12.704  0.0704 -0.0233 -0.0394
    9TMC3     C13996   4.271   0.878  12.675 -0.0438 -0.2614  0.2656
    9TMC3     O13997   4.195   0.908  12.765  0.1069  0.7766 -0.6513
    9TMC3     H13998   4.453   0.771  12.486 -0.5880 -1.1174 -1.0491
    9TMC3    H113999   4.206   0.688  12.839 -1.0025  2.0953 -2.6522
    9TMC3    H214000   4.523   0.421  12.723 -0.5466 -0.1936  1.1785
    9TMC3    C714001   4.273   0.432  12.811 -0.3839 -0.1725  0.4406
    9TMC3    C814002   4.504   0.509  12.481  0.7360 -0.7419  0.2060
    9TMC3    O114003   4.211   0.423  12.918  0.3682  0.2282 -0.2845
    9TMC3    O214004   4.403   0.446  12.456  0.1109 -0.4760  0.2474
   10MPD2     C14005   0.029   0.177  12.204  0.2698 -0.9762 -0.1794
   10MPD2    C114006   4.635   0.176  12.245  0.1410 -0.5119 -0.6283
   10MPD2    C214007   4.583   0.280  12.314  0.1363 -0.3194  0.2170
   10MPD2    C314008   4.670   0.385  12.355 -0.0011  0.2853 -0.5482
   10MPD2    C414009   0.056   0.390  12.306 -0.2151  0.5055 -0.1136
   10MPD2    C514010   0.103   0.284  12.240  0.3879  0.1088 -0.6025
   10MPD2     H14011   4.482   0.268  12.352 -0.6512 -0.6879 -1.9944
   10MPD2    H114012   0.121   0.472  12.334  0.0750  0.4155 -0.5222
   10MPD2    H214013   0.074   0.097  12.147  0.5981 -0.2130 -0.9854
   10MPD2    H314014   0.209   0.278  12.218  1.0068  1.0707  2.1038
   10MPD2     N14015   4.634   0.486  12.439  0.9003  0.6650  0.2591
   10MPD2    H514016   4.705   0.553  12.468 -0.8161  2.5045  0.2407
   10MPD2    N114017   4.545   0.069  12.208  0.0466  0.7334 -0.1541
   10MPD2    H714018   4.446   0.075  12.230 -0.1103 -0.5573 -0.4822
   11MPD2     C14019   0.627   4.100  13.726  0.4221  0.4623  0.5416
   11MPD2    C114020   0.494   4.074  13.721 -0.4382 -0.1615 -0.1536
   11MPD2    C214021   0.422   4.097  13.605 -0.2231 -0.0475 -0.3704
   11MPD2    C314022   0.485   4.146  13.491  0.9389  0.1802 -0.3856
   11MPD2    C414023   0.616   4.177  13.506  1.0291 -0.1953 -0.5208
   11MPD2    C514024   0.692   4.146  13.616  0.0399 -0.7409  0.6243
   11MPD2     H14025   0.319   4.066  13.589 -1.0110  2.2730  0.2042
   11MPD2    H114026   0.665   4.223  13.421  1.5644  0.3796  0.0982
   11MPD2    H214027   0.697   4.079  13.806 -1.8849  1.7605  2.9100
   11MPD2    H314028   0.799   4.163  13.616  0.1312 -1.2185 -1.5615
   11MPD2     N14029   0.426   4.162  13.361 -0.0451 -0.9630  0.3982
   11MPD2    H514030   0.479   4.188  13.278 -2.3719 -0.4559 -0.9186
   11MPD2    N114031   0.423   4.017  13.830  0.1483 -0.9322 -0.1539
   11MPD2    H714032   0.327   4.000  13.805 -0.2971 -0.1120  0.9788
    1MPD1     C14033   2.779   0.805  17.208 -0.0056 -0.1866  0.2435
    1MPD1    C114034   2.913   0.822  17.235 -0.3984 -0.5692  0.3591
    1MPD1    C214035   2.999   0.804  17.132 -0.1182 -0.1054  0.0230
    1MPD1    C314036   2.958   0.776  17.000  0.0520 -0.0609  0.6008
    1MPD1    C414037   2.823   0.772  16.974  0.1259 -0.1490  0.1798
    1MPD1    C514038   2.738   0.786  17.083  0.1508  0.4856  0.3903
    1MPD1     H14039   3.105   0.790  17.151 -0.2452 -0.6522  0.3103
    1MPD1    H114040   2.790   0.754  16.873 -1.1962 -3.5899  1.2170
    1MPD1    H214041   2.703   0.816  17.284 -0.7119 -0.1067 -0.4632
    1MPD1    H314042   2.634   0.791  17.055 -0.2646  1.0163  2.0451
    1MPD1     N14043   3.051   0.738  16.900  0.5517 -0.0473  0.5204
    1MPD1    H514044   3.004   0.712  16.814  2.3780  2.3597 -1.1975
    1MPD1    N114045   2.950   0.818  17.363 -0.0027 -0.5504  0.0632
    1MPD1    H614046   2.884   0.858  17.430 -1.0033  0.5241 -1.5406
    1MPD1    H714047   3.044   0.852  17.381 -0.9387  1.1607  1.7762
    2MPD1     C14048   3.990   1.005  16.779 -0.7613  0.0394 -0.3937
    2MPD1    C114049   3.876   1.054  16.835  0.5483  0.1337  0.3720
    2MPD1    C214050   3.758   0.986  16.817 -0.0095  0.6571  0.1219
    2MPD1    C314051   3.755   0.870  16.743  0.7863 -0.1565 -0.7722
    2MPD1    C414052   3.871   0.822  16.685  0.0875  0.4684 -0.2241
    2MPD1    C514053   3.988   0.893  16.707 -0.3120  1.3834  0.2590
    2MPD1     H14054   3.672   1.032  16.865  0.4957 -0.0784  1.6982
    2MPD1    H114055   3.867   0.733  16.623 -2.2500  0.1416  0.3988
    2MPD1    H214056   4.081   1.062  16.758 -0.1776 -0.6170  0.3545
    2MPD1    H314057   4.076   0.861  16.651 -0.0883  1.4648  0.5673
    2MPD1     N14058   3.624   0.811  16.733  0.0236 -0.5003  0.1760
    2MPD1    H514059   3.551   0.842  16.797 -0.2031  0.0835 -0.3634
    2MPD1    N114060   3.879   1.178  16.903 -0.0647 -0.3736  0.4206
    2MPD1    H614061   3.844   1.177  16.998 -0.1126  0.3221  0.4114
    2MPD1    H714062   3.975   1.211  16.911 -0.1562  0.2153 -0.7725
    3TMC3    C114063   3.440   0.686  16.658 -0.1732  0.5672 -0.4632
    3TMC3    C214064   3.369   0.660  16.544  0.2750  0.4295 -0.1135
    3TMC3    C314065   3.240   0.644  16.557 -0.3427  0.5427 -0.3977
    3TMC3    C414066   3.393   0.711  16.784 -0.1156  1.0151  0.0562
    3TMC3    C514067   3.258   0.682  16.793  0.6264 -0.3034 -0.3016
    3TMC3    C614068   3.182   0.651  16.678  0.1366 -0.8803 -0.3182
    3TMC3     C14069   3.575   0.730  16.635  0.4835  0.9233  0.5433
    3TMC3     O14070   3.629   0.701  16.528  0.2340 -0.3196 -0.4034
    3TMC3     H14071   3.422   0.645  16.450  0.7907  0.1020  0.2267
    3TMC3    H114072   3.459   0.718  16.870 -3.6473  1.7131  2.7274
    3TMC3    H214073   3.074   0.647  16.679  0.1486 -1.1012  1.1891
    3TMC3    C714074   3.188   0.750  16.905 -0.0770  0.2489  0.0436
    3TMC3    C814075   3.151   0.653  16.439 -0.2264 -0.4618 -0.1542
    3TMC3    O114076   3.263   0.808  16.983 -0.2542 -0.6240 -0.1768
    3TMC3    O214077   3.033   0.624  16.441 -0.6353  0.2323  0.3862
    4MPD1     C14078   3.064   0.790  15.953  0.4509  0.5260  0.6456
    4MPD1    C114079   3.197   0.813  15.982  0.3955 -0.8607 -0.4793
    4MPD1    C214080   3.235   0.790  16.110 -0.1045  0.1130  0.1984
    4MPD1    C314081   3.159   0.739  16.206  0.2645  0.0484 -0.3753
    4MPD1    C414082   3.024   0.730  16.175  0.6124  0.0095 -0.2512
    4MPD1    C514083   2.982   0.752  16.052  0.6382  0.7684 -0.4904
    4MPD1     H14084   3.337   0.804  16.144  0.0877  0.5382 -0.5316
    4MPD1    H114085   2.953   0.711  16.254  0.9730 -1.9474 -0.3979
    4MPD1    H214086   3.027   0.791  15.852  1.7143 -0.8397  0.1568
    4MPD1    H314087   2.876   0.748  16.030  0.5274  2.8839 -0.3731
    4MPD1     N14088   3.220   0.713  16.331  0.8410 -0.6612 -0.5205
    4MPD1    H514089   3.319   0.736  16.335  0.3532  1.0083  1.4917
    4MPD1    N114090   3.282   0.878  15.888 -0.3930  0.1027 -0.2349
    4MPD1    H614091   3.269   0.842  15.794  1.9428 -0.9385 -0.1401
    4MPD1    H714092   3.378   0.857  15.912 -0.4852  0.4910  0.4907
    1TCq1    O114093   0.092   0.359  11.830 -0.0424 -0.0555  0.0740
    1TCq1    C114094   4.704   0.397  11.844 -0.3113  0.5856  0.2937
    1TCq1    O214095   4.661   0.512  11.823  0.0982  0.2125 -0.0221
    1TCq1    C214096   4.638   0.276  11.828  0.3915  0.4038 -0.3588
    1TCq1    C314097   4.712   0.163  11.861  0.3372  1.4278  0.6452
    1TCq1    C414098   4.713   0.058  11.775 -0.1617 -0.3727 -0.3536
    1TCq1    C514099   4.614   0.046  11.678  0.3773 -0.2007  0.0476
    1TCq1    C614100   4.534   0.153  11.658 -0.5345 -0.1972 -0.5977
    1TCq1    C714101   4.544   0.270  11.733  0.2706 -0.7937 -0.7760
    1TCq1    C814102   4.416   0.145  11.564  0.2913  0.6229  0.3469
    1TCq1    O414103   4.371   0.255  11.530  0.1057 -0.0165  0.1546
    1TCq1    C914104   0.033   4.672  11.803  0.5481 -0.5165  0.4816
    1TCq1    O514105   0.127   4.662  11.889  0.4550  0.5324  0.0592
    1TCq1    O614106   4.708   4.573  11.760  0.3173  0.4948 -0.0169
    1TCq1    H114107   0.103   0.266  11.801 -3.0957  0.0038 -1.2653
    1TCq1    H214108   0.050   0.174  11.934  0.7140 -3.3982  1.0077
    1TCq1    H314109   4.609   4.692  11.625 -1.9008 -0.6357  1.0543
    1TCq1    H414110   4.485   0.358  11.710 -1.1402 -1.3507  0.7210
    2MPD1     C14111   4.124   4.601  11.247 -0.3058  0.0274  0.2648
    2MPD1    C114112   4.220   4.524  11.304  0.1148 -0.5318  0.1414
    2MPD1    C214113   4.310   4.582  11.390  0.4995  0.2851  0.3030
    2MPD1    C314114   4.302   4.712  11.426  0.5674 -0.0924 -0.2164
    2MPD1    C414115   4.204   0.049  11.370  0.0597 -0.2073 -0.6152
    2MPD1    C514116   4.115   4.731  11.283 -0.2692  0.0500 -0.1561
    2MPD1     H14117   4.392   4.519  11.421  1.1237  0.9301 -0.0333
    2MPD1    H114118   4.192   0.155  11.391  0.5894 -0.2951  0.1327
    2MPD1    H214119   4.060   4.561  11.170 -0.8570  2.4036 -0.5110
    2MPD1    H314120   4.031   0.045  11.241  0.0593  0.4311 -0.3201
    2MPD1     N14121   4.390   0.019  11.517 -0.0959 -0.2556 -0.5370
    2MPD1    H514122   4.447   4.690  11.564  0.3921  0.9450  0.6670
    2MPD1    N114123   4.257   4.408  11.238 -0.5520  0.0940 -0.3447
    2MPD1    H614124   4.307   4.340  11.295 -2.9682 -0.5521  0.9982
    2MPD1    H714125   4.171   4.369  11.200 -0.7941 -0.7930  1.0849
    1TMC1    C114126   0.682   0.389   0.561 -0.1518  0.9039  0.1261
    1TMC1    C214127   0.782   0.296   0.541 -0.1367  0.5263 -0.2266
    1TMC1    C314128   0.876   0.326   0.440 -0.2112 -0.6913 -0.2383
    1TMC1    C414129   0.666   0.497   0.479 -0.4120 -0.4070  0.1928
    1TMC1    C514130   0.755   0.521   0.381 -0.4960  0.0295  0.2263
    1TMC1    C614131   0.862   0.439   0.361 -0.8559 -0.2497  0.5196
    1TMC1     C14132   0.572   0.356   0.650  0.1322  0.2170  0.2339
    1TMC1     O14133   0.491   0.447   0.665 -0.1238 -0.0612 -0.0183
    1TMC1     H14134   0.822   0.230   0.617  2.3399  2.3774  0.0749
    1TMC1    H114135   0.586   0.568   0.495  1.1691  1.1859  1.0947
    1TMC1    H214136   0.934   0.472   0.288  0.2723 -1.8898  0.8944
    1TMC1    C714137   0.732   0.636   0.298  0.4109 -0.2056 -0.1335
    1TMC1    C814138   0.977   0.235   0.409  0.3408 -0.2539  0.0079
    1TMC1    O114139   0.659   0.726   0.337  0.4211  0.6578  0.4783
    1TMC1    O214140   1.080   0.274   0.355 -0.0016 -0.0486 -0.1249
    1TMC1    O314141   0.773   0.617   0.174 -0.0382  0.6268  0.0277
    1TMC1    H314142   0.803   0.523   0.169 -0.9077  0.2909  0.9893
    1TMC1    O514143   0.924   0.110   0.406  0.0592 -0.1997  0.5852
    1TMC1    H514144   0.840   0.103   0.456  1.2224 -1.5137  2.3724
    2MPD1     C14145   0.326   0.060   0.998  0.0112 -0.3473 -0.5054
    2MPD1    C114146   0.437   4.738   0.953  0.4294  0.2234  0.5869
    2MPD1    C214147   0.509   0.054   0.853  0.5685 -0.0552  1.0686
    2MPD1    C314148   0.487   0.176   0.805  0.1018  0.3870 -0.0317
    2MPD1    C414149   0.377   0.241   0.851 -0.0788 -0.0738  0.1844
    2MPD1    C514150   0.296   0.182   0.945  0.0891  0.2502  0.4266
    2MPD1     H14151   0.591   4.731   0.821 -0.9726 -0.4228 -2.1270
    2MPD1    H114152   0.351   0.336   0.805  0.6795 -1.0692 -2.2944
    2MPD1    H214153   0.251   0.025   1.069 -0.3710 -1.2239 -1.3352
    2MPD1    H314154   0.206   0.236   0.970 -0.4215  0.0832 -1.0415
    2MPD1     N14155   0.584   0.231   0.716 -0.2052  0.3963  0.2074
    2MPD1    H514156   0.658   0.169   0.684 -1.1752 -0.2344 -0.8207
    2MPD1    N114157   0.456   4.606   1.000  0.5567 -0.3698  0.0095
    2MPD1    H614158   0.416   4.611   1.093  1.7138  0.5334  0.4638
    2MPD1    H714159   0.555   4.586   1.018  0.5216 -2.2112 -1.7001
    1MPD1     C14160   0.857   0.759  11.479  0.1086  0.4845  0.2863
    1MPD1    C114161   0.977   0.721  11.533 -0.4519  0.4171 -0.1353
    1MPD1    C214162   1.045   0.803  11.623  0.3204 -0.3511  0.8718
    1MPD1    C314163   1.000   0.932  11.640 -0.0530  0.2894 -0.0595
    1MPD1    C414164   0.875   0.967  11.595 -0.0404  0.3812  0.8363
    1MPD1    C514165   0.815   0.886  11.506  0.3083 -0.4805  1.0689
    1MPD1     H14166   1.136   0.767  11.669  1.1003 -1.0753 -1.2832
    1MPD1    H114167   0.844   1.071  11.594 -1.2368  0.0484  2.7238
    1MPD1    H214168   0.810   0.688  11.412  2.2899 -0.0907 -0.6298
    1MPD1    H314169   0.722   0.922  11.463  0.9904 -0.5679 -0.4682
    1MPD1     N14170   1.083   1.008  11.730 -0.4204  0.1845  0.9024
    1MPD1    H514171   1.167   0.959  11.759 -0.9411 -0.6328  1.0380
    1MPD1    N114172   0.998   0.581  11.530  0.3852 -0.8675 -0.7012
    1MPD1    H614173   1.098   0.560  11.526  0.4952 -0.5724  0.4601
    1MPD1    H714174   0.952   0.550  11.445 -0.7180 -2.5647  0.5195
    2MPD1     C14175   4.438   1.084  11.195  0.6248  0.0140  0.3988
    2MPD1    C114176   4.440   1.001  11.084  0.2659  0.6964  0.1655
    2MPD1    C214177   4.549   0.916  11.064 -0.6226 -0.9071  0.3815
    2MPD1    C314178   4.664   0.930  11.151 -0.5987 -0.3524 -0.1696
    2MPD1    C414179   4.657   1.018  11.257  0.2856 -0.6582  0.4814
    2MPD1    C514180   4.544   1.092  11.281  0.9184  0.1839 -0.0531
    2MPD1     H14181   4.539   0.847  10.981  0.2084  1.7007 -1.8848
    2MPD1    H114182   4.727   1.022  11.340  3.0954 -1.6484 -1.8486
    2MPD1    H214183   4.351   1.146  11.215 -0.6214 -1.9084  0.9308
    2MPD1    H314184   4.535   1.152  11.371  0.6853  2.8086 -1.8391
    2MPD1     N14185   0.022   0.832  11.134 -0.1337  1.0855  0.6180
    2MPD1    H514186   0.008   0.762  11.061  3.3473  2.9718 -1.8262
    2MPD1    N114187   4.322   0.968  11.021  0.0050 -0.4647 -0.5277
    2MPD1    H614188   4.334   0.927  10.929 -0.3553 -0.0097 -0.7723
    2MPD1    H714189   4.258   1.046  11.034 -1.1361 -1.4634 -0.0322
    3MPD1     C14190   0.138   4.596  11.006 -0.3718 -0.8532  0.3633
    3MPD1    C114191   0.208   4.608  11.122 -0.1973  0.2258 -0.2420
    3MPD1    C214192   0.232   4.732  11.174  0.4690  0.5760  0.9442
    3MPD1    C314193   0.213   0.105  11.095  0.5355 -0.0193  0.3732
    3MPD1    C414194   0.146   0.086  10.976 -0.6833 -0.5520 -0.1892
    3MPD1    C514195   0.102   4.708  10.939  0.5862  0.3435 -0.3819
    3MPD1     H14196   0.273   0.000  11.274 -0.8918  0.4725  1.5174
    3MPD1    H114197   0.122   0.173  10.916  0.1195  0.6494  1.2259
    3MPD1    H214198   0.111   4.497  10.972  0.7113 -0.9826 -0.1361
    3MPD1    H314199   0.056   4.699  10.841 -0.4801 -0.2345  0.1761
    3MPD1     N14200   0.242   0.237  11.145  0.4442 -1.0414 -0.1209
    3MPD1    H514201   0.296   0.240  11.231  2.2264  1.9029 -1.3505
    3MPD1    N114202   0.196   4.498  11.212  0.0166 -0.1810 -0.3683
    3MPD1    H614203   0.195   4.409  11.162  0.9313 -0.3411 -0.1017
    3MPD1    H714204   0.265   4.495  11.287 -0.7618  2.6594  0.4371
    4MPD2     C14205   1.115   1.450  11.296 -0.2340 -0.4809  0.2197
    4MPD2    C114206   1.200   1.352  11.341 -0.2299  0.2583 -0.3042
    4MPD2    C214207   1.243   1.250  11.259 -0.2554  0.4486  0.5485
    4MPD2    C314208   1.172   1.233  11.140  0.9365  0.1169 -0.3047
    4MPD2    C414209   1.087   1.339  11.094  0.0815 -0.1172  0.0318
    4MPD2    C514210   1.073   1.452  11.168  0.6021 -0.1623 -0.3878
    4MPD2     H14211   1.303   1.171  11.303 -3.5400 -1.5503  1.4711
    4MPD2    H114212   1.045   1.344  10.994  1.0318  0.4498 -0.3301
    4MPD2    H214213   1.100   1.529  11.369  0.5354 -0.5499  0.4468
    4MPD2    H314214   0.995   1.522  11.139 -1.4655 -2.9048 -1.4059
    4MPD2     N14215   1.190   1.120  11.060  0.3005 -0.0414  0.1674
    4MPD2    H514216   1.145   1.118  10.969  1.8583  0.4762 -0.5979
    4MPD2    N114217   1.258   1.352  11.468  0.5455 -0.2256 -0.4057
    4MPD2    H714218   1.326   1.279  11.489  0.5091  0.2372  1.3172
    5TMC3    C114219   1.281   1.359  11.708  0.7662  0.1001  0.3034
    5TMC3    C214220   1.188   1.323  11.800  0.4592  0.0797 -0.1983
    5TMC3    C314221   1.183   1.193  11.845 -0.1980  0.4300 -0.2779
    5TMC3    C414222   1.386   1.279  11.675 -0.0907 -0.3546  0.0435
    5TMC3    C514223   1.397   1.157  11.732  0.6475 -0.1425  0.6421
    5TMC3    C614224   1.300   1.123  11.823 -0.2478  0.1123 -0.4310
    5TMC3     C14225   1.228   1.422  11.585 -0.8498 -0.5821  0.1302
    5TMC3     O14226   1.139   1.504  11.597  0.6469  0.6874  0.0541
    5TMC3     H14227   1.106   1.390  11.822  1.1766  0.1922  2.1381
    5TMC3    H114228   1.460   1.306  11.601 -1.3558 -1.0660 -1.4802
    5TMC3    H214229   1.300   1.026  11.873 -2.5845 -0.1336 -0.9195
    5TMC3    C714230   1.412   1.057  11.625 -0.2957 -0.2011 -0.5446
    5TMC3    C814231   1.061   1.137  11.783  0.4376 -0.6127  0.0689
    5TMC3    O114232   1.398   1.107  11.514 -0.1424  0.3655  0.1148
    5TMC3    O214233   0.966   1.210  11.753 -0.6009  0.4896 -0.0660
    6TMC3    C114234   0.217   0.709  11.193 -0.1817 -0.2186  0.3588
    6TMC3    C214235   0.162   0.586  11.159  0.0767 -0.3107  0.4604
    6TMC3    C314236   0.239   0.475  11.168  0.8759 -0.0437  0.1836
    6TMC3    C414237   0.342   0.716  11.245  0.1209  0.5018  0.4839
    6TMC3    C514238   0.413   0.597  11.266 -0.1124  0.1057 -0.0475
    6TMC3    C614239   0.360   0.479  11.224  0.2610 -0.1647  0.8007
    6TMC3     C14240   0.134   0.824  11.215  0.1883 -0.0755 -0.0812
    6TMC3     O14241   0.184   0.919  11.277  0.1087  0.1377  0.2861
    6TMC3     H14242   0.059   0.576  11.127  0.7798  2.4387 -2.6386
    6TMC3    H114243   0.378   0.812  11.279 -0.8179  1.3684 -0.9236
    6TMC3    H214244   0.424   0.393  11.206 -1.5882 -1.8322  2.0650
    6TMC3    C714245   0.553   0.613  11.242  0.4902  0.1512  0.5140
    6TMC3    C814246   0.200   0.359  11.086  0.8712  0.2292 -0.1661
    6TMC3    O114247   0.596   0.720  11.203 -0.4668 -0.2494 -0.1575
    6TMC3    O214248   0.119   0.376  10.997  0.9812  0.2993 -0.4115
    7MPD2     C14249   1.477   0.596  11.424 -0.2872 -0.5551  0.2166
    7MPD2    C114250   1.451   0.718  11.366  1.0310 -0.1394 -0.1291
    7MPD2    C214251   1.433   0.833  11.445 -0.0483 -0.3679  0.0409
    7MPD2    C314252   1.434   0.822  11.578  0.2702  0.0848 -0.2431
    7MPD2    C414253   1.467   0.707  11.638 -0.4541  0.3833  0.4720
    7MPD2    C514254   1.490   0.595  11.563  0.0899  0.1025 -0.0221
    7MPD2     H14255   1.416   0.929  11.398  0.5352 -0.2143  0.1399
    7MPD2    H114256   1.468   0.707  11.747 -0.1173  3.7715  0.4865
    7MPD2    H214257   1.482   0.500  11.373 -1.1199 -0.1654 -0.6166
    7MPD2    H314258   1.499   0.499  11.613 -1.4023 -2.5118 -4.7707
    7MPD2     N14259   1.416   0.924  11.671 -0.1028  0.1560  0.0815
    7MPD2    H514260   1.424   0.913  11.771  1.3618 -1.9094 -0.2432
    7MPD2    N114261   1.440   0.736  11.226 -0.6249  0.2653 -0.5043
    7MPD2    H714262   1.427   0.831  11.193 -1.9901  0.0481 -0.6042
    8TMC3    C114263   1.383   0.698  11.008 -0.4244 -0.1095 -0.8866
    8TMC3    C214264   1.279   0.648  10.948  0.2216  0.0061 -0.0126
    8TMC3    C314265   1.165   0.729  10.923 -0.2774  0.3436 -0.7635
    8TMC3    C414266   1.391   0.835  11.004 -0.0188  0.4677 -0.1110
    8TMC3    C514267   1.287   0.917  10.986  0.3273  0.3350  0.5863
    8TMC3    C614268   1.167   0.859  10.955  0.4697 -0.0671 -0.9805
    8TMC3     C14269   1.411   0.638  11.138  0.2066  0.1472 -0.5231
    8TMC3     O14270   1.370   0.523  11.150 -0.3846 -0.1871  0.4997
    8TMC3     H14271   1.277   0.540  10.943  1.4826 -0.1115  2.2120
    8TMC3    H114272   1.488   0.882  10.999  0.7621 -1.5372 -3.3828
    8TMC3    H214273   1.072   0.912  10.947  0.9304  1.0332  0.9035
    8TMC3    C714274   1.288   1.023  11.078  0.0896  0.3504 -0.3662
    8TMC3    C814275   1.044   0.674  10.969  0.0563 -0.0519 -0.0289
    8TMC3    O114276   1.372   1.009  11.164 -0.2435 -0.3054 -0.1700
    8TMC3    O214277   0.943   0.721  10.923 -0.2475 -0.5465 -0.0440
    9MPD2     C14278   1.013   0.384  11.212 -0.6342 -0.0389 -0.5728
    9MPD2    C114279   0.975   0.507  11.145  0.1216  0.5697 -0.2387
    9MPD2    C214280   0.843   0.554  11.168 -0.2397  0.0618 -0.6830
    9MPD2    C314281   0.758   0.470  11.245  0.2468  0.0148  0.3474
    9MPD2    C414282   0.806   0.359  11.308  0.0482 -0.1910 -0.6366
    9MPD2    C514283   0.931   0.317  11.296  0.1064 -0.1351 -0.3148
    9MPD2     H14284   0.804   0.646  11.128 -0.1420  0.3058 -0.2244
    9MPD2    H114285   0.737   0.290  11.355 -0.3155  0.4657 -0.2114
    9MPD2    H214286   1.109   0.339  11.189 -1.3555 -1.5501 -0.6077
    9MPD2    H314287   0.979   0.232  11.343 -0.6160  0.2670  1.1569
    9MPD2     N14288   0.618   0.493  11.276 -0.1837  0.3286 -0.5983
    9MPD2    H514289   0.569   0.420  11.328  0.3824 -0.7171 -1.5440
    9MPD2    N114290   1.071   0.570  11.057  0.3805 -1.1606  0.5016
    9MPD2    H714291   1.167   0.538  11.068  0.8203  0.0277  0.1088
    1MPD1     C14292   1.277   0.014  16.341  0.0233 -0.1047 -0.6015
    1MPD1    C114293   1.262   4.661  16.445  0.5673 -0.7605  0.0791
    1MPD1    C214294   1.170   4.561  16.431 -0.4580 -0.4752 -0.8762
    1MPD1    C314295   1.105   4.539  16.313  0.0752  0.7842  0.6322
    1MPD1    C414296   1.113   4.633  16.209  0.1361 -0.0019 -0.0504
    1MPD1    C514297   1.204   4.737  16.226 -0.5241 -0.4329  0.0361
    1MPD1     H14298   1.147   4.494  16.513  1.3038  0.3843  0.3275
    1MPD1    H114299   1.054   4.626  16.119 -2.0372  0.4399  1.3383
    1MPD1    H214300   1.347   0.097  16.338 -0.0271 -0.0936 -1.4823
    1MPD1    H314301   1.225   0.069  16.148 -0.7596 -1.2357 -0.7758
    1MPD1     N14302   1.008   4.432  16.286 -0.4815 -0.6388  0.0204
    1MPD1    H514303   0.951   4.458  16.206 -0.9442 -0.8998  0.2653
    1MPD1    N114304   1.331   4.684  16.567 -0.2771  0.0371 -0.1204
    1MPD1    H614305   1.334   4.604  16.630  0.3516 -1.6415 -2.2435
    1MPD1    H714306   1.428   4.716  16.567 -0.3221  0.1778 -1.4340
    2TMC2    C114307   0.686   4.190  16.202  0.3297 -0.8128  0.1939
    2TMC2    C214308   0.639   4.110  16.300  0.9486 -0.7814 -0.5474
    2TMC2    C314309   0.712   4.096  16.413  0.1984 -0.6252 -0.3534
    2TMC2    C414310   0.806   4.250  16.209  0.0822  0.4446 -0.3656
    2TMC2    C514311   0.878   4.237  16.323 -0.3123 -0.4831  0.0831
    2TMC2    C614312   0.838   4.147  16.416 -0.0250 -0.3175  0.4089
    2TMC2     C14313   0.585   4.261  16.125 -0.1991 -0.1550 -0.4272
    2TMC2     O14314   0.466   4.247  16.152 -0.3624 -0.1453  0.1216
    2TMC2     H14315   0.537   4.073  16.292  0.2557  0.7757  0.9610
    2TMC2    H114316   0.844   4.310  16.127  0.8723 -0.0337 -0.3530
    2TMC2    H214317   0.898   4.120  16.502  0.1534 -1.7870 -0.1804
    2TMC2    C714318   0.992   4.319  16.359 -0.6513  0.7034 -0.8350
    2TMC2    C814319   0.670   3.994  16.506  0.8401 -0.2588  0.4881
    2TMC2    O114320   1.068   4.277  16.449  0.2528 -0.3339 -0.2660
    2TMC2    O214321   0.704   3.990  16.622  0.0305  0.0800  0.2378
    2TMC2    O514322   0.595   3.904  16.444  0.0519 -0.1689  0.1404
    2TMC2    H514323   0.617   3.896  16.349 -2.0876 -1.7563 -0.2098
    3MPD1     C14324   0.449   4.608  15.783 -0.0402  0.3954 -0.1825
    3MPD1    C114325   0.551   4.532  15.729 -0.1277 -0.6723 -0.3779
    3MPD1    C214326   0.610   4.429  15.799 -0.2379 -0.1984 -0.1740
    3MPD1    C314327   0.560   4.395  15.926  0.8042 -0.0941 -0.4782
    3MPD1    C414328   0.462   4.480  15.984 -0.4564  0.0104  0.5034
    3MPD1    C514329   0.411   4.587  15.914  0.2053 -0.3672  0.5054
    3MPD1     H14330   0.683   4.372  15.742 -0.0282  0.8009 -0.9059
    3MPD1    H114331   0.437   4.476  16.089 -0.9526 -1.9484  0.3185
    3MPD1    H214332   0.398   4.688  15.729  0.1871  0.4026 -0.3904
    3MPD1    H314333   0.321   4.633  15.953 -1.7058 -3.0426 -0.7439
    3MPD1     N14334   0.630   4.308  16.002  0.4922  0.0907 -0.9231
    3MPD1    H514335   0.710   4.266  15.956  2.8616  2.5504  0.9967
    3MPD1    N114336   0.615   4.577  15.608  0.2568 -0.0177 -0.4226
    3MPD1    H614337   0.693   4.638  15.632 -0.5000  1.3107 -1.3368
    3MPD1    H714338   0.558   4.639  15.550 -0.0468  0.5814  0.5188
    1TMC1    C114339   3.928   3.240  13.535 -0.4955 -0.5709  0.0466
    1TMC1    C214340   3.923   3.116  13.474 -0.0485 -0.1278  0.1220
    1TMC1    C314341   3.809   3.084  13.399  0.0109 -0.6474 -0.0436
    1TMC1    C414342   3.827   3.331  13.511  0.3994  0.7922 -0.0761
    1TMC1    C514343   3.727   3.295  13.437  0.1070  0.0357 -0.2387
    1TMC1    C614344   3.715   3.178  13.369  0.0378 -0.1765 -1.2496
    1TMC1     C14345   4.046   3.281  13.589  0.0309  1.0205  0.0916
    1TMC1     O14346   4.064   3.402  13.598  0.0346 -0.4250 -0.0715
    1TMC1     H14347   4.013   3.055  13.473  0.1355  0.1213  1.4839
    1TMC1    H114348   3.830   3.431  13.553  0.5986  0.1785  1.3605
    1TMC1    H214349   3.635   3.155  13.299  0.5017 -1.7425 -1.2723
    1TMC1    C714350   3.610   3.390  13.417 -0.5918  0.9570  0.3955
    1TMC1    C814351   3.817   2.986  13.296 -0.5353  0.3089  0.3778
    1TMC1    O114352   3.500   3.344  13.405  0.2372 -0.5034 -0.6687
    1TMC1    O214353   3.731   2.920  13.246  0.1402 -0.5096  0.3285
    1TMC1    O314354   3.661   3.481  13.329  0.0389 -0.2055  0.3502
    1TMC1    H314355   3.758   3.490  13.337 -0.1404  1.8336  0.2890
    1TMC1    O514356   3.934   3.010  13.243 -0.2438 -0.4341  0.4060
    1TMC1    H514357   3.966   3.094  13.282  0.9143 -0.9982  0.6596
    2MPD2     C14358   4.332   3.317  13.681  0.0465  0.6919  0.0632
    2MPD2    C114359   4.262   3.197  13.689  0.4305  0.1176 -0.4773
    2MPD2    C214360   4.330   3.099  13.758 -0.6860  0.2618 -0.2078
    2MPD2    C314361   4.448   3.118  13.819  0.1886 -0.2245 -0.0071
    2MPD2    C414362   4.510   3.240  13.810  0.1587 -0.2530  0.0586
    2MPD2    C514363   4.452   3.335  13.740 -0.5176 -0.8433  0.1069
    2MPD2     H14364   4.270   3.009  13.771  0.2449 -0.5720 -1.6236
    2MPD2    H114365   4.598   3.265  13.868  0.8996 -0.1483 -1.1258
    2MPD2    H214366   4.281   3.396  13.628  1.5104  0.4216 -1.7370
    2MPD2    H314367   4.500   3.432  13.728  1.1005 -1.9724 -2.5125
    2MPD2     N14368   4.502   3.007  13.883 -0.3483 -0.0186  0.5807
    2MPD2    H514369   4.457   2.918  13.866 -0.8330  0.5960 -1.3921
    2MPD2    N114370   4.130   3.178  13.631  0.1197  0.0399  0.3068
    2MPD2    H714371   4.093   3.083  13.630 -0.8729  0.4232 -0.5751
    3TCq1    O114372   0.231   2.766  14.222  0.0228  0.1297 -0.6792
    3TCq1    C114373   0.158   2.661  14.179 -0.0061 -0.2380  0.7049
    3TCq1    O214374   0.191   2.544  14.184 -0.1883  0.2713 -0.4040
    3TCq1    C214375   0.033   2.708  14.119 -0.1427  0.0696  0.5440
    3TCq1    C314376   4.667   2.620  14.110  0.1189  0.6471 -0.4614
    3TCq1    C414377   4.547   2.670  14.078  0.3438  0.1917  0.2969
    3TCq1    C514378   4.538   2.800  14.040  0.0503  0.3110 -0.0153
    3TCq1    C614379   4.648   2.878  14.022  0.2743 -0.5262 -0.2509
    3TCq1    C714380   0.030   2.832  14.063 -0.2462 -0.4435 -0.7043
    3TCq1    C814381   4.624   3.004  13.956  0.1524 -0.1968 -0.7015
    3TCq1    O414382   4.703   3.092  13.991  0.3392  0.6760 -0.5523
    3TCq1    C914383   4.430   2.588  14.067 -0.1316  0.2336 -0.0321
    3TCq1    O514384   4.318   2.646  14.046 -0.5498 -0.2464  0.8357
    3TCq1    O614385   4.442   2.462  14.064  0.1291 -0.4181  0.8241
    3TCq1    H114386   0.171   2.841  14.244 -1.7461 -1.3536 -0.3700
    3TCq1    H214387   4.681   2.521  14.151  0.7523  1.1222  0.4707
    3TCq1    H314388   4.440   2.830  14.002 -1.0147 -0.6062  2.0479
    3TCq1    H414389   0.122   2.889  14.061 -0.7338  0.3203 -1.2602
    1MPD2     C14390   4.043   3.870  14.176 -0.0390  0.3171 -0.4008
    1MPD2    C114391   3.983   3.866  14.303 -0.0211 -0.0242 -0.1779
    1MPD2    C214392   4.068   3.871  14.416 -0.2070  0.0243 -0.0565
    1MPD2    C314393   4.199   3.889  14.402 -0.5118  0.2588  0.0204
    1MPD2    C414394   4.260   3.904  14.277 -0.3154  0.1081  0.2276
    1MPD2    C514395   4.178   3.893  14.163 -0.4299  0.4607  0.1434
    1MPD2     H14396   4.023   3.870  14.515  1.8825  0.1852  0.9003
    1MPD2    H114397   4.367   3.914  14.265 -0.5498  1.3965 -0.7728
    1MPD2    H214398   3.979   3.872  14.088 -0.8269  1.3225  0.1955
    1MPD2    H314399   4.228   3.898  14.067 -2.1353 -1.9302 -0.8918
    1MPD2     N14400   4.266   3.917  14.527  0.0008 -0.6991 -0.5111
    1MPD2    H514401   4.210   3.912  14.611  0.3385 -4.0247 -0.4852
    1MPD2    N114402   3.838   3.854  14.308 -0.0799 -0.0487 -0.6083
    1MPD2    H714403   3.783   3.879  14.227  0.1318 -0.5093 -0.8966
    2TMC3    C114404   3.627   3.810  14.392  0.2224  0.6149  0.7310
    2TMC3    C214405   3.565   3.799  14.516  0.1039  0.3985  0.0110
    2TMC3    C314406   3.482   3.900  14.565 -0.3309 -0.6991  0.1721
    2TMC3    C414407   3.576   3.903  14.305  0.5887 -0.3398  0.4982
    2TMC3    C514408   3.500   4.008  14.359  0.5854  0.6236 -0.4441
    2TMC3    C614409   3.464   4.016  14.488 -0.3556 -0.5112  0.9408
    2TMC3     C14410   3.767   3.825  14.414  0.2820  0.5926 -0.5201
    2TMC3     O14411   3.800   3.797  14.530  0.2780  0.2439 -0.0679
    2TMC3     H14412   3.595   3.721  14.586 -0.4445  1.1013  1.0297
    2TMC3    H114413   3.604   3.895  14.200  0.4720  0.4286  0.4095
    2TMC3    H214414   3.397   4.091  14.529  0.2077  0.6624 -0.2801
    2TMC3    C714415   3.398   4.059  14.262  0.3824 -0.1494  0.1197
    2TMC3    C814416   3.495   3.933  14.703 -0.2581 -0.1301 -0.1408
    2TMC3    O114417   3.323   3.980  14.204 -0.0197  0.5063  0.4162
    2TMC3    O214418   3.415   4.001  14.765 -0.7812 -0.4378 -0.0861
    3TCq1    O114419   3.408   0.378  14.576  0.0141  0.0969 -0.5306
    3TCq1    C114420   3.387   0.243  14.583 -0.7315 -0.6612  0.2230
    3TCq1    O214421   3.460   0.155  14.619  0.3074  0.0528 -0.2204
    3TCq1    C214422   3.262   0.218  14.508  0.4257 -0.2744 -1.0308
    3TCq1    C314423   3.169   0.318  14.491  0.2804  1.1753 -0.6621
    3TCq1    C414424   3.088   0.327  14.380  0.0589 -0.7440  0.4724
    3TCq1    C514425   3.082   0.220  14.291 -0.4419 -0.0358 -0.0492
    3TCq1    C614426   3.170   0.118  14.305 -0.1023 -0.0072  0.3360
    3TCq1    C714427   3.259   0.111  14.413 -0.3995  0.1499 -0.4271
    3TCq1    C814428   3.149   0.010  14.212  0.7664  0.7673 -0.7591
    3TCq1    O414429   3.076   0.023  14.117  0.3026  0.0144 -0.0008
    3TCq1    C914430   3.004   0.444  14.360 -0.3678  0.0550 -0.2642
    3TCq1    O514431   2.914   0.427  14.273 -0.8156  0.2601  0.3754
    3TCq1    O614432   3.017   0.540  14.438 -0.1574  0.1281 -0.5282
    3TCq1    H114433   3.343   0.409  14.509 -2.9871 -1.7253  1.4860
    3TCq1    H214434   3.161   0.392  14.569 -1.1712  0.2087  0.0914
    3TCq1    H314435   3.016   0.231  14.206 -0.8380  2.0741  0.5394
    3TCq1    H414436   3.339   0.038  14.417  0.7662  1.3340 -2.3114
    4MPD2     C14437   3.090   4.461  14.121  0.8358 -0.3882 -0.1513
    4MPD2    C114438   3.191   4.506  14.207  0.0173 -0.3996  0.5729
    4MPD2    C214439   3.288   4.412  14.245  0.7366  0.4321 -0.2686
    4MPD2    C314440   3.284   4.275  14.221 -0.4934 -0.5821  0.2189
    4MPD2    C414441   3.175   4.232  14.147 -0.2345 -0.8181  0.2266
    4MPD2    C514442   3.086   4.323  14.093  0.6885  0.5195  0.3952
    4MPD2     H14443   3.366   4.433  14.318 -0.5302  0.3203  1.1147
    4MPD2    H114444   3.160   4.130  14.111  0.3976 -1.5858  2.1662
    4MPD2    H214445   3.015   4.531  14.087 -0.5551 -1.7011  0.2111
    4MPD2    H314446   3.009   4.286  14.027  3.0817 -0.6883 -1.7350
    4MPD2     N14447   3.382   4.199  14.271 -0.7071  0.7140  0.1278
    4MPD2    H514448   3.453   4.233  14.336 -0.9524 -0.8221  1.1960
    4MPD2    N114449   3.209   4.636  14.255  0.1095 -0.2191  0.2927
    4MPD2    H714450   3.283   4.647  14.324  0.0745  0.4932  0.2165
    5TMC2    C114451   4.264   4.019  14.852 -0.1869  0.0596  0.8166
    5TMC2    C214452   4.293   4.155  14.863 -0.5286 -0.3831 -0.2538
    5TMC2    C314453   4.398   4.202  14.780  0.2637 -0.3867  0.2643
    5TMC2    C414454   4.338   3.941  14.774 -0.3629 -0.1394  0.1651
    5TMC2    C514455   4.430   3.988  14.690  0.0348 -0.5016 -0.8306
    5TMC2    C614456   4.468   4.119  14.700 -0.2721 -0.0283 -0.3054
    5TMC2     C14457   4.121   3.997  14.829 -0.2481  0.0855  0.0210
    5TMC2     O14458   4.091   3.909  14.746  0.3052  0.6589 -0.1437
    5TMC2     H14459   4.238   4.221  14.929  0.4129 -0.0061  0.1665
    5TMC2    H114460   4.303   3.840  14.760  0.3212 -0.5497  1.4238
    5TMC2    H214461   4.517   4.162  14.614  0.5247 -1.1626 -0.4230
    5TMC2    C714462   4.406   3.946  14.551 -0.3112 -0.3796 -0.2249
    5TMC2    C814463   4.423   4.342  14.778 -0.1704 -0.1693  0.0607
    5TMC2    O114464   4.491   3.974  14.467  0.0863  0.3399  0.5133
    5TMC2    O214465   4.399   4.411  14.876 -0.4964  0.1394  1.0710
    5TMC2    O514466   4.391   4.371  14.651  0.0514 -0.2234 -0.1285
    5TMC2    H514467   4.373   4.302  14.583  0.7664  0.3765 -0.9364
    6MPD2     C14468   3.631   4.041  14.956  1.1680  0.1059  0.2345
    6MPD2    C114469   3.696   4.006  14.836 -0.6450 -0.2194 -0.2268
    6MPD2    C214470   3.833   4.012  14.829  0.3165 -1.2231  0.2437
    6MPD2    C314471   3.909   4.033  14.933  0.1221 -0.1324 -0.5434
    6MPD2    C414472   3.849   4.055  15.049 -0.3222  0.6112  0.1951
    6MPD2    C514473   3.711   4.064  15.061  0.3321  0.0277  0.0135
    6MPD2     H14474   3.880   3.984  14.735  0.0862 -1.3313  0.1611
    6MPD2    H114475   3.901   4.081  15.140 -0.9246 -4.1929  1.9321
    6MPD2    H214476   3.525   4.024  14.966  1.3669 -0.6508  1.0201
    6MPD2    H314477   3.665   4.098  15.153 -2.2051 -2.1049 -0.4646
    6MPD2     N14478   4.049   4.053  14.926  0.3223  0.3162  0.2148
    6MPD2    H514479   4.091   4.098  15.007  0.5780 -1.0724  0.8558
    6MPD2    N114480   3.631   3.942  14.724  0.9148  0.0472 -0.1496
    6MPD2    H714481   3.698   3.907  14.657 -1.9733 -3.3757 -1.2002
  945NH3     N114482   1.684   1.555   3.161 -0.9239 -0.3144  0.3086
  945NH3     H214483   1.650   1.546   3.066  1.0665 -1.1502 -0.3437
  945NH3     H314484   1.775   1.601   3.152 -1.4574  0.7246  0.2443
  945NH3     H414485   1.623   1.624   3.202 -2.1530 -0.3262 -1.5377
  946SOD     NA14486   1.766   3.775  13.383 -0.0393  0.4524 -0.2439
  947SOD     NA14487   0.128   4.526  12.069 -0.2278 -0.1332  0.3125
  948SOD     NA14488   0.271   4.517   3.031  0.0007  0.1257 -0.6196
  949SOD     NA14489   0.427   1.550  10.922  0.0785  0.3076 -0.2436
  950SOD     NA14490   3.643   0.396  12.056 -0.0945  0.0773  0.2298
  951SOD     NA14491   4.170   0.062   2.880 -0.3674  0.0368  0.1872
  952SOD     NA14492   2.704   2.411  17.097 -0.2757 -0.1707 -0.8165
  953SOD     NA14493   0.681   2.958   5.088  0.0644 -0.0034 -0.1768
  954SOL     OW14494   1.354   3.340   8.095  0.3510  0.7319  0.1617
  954SOL    HW114495   1.332   3.315   8.005  1.5324 -0.5705  0.2247
  954SOL    HW214496   1.381   3.430   8.080  2.9534 -0.2786 -1.3808
  955SOL     OW14497   4.697   0.361  17.558 -0.3981  0.4994 -0.1606
  955SOL    HW114498   4.712   0.381  17.650 -0.4929 -0.9338  0.1669
  955SOL    HW214499   0.043   0.330  17.530 -1.1942 -0.0561 -1.9997
  956SOL     OW14500   1.309   3.947  15.441  0.3095 -0.7340 -0.1211
  956SOL    HW114501   1.355   3.980  15.518 -1.7948  0.8554  0.4275
  956SOL    HW214502   1.262   3.877  15.487 -1.0380 -0.7012 -1.4467
  957SOL     OW14503   0.409   3.380  12.010  0.6283 -0.2797 -0.1971
  957SOL    HW114504   0.322   3.366  12.048 -0.0448  0.6363 -1.3894
  957SOL    HW214505   0.417   3.332  11.928  1.1497 -0.0433 -0.2886
  958SOL     OW14506   2.686   1.461   6.029 -0.1265 -0.0250  0.1545
  958SOL    HW114507   2.705   1.553   6.050 -1.8632  0.8058 -1.8759
  958SOL    HW214508   2.767   1.424   5.994  0.9570  0.3202  2.3336
  959SOL     OW14509   3.415   3.341  12.311  0.1659 -0.6502  0.1426
  959SOL    HW114510   3.416   3.429  12.349 -0.8002 -1.2174  1.5108
  959SOL    HW214511   3.497   3.351  12.263  0.0634 -2.8245 -0.4539
  960SOL     OW14512   1.484   0.269   8.557  1.2417  0.0072 -0.0868
  960SOL    HW114513   1.437   0.195   8.518 -0.3644  0.2008  1.4430
  960SOL    HW214514   1.550   0.286   8.491 -1.4597  0.2668 -2.7396
  961SOL     OW14515   4.146   0.356   1.753  0.2946 -0.5719 -0.0473
  961SOL    HW114516   4.167   0.422   1.687  2.0275 -0.7586  0.3006
  961SOL    HW214517   4.142   0.281   1.693  1.1801 -0.0477 -0.7599
  962SOL     OW14518   0.507   3.864   2.169  0.0981 -0.2250 -0.8813
  962SOL    HW114519   0.498   3.858   2.074 -0.3515  0.1820 -0.8691
  962SOL    HW214520   0.443   3.925   2.204  2.3686 -0.0969  3.0186
  963SOL     OW14521   3.423   4.706   1.878  0.6316 -0.2089 -0.4040
  963SOL    HW114522   3.411   4.682   1.786 -1.5166 -0.1249 -0.1425
  963SOL    HW214523   3.416   4.619   1.918 -0.9188 -0.0526 -0.3465
  964SOL     OW14524   0.188   2.680   1.859 -0.2257  0.1469  0.2425
  964SOL    HW114525   0.156   2.682   1.949 -0.6383  1.6536  0.0696
  964SOL    HW214526   0.227   2.593   1.859 -1.8360 -0.5598 -0.3733
  965SOL     OW14527   1.532   0.883   5.973 -0.5262  0.0157 -0.5474
  965SOL    HW114528   1.581   0.801   5.979  0.6689  0.7233 -0.6433
  965SOL    HW214529   1.449   0.856   5.933 -0.6447  0.6787 -0.7445
  966SOL     OW14530   4.373   2.378  12.003  0.5767 -0.4066  0.0776
  966SOL    HW114531   4.350   2.374  11.910  0.7528  0.3649 -0.0037
  966SOL    HW214532   4.290   2.356  12.047  1.1719 -0.2460  1.2828
  967SOL     OW14533   1.837   3.134   9.786 -0.1342  0.0622 -0.3060
  967SOL    HW114534   1.849   3.205   9.724 -0.6681 -0.5123 -1.0773
  967SOL    HW214535   1.882   3.171   9.861 -1.0807  0.9893 -0.1969
  968SOL     OW14536   4.721   0.156  16.962 -0.4048  0.0910  0.5346
  968SOL    HW114537   0.021   0.131  17.045  2.4119 -0.1005 -0.9086
  968SOL    HW214538   4.630   0.161  16.991 -0.3071 -1.2607  1.0580
  969SOL     OW14539   1.499   3.509   3.048  0.1710  0.0505  0.4034
  969SOL    HW114540   1.528   3.520   2.958  1.1517  0.0351  0.7224
  969SOL    HW214541   1.583   3.502   3.093  0.8443  1.3227 -0.6753
  970SOL     OW14542   0.108   4.095   4.091 -0.2288 -0.2322 -0.2588
  970SOL    HW114543   0.079   4.176   4.132  2.5759 -0.6831  2.5973
  970SOL    HW214544   0.045   4.037   4.132 -2.2343  2.6637  0.7279
  971SOL     OW14545   3.611   2.438   5.226 -0.0110  0.3023 -0.2239
  971SOL    HW114546   3.629   2.344   5.217 -1.4717 -0.0442  0.5403
  971SOL    HW214547   3.527   2.447   5.180 -0.0488 -0.2819 -0.2689
  972SOL     OW14548   1.913   1.643   7.661 -0.0770  0.0462  0.1765
  972SOL    HW114549   1.883   1.552   7.655 -1.6759  0.5068  1.0123
  972SOL    HW214550   1.881   1.667   7.747 -1.8386  1.2530 -0.8111
  973SOL     OW14551   1.325   3.654  16.018 -0.0154  0.4190  0.2417
  973SOL    HW114552   1.341   3.734  15.968  0.8571  0.6654  0.9258
  973SOL    HW214553   1.392   3.664  16.085  1.6394  0.7859 -1.4633
  974SOL     OW14554   1.505   2.466   7.948 -0.1541  0.0979 -0.3458
  974SOL    HW114555   1.534   2.446   8.037 -1.6509 -0.4128  0.0277
  974SOL    HW214556   1.578   2.522   7.922  1.7129 -1.5429  1.3471
  975SOL     OW14557   3.336   0.451  13.277 -0.3233 -0.0578  0.2988
  975SOL    HW114558   3.313   0.539  13.247 -2.6717 -0.5910  0.5744
  975SOL    HW214559   3.343   0.405  13.194 -1.2543 -0.4645  0.4476
  976SOL     OW14560   0.366   1.885   9.967  0.1248 -0.0158 -0.0524
  976SOL    HW114561   0.372   1.921  10.055  2.1202  0.7583 -0.5014
  976SOL    HW214562   0.270   1.885   9.959  0.1077 -1.8704  0.0085
  977SOL     OW14563   2.033   0.938   7.199 -0.5913  0.0377 -0.1497
  977SOL    HW114564   2.126   0.963   7.195 -0.2861 -0.8769  0.9349
  977SOL    HW214565   2.044   0.846   7.222  1.1139  0.9188  2.6225
  978SOL     OW14566   1.660   4.185  17.180  0.0355  0.1071 -0.2253
  978SOL    HW114567   1.626   4.269  17.149 -0.1569  0.3688  0.6905
  978SOL    HW214568   1.597   4.122  17.145 -0.8463  1.6029 -1.3292
  979SOL     OW14569   0.761   0.195  16.996 -0.2448 -0.1221 -0.3219
  979SOL    HW114570   0.686   0.162  17.045 -0.7253  2.7643  0.8639
  979SOL    HW214571   0.722   0.278  16.969  2.0239  0.8330 -0.7519
  980SOL     OW14572   1.279   1.050   9.961 -0.3808  0.3959 -0.2479
  980SOL    HW114573   1.184   1.035   9.962 -0.2885 -0.3698 -3.1088
  980SOL    HW214574   1.283   1.144   9.942 -0.5566  0.6989  1.2421
  981SOL     OW14575   3.291   3.724   6.380  0.2825 -0.4888 -0.3857
  981SOL    HW114576   3.230   3.696   6.312 -1.9216 -1.1841  1.8731
  981SOL    HW214577   3.235   3.756   6.451  0.8800  0.1216 -0.1909
  982SOL     OW14578   4.388   2.987   8.728 -0.3153  0.6126 -0.5182
  982SOL    HW114579   4.420   2.898   8.711 -1.2871  0.2770 -0.6180
  982SOL    HW214580   4.297   2.970   8.702 -0.8991  0.1775  1.7559
  983SOL     OW14581   3.806   2.546  12.092 -0.5864  0.1935 -0.0126
  983SOL    HW114582   3.842   2.534  12.180  0.3887  1.5256 -0.2239
  983SOL    HW214583   3.713   2.563  12.106 -0.3319  0.0159  1.8715
  984SOL     OW14584   1.010   2.158   5.335 -0.3478 -0.1057  0.0051
  984SOL    HW114585   1.068   2.233   5.331 -1.1299  0.4320 -1.2970
  984SOL    HW214586   0.921   2.185   5.357 -0.4362 -0.6986  0.3634
  985SOL     OW14587   3.875   2.206  16.466 -0.4756 -0.4298 -0.0584
  985SOL    HW114588   3.918   2.173  16.387  0.2021  0.7524 -0.1841
  985SOL    HW214589   3.948   2.210  16.528 -0.5698 -1.0293  0.0865
  986SOL     OW14590   0.707   3.177   5.647  0.0991  0.0352 -0.0559
  986SOL    HW114591   0.666   3.223   5.720  0.3241 -0.9239  0.6856
  986SOL    HW214592   0.703   3.236   5.572 -0.3277  1.4023  1.0302
  987SOL     OW14593   1.145   2.611   2.304 -0.0424  0.0196  0.6503
  987SOL    HW114594   1.123   2.615   2.397  0.2514  0.1403  0.7161
  987SOL    HW214595   1.103   2.695   2.286 -0.0879  0.2845  1.9918
  988SOL     OW14596   4.676   4.323   9.803  0.1244  0.1595  0.0933
  988SOL    HW114597   4.686   4.376   9.724 -2.5702 -2.9411 -2.3711
  988SOL    HW214598   4.671   4.395   9.865 -0.6277 -0.5659  0.8744
  989SOL     OW14599   2.031   4.431   7.784  0.3393  0.3398 -0.2908
  989SOL    HW114600   1.947   4.384   7.778 -0.2495  1.3443  0.0635
  989SOL    HW214601   2.021   4.494   7.855  2.1145  2.6592 -2.1203
  990SOL     OW14602   4.426   2.626   5.469  0.3084 -0.1681  0.3475
  990SOL    HW114603   4.331   2.628   5.453 -0.0288 -0.3108  2.2345
  990SOL    HW214604   4.442   2.720   5.462 -0.4616 -0.2289 -2.1121
  991SOL     OW14605   0.259   4.241  17.579  0.6334 -0.2447  0.0751
  991SOL    HW114606   0.178   4.193  17.595  1.7899 -2.0247  0.4927
  991SOL    HW214607   0.225   4.319  17.535  0.6415 -1.2004 -1.6106
  992SOL     OW14608   0.125   1.279   6.379  0.2084  0.8790 -0.1380
  992SOL    HW114609   0.083   1.217   6.439 -0.8043  0.4208 -1.3249
  992SOL    HW214610   0.081   1.356   6.415 -2.5315 -1.8345  2.3571
  993SOL     OW14611   2.834   0.270   6.586 -0.2916 -0.1188  0.1423
  993SOL    HW114612   2.793   0.259   6.672  0.3985 -0.0794  0.4800
  993SOL    HW214613   2.861   0.179   6.575 -0.3825 -0.4838  2.8682
  994SOL     OW14614   1.449   3.738   3.724 -0.2065 -0.0266 -0.3807
  994SOL    HW114615   1.433   3.699   3.810 -0.9060 -0.3746 -0.6698
  994SOL    HW214616   1.467   3.657   3.676 -0.7057 -0.3519 -0.0187
  995SOL     OW14617   0.542   4.571  12.182  0.3097 -0.0973  0.4920
  995SOL    HW114618   0.631   4.577  12.216 -0.1686 -0.4007  1.7700
  995SOL    HW214619   0.560   4.543  12.092 -0.1551 -1.0767  0.6963
  996SOL     OW14620   2.101   0.591   3.212  0.1243  0.6052  0.2216
  996SOL    HW114621   2.150   0.555   3.138 -1.1465 -2.1714  0.7672
  996SOL    HW214622   2.163   0.575   3.283  0.5771 -2.1072 -0.7886
  997SOL     OW14623   1.744   4.103   7.304  0.1388  0.6476 -0.3400
  997SOL    HW114624   1.769   4.058   7.385 -2.4747 -1.6837 -0.8462
  997SOL    HW214625   1.789   4.049   7.239 -0.5510 -1.5383  1.0014
  998SOL     OW14626   0.393   3.675  15.147  0.0548 -0.1320  0.7133
  998SOL    HW114627   0.404   3.750  15.205  1.0430 -0.2181  0.6351
  998SOL    HW214628   0.300   3.666  15.127  0.5377 -0.0554 -1.6520
  999SOL     OW14629   2.290   3.195   0.386  0.5806 -0.7814  0.4009
  999SOL    HW114630   2.383   3.212   0.405 -0.1482  2.9993  0.5339
  999SOL    HW214631   2.259   3.283   0.365  2.0145 -0.6956 -1.3469
 1000SOL     OW14632   3.497   2.001   5.029  0.0271 -0.5032 -0.1267
 1000SOL    HW114633   3.427   1.935   5.032  1.0645 -1.6287 -0.3215
 1000SOL    HW214634   3.552   1.960   4.963 -1.8290 -0.2896 -1.8026
 1001SOL     OW14635   1.662   2.657  11.459  0.1695  0.3355  0.2906
 1001SOL    HW114636   1.643   2.622  11.546  0.7163 -2.3128 -0.6584
 1001SOL    HW214637   1.654   2.752  11.467  0.1003  0.2187  1.6191
 1002SOL     OW14638   3.828   1.105   7.278 -0.8700  0.1104  0.5181
 1002SOL    HW114639   3.762   1.052   7.322 -1.1419  1.0285  1.2030
 1002SOL    HW214640   3.855   1.044   7.209 -1.2426  0.7151 -0.1754
 1003SOL     OW14641   3.980   2.036  14.690  0.6332  0.6128  0.3000
 1003SOL    HW114642   4.058   2.013  14.640 -0.2450 -0.6555 -0.4975
 1003SOL    HW214643   3.990   2.123  14.729  3.9825  0.7103 -0.7611
 1004SOL     OW14644   3.514   2.771   6.134  1.5937 -0.5231  0.0279
 1004SOL    HW114645   3.502   2.856   6.176 -0.1331 -0.5797 -0.3845
 1004SOL    HW214646   3.424   2.741   6.124  1.6787 -0.4636 -0.9005
 1005SOL     OW14647   4.540   4.680  13.721 -0.3669  0.3744 -0.5684
 1005SOL    HW114648   4.459   4.720  13.754 -0.0244 -1.3414  2.3748
 1005SOL    HW214649   4.534   4.588  13.746 -0.2780  1.0190  1.8574
 1006SOL     OW14650   1.979   1.198   9.335  0.4017  0.5626 -0.5999
 1006SOL    HW114651   2.052   1.212   9.275 -0.9775  2.7931 -1.7568
 1006SOL    HW214652   1.985   1.272   9.394  0.7549 -0.9942  1.2987
 1007SOL     OW14653   3.074   0.391   2.847  0.1557 -0.1115 -0.5085
 1007SOL    HW114654   3.119   0.418   2.767 -0.3918 -2.1736 -1.5102
 1007SOL    HW214655   3.105   0.459   2.907  1.0718 -1.4237  0.5361
 1008SOL     OW14656   0.261   3.291   6.747  0.6183  0.3820  0.3748
 1008SOL    HW114657   0.167   3.298   6.729  0.2286 -0.9691  1.8643
 1008SOL    HW214658   0.264   3.301   6.842 -1.8234  0.9826  0.3775
 1009SOL     OW14659   0.954   4.154   1.985  0.2874  0.1411 -0.6411
 1009SOL    HW114660   1.020   4.188   2.046 -2.0858 -0.1381  2.0457
 1009SOL    HW214661   0.907   4.237   1.972  1.3172  0.7769 -0.3073
 1010SOL     OW14662   2.456   3.591   7.786  0.7942  0.2335  0.6250
 1010SOL    HW114663   2.496   3.553   7.864  0.2409 -2.1620 -0.2845
 1010SOL    HW214664   2.524   3.560   7.726 -0.1348 -0.5094 -0.0459
 1011SOL     OW14665   3.181   1.218   4.792  0.7055  0.0240 -0.4647
 1011SOL    HW114666   3.185   1.199   4.886 -2.0190  1.1495 -0.0937
 1011SOL    HW214667   3.087   1.210   4.776  0.2227  2.7667  1.0260
 1012SOL     OW14668   3.545   2.742  13.179 -0.3143 -0.3078  0.2545
 1012SOL    HW114669   3.459   2.776  13.203 -0.4759 -0.9828  0.6166
 1012SOL    HW214670   3.604   2.810  13.212  1.7002 -3.0442  2.2369
 1013SOL     OW14671   1.576   2.886   8.032 -0.3534 -0.0564  0.8558
 1013SOL    HW114672   1.504   2.895   8.094 -2.0122 -0.7645 -0.9764
 1013SOL    HW214673   1.568   2.961   7.973  0.6712  0.6068  1.5571
 1014SOL     OW14674   4.071   2.093  16.295  0.3384  0.6626 -0.3542
 1014SOL    HW114675   4.031   2.011  16.325  1.5045  0.7579  1.5194
 1014SOL    HW214676   4.009   2.122  16.229  0.5914 -1.4118 -1.5143
 1015SOL     OW14677   2.252   2.273   4.133 -0.2828 -0.1836 -0.2074
 1015SOL    HW114678   2.323   2.333   4.112  0.3500 -0.1375  2.1165
 1015SOL    HW214679   2.188   2.308   4.070  0.5074  2.6790  0.5660
 1016SOL     OW14680   4.702   2.389   5.164  0.2123  0.2858  0.6372
 1016SOL    HW114681   4.653   2.355   5.239 -1.6735  1.9534  0.1592
 1016SOL    HW214682   4.720   2.312   5.109 -1.9012 -0.8766  1.5745
 1017SOL     OW14683   2.227   1.769   3.852 -0.1195 -0.1500 -0.3383
 1017SOL    HW114684   2.277   1.718   3.915 -1.2278 -1.5673 -0.6006
 1017SOL    HW214685   2.265   1.857   3.860  1.9540 -1.1453  0.5432
 1018SOL     OW14686   0.057   2.776   7.891 -0.4160  0.3857 -0.3280
 1018SOL    HW114687   0.150   2.762   7.874 -0.4207  1.1475 -0.9967
 1018SOL    HW214688   0.037   2.850   7.834 -0.0020  1.1001  0.4517
 1019SOL     OW14689   3.490   4.523   5.039 -0.2395 -0.0296 -0.0017
 1019SOL    HW114690   3.511   4.604   4.992  1.8100 -0.9405 -0.6740
 1019SOL    HW214691   3.549   4.462   4.994  0.9964  1.3828 -0.3062
 1020SOL     OW14692   0.445   3.709   5.065 -0.2573  0.5760  0.3091
 1020SOL    HW114693   0.378   3.642   5.076  0.0448  0.3332  0.6754
 1020SOL    HW214694   0.406   3.796   5.078  0.5497  1.1418 -1.0441
 1021SOL     OW14695   4.627   1.662   3.020 -0.0970 -0.0410  0.5114
 1021SOL    HW114696   4.632   1.635   2.928  1.1351  0.1142  0.5303
 1021SOL    HW214697   4.720   1.646   3.035  0.0648  0.6395  0.2790
 1022SOL     OW14698   4.220   0.332   2.042  0.7295 -0.3637 -0.6526
 1022SOL    HW114699   4.286   0.293   1.985  0.2077 -1.0111 -0.8183
 1022SOL    HW214700   4.151   0.357   1.981  1.1781  0.7599 -0.6954
 1023SOL     OW14701   3.235   1.059   5.512 -0.4311 -0.5347  0.1127
 1023SOL    HW114702   3.175   1.130   5.487  0.0455  0.1947  1.0501
 1023SOL    HW214703   3.194   0.981   5.475 -1.1102  0.5937 -1.5485
 1024SOL     OW14704   2.980   4.184   4.872 -0.3096 -0.2368  0.0121
 1024SOL    HW114705   2.962   4.270   4.910 -1.8694  0.7217 -2.9088
 1024SOL    HW214706   3.065   4.198   4.831  0.2919 -2.0998  0.6195
 1025SOL     OW14707   1.587   0.093   1.678 -0.2085  0.5323 -0.4015
 1025SOL    HW114708   1.645   0.038   1.731 -3.5980 -0.3678  2.3737
 1025SOL    HW214709   1.626   0.180   1.689 -1.5912  0.9102  1.5128
 1026SOL     OW14710   0.256   0.959   6.408 -0.1676  0.0015 -0.1248
 1026SOL    HW114711   0.219   1.010   6.336 -1.2549  1.2822  1.3439
 1026SOL    HW214712   0.318   0.899   6.367  0.2988 -0.2378  0.9428
 1027SOL     OW14713   4.385   2.534   3.960 -0.5944 -0.5679 -0.1931
 1027SOL    HW114714   4.294   2.523   3.986 -0.5291  0.0499  0.3017
 1027SOL    HW214715   4.376   2.482   3.880 -0.6423 -1.1201  0.1712
 1028SOL     OW14716   3.339   1.242   5.840  0.7368 -0.3960  0.1795
 1028SOL    HW114717   3.405   1.202   5.783  0.1509  0.8425 -1.3536
 1028SOL    HW214718   3.402   1.267   5.908  0.6903  1.0341 -0.3141
 1029SOL     OW14719   3.949   1.182  10.880 -0.2895  0.5868  0.6407
 1029SOL    HW114720   3.856   1.163  10.891 -0.2386 -0.1523 -0.1574
 1029SOL    HW214721   3.988   1.109  10.831  0.4083  0.1889  1.8006
 1030SOL     OW14722   4.049   0.515   3.687 -0.0702 -0.3696  0.1386
 1030SOL    HW114723   4.052   0.511   3.591 -2.5602  1.5197 -0.0081
 1030SOL    HW214724   4.094   0.435   3.715 -1.2067 -1.8006 -2.0714
 1031SOL     OW14725   0.187   3.908   5.138  0.3672  0.0616  0.0278
 1031SOL    HW114726   0.211   3.911   5.045  1.0569 -0.2874  0.2008
 1031SOL    HW214727   0.161   3.999   5.154  1.9956  0.6662 -0.7088
 1032SOL     OW14728   4.582   3.499   9.229 -0.1039 -0.5213 -0.5765
 1032SOL    HW114729   4.607   3.581   9.272  0.8520 -1.1235 -0.0071
 1032SOL    HW214730   4.660   3.449   9.254  0.4297  0.1017 -0.9856
 1033SOL     OW14731   3.994   1.074   8.692 -0.0700 -1.1579  0.1277
 1033SOL    HW114732   3.974   0.988   8.728  1.0332 -1.6499 -0.4128
 1033SOL    HW214733   4.070   1.042   8.642 -0.2936 -3.1702  1.0583
 1034SOL     OW14734   1.708   4.640  17.556  0.0349 -1.0675 -0.3399
 1034SOL    HW114735   1.620   4.651  17.519 -0.4083  0.9258  1.3737
 1034SOL    HW214736   1.744   4.585  17.486  1.0344  0.5039 -1.0560
 1035SOL     OW14737   0.640   4.115   2.054  0.1673  1.0114  0.7365
 1035SOL    HW114738   0.565   4.080   2.006  1.5811 -1.6737  0.5138
 1035SOL    HW214739   0.595   4.163   2.124 -4.5205 -0.9194 -0.9517
 1036SOL     OW14740   0.192   3.144   6.424 -0.2445  0.0161 -0.0894
 1036SOL    HW114741   0.229   3.147   6.336 -0.2342 -1.9644 -0.1450
 1036SOL    HW214742   0.135   3.221   6.412  0.7476  1.1456  2.3992
 1037SOL     OW14743   1.939   0.107  10.591  0.5471 -0.6664  0.2205
 1037SOL    HW114744   2.030   0.110  10.563  0.2849  1.1558 -0.4008
 1037SOL    HW214745   1.911   0.197  10.606 -1.6826 -1.4600  0.8699
 1038SOL     OW14746   0.765   3.364  10.337  0.1748 -0.2429 -0.2782
 1038SOL    HW114747   0.853   3.398  10.355  0.0195  1.4322 -2.6672
 1038SOL    HW214748   0.771   3.284  10.389  0.8735  0.8982  1.3904
 1039SOL     OW14749   3.231   2.085   1.361  1.3513 -0.6188  0.4179
 1039SOL    HW114750   3.160   2.027   1.335  0.2099  0.0065  2.0980
 1039SOL    HW214751   3.205   2.109   1.450 -1.4716 -0.6340 -0.4189
 1040SOL     OW14752   3.722   1.584   6.651 -0.4463  0.2879  0.0598
 1040SOL    HW114753   3.798   1.535   6.620 -0.0729  0.4651  0.6899
 1040SOL    HW214754   3.658   1.514   6.637 -0.0283 -0.2268  0.6721
 1041SOL     OW14755   4.696   1.645   0.437 -0.1945  0.4051  0.3135
 1041SOL    HW114756   4.709   1.725   0.488 -3.6500 -0.1590  2.0680
 1041SOL    HW214757   4.620   1.670   0.385  0.7247  0.9595 -0.7754
 1042SOL     OW14758   4.424   0.781   8.494 -0.6822 -0.3012 -0.4869
 1042SOL    HW114759   4.503   0.745   8.455 -0.6199 -0.6315 -0.0586
 1042SOL    HW214760   4.447   0.773   8.587  0.0466  0.4638 -0.5962
 1043SOL     OW14761   2.265   3.719  14.274 -0.7793  0.5418 -0.3120
 1043SOL    HW114762   2.177   3.722  14.310 -1.5169 -1.4819 -1.9586
 1043SOL    HW214763   2.321   3.666  14.332 -0.6838  0.0260 -0.8783
 1044SOL     OW14764   4.078   1.238   0.577  0.3359 -0.5609  0.0368
 1044SOL    HW114765   3.990   1.204   0.588  0.0374 -0.2245 -1.3261
 1044SOL    HW214766   4.088   1.277   0.490 -0.1856  0.5296  0.4522
 1045SOL     OW14767   3.563   4.649   0.551  0.7382 -0.3139 -0.6593
 1045SOL    HW114768   3.507   4.624   0.477  0.6317 -3.7376  0.6128
 1045SOL    HW214769   3.520   4.733   0.569  1.9640  0.2103 -0.1440
 1046SOL     OW14770   3.413   2.967   2.282 -0.2030 -0.2030  0.3221
 1046SOL    HW114771   3.350   2.908   2.242  0.6404 -1.2551  0.5408
 1046SOL    HW214772   3.472   2.906   2.327 -1.1487 -2.0293 -0.8829
 1047SOL     OW14773   2.468   1.413   2.908 -0.3202  0.4594 -0.4107
 1047SOL    HW114774   2.378   1.442   2.924 -0.4411 -0.6129  0.8729
 1047SOL    HW214775   2.478   1.436   2.816  1.0036 -0.0379 -0.3846
 1048SOL     OW14776   4.081   3.791   4.399  0.8872  0.3689  0.6225
 1048SOL    HW114777   4.112   3.782   4.309  1.3980 -0.4585  0.8796
 1048SOL    HW214778   4.098   3.703   4.434  0.5844  0.7617  1.7753
 1049SOL     OW14779   1.592   3.915   5.969 -0.3761 -0.3208 -0.2569
 1049SOL    HW114780   1.593   3.862   6.049  0.9956 -1.4664 -1.0404
 1049SOL    HW214781   1.571   3.859   5.894 -1.8257  1.3085 -1.0543
 1050SOL     OW14782   4.706   3.901   4.763 -0.3008  0.2808 -0.2207
 1050SOL    HW114783   4.634   3.839   4.776  1.0963 -1.4046 -0.6160
 1050SOL    HW214784   4.655   3.982   4.763 -0.8654 -0.0916  2.6932
 1051SOL     OW14785   2.396   3.305   3.375  0.2235  0.1455  0.5693
 1051SOL    HW114786   2.310   3.341   3.396 -0.3107 -1.7581  1.6010
 1051SOL    HW214787   2.380   3.275   3.286  1.1955  0.4921  0.2738
 1052SOL     OW14788   4.643   1.624   2.730  0.5850  0.4854  0.1961
 1052SOL    HW114789   4.685   1.542   2.758 -0.1003  0.1783  0.3353
 1052SOL    HW214790   4.690   1.644   2.650  1.7975 -0.9155  0.5502
 1053SOL     OW14791   2.333   3.347   5.872  0.8429 -0.4478 -0.1804
 1053SOL    HW114792   2.384   3.306   5.942 -1.4310  0.6386  2.0848
 1053SOL    HW214793   2.402   3.390   5.822 -0.2263 -0.2986 -1.5316
 1054SOL     OW14794   4.576   2.242  13.593 -0.0209 -0.7975 -0.3969
 1054SOL    HW114795   4.591   2.332  13.562  0.8407 -1.7355 -2.6842
 1054SOL    HW214796   4.540   2.215  13.508 -1.8075  0.4801 -0.0446
 1055SOL     OW14797   1.513   1.048   5.406  0.3628  0.3069  0.2387
 1055SOL    HW114798   1.418   1.044   5.418  0.2217  0.2269 -0.8763
 1055SOL    HW214799   1.513   1.028   5.312 -0.4652 -0.6132  0.4365
 1056SOL     OW14800   1.307   4.672  12.909 -0.6161 -0.3026 -0.0066
 1056SOL    HW114801   1.232   4.726  12.937 -0.3220  0.7701 -1.2532
 1056SOL    HW214802   1.352   4.671  12.993 -1.5551  0.8501  0.5152
 1057SOL     OW14803   4.429   1.958   0.712  0.0916  0.0649  0.2428
 1057SOL    HW114804   4.369   2.004   0.653  2.9011  2.0959 -1.0107
 1057SOL    HW214805   4.414   1.864   0.704  0.1094  0.1319 -0.5618
 1058SOL     OW14806   3.152   0.810  13.876 -0.2234 -0.1471 -0.2358
 1058SOL    HW114807   3.126   0.796  13.968 -0.1801  1.2105 -0.0148
 1058SOL    HW214808   3.067   0.804  13.831  0.6763  0.9889 -2.0632
 1059SOL     OW14809   3.988   2.084   4.592  0.0503 -0.2756  0.2495
 1059SOL    HW114810   3.903   2.044   4.570 -0.7794  1.0676  1.0103
 1059SOL    HW214811   4.035   2.058   4.513 -1.9871  1.6194 -1.5966
 1060SOL     OW14812   2.814   3.010   4.011 -0.4322  0.1330  0.2036
 1060SOL    HW114813   2.904   2.980   4.022  0.0670  0.7917 -1.8920
 1060SOL    HW214814   2.773   2.926   4.029 -0.3939  0.0152 -0.2466
 1061SOL     OW14815   4.624   2.220   6.570  0.2416 -0.1448 -0.6625
 1061SOL    HW114816   4.568   2.257   6.639  1.7706 -1.0399  1.0520
 1061SOL    HW214817   4.704   2.199   6.618  0.9239 -1.1646 -2.2582
 1062SOL     OW14818   1.168   1.559  15.432  0.6050  0.2426  0.1315
 1062SOL    HW114819   1.261   1.554  15.409  0.7377 -2.0890  1.1883
 1062SOL    HW214820   1.132   1.595  15.351  0.3902 -0.4907 -0.1032
 1063SOL     OW14821   3.645   1.571   5.674  0.4786  0.6737  0.0623
 1063SOL    HW114822   3.654   1.621   5.755  1.4707  1.5818 -0.6262
 1063SOL    HW214823   3.676   1.485   5.706 -0.9153  0.6003  1.2223
 1064SOL     OW14824   1.129   2.875  17.263 -0.2759 -0.5648  0.5713
 1064SOL    HW114825   1.058   2.918  17.311  0.5959  1.8953 -0.3715
 1064SOL    HW214826   1.135   2.938  17.191  0.5371 -1.2442  0.0492
 1065SOL     OW14827   2.962   3.094  16.019 -0.4870 -0.2884 -0.6723
 1065SOL    HW114828   2.885   3.086  16.076 -0.2123 -1.1925 -0.4216
 1065SOL    HW214829   2.933   3.063  15.934  0.0772 -2.2047 -0.1664
 1066SOL     OW14830   3.484   3.692  16.239  0.2330 -0.2166 -0.3329
 1066SOL    HW114831   3.564   3.744  16.227  0.1895 -0.3745 -1.3449
 1066SOL    HW214832   3.440   3.711  16.156  0.6101  0.6672 -0.3277
 1067SOL     OW14833   1.217   3.416  13.659 -0.5488 -0.4534 -0.3730
 1067SOL    HW114834   1.156   3.422  13.585 -0.0976  0.8347 -0.6416
 1067SOL    HW214835   1.247   3.506  13.644 -1.3448 -0.1091  0.1006
 1068SOL     OW14836   1.074   1.787  14.996  0.3267 -0.4226 -0.0385
 1068SOL    HW114837   1.028   1.861  14.956  0.8730  0.1075  0.3211
 1068SOL    HW214838   1.060   1.716  14.934  0.0982 -1.2537  0.9620
 1069SOL     OW14839   1.937   1.066   9.843 -0.0998 -0.1986  0.6984
 1069SOL    HW114840   1.944   0.972   9.860  0.4985 -0.0525  1.2582
 1069SOL    HW214841   1.919   1.105   9.929 -0.2494  0.7891  0.2193
 1070SOL     OW14842   4.119   4.582   3.674 -0.4019  0.2037 -0.1814
 1070SOL    HW114843   4.191   4.523   3.650  1.6059  2.1286  1.1048
 1070SOL    HW214844   4.096   4.617   3.588  2.5877 -0.5964 -1.3294
 1071SOL     OW14845   4.165   2.468  14.870 -0.2022 -0.3328 -0.2357
 1071SOL    HW114846   4.147   2.530  14.940  0.1128 -1.5060  0.8849
 1071SOL    HW214847   4.147   2.520  14.792 -0.3331 -2.1378 -1.4203
 1072SOL     OW14848   0.346   3.154   3.598  0.3106 -0.1819 -0.1943
 1072SOL    HW114849   0.304   3.094   3.659  1.2190 -0.2637  0.3487
 1072SOL    HW214850   0.365   3.237   3.642  0.4902 -1.3468  1.9159
 1073SOL     OW14851   0.668   0.178   1.930  0.2471  0.3232 -0.0161
 1073SOL    HW114852   0.636   0.161   1.841  0.5205 -0.1123 -0.0352
 1073SOL    HW214853   0.750   0.222   1.907  0.0868  0.1598 -0.9264
 1074SOL     OW14854   2.413   2.803   4.999 -0.0379 -0.0842  0.2516
 1074SOL    HW114855   2.490   2.772   5.047 -0.8114 -1.6206  0.5029
 1074SOL    HW214856   2.384   2.714   4.979 -0.9922  0.3670 -0.3486
 1075SOL     OW14857   1.174   2.878   3.561  0.0248  0.0155  0.3639
 1075SOL    HW114858   1.232   2.825   3.506 -0.4029 -0.0699 -0.0133
 1075SOL    HW214859   1.225   2.957   3.573 -1.4375  1.2017 -1.0635
 1076SOL     OW14860   2.390   3.440   2.998 -0.1967  0.6145  0.0522
 1076SOL    HW114861   2.445   3.486   3.062  0.8761  2.1998 -1.9961
 1076SOL    HW214862   2.326   3.399   3.056 -2.2164  3.6484 -0.0350
 1077SOL     OW14863   0.491   2.084   8.986  0.4506  0.8369 -0.2622
 1077SOL    HW114864   0.491   2.113   9.078 -2.7827 -1.2174  0.3880
 1077SOL    HW214865   0.554   2.013   8.991 -0.6513 -0.2494 -1.7083
 1078SOL     OW14866   4.267   4.565   0.671 -0.4026  0.4703  0.2143
 1078SOL    HW114867   4.260   4.623   0.596  1.2385 -0.0883 -0.3653
 1078SOL    HW214868   4.250   4.480   0.631  1.6504  0.1960 -0.1071
 1079SOL     OW14869   2.521   2.649   7.908 -0.0319 -0.1189 -0.0102
 1079SOL    HW114870   2.513   2.559   7.879 -0.0231 -0.2032  0.2490
 1079SOL    HW214871   2.432   2.666   7.941  0.6563  1.0779  1.2281
 1080SOL     OW14872   0.830   3.493   6.702  0.4381  0.4296  0.4105
 1080SOL    HW114873   0.848   3.574   6.750  0.3686  1.3215 -1.0651
 1080SOL    HW214874   0.920   3.461   6.689  0.2007 -0.6345  1.4333
 1081SOL     OW14875   3.239   1.668   6.201 -0.2680  0.1960 -0.2476
 1081SOL    HW114876   3.163   1.725   6.211 -0.8686 -0.5832 -0.3983
 1081SOL    HW214877   3.219   1.620   6.121 -3.9972  0.9567  0.2368
 1082SOL     OW14878   0.546   2.679   4.803  0.3065  0.1040  0.2113
 1082SOL    HW114879   0.496   2.601   4.777 -0.2686  1.0096 -1.4022
 1082SOL    HW214880   0.631   2.643   4.828 -0.1674  1.5545  3.9699
 1083SOL     OW14881   0.981   2.943   7.477  0.1698 -0.6373 -0.3385
 1083SOL    HW114882   0.957   2.850   7.479  0.6382 -0.7553 -0.0499
 1083SOL    HW214883   1.067   2.939   7.435 -0.1106 -1.5793 -0.8206
 1084SOL     OW14884   2.641   1.195  12.844 -0.1507 -0.4736 -0.0728
 1084SOL    HW114885   2.561   1.142  12.845  0.8918 -2.0742 -2.5402
 1084SOL    HW214886   2.684   1.155  12.769 -0.7347 -0.1231 -0.6008
 1085SOL     OW14887   4.412   2.326   6.705 -0.5593 -0.1124  0.0152
 1085SOL    HW114888   4.324   2.290   6.715 -1.1650  0.3856 -3.4778
 1085SOL    HW214889   4.401   2.411   6.748  1.0929 -0.2895  0.7824
 1086SOL     OW14890   4.319   0.297   8.985  0.2629  0.7309 -0.1576
 1086SOL    HW114891   4.322   0.205   9.009  0.7701  0.6104 -0.6861
 1086SOL    HW214892   4.299   0.284   8.892  0.1093 -0.4746  0.0497
 1087SOL     OW14893   0.697   0.165   3.513  0.1244 -0.0136  0.0569
 1087SOL    HW114894   0.658   0.209   3.589 -1.0598  1.6968 -1.5616
 1087SOL    HW214895   0.657   0.079   3.526  0.2581 -0.4729 -2.5359
 1088SOL     OW14896   2.919   3.332  12.378 -0.3493  0.1813  0.2990
 1088SOL    HW114897   2.885   3.243  12.387 -2.2802  0.8995 -0.0399
 1088SOL    HW214898   2.998   3.326  12.432 -0.6367 -0.3653  0.6575
 1089SOL     OW14899   1.302   1.491  14.432 -0.8032  0.0978 -0.7603
 1089SOL    HW114900   1.323   1.426  14.365  1.6758  1.8420 -1.6812
 1089SOL    HW214901   1.341   1.570  14.395  0.6252 -1.0937 -1.8330
 1090SOL     OW14902   4.346   0.609   7.664  0.4854 -0.0923 -0.0853
 1090SOL    HW114903   4.327   0.665   7.739 -0.5392 -0.2832 -0.2028
 1090SOL    HW214904   4.265   0.585   7.618  0.6376 -3.2600  1.2908
 1091SOL     OW14905   2.146   3.983   2.560 -0.6771 -0.1148 -0.3764
 1091SOL    HW114906   2.121   3.988   2.468  0.2238 -0.6001 -0.6567
 1091SOL    HW214907   2.123   4.073   2.582  0.2199  0.3584 -1.3770
 1092SOL     OW14908   1.482   2.257   6.766  0.2270  0.5259 -0.2384
 1092SOL    HW114909   1.461   2.188   6.829  0.4580  0.1771 -0.5416
 1092SOL    HW214910   1.416   2.229   6.702  1.3629 -1.0192 -0.7390
 1093SOL     OW14911   3.140   4.147   0.874  0.0841  0.2399  0.0981
 1093SOL    HW114912   3.170   4.117   0.789 -2.2133  1.3108 -1.0926
 1093SOL    HW214913   3.183   4.082   0.929  0.7996  0.1318 -0.6005
 1094SOL     OW14914   3.383   3.809   2.522  0.3623  0.7873  0.4631
 1094SOL    HW114915   3.291   3.831   2.538  0.5552  1.5578  0.5079
 1094SOL    HW214916   3.379   3.789   2.429  1.1800 -2.0924  1.0280
 1095SOL     OW14917   4.573   0.329   2.972  0.1827  0.1943 -0.0179
 1095SOL    HW114918   4.583   0.382   2.893 -1.5441 -0.0814 -0.4182
 1095SOL    HW214919   4.515   0.384   3.025  0.6955 -2.4632  3.2758
 1096SOL     OW14920   2.234   2.284   8.620 -0.1968  0.0246  0.1284
 1096SOL    HW114921   2.303   2.348   8.631 -0.4803  0.4412 -0.5710
 1096SOL    HW214922   2.162   2.347   8.628 -0.5327 -0.3289 -0.0844
 1097SOL     OW14923   1.441   0.730  14.462  0.0055  0.2919 -0.3761
 1097SOL    HW114924   1.349   0.756  14.462 -0.6217 -1.9289  0.4675
 1097SOL    HW214925   1.466   0.730  14.555 -0.1568  1.2510 -0.3343
 1098SOL     OW14926   3.865   0.606   4.042  0.0396  0.0031 -0.3862
 1098SOL    HW114927   3.927   0.677   4.026 -0.5175  0.4435 -0.6028
 1098SOL    HW214928   3.928   0.535   4.029 -1.0826 -1.2831  1.2014
 1099SOL     OW14929   0.570   0.193   8.133 -0.2302  0.4605  0.2527
 1099SOL    HW114930   0.620   0.188   8.051 -1.9428  0.9744 -0.8349
 1099SOL    HW214931   0.626   0.151   8.198  0.9060 -0.0215 -1.0453
 1100SOL     OW14932   0.944   4.254   4.150 -0.3156  0.2762 -0.3383
 1100SOL    HW114933   0.962   4.299   4.067  0.9075  0.2018 -0.1082
 1100SOL    HW214934   1.030   4.270   4.190 -0.6029 -2.4249  1.3418
 1101SOL     OW14935   0.962   1.457   5.336 -0.0457 -0.4282  0.3410
 1101SOL    HW114936   0.946   1.548   5.361  0.1168  0.0859 -1.4286
 1101SOL    HW214937   0.886   1.413   5.374 -0.9097 -0.1526 -1.0819
 1102SOL     OW14938   2.463   1.552   7.623  0.0753 -0.1140 -0.5855
 1102SOL    HW114939   2.472   1.456   7.624 -2.0010 -0.3425 -2.5914
 1102SOL    HW214940   2.373   1.564   7.653 -0.6128 -0.9638 -2.2955
 1103SOL     OW14941   2.743   0.621   3.038  0.2806  0.0195  0.1490
 1103SOL    HW114942   2.678   0.689   3.019 -1.6111 -1.3936  1.5245
 1103SOL    HW214943   2.801   0.665   3.100  1.6957  0.5602 -1.5584
 1104SOL     OW14944   4.465   1.094   6.156 -0.6973 -0.0455 -0.9469
 1104SOL    HW114945   4.465   1.066   6.064 -0.1547 -0.8042 -0.7116
 1104SOL    HW214946   4.559   1.112   6.164 -0.5838 -2.0856  2.4400
 1105SOL     OW14947   4.652   4.653   4.388  0.2374 -0.4825 -0.1916
 1105SOL    HW114948   4.565   4.669   4.350 -0.1123  1.3555  1.3592
 1105SOL    HW214949   4.687   4.738   4.417  0.4577 -0.7545  0.3394
 1106SOL     OW14950   2.181   0.288   3.581 -0.4571 -0.1831  0.3754
 1106SOL    HW114951   2.101   0.309   3.629 -1.6077 -0.3008 -1.4705
 1106SOL    HW214952   2.238   0.275   3.656 -0.4672 -0.6830  0.3001
 1107SOL     OW14953   1.308   4.141   4.434 -0.6765 -0.1968  0.4375
 1107SOL    HW114954   1.338   4.221   4.476  1.4284 -0.2499 -0.9689
 1107SOL    HW214955   1.389   4.095   4.412 -1.0746  0.3909 -2.2435
 1108SOL     OW14956   2.309   1.762   8.921 -0.0810  0.5628 -0.4115
 1108SOL    HW114957   2.372   1.816   8.874  1.8981 -1.2934  0.1500
 1108SOL    HW214958   2.240   1.827   8.936  0.5798  0.4623  2.9752
 1109SOL     OW14959   0.946   3.387   0.067  0.2833  0.2496 -0.1133
 1109SOL    HW114960   0.887   3.461   0.082  0.1043  0.1078 -0.1169
 1109SOL    HW214961   0.957   3.411  17.736 -1.0170 -4.5524 -1.4965
 1110SOL     OW14962   2.990   4.151   5.616 -0.2763  0.8145 -0.2529
 1110SOL    HW114963   3.028   4.161   5.528  0.7592 -1.1998 -0.0247
 1110SOL    HW214964   3.024   4.066   5.643  0.0543  1.0938  0.2230
 1111SOL     OW14965   3.909   4.376   5.158 -0.6191 -0.8148  0.4454
 1111SOL    HW114966   3.982   4.326   5.122  0.1027 -0.9740  2.1030
 1111SOL    HW214967   3.836   4.361   5.098 -0.5993 -1.2975  0.5430
 1112SOL     OW14968   0.796   3.639   9.584  0.1822  0.0000 -0.1678
 1112SOL    HW114969   0.779   3.659   9.675  4.6090  0.2225  0.6052
 1112SOL    HW214970   0.768   3.725   9.553 -0.4080  0.6182  2.0963
 1113SOL     OW14971   2.139   4.380  13.479 -0.9394 -0.4541 -0.0101
 1113SOL    HW114972   2.205   4.368  13.548  0.7330 -1.5031 -1.7918
 1113SOL    HW214973   2.104   4.468  13.491 -1.5002 -0.4537 -1.5811
 1114SOL     OW14974   0.576   0.300   5.035 -0.4716 -0.0684 -0.4911
 1114SOL    HW114975   0.670   0.281   5.026 -0.6884 -2.0224  1.3756
 1114SOL    HW214976   0.541   0.239   4.970 -1.6027  2.2290 -2.0218
 1115SOL     OW14977   2.611   1.161  15.702  0.6651  0.1154 -0.1511
 1115SOL    HW114978   2.701   1.155  15.670  0.7493  1.0649 -0.0963
 1115SOL    HW214979   2.623   1.154  15.797 -1.3582 -1.4080 -0.0027
 1116SOL     OW14980   2.457   1.644   4.376 -0.0316 -0.1648 -0.1442
 1116SOL    HW114981   2.547   1.612   4.372 -0.1067 -0.6284  2.2528
 1116SOL    HW214982   2.410   1.574   4.331  0.5641 -0.1097 -0.8690
 1117SOL     OW14983   0.278   0.121  11.917 -0.5398  0.2298 -0.1113
 1117SOL    HW114984   0.335   0.105  11.992 -2.1871 -0.4015  0.9778
 1117SOL    HW214985   0.220   0.045  11.910 -0.3221  0.0949 -0.4921
 1118SOL     OW14986   0.814   3.592  14.505  0.1512 -0.5728  0.0153
 1118SOL    HW114987   0.827   3.643  14.426 -1.6993  0.6525  0.4980
 1118SOL    HW214988   0.821   3.670  14.560  0.0847 -0.5106 -0.0646
 1119SOL     OW14989   2.806   3.726   8.691  0.1695  0.1662 -0.7171
 1119SOL    HW114990   2.787   3.820   8.692  1.0365  0.3225  1.4043
 1119SOL    HW214991   2.865   3.720   8.766 -1.4772 -0.0729  0.5488
 1120SOL     OW14992   1.738   3.703  12.413  0.1181  0.4220 -0.1835
 1120SOL    HW114993   1.828   3.673  12.417 -0.5612 -1.6793 -0.5564
 1120SOL    HW214994   1.738   3.749  12.329  2.0990  1.1971  0.2602
 1121SOL     OW14995   1.198   3.133   6.272 -0.3313 -0.4460  0.2763
 1121SOL    HW114996   1.252   3.167   6.201  0.0982  0.2709  0.9471
 1121SOL    HW214997   1.176   3.215   6.317  1.6787  0.0171  0.4213
 1122SOL     OW14998   3.891   0.914   4.297  0.4726 -0.0656 -0.0412
 1122SOL    HW114999   3.894   0.969   4.375  0.2690  1.3150 -1.0037
 1122SOL    HW215000   3.833   0.843   4.326  1.6170 -1.5667 -1.3988
 1123SOL     OW15001   1.026   2.647   8.910 -0.5603  0.3042  0.6416
 1123SOL    HW115002   1.041   2.578   8.975  2.9014 -0.4976 -1.0477
 1123SOL    HW215003   1.096   2.639   8.846 -0.3234 -0.6264  1.0058
 1124SOL     OW15004   1.296   3.063   4.933  0.1399  0.1740  0.3935
 1124SOL    HW115005   1.218   3.020   4.898 -1.7203  1.1344  3.4225
 1124SOL    HW215006   1.360   3.046   4.864 -0.4391  0.0428 -0.1092
 1125SOL     OW15007   3.701   2.013   3.739  0.6728 -0.1497 -0.5198
 1125SOL    HW115008   3.666   2.068   3.669 -1.7790  0.5155  1.2325
 1125SOL    HW215009   3.794   2.033   3.736  0.5950  0.6216  2.3568
 1126SOL     OW15010   0.197   3.201  12.606 -0.4349 -0.2868  0.1087
 1126SOL    HW115011   0.199   3.266  12.676  0.4506  0.0874 -0.2519
 1126SOL    HW215012   0.163   3.266  12.544  0.5903 -0.8358 -1.0466
 1127SOL     OW15013   1.884   3.177   2.426 -0.0494  0.8287  0.2858
 1127SOL    HW115014   1.940   3.110   2.465 -0.2428 -1.9964 -4.1428
 1127SOL    HW215015   1.928   3.205   2.346 -1.0717 -1.2156 -1.0141
 1128SOL     OW15016   4.428   1.685   4.619  0.1432  0.5303 -0.8437
 1128SOL    HW115017   4.408   1.768   4.577  0.5519  0.2748 -1.5390
 1128SOL    HW215018   4.496   1.714   4.680 -0.1864  0.2275 -0.3220
 1129SOL     OW15019   1.532   1.440   2.616  0.5966  0.5710 -0.3582
 1129SOL    HW115020   1.547   1.466   2.525  2.1096  1.5248  0.1564
 1129SOL    HW215021   1.602   1.379   2.639  1.6020  1.1727 -1.8456
 1130SOL     OW15022   4.163   3.718   8.469  0.1196  0.1487 -0.3212
 1130SOL    HW115023   4.085   3.663   8.463 -0.9536  1.7371 -0.9735
 1130SOL    HW215024   4.144   3.780   8.540  2.7662  0.6636 -0.0737
 1131SOL     OW15025   0.237   0.366  17.146 -0.2398  0.5141 -0.3188
 1131SOL    HW115026   0.175   0.387  17.077 -0.8989 -2.0698 -0.5213
 1131SOL    HW215027   0.283   0.296  17.100 -0.9221 -0.3328  0.2981
 1132SOL     OW15028   0.562   4.740   7.681  0.5487  0.3809  0.5773
 1132SOL    HW115029   0.480   4.716   7.637 -1.2067  1.9720  2.9895
 1132SOL    HW215030   0.526   0.066   7.739  1.8488  1.3261  0.2993
 1133SOL     OW15031   3.576   0.832  16.175  0.0238 -0.5984 -0.1635
 1133SOL    HW115032   3.569   0.827  16.080  1.0023  4.3058 -0.4939
 1133SOL    HW215033   3.560   0.741  16.201 -1.8889 -0.0722  0.4466
 1134SOL     OW15034   1.393   2.903   6.152  0.2107  0.1844 -0.2726
 1134SOL    HW115035   1.403   2.991   6.115  1.2831  0.6824  1.1642
 1134SOL    HW215036   1.300   2.884   6.142  0.0066  0.6007  0.7614
 1135SOL     OW15037   4.315   1.005   7.098 -0.3103 -0.1619 -0.5460
 1135SOL    HW115038   4.234   1.052   7.079 -0.0891  0.4641  0.0408
 1135SOL    HW215039   4.349   1.076   7.153  0.3816  0.7207 -2.1286
 1136SOL     OW15040   4.248   2.731  14.979 -0.4877 -0.0250 -0.1106
 1136SOL    HW115041   4.331   2.777  14.964 -0.1526 -0.3598  0.6929
 1136SOL    HW215042   4.200   2.787  15.041 -0.7230 -0.0402 -0.2813
 1137SOL     OW15043   1.219   3.522  15.300  0.0115 -0.5466 -0.4208
 1137SOL    HW115044   1.160   3.496  15.229 -0.4365  1.4820 -0.7916
 1137SOL    HW215045   1.170   3.492  15.377 -0.2356  2.9033  0.7736
 1138SOL     OW15046   2.389   0.350   7.041 -0.6173 -0.2894  0.1923
 1138SOL    HW115047   2.415   0.442   7.041  2.2058 -1.0922  3.3194
 1138SOL    HW215048   2.299   0.349   7.073 -0.3805  0.4343  0.8710
 1139SOL     OW15049   1.306   3.476   4.513 -0.0809  0.1094 -0.5650
 1139SOL    HW115050   1.277   3.563   4.540  0.2585  0.0975 -0.1625
 1139SOL    HW215051   1.227   3.453   4.465  0.6124 -4.0992  0.2735
 1140SOL     OW15052   2.803   3.722   7.079 -0.0302  0.2357  0.7633
 1140SOL    HW115053   2.829   3.801   7.127  1.4842 -1.1231  2.2101
 1140SOL    HW215054   2.742   3.764   7.019 -0.1294 -0.9336  0.0519
 1141SOL     OW15055   2.178   1.608   3.190 -0.3405 -0.2434 -0.3897
 1141SOL    HW115056   2.260   1.648   3.218 -0.3108  0.1690 -1.0811
 1141SOL    HW215057   2.126   1.633   3.267 -1.6343 -2.3561 -0.5754
 1142SOL     OW15058   1.673   4.115   3.924  0.2295  0.3411  0.0353
 1142SOL    HW115059   1.627   4.052   3.979  2.0101 -0.9335  0.0609
 1142SOL    HW215060   1.766   4.098   3.937  0.6155  1.4088 -1.3156
 1143SOL     OW15061   4.531   4.736   9.813 -0.1686  0.0007 -0.3573
 1143SOL    HW115062   4.559   0.087   9.811 -1.3056  0.4119  2.5398
 1143SOL    HW215063   4.495   4.722   9.726 -1.8229 -1.2625  0.5362
 1144SOL     OW15064   2.669   2.533   7.096 -0.3667 -0.0407 -0.7265
 1144SOL    HW115065   2.732   2.527   7.025 -0.9289  0.9045 -1.2932
 1144SOL    HW215066   2.592   2.484   7.067 -0.8038  1.1201 -1.4768
 1145SOL     OW15067   4.390   2.532   2.946  0.4690  0.2348 -0.3150
 1145SOL    HW115068   4.458   2.465   2.950 -0.0232 -0.2341  0.1828
 1145SOL    HW215069   4.434   2.586   3.012 -0.3491  1.1925 -0.5485
 1146SOL     OW15070   3.151   0.474  12.711  0.4175 -0.7021  0.6785
 1146SOL    HW115071   3.164   0.535  12.784  0.9801  0.9919 -0.8442
 1146SOL    HW215072   3.068   0.431  12.728 -0.7848  1.5172  0.3166
 1147SOL     OW15073   1.739   2.114  10.742 -0.3738 -0.3141 -0.1469
 1147SOL    HW115074   1.798   2.071  10.681  1.6824  0.3830  1.3444
 1147SOL    HW215075   1.809   2.138  10.802  0.1185 -0.3403 -0.7184
 1148SOL     OW15076   0.657   0.629   3.517 -0.2347  0.3789 -0.2503
 1148SOL    HW115077   0.742   0.615   3.475 -1.0634  1.3863 -2.2937
 1148SOL    HW215078   0.659   0.717   3.553  2.5483  0.6898 -1.1458
 1149SOL     OW15079   2.617   4.616   3.189  0.2200 -0.7847  0.0726
 1149SOL    HW115080   2.665   4.548   3.236  0.0524 -0.2601  1.0143
 1149SOL    HW215081   2.630   4.583   3.100 -2.1814  0.4843 -0.7522
 1150SOL     OW15082   0.750   4.430   5.127  0.0234 -0.3345  0.3057
 1150SOL    HW115083   0.791   4.405   5.210  0.2091 -0.0249  0.3084
 1150SOL    HW215084   0.798   4.510   5.105 -1.4560 -0.1954 -2.3502
 1151SOL     OW15085   3.062   3.424  11.543 -0.0010 -0.2237  0.1776
 1151SOL    HW115086   3.155   3.432  11.522  0.1021  0.0431  0.7377
 1151SOL    HW215087   3.072   3.404  11.636 -1.5468 -1.3339  0.1146
 1152SOL     OW15088   2.985   2.576   7.202  0.1395  0.0142 -0.3443
 1152SOL    HW115089   3.026   2.528   7.274  0.8898 -0.6596 -1.2183
 1152SOL    HW215090   2.915   2.631   7.239  0.0445  0.0805 -0.6227
 1153SOL     OW15091   0.100   2.574   8.197  0.0553 -0.6516  0.2639
 1153SOL    HW115092   0.176   2.528   8.160  0.6448 -0.1115  0.8217
 1153SOL    HW215093   0.080   2.506   8.261  0.3869  1.4593  2.5779
 1154SOL     OW15094   0.791   2.087   2.265 -0.3394  0.0415  0.1738
 1154SOL    HW115095   0.878   2.124   2.249  0.4693 -1.8505  0.1737
 1154SOL    HW215096   0.769   2.038   2.185 -1.5636 -1.0355  1.1690
 1155SOL     OW15097   2.459   2.336   8.911 -0.3014  0.3741  0.5775
 1155SOL    HW115098   2.434   2.395   8.840  2.1342  0.0258 -0.5424
 1155SOL    HW215099   2.495   2.397   8.975 -0.8324  1.9191 -0.5786
 1156SOL     OW15100   4.133   0.442  14.151  0.1199  0.4737 -0.1708
 1156SOL    HW115101   4.214   0.462  14.198 -0.6452  4.3097 -0.5055
 1156SOL    HW215102   4.090   0.394  14.222 -0.8401 -0.0230 -1.0868
 1157SOL     OW15103   3.035   2.065  12.845 -0.0082 -0.0187  0.3932
 1157SOL    HW115104   3.043   2.144  12.898  0.5502 -1.1060  1.9159
 1157SOL    HW215105   3.118   2.020  12.860 -1.1219 -1.5209  2.1225
 1158SOL     OW15106   4.096   4.047   0.971 -0.7237  0.3046  0.0065
 1158SOL    HW115107   4.170   3.993   0.998 -1.3310 -2.0803 -3.0958
 1158SOL    HW215108   4.099   4.117   1.037  2.8585  0.1625 -0.0090
 1159SOL     OW15109   4.105   3.989  11.435 -0.7825 -0.3196  0.0462
 1159SOL    HW115110   4.047   3.937  11.378 -2.4668 -0.8605  2.2721
 1159SOL    HW215111   4.098   3.938  11.515 -2.4259 -1.4673 -0.8103
 1160SOL     OW15112   1.970   2.498  11.809 -0.6431 -0.0901 -0.0901
 1160SOL    HW115113   1.977   2.402  11.814  2.0646  0.0614 -0.7015
 1160SOL    HW215114   2.061   2.526  11.800  0.3078 -3.2982 -0.5413
 1161SOL     OW15115   2.898   4.460   8.115  0.2743 -0.8368  0.5069
 1161SOL    HW115116   2.857   4.540   8.082  0.2763  0.0867  2.7865
 1161SOL    HW215117   2.923   4.420   8.031  0.0786 -0.2288  0.1579
 1162SOL     OW15118   3.142   3.203   6.144 -0.7463  0.3521  0.9055
 1162SOL    HW115119   3.161   3.263   6.072 -0.5556  0.4289  1.0194
 1162SOL    HW215120   3.051   3.176   6.134  0.0708 -2.0128 -0.2417
 1163SOL     OW15121   3.312   4.450   7.290  0.5382  0.2191  0.0511
 1163SOL    HW115122   3.355   4.416   7.212 -0.7846 -2.1453  0.3354
 1163SOL    HW215123   3.307   4.373   7.347 -0.0418  1.8031  2.1373
 1164SOL     OW15124   4.434   0.374   1.071 -0.2977 -0.3329 -0.1940
 1164SOL    HW115125   4.379   0.409   1.001  0.9497  0.9431 -0.5168
 1164SOL    HW215126   4.487   0.453   1.072  0.3881 -0.7957  0.2984
 1165SOL     OW15127   3.455   4.437   1.943 -0.4840 -0.1588 -0.7235
 1165SOL    HW115128   3.466   4.363   2.002  0.9765  0.2160 -0.5063
 1165SOL    HW215129   3.389   4.403   1.884 -1.7269  0.6609  0.1850
 1166SOL     OW15130   1.183   1.455   6.661  0.4528  0.1343 -0.3431
 1166SOL    HW115131   1.162   1.525   6.724 -3.0220 -0.8080 -0.4588
 1166SOL    HW215132   1.254   1.409   6.707  0.9967  1.0624 -0.2465
 1167SOL     OW15133   1.847   3.446   7.774  0.3478 -0.8494 -0.3620
 1167SOL    HW115134   1.815   3.468   7.862  0.3601  0.8397 -0.7768
 1167SOL    HW215135   1.902   3.522   7.756  1.3477 -1.8584 -1.6175
 1168SOL     OW15136   1.043   1.558   7.553 -0.1121  0.8177 -0.0677
 1168SOL    HW115137   1.012   1.595   7.470 -2.9857  0.4297  0.8289
 1168SOL    HW215138   1.019   1.466   7.544 -1.0607  1.2105 -1.5248
 1169SOL     OW15139   0.903   2.942   4.210 -0.3031  0.3271 -0.3452
 1169SOL    HW115140   0.895   2.955   4.305  1.4057 -0.4357 -0.1036
 1169SOL    HW215141   0.811   2.938   4.185 -0.5733 -1.8745  0.9850
 1170SOL     OW15142   2.111   0.959   5.027  0.1227 -0.2994 -0.5009
 1170SOL    HW115143   2.160   1.008   4.962 -0.5012 -1.9045 -2.1912
 1170SOL    HW215144   2.068   0.883   4.987  0.5558 -0.8574  0.1034
 1171SOL     OW15145   0.793   1.941   4.450 -0.9059 -0.3019  0.1151
 1171SOL    HW115146   0.705   1.972   4.427  0.2318  2.3465 -0.6031
 1171SOL    HW215147   0.846   1.983   4.383 -1.2532  0.0233  0.0415
 1172SOL     OW15148   2.244   2.332   1.961  0.0484 -0.2495 -0.1825
 1172SOL    HW115149   2.282   2.246   1.976  0.4399 -0.0522 -0.0440
 1172SOL    HW215150   2.306   2.380   1.906  2.0360 -0.6988  1.6932
 1173SOL     OW15151   0.383   0.523   5.070 -0.2591 -0.5481 -0.4256
 1173SOL    HW115152   0.466   0.550   5.108  0.3970  1.8967 -3.6496
 1173SOL    HW215153   0.397   0.435   5.036 -1.8753 -1.5415  1.4828
 1174SOL     OW15154   0.897   1.839   7.040  1.0462  0.2013  0.0054
 1174SOL    HW115155   0.815   1.815   7.084 -0.2230 -1.6657 -3.3181
 1174SOL    HW215156   0.874   1.928   7.012 -0.7381 -0.6661 -1.2741
 1175SOL     OW15157   2.751   2.878  15.400 -0.0986  0.0202 -0.3556
 1175SOL    HW115158   2.785   2.946  15.343 -0.3010 -0.5157 -1.1143
 1175SOL    HW215159   2.800   2.804  15.364  0.5036  0.0936  0.3345
 1176SOL     OW15160   1.808   3.357   9.034  0.3442 -0.1226 -0.4144
 1176SOL    HW115161   1.792   3.401   9.118  0.5476 -0.9189  0.0390
 1176SOL    HW215162   1.896   3.392   9.021  0.0834  0.4851 -0.5846
 1177SOL     OW15163   1.979   1.300   6.288 -0.1939  0.1845 -0.1350
 1177SOL    HW115164   1.995   1.394   6.303 -0.7383 -0.1311  2.5261
 1177SOL    HW215165   2.067   1.265   6.287 -0.6920 -1.0341 -0.9727
 1178SOL     OW15166   2.149   3.917   8.006 -0.4004  0.0744 -0.5849
 1178SOL    HW115167   2.174   3.980   8.074  0.4176  1.4265 -2.1628
 1178SOL    HW215168   2.069   3.886   8.048  0.1099  0.4407  0.6771
 1179SOL     OW15169   2.932   4.035   7.055 -0.3176  0.2920 -0.2052
 1179SOL    HW115170   2.985   4.104   7.015 -0.5865 -0.5993 -2.0818
 1179SOL    HW215171   2.949   4.039   7.150 -1.0387 -0.3078 -0.0512
 1180SOL     OW15172   2.091   1.300   8.869  0.9879 -0.4254  0.4504
 1180SOL    HW115173   2.150   1.225   8.864  0.0027 -1.0899 -1.4196
 1180SOL    HW215174   2.147   1.373   8.895  1.4863 -0.0988 -1.5520
 1181SOL     OW15175   1.403   4.441   8.986 -0.2573  0.2420  0.2436
 1181SOL    HW115176   1.396   4.412   8.895 -0.6752  0.7185  0.1231
 1181SOL    HW215177   1.497   4.453   8.995  0.4816 -1.5085 -4.8925
 1182SOL     OW15178   1.409   2.697   3.111 -0.8557  0.7908  0.3908
 1182SOL    HW115179   1.478   2.739   3.059  1.9273 -3.1428  0.9528
 1182SOL    HW215180   1.382   2.627   3.051 -1.3465 -0.3177  1.8906
 1183SOL     OW15181   2.300   1.684   7.946 -0.3328  0.0109  0.3569
 1183SOL    HW115182   2.386   1.719   7.968 -0.4570 -0.5500  1.7699
 1183SOL    HW215183   2.302   1.607   8.004  3.2006 -0.2019 -0.0459
 1184SOL     OW15184   1.128   2.217   3.001 -0.2471  0.1240 -0.3770
 1184SOL    HW115185   1.084   2.182   2.923 -0.2247 -0.4228 -0.1490
 1184SOL    HW215186   1.056   2.215   3.064 -0.3984  3.4825 -0.4723
 1185SOL     OW15187   2.474   0.999   9.236 -0.4932 -0.4029 -0.1029
 1185SOL    HW115188   2.396   0.961   9.276 -0.5375  1.1887  1.3110
 1185SOL    HW215189   2.511   0.917   9.203  1.4559 -0.0267  1.1706
 1186SOL     OW15190   2.412   0.017  15.258 -0.0485  0.1078 -0.0496
 1186SOL    HW115191   2.440   4.674  15.221 -1.1901 -1.5530  2.8304
 1186SOL    HW215192   2.434   0.076  15.186  2.1197 -1.5219 -0.7081
 1187SOL     OW15193   2.895   2.510   6.933 -0.0270 -0.1206 -0.2255
 1187SOL    HW115194   2.905   2.419   6.960  3.1086  0.2680 -0.0561
 1187SOL    HW215195   2.958   2.558   6.988 -1.1759  2.1753 -0.9071
 1188SOL     OW15196   2.861   4.274   4.056  0.1074 -0.7974  0.5621
 1188SOL    HW115197   2.770   4.288   4.031  0.5881 -0.5067 -1.0407
 1188SOL    HW215198   2.896   4.226   3.981 -2.9104 -0.1809 -1.2371
 1189SOL     OW15199   3.682   3.481   2.837 -0.6290 -0.0123  0.0284
 1189SOL    HW115200   3.621   3.507   2.768 -1.2962 -1.0928  0.2166
 1189SOL    HW215201   3.727   3.565   2.850 -1.7724  0.8621 -1.7343
 1190SOL     OW15202   3.648   0.942   0.538 -0.4518 -0.5109  0.6610
 1190SOL    HW115203   3.579   0.988   0.585 -1.6087 -1.4702 -0.1168
 1190SOL    HW215204   3.622   0.949   0.446 -2.8046 -0.5557  1.3204
 1191SOL     OW15205   0.263   2.974   4.638 -0.8540 -0.1233 -0.3303
 1191SOL    HW115206   0.278   2.984   4.544  0.1774 -0.9526 -0.2624
 1191SOL    HW215207   0.171   2.950   4.632 -0.9063 -1.0075  4.0749
 1192SOL     OW15208   2.807   1.708   6.098  0.5060  0.2647 -0.7732
 1192SOL    HW115209   2.770   1.774   6.156  1.3400  0.5563 -0.5683
 1192SOL    HW215210   2.896   1.717   6.132  0.8913  3.8517 -2.7116
 1193SOL     OW15211   0.874   3.888   0.665 -0.1773  0.2500  0.9398
 1193SOL    HW115212   0.922   3.892   0.747 -0.7141  2.1140  1.1521
 1193SOL    HW215213   0.891   3.970   0.618 -1.0385 -0.1598 -0.1030
 1194SOL     OW15214   1.165   4.625   0.988  0.0084  0.3324 -0.5042
 1194SOL    HW115215   1.210   4.709   0.978 -0.5679  0.5768 -1.0259
 1194SOL    HW215216   1.189   4.604   1.078 -0.2312 -0.0652 -0.5307
 1195SOL     OW15217   0.478   1.159   7.200  0.1927 -0.0963  0.1090
 1195SOL    HW115218   0.547   1.129   7.258  0.8331 -1.0781 -1.1576
 1195SOL    HW215219   0.454   1.076   7.159 -1.5964  0.6033 -0.2762
 1196SOL     OW15220   2.405   3.867   8.500  0.5133 -0.6475 -0.0880
 1196SOL    HW115221   2.473   3.927   8.529  0.5939 -2.1707  2.9168
 1196SOL    HW215222   2.442   3.781   8.521  0.1757 -0.6962  0.3211
 1197SOL     OW15223   2.419   1.971  17.319  0.2399 -0.5961  0.3050
 1197SOL    HW115224   2.432   2.065  17.328  0.0259 -0.5290 -0.0720
 1197SOL    HW215225   2.509   1.943  17.304 -0.4184 -2.9826  0.8033
 1198SOL     OW15226   4.197   3.337  17.104  0.1375 -0.4832  0.2363
 1198SOL    HW115227   4.146   3.332  17.023 -0.7324 -0.5095  0.7738
 1198SOL    HW215228   4.141   3.384  17.167  1.3814  3.2423 -1.4906
 1199SOL     OW15229   4.182   0.546   7.333 -0.1341 -0.4373 -0.1521
 1199SOL    HW115230   4.156   0.546   7.241  1.1580  0.2092 -0.5177
 1199SOL    HW215231   4.102   0.577   7.377 -0.2594 -0.1767 -0.5587
 1200SOL     OW15232   4.251   1.430  13.377  0.0968 -0.0466 -1.0115
 1200SOL    HW115233   4.308   1.504  13.401 -0.3726  0.2758 -0.8838
 1200SOL    HW215234   4.162   1.462  13.396  0.1733  0.5729 -1.6899
 1201SOL     OW15235   0.843   0.340   9.513  0.3846  0.2700  0.7556
 1201SOL    HW115236   0.754   0.360   9.485  0.2878  0.0787  0.9231
 1201SOL    HW215237   0.830   0.303   9.600 -1.3680  0.6344  0.6614
 1202SOL     OW15238   1.827   1.195   7.539  0.1899 -0.2739 -0.7834
 1202SOL    HW115239   1.732   1.209   7.527 -0.2451 -2.4648  0.2388
 1202SOL    HW215240   1.836   1.191   7.443 -0.6764  0.9962 -0.9243
 1203SOL     OW15241   0.021   3.055   3.386 -0.5420 -0.3462 -0.2644
 1203SOL    HW115242   4.672   3.021   3.394 -0.5265 -0.1958  0.5704
 1203SOL    HW215243   0.055   2.973   3.351  3.1367  0.4251  1.5246
 1204SOL     OW15244   3.142   3.978   1.263  0.4258  0.0361  0.3932
 1204SOL    HW115245   3.223   3.968   1.213  0.3506 -0.3979  0.3634
 1204SOL    HW215246   3.076   3.997   1.196 -1.3987  0.5426  2.3539
 1205SOL     OW15247   4.410   1.731   3.819  0.2696  0.0908  0.2156
 1205SOL    HW115248   4.475   1.679   3.866 -0.6100 -2.5623 -1.4961
 1205SOL    HW215249   4.389   1.678   3.742 -0.4036 -0.9506  1.1128
 1206SOL     OW15250   2.738   1.750   7.446  0.2288  0.2816 -0.0839
 1206SOL    HW115251   2.788   1.831   7.435 -1.3044  1.1194 -0.9441
 1206SOL    HW215252   2.661   1.762   7.390 -0.3582 -0.2046  0.6139
 1207SOL     OW15253   0.850   1.945   8.189  0.7865 -0.1258 -0.1813
 1207SOL    HW115254   0.855   1.863   8.238  0.3073  1.0520  1.8338
 1207SOL    HW215255   0.943   1.962   8.172  1.1319 -1.5525  0.2413
 1208SOL     OW15256   1.883   4.229   9.380  0.6008  0.9102  0.2403
 1208SOL    HW115257   1.815   4.222   9.448  0.2241 -1.4827 -0.3862
 1208SOL    HW215258   1.840   4.164   9.325 -0.3622  1.0976  0.7550
 1209SOL     OW15259   0.687   0.579   6.117  0.7582  0.8537  0.3736
 1209SOL    HW115260   0.736   0.563   6.198 -1.0454  0.6583  1.4293
 1209SOL    HW215261   0.712   0.503   6.065 -2.1220 -0.6979  1.2645
 1210SOL     OW15262   0.001   4.564   4.163  0.8338 -0.1611  0.2594
 1210SOL    HW115263   4.732   4.588   4.255  0.4628 -1.4531  0.5620
 1210SOL    HW215264   4.658   4.601   4.132  0.6162 -0.0044  1.0346
 1211SOL     OW15265   2.860   2.141   8.400  0.2299 -0.1233  0.0216
 1211SOL    HW115266   2.871   2.097   8.485 -0.8960  0.6214  0.5391
 1211SOL    HW215267   2.885   2.233   8.411 -2.1432  0.7439 -2.0428
 1212SOL     OW15268   0.285   3.997   9.436 -0.4461 -0.3039  0.2013
 1212SOL    HW115269   0.212   3.938   9.417 -0.3288 -1.1324  2.2958
 1212SOL    HW215270   0.243   4.069   9.483  1.0310  1.1559 -0.7329
 1213SOL     OW15271   3.934   2.830   3.863 -0.0066 -0.5299  0.5643
 1213SOL    HW115272   3.882   2.890   3.916  0.0749 -0.4938  0.6049
 1213SOL    HW215273   3.994   2.887   3.814 -2.6616  1.8758  0.1001
 1214SOL     OW15274   0.369   1.740  12.771  0.2402  0.2198 -0.2297
 1214SOL    HW115275   0.370   1.826  12.813  1.7140  0.6286 -1.1053
 1214SOL    HW215276   0.302   1.688  12.815  0.4487  1.4222  1.5174
 1215SOL     OW15277   4.513   4.570   1.093  0.0558 -0.2941 -0.0543
 1215SOL    HW115278   4.515   4.665   1.104 -1.6601 -0.3097  0.4876
 1215SOL    HW215279   4.477   4.535   1.175  2.2332 -4.2435 -0.7661
 1216SOL     OW15280   3.623   4.243   6.439  0.5103  0.6000  0.1139
 1216SOL    HW115281   3.550   4.286   6.484  0.1711 -1.2611  1.3580
 1216SOL    HW215282   3.696   4.299   6.467  1.2044  0.2985 -1.1013
 1217SOL     OW15283   3.210   1.064   3.844 -0.2092 -0.0040 -0.3744
 1217SOL    HW115284   3.181   0.976   3.819  1.9878 -0.7197 -0.3884
 1217SOL    HW215285   3.269   1.039   3.916 -0.7119  0.0150  0.0463
 1218SOL     OW15286   4.073   2.274   4.774 -0.3575 -0.4342  0.6810
 1218SOL    HW115287   4.043   2.218   4.702  1.1937  1.4364 -1.3979
 1218SOL    HW215288   4.162   2.241   4.787  0.0469  1.0704  1.6816
 1219SOL     OW15289   3.824   4.130   2.747 -0.3668 -0.6150 -0.0283
 1219SOL    HW115290   3.731   4.111   2.733 -0.7505 -0.0623  1.8832
 1219SOL    HW215291   3.820   4.197   2.815  0.5011  0.6364 -1.2041
 1220SOL     OW15292   1.289   1.025   5.995  0.5729  0.0018  0.3492
 1220SOL    HW115293   1.283   1.088   5.924 -0.1669 -1.5326 -0.9521
 1220SOL    HW215294   1.383   1.006   5.988  0.2005 -1.5097 -0.6961
 1221SOL     OW15295   0.623   4.631   4.480  0.5984 -0.0771  0.2896
 1221SOL    HW115296   0.626   4.724   4.458 -0.4844  0.2267  1.4737
 1221SOL    HW215297   0.672   4.596   4.405 -1.2742  0.5496 -1.2297
 1222SOL     OW15298   0.257   2.359   3.836  0.1800  0.2695  0.3955
 1222SOL    HW115299   0.283   2.423   3.770  0.1358 -0.1786 -0.0542
 1222SOL    HW215300   0.223   2.297   3.772 -1.8907 -0.1386  1.8796
 1223SOL     OW15301   3.601   4.203  10.265 -0.8610 -0.0460  0.4540
 1223SOL    HW115302   3.546   4.143  10.315 -0.7752 -1.7513 -1.5306
 1223SOL    HW215303   3.577   4.294  10.282 -1.1308  0.0033 -0.1789
 1224SOL     OW15304   1.071   3.194   5.039  0.4735 -0.3956  0.9339
 1224SOL    HW115305   1.077   3.288   5.058 -2.4485  0.1404 -0.7395
 1224SOL    HW215306   1.164   3.175   5.039  0.3996 -0.7223 -0.6327
 1225SOL     OW15307   2.341   0.114   1.925 -0.0089 -0.3302 -0.3441
 1225SOL    HW115308   2.375   0.025   1.938 -1.4407 -0.9090 -0.6546
 1225SOL    HW215309   2.411   0.163   1.968 -0.9096 -0.6081  1.4518
 1226SOL     OW15310   1.321   3.859   6.580  0.0456  0.1603 -0.5148
 1226SOL    HW115311   1.390   3.885   6.518  0.6439 -0.5661 -0.1564
 1226SOL    HW215312   1.368   3.873   6.662 -1.0456  0.7905  0.0043
 1227SOL     OW15313   1.340   3.624   5.876  0.0441  0.0062  0.5436
 1227SOL    HW115314   1.426   3.658   5.902 -0.6585  0.7930  1.8768
 1227SOL    HW215315   1.350   3.614   5.782  0.4672 -0.3264  0.6272
 1228SOL     OW15316   3.381   0.404   5.262 -0.4168 -0.1582  0.2848
 1228SOL    HW115317   3.366   0.333   5.198  0.1496  0.3899 -0.4577
 1228SOL    HW215318   3.372   0.361   5.346 -1.8200  0.3585  0.3918
 1229SOL     OW15319   1.501   0.955   9.449  0.3126  0.1365  0.5148
 1229SOL    HW115320   1.425   0.988   9.497 -0.7935 -1.3704 -0.1882
 1229SOL    HW215321   1.484   0.988   9.361 -0.0900 -2.5395 -0.4086
 1230SOL     OW15322   0.969   4.370   0.195  0.3946  0.0671 -0.6611
 1230SOL    HW115323   0.968   4.398   0.286  2.2598 -1.7645 -0.0866
 1230SOL    HW215324   0.875   4.377   0.175  0.4056  2.0108 -0.0166
 1231SOL     OW15325   0.819   4.667   9.851  0.3173  0.2125  0.0465
 1231SOL    HW115326   0.802   4.624   9.766 -1.4380 -0.7267  0.8576
 1231SOL    HW215327   0.751   4.645   9.915  0.1066  2.0445  0.4524
 1232SOL     OW15328   2.648   2.782  16.799  0.1577 -0.3989 -0.3463
 1232SOL    HW115329   2.702   2.753  16.726 -1.2882 -2.7317 -0.4842
 1232SOL    HW215330   2.623   2.868  16.765 -0.2848 -1.0699 -1.7050
 1233SOL     OW15331   2.802   1.042   2.288  0.3321 -0.1814  0.0438
 1233SOL    HW115332   2.784   0.959   2.244 -0.4388  0.2285 -0.4173
 1233SOL    HW215333   2.870   1.087   2.237  1.0797 -0.8681  0.4301
 1234SOL     OW15334   2.720   3.453   7.701  0.3417  0.1545  0.4768
 1234SOL    HW115335   2.713   3.372   7.651 -1.5938  0.1662  0.7368
 1234SOL    HW215336   2.800   3.490   7.664 -0.4338  1.4667  0.1245
 1235SOL     OW15337   4.072   2.351  11.755 -0.1289  0.3181 -0.2288
 1235SOL    HW115338   4.037   2.350  11.665  1.7309  3.9429 -0.9657
 1235SOL    HW215339   4.135   2.422  11.743 -2.2393  2.3493  0.8423
 1236SOL     OW15340   3.718   3.653   3.357 -0.1559  0.1451  0.3747
 1236SOL    HW115341   3.640   3.688   3.314 -0.4257  2.0720  2.4342
 1236SOL    HW215342   3.723   3.723   3.422 -1.1579 -0.3658  0.9904
 1237SOL     OW15343   2.257   0.972  13.020 -0.3363 -0.4161 -0.4319
 1237SOL    HW115344   2.271   1.032  12.947  2.2610  0.8755  1.1236
 1237SOL    HW215345   2.207   1.021  13.085  0.0278  0.6235 -0.9370
 1238SOL     OW15346   1.243   3.185   7.829 -0.2709 -0.9161  0.2239
 1238SOL    HW115347   1.177   3.124   7.798 -1.9450  2.6377 -3.1837
 1238SOL    HW215348   1.220   3.264   7.780  2.0984  0.0136  0.5964
 1239SOL     OW15349   2.624   0.769   8.448 -0.1125 -0.1588 -0.2842
 1239SOL    HW115350   2.556   0.705   8.471  0.8112 -1.4465 -1.1364
 1239SOL    HW215351   2.565   0.841   8.428 -0.1197 -0.3651 -1.0034
 1240SOL     OW15352   3.124   2.895   8.853 -0.1328 -0.2200  0.6758
 1240SOL    HW115353   3.151   2.817   8.804 -0.9113 -0.2356  0.2810
 1240SOL    HW215354   3.093   2.949   8.780  1.5163 -1.0968 -0.6756
 1241SOL     OW15355   0.288   1.199   4.172  0.5841 -0.1333  0.2777
 1241SOL    HW115356   0.351   1.261   4.209 -0.1214 -0.1957  1.5670
 1241SOL    HW215357   0.217   1.254   4.138  0.9724  0.4121  0.3412
 1242SOL     OW15358   3.305   3.693  11.169  0.0941  0.0345 -0.5883
 1242SOL    HW115359   3.367   3.709  11.098  1.0911 -1.2821 -0.0234
 1242SOL    HW215360   3.363   3.669  11.242  2.3165  1.1810 -1.9561
 1243SOL     OW15361   4.525   3.532   1.561 -0.4274 -0.6931  0.3541
 1243SOL    HW115362   4.447   3.478   1.570 -1.7824  1.1413 -0.4188
 1243SOL    HW215363   4.485   3.617   1.542  3.2427  1.0794  0.4548
 1244SOL     OW15364   3.050   4.352  14.422 -0.2392  0.0547  0.8154
 1244SOL    HW115365   3.085   4.317  14.340 -1.0425  1.0894  0.0310
 1244SOL    HW215366   3.109   4.426  14.439  1.1940 -0.5476 -1.5122
 1245SOL     OW15367   0.734   2.361   7.051 -0.4225  0.1077 -0.2193
 1245SOL    HW115368   0.643   2.331   7.049 -0.3022 -0.3125  0.6383
 1245SOL    HW215369   0.743   2.368   7.146  3.9959  3.2682 -0.8723
 1246SOL     OW15370   1.586   2.197   5.213 -0.1868  0.1220 -0.1482
 1246SOL    HW115371   1.670   2.153   5.228 -0.4411 -0.7388 -1.2984
 1246SOL    HW215372   1.607   2.291   5.218  2.1332 -0.3227 -1.7628
 1247SOL     OW15373   0.028   0.713   6.772  0.1414  0.7498  0.5482
 1247SOL    HW115374   4.715   0.736   6.848  1.6382 -0.2138  1.8921
 1247SOL    HW215375   0.091   0.785   6.775 -0.5359  1.3651 -0.0631
 1248SOL     OW15376   3.596   2.782   4.416 -0.4821  0.3703 -0.2588
 1248SOL    HW115377   3.532   2.779   4.487 -0.7967 -1.2689 -0.6289
 1248SOL    HW215378   3.578   2.864   4.370  1.9658  0.5469 -0.9114
 1249SOL     OW15379   0.009   4.699   1.733  0.0435 -0.0096 -1.1522
 1249SOL    HW115380   0.016   0.006   1.650 -2.9983 -0.5506 -1.7193
 1249SOL    HW215381   4.673   0.004   1.766  0.9055 -0.1063  1.0231
 1250SOL     OW15382   2.345   0.101   6.250 -0.3755 -0.1531  0.3078
 1250SOL    HW115383   2.312   0.172   6.195  3.4146  1.7286  0.5144
 1250SOL    HW215384   2.373   0.147   6.328 -0.3272 -0.9099  0.7353
 1251SOL     OW15385   4.739   1.377  16.762 -0.3420  0.1030 -0.3765
 1251SOL    HW115386   0.020   1.436  16.690  2.0150  0.5551  0.6681
 1251SOL    HW215387   4.661   1.335  16.726  1.8334 -1.0290 -3.7620
 1252SOL     OW15388   2.691   1.877   8.275  0.2410 -0.0182 -0.5683
 1252SOL    HW115389   2.717   1.845   8.362 -1.3223  1.0753  0.3123
 1252SOL    HW215390   2.701   1.971   8.294  2.8804 -0.3236 -0.4383
 1253SOL     OW15391   0.628   3.917   2.826  0.1116  0.7965  0.1355
 1253SOL    HW115392   0.607   4.004   2.860 -1.8699 -0.8963  3.1886
 1253SOL    HW215393   0.546   3.896   2.781  1.4756 -1.5166 -1.3004
 1254SOL     OW15394   1.628   0.946   4.656  0.0430 -0.0935 -0.4075
 1254SOL    HW115395   1.626   1.041   4.670 -0.3582 -0.3295  1.1471
 1254SOL    HW215396   1.591   0.947   4.568 -0.9643  0.5774  0.0119
 1255SOL     OW15397   2.212   2.117  12.219  0.3770 -0.2504 -0.1811
 1255SOL    HW115398   2.135   2.067  12.196 -0.1193  0.4198  0.0129
 1255SOL    HW215399   2.176   2.204  12.205  0.5909 -0.1002  0.1712
 1256SOL     OW15400   3.123   1.364   7.766 -0.0891  0.4498 -0.0371
 1256SOL    HW115401   3.062   1.292   7.754  0.4228  0.0528 -0.2607
 1256SOL    HW215402   3.071   1.444   7.753  1.3155  1.4506  0.4573
 1257SOL     OW15403   1.599   0.491   4.842 -0.5082 -0.4955  0.2947
 1257SOL    HW115404   1.647   0.465   4.920  0.2221  0.3874  0.1356
 1257SOL    HW215405   1.532   0.422   4.840 -0.5586 -0.4375 -0.0623
 1258SOL     OW15406   4.032   1.159   7.455 -0.2922  0.4930 -0.8618
 1258SOL    HW115407   4.069   1.071   7.461 -1.4222  0.0950  0.3889
 1258SOL    HW215408   3.963   1.149   7.389 -0.5530 -1.5576 -0.2530
 1259SOL     OW15409   0.348   2.370   5.949 -0.6468  0.1842 -0.3932
 1259SOL    HW115410   0.333   2.407   5.862 -2.2136  0.7180  0.1021
 1259SOL    HW215411   0.282   2.301   5.954  0.6970 -1.0290  0.6764
 1260SOL     OW15412   1.276   0.774   2.668  0.1249  0.0213 -0.1034
 1260SOL    HW115413   1.201   0.735   2.712 -0.1482 -0.6251 -1.1498
 1260SOL    HW215414   1.341   0.749   2.733  0.0838 -2.5088 -1.0369
 1261SOL     OW15415   2.455   4.347  15.510  0.4904 -0.7817  0.0257
 1261SOL    HW115416   2.364   4.367  15.488 -0.1830 -3.6095  0.2064
 1261SOL    HW215417   2.449   4.251  15.507  0.3429 -0.7526 -0.5623
 1262SOL     OW15418   2.596   0.380   8.736  0.3727  0.1020  0.3082
 1262SOL    HW115419   2.679   0.331   8.739  0.2714 -0.0476  0.7219
 1262SOL    HW215420   2.592   0.380   8.640  2.1299 -1.2330  0.2370
 1263SOL     OW15421   0.968   2.323  13.087 -0.4167 -0.2956  0.4058
 1263SOL    HW115422   1.063   2.314  13.098 -0.5073 -1.2304  0.4659
 1263SOL    HW215423   0.970   2.371  13.005  1.3991 -0.1570  0.5153
 1264SOL     OW15424   0.747   4.575   8.846 -0.2002 -0.4419 -0.1705
 1264SOL    HW115425   0.780   4.489   8.821  3.3078  1.1447 -1.0455
 1264SOL    HW215426   0.675   4.581   8.783  0.1410 -0.7944 -0.5867
 1265SOL     OW15427   3.118   3.082  14.691 -0.4716  0.2850 -0.6094
 1265SOL    HW115428   3.201   3.094  14.737 -0.6555 -1.7107  0.2470
 1265SOL    HW215429   3.061   3.157  14.712 -1.1821 -0.4765  0.1778
 1266SOL     OW15430   4.669   2.517   7.856 -0.1108 -0.2390  0.2095
 1266SOL    HW115431   4.636   2.572   7.785  0.1659 -0.7692 -0.3268
 1266SOL    HW215432   0.000   2.577   7.877 -1.7814  1.7465  0.2831
 1267SOL     OW15433   0.391   2.781   9.496 -0.4176 -0.6315  0.2237
 1267SOL    HW115434   0.441   2.749   9.571 -0.5885  0.5890  0.8627
 1267SOL    HW215435   0.411   2.718   9.427 -2.0433 -1.0846  0.1737
 1268SOL     OW15436   2.492   1.883  16.549 -0.7334  0.3565  0.4697
 1268SOL    HW115437   2.484   1.919  16.637 -1.8493  0.3516  0.3630
 1268SOL    HW215438   2.553   1.810  16.561 -0.3143  0.5089 -0.7828
 1269SOL     OW15439   1.089   3.889  11.708  0.4483  0.1490  0.7602
 1269SOL    HW115440   1.101   3.898  11.802 -1.3948  2.0415  0.8233
 1269SOL    HW215441   1.130   3.969  11.673 -1.0079  0.8218  0.5702
 1270SOL     OW15442   3.783   3.186   7.530 -0.3652  0.0080 -0.1116
 1270SOL    HW115443   3.877   3.178   7.548 -0.5760 -0.9392  0.5689
 1270SOL    HW215444   3.744   3.194   7.617 -0.2374  0.3180 -0.0837
 1271SOL     OW15445   2.416   1.731   3.259 -0.6516 -0.3470  0.9675
 1271SOL    HW115446   2.443   1.755   3.348 -2.3674  0.1208  1.3622
 1271SOL    HW215447   2.490   1.675   3.235 -0.7990 -0.1580  0.0693
 1272SOL     OW15448   1.700   4.181   9.554 -0.2265  0.6857  0.1210
 1272SOL    HW115449   1.665   4.207   9.640 -0.3670 -0.2258  0.3379
 1272SOL    HW215450   1.625   4.135   9.517 -1.3339  2.0473  0.6970
 1273SOL     OW15451   0.549   2.638   3.724 -0.4217 -0.4216  0.3226
 1273SOL    HW115452   0.615   2.683   3.671 -2.7393 -0.1502 -2.3328
 1273SOL    HW215453   0.578   2.546   3.720  0.4594 -0.0829 -1.4896
 1274SOL     OW15454   4.104   0.863   4.829  0.1143  0.3069 -0.5726
 1274SOL    HW115455   4.136   0.797   4.891  0.1337 -0.2298 -1.1567
 1274SOL    HW215456   4.021   0.891   4.868  0.1712  0.9716 -0.9342
 1275SOL     OW15457   1.031   0.008   8.768 -0.0526 -0.1162 -0.9593
 1275SOL    HW115458   1.111   4.734   8.717 -0.0022  2.2369 -1.5447
 1275SOL    HW215459   1.063   4.717   8.852 -2.4571 -2.0855 -0.7907
 1276SOL     OW15460   3.298   0.381  10.478 -0.4202 -0.1821  0.2254
 1276SOL    HW115461   3.224   0.432  10.508  2.3274  3.3872  0.9097
 1276SOL    HW215462   3.329   0.442  10.411 -0.5176 -0.8616 -0.4494
 1277SOL     OW15463   1.136   1.809   7.617 -0.1397  0.2892 -0.1155
 1277SOL    HW115464   1.214   1.808   7.672 -0.0455 -2.8442 -0.3022
 1277SOL    HW215465   1.109   1.719   7.604 -0.7684  0.1733  1.9104
 1278SOL     OW15466   3.144   2.651  16.917 -0.0991 -0.0052  0.7295
 1278SOL    HW115467   3.228   2.622  16.951 -1.9192 -3.5638  2.1855
 1278SOL    HW215468   3.116   2.725  16.971 -0.8235  0.4773 -0.3113
 1279SOL     OW15469   4.492   0.850   5.941  0.0198  0.0735  0.4477
 1279SOL    HW115470   4.460   0.804   6.018 -0.4800  1.7601  1.2262
 1279SOL    HW215471   4.588   0.847   5.942  0.0115 -0.6366 -0.6666
 1280SOL     OW15472   0.929   3.134   1.277  0.0733  0.1157  0.1516
 1280SOL    HW115473   1.002   3.195   1.291  0.0099  0.2051  0.0941
 1280SOL    HW215474   0.920   3.146   1.182 -0.9332 -1.7615  0.0222
 1281SOL     OW15475   1.706   1.880  11.594 -0.0216 -0.7842 -0.1078
 1281SOL    HW115476   1.690   1.822  11.519  1.5280 -1.3257 -0.0205
 1281SOL    HW215477   1.707   1.968  11.556  1.5525 -0.3632  0.9110
 1282SOL     OW15478   2.658   3.539   2.454  0.0785 -0.2494 -0.3091
 1282SOL    HW115479   2.639   3.550   2.547  0.4580 -0.1235 -0.2457
 1282SOL    HW215480   2.743   3.494   2.455 -0.4801 -1.3094 -1.9166
 1283SOL     OW15481   0.830   3.226   2.974  0.1962  0.1205  0.4172
 1283SOL    HW115482   0.758   3.287   2.987  0.5428  0.3600  1.1873
 1283SOL    HW215483   0.893   3.259   3.038 -0.0005 -3.9616  2.7165
 1284SOL     OW15484   0.642   3.602   2.821 -0.0094  0.1215  0.3606
 1284SOL    HW115485   0.638   3.697   2.808  1.9240  0.3014  1.0733
 1284SOL    HW215486   0.690   3.588   2.903 -0.7142 -0.3819  0.6824
 1285SOL     OW15487   0.051   0.430   9.045 -0.0518  0.2576  0.3713
 1285SOL    HW115488   4.697   0.446   9.040  0.3272  1.5983 -2.5225
 1285SOL    HW215489   0.066   0.410   9.138 -2.9474 -0.8810  0.6207
 1286SOL     OW15490   3.732   2.259  13.190 -0.2890  0.0826 -0.0031
 1286SOL    HW115491   3.747   2.202  13.115  2.0209 -0.4189  0.8509
 1286SOL    HW215492   3.713   2.341  13.145  1.4904  0.5706  0.1605
 1287SOL     OW15493   2.472   1.344   0.271 -0.3586  0.2732 -0.7864
 1287SOL    HW115494   2.472   1.309   0.360 -0.6619  2.0096 -0.0905
 1287SOL    HW215495   2.428   1.273   0.224  3.0385 -2.3405  0.0018
 1288SOL     OW15496   1.652   2.860   5.387  0.0482 -0.3838 -0.4042
 1288SOL    HW115497   1.644   2.926   5.319 -0.6639  0.5037  0.5374
 1288SOL    HW215498   1.655   2.779   5.337 -1.0750 -0.1401 -0.8535
 1289SOL     OW15499   3.538   2.671   7.739 -0.0990 -0.0938  0.9080
 1289SOL    HW115500   3.622   2.635   7.710  0.1764  1.8137 -0.6631
 1289SOL    HW215501   3.484   2.596   7.765  1.1945 -2.3750 -2.9895
 1290SOL     OW15502   2.739   3.167   6.578  0.6343 -0.1462 -0.2945
 1290SOL    HW115503   2.818   3.155   6.526  0.1345  0.9740 -1.3040
 1290SOL    HW215504   2.765   3.256   6.602  0.4278  0.0742 -0.8862
 1291SOL     OW15505   3.167   2.195   5.324  0.0376  0.3073 -0.0428
 1291SOL    HW115506   3.102   2.126   5.311  0.1230  0.2630 -0.2375
 1291SOL    HW215507   3.193   2.199   5.232  1.8275 -1.0755  0.3927
 1292SOL     OW15508   4.614   2.222   8.125  0.3168 -0.0734  0.2946
 1292SOL    HW115509   4.556   2.178   8.187 -1.1215  0.5567 -0.5990
 1292SOL    HW215510   4.658   2.280   8.188  0.1947 -0.4326  0.7072
 1293SOL     OW15511   2.208   0.626   8.978  0.1964 -0.5705  0.0855
 1293SOL    HW115512   2.190   0.560   9.046 -1.8912 -2.6779 -2.5261
 1293SOL    HW215513   2.258   0.572   8.917 -0.1441 -0.9014  0.0975
 1294SOL     OW15514   1.246   3.268   9.313 -0.6040  0.0644  0.1135
 1294SOL    HW115515   1.205   3.286   9.397 -0.5746  0.0477  0.1317
 1294SOL    HW215516   1.309   3.202   9.341 -0.2398 -0.8200 -2.8141
 1295SOL     OW15517   3.973   3.959   9.316 -0.2537  0.2098 -0.0843
 1295SOL    HW115518   4.016   3.990   9.236 -0.1593 -0.2718 -0.2172
 1295SOL    HW215519   3.879   3.963   9.300 -0.4649  1.5551  1.4605
 1296SOL     OW15520   3.525   4.452   7.560  0.2192 -0.0502  0.2309
 1296SOL    HW115521   3.541   4.359   7.546  0.4657  0.2610 -1.5831
 1296SOL    HW215522   3.608   4.489   7.591 -0.6437  0.3081  2.1398
 1297SOL     OW15523   1.133   2.725  15.771 -0.0416 -0.0509  0.1042
 1297SOL    HW115524   1.099   2.814  15.768  2.2891  0.8342 -0.4767
 1297SOL    HW215525   1.181   2.726  15.688  0.3470 -1.2376  0.3156
 1298SOL     OW15526   4.019   3.105  15.311  0.1394  0.0247 -0.3183
 1298SOL    HW115527   4.098   3.143  15.349  1.3461  0.5486 -3.3854
 1298SOL    HW215528   3.984   3.180  15.263 -0.0924  0.0284 -0.1431
 1299SOL     OW15529   4.349   3.181   7.610  0.6945  0.0340  0.3532
 1299SOL    HW115530   4.295   3.145   7.681  1.4554 -0.9099  0.4370
 1299SOL    HW215531   4.291   3.159   7.537 -0.4792 -1.8673  1.8577
 1300SOL     OW15532   1.625   0.756   4.886  0.4192 -0.4899  0.2788
 1300SOL    HW115533   1.600   0.667   4.861  2.8118 -1.5100  1.5073
 1300SOL    HW215534   1.641   0.794   4.799  0.8384  0.1430  0.6306
 1301SOL     OW15535   3.064   3.765  11.787  0.3505  0.2591  0.1040
 1301SOL    HW115536   3.032   3.853  11.806 -1.2912  0.2208 -2.5070
 1301SOL    HW215537   3.016   3.718  11.855 -0.6772  0.6755 -0.3467
 1302SOL     OW15538   4.600   3.635   5.804  0.0567 -0.2757  0.3667
 1302SOL    HW115539   4.643   3.557   5.840  1.7396  0.7299  0.5662
 1302SOL    HW215540   4.590   3.607   5.713 -0.4931  1.3561 -0.0788
 1303SOL     OW15541   3.970   1.866  16.454  0.1799  0.5976 -0.0160
 1303SOL    HW115542   3.968   1.875  16.549 -0.5290  0.7784 -0.0509
 1303SOL    HW215543   3.882   1.834  16.434  0.1412  0.2673  0.7044
 1304SOL     OW15544   1.852   1.141   9.104  0.3398  0.2544  0.3617
 1304SOL    HW115545   1.879   1.146   9.196 -3.6350 -0.3623  1.5462
 1304SOL    HW215546   1.869   1.047   9.096 -0.2349 -0.0815  3.0889
 1305SOL     OW15547   2.842   1.423   3.213  0.5802  0.4386 -0.5767
 1305SOL    HW115548   2.784   1.349   3.235  0.3744  0.3651 -1.3658
 1305SOL    HW215549   2.812   1.457   3.129 -0.3296 -0.8888 -0.7923
 1306SOL     OW15550   4.195   2.365   3.770  0.1904 -0.3476 -0.0501
 1306SOL    HW115551   4.132   2.433   3.793  0.2280 -0.2252 -0.3139
 1306SOL    HW215552   4.208   2.398   3.682 -0.5421 -0.7761 -0.3236
 1307SOL     OW15553   0.181   2.151   5.956 -0.1256  0.5658  0.4414
 1307SOL    HW115554   0.140   2.089   6.017  1.2467 -0.4471  0.3344
 1307SOL    HW215555   0.105   2.208   5.944 -1.0871 -1.1789 -1.7816
 1308SOL     OW15556   3.209   4.268   9.256 -0.4104 -0.3370 -0.1660
 1308SOL    HW115557   3.273   4.197   9.252  0.2273  0.2928 -0.8732
 1308SOL    HW215558   3.240   4.330   9.191 -2.1200  2.3101  1.5537
 1309SOL     OW15559   0.562   1.297   4.648  0.7239  0.3647  0.0115
 1309SOL    HW115560   0.548   1.208   4.616 -0.1473  0.2853  0.6068
 1309SOL    HW215561   0.642   1.317   4.599 -0.2867  1.3501 -1.2355
 1310SOL     OW15562   4.152   3.537   3.729 -0.0814 -0.2261  0.3210
 1310SOL    HW115563   4.086   3.594   3.769 -1.2773 -0.9766 -0.6000
 1310SOL    HW215564   4.094   3.476   3.682  0.5131  0.1372 -0.9025
 1311SOL     OW15565   2.013   1.443   9.467  0.3026  0.2913  0.2398
 1311SOL    HW115566   2.098   1.480   9.442  0.2706 -0.0616 -0.4005
 1311SOL    HW215567   2.020   1.463   9.560 -0.8166 -0.7563  0.5525
 1312SOL     OW15568   2.110   0.799   8.787 -0.0766  0.8689  0.2257
 1312SOL    HW115569   2.143   0.751   8.864 -0.5594 -0.1826 -0.2275
 1312SOL    HW215570   2.086   0.730   8.725  1.5823  0.7404 -0.2658
 1313SOL     OW15571   3.846   0.995  12.732  0.1096  0.1161  0.2078
 1313SOL    HW115572   3.892   0.936  12.790 -1.0554 -0.7487  0.2492
 1313SOL    HW215573   3.759   0.983  12.770 -0.1847 -0.6843 -0.7194
 1314SOL     OW15574   1.712   1.756  16.589 -0.4321  0.5257  0.1618
 1314SOL    HW115575   1.779   1.824  16.594 -0.0567  0.1212  0.5906
 1314SOL    HW215576   1.755   1.681  16.549  0.8319 -0.1954  2.9259
 1315SOL     OW15577   2.446   2.224   9.284  0.1129 -0.4858  0.4164
 1315SOL    HW115578   2.541   2.210   9.292  0.1651  0.9125  2.3527
 1315SOL    HW215579   2.443   2.319   9.300 -0.1490 -0.2646 -0.9904
 1316SOL     OW15580   0.953   0.648  17.703  0.1194  0.2240  0.3637
 1316SOL    HW115581   0.884   0.692  17.752 -0.7650 -0.4578 -0.2611
 1316SOL    HW215582   1.031   0.665  17.755  2.6775 -0.0705 -3.3659
 1317SOL     OW15583   0.454   2.374   7.034 -0.0752  0.3981 -0.1733
 1317SOL    HW115584   0.396   2.301   7.012  2.4813 -1.2018 -1.5903
 1317SOL    HW215585   0.406   2.418   7.104  0.2176  0.4814 -0.0228
 1318SOL     OW15586   0.228   2.237  15.350  0.0454  0.5852 -0.1330
 1318SOL    HW115587   0.171   2.267  15.421 -2.4082 -0.5676 -1.6345
 1318SOL    HW215588   0.168   2.214  15.280 -1.0718  4.9248 -0.6261
 1319SOL     OW15589   2.055   4.200   8.093 -0.4075  0.6475 -0.4614
 1319SOL    HW115590   2.068   4.293   8.075  3.4365  0.0661 -0.8366
 1319SOL    HW215591   2.143   4.175   8.122 -1.2856 -0.7702  0.9906
 1320SOL     OW15592   4.086   0.468   8.031 -0.2714 -0.2784 -0.3467
 1320SOL    HW115593   4.059   0.380   8.004  0.8504 -1.1162  1.2589
 1320SOL    HW215594   4.114   0.508   7.949  1.9824 -0.3727  0.3702
 1321SOL     OW15595   3.364   3.993   9.980 -0.1353  0.5277  0.3353
 1321SOL    HW115596   3.289   4.000  10.039 -0.2705 -3.6154  0.6846
 1321SOL    HW215597   3.424   3.955  10.044  2.6026  0.6892 -2.1441
 1322SOL     OW15598   1.111   1.359  10.573  0.5822  0.5142 -0.0943
 1322SOL    HW115599   1.018   1.378  10.559  0.8219  1.5589 -0.2524
 1322SOL    HW215600   1.140   1.350  10.483  0.3121 -0.7781 -0.0603
 1323SOL     OW15601   3.923   1.697   7.972  0.6643 -0.4180 -0.7299
 1323SOL    HW115602   3.862   1.627   7.948  0.1068  0.1354 -0.9530
 1323SOL    HW215603   4.003   1.652   7.997 -2.2873 -3.1776  3.8241
 1324SOL     OW15604   0.441   3.402  15.199 -0.8449  0.0362  0.0895
 1324SOL    HW115605   0.402   3.489  15.189 -1.2122 -0.4162 -2.2837
 1324SOL    HW215606   0.403   3.383  15.285  0.1388 -1.0662  0.2734
 1325SOL     OW15607   1.630   2.064   8.910 -0.3463  0.3763  0.4257
 1325SOL    HW115608   1.563   2.010   8.952 -1.6262  0.6217 -1.3123
 1325SOL    HW215609   1.633   2.138   8.971  0.0624  2.3600 -2.0023
 1326SOL     OW15610   1.707   3.526   2.310  0.1586 -0.0974  0.1438
 1326SOL    HW115611   1.778   3.492   2.255  0.2954  2.1210 -1.0624
 1326SOL    HW215612   1.631   3.504   2.257 -0.5179  1.0101  0.6541
 1327SOL     OW15613   2.815   4.611   3.460  0.1139  0.1862  0.4608
 1327SOL    HW115614   2.774   4.527   3.440 -2.1049  0.9753  1.7131
 1327SOL    HW215615   2.736   4.641   3.504  0.2148  0.2644  0.5904
 1328SOL     OW15616   2.862   2.362   6.111  0.6327 -0.2820  0.4075
 1328SOL    HW115617   2.808   2.439   6.096  0.4841 -0.4584  0.0329
 1328SOL    HW215618   2.796   2.293   6.123 -1.1074  1.1672 -0.9353
 1329SOL     OW15619   0.113   3.866   8.845  0.4303  0.6231 -0.9508
 1329SOL    HW115620   0.139   3.793   8.901 -2.4524 -0.8649 -1.5474
 1329SOL    HW215621   0.072   3.933   8.900 -1.1795 -0.1602 -1.2056
 1330SOL     OW15622   1.294   2.618   7.008  0.0633 -0.6166 -0.2506
 1330SOL    HW115623   1.308   2.524   7.000 -1.7127 -0.6737 -2.3311
 1330SOL    HW215624   1.259   2.615   7.097 -0.6359 -1.0962 -0.5511
 1331SOL     OW15625   0.331   3.480   9.907 -0.8351  0.5611  0.7770
 1331SOL    HW115626   0.421   3.446   9.909 -1.1951 -0.5251 -1.6152
 1331SOL    HW215627   0.293   3.446   9.827 -0.7109 -1.2162  1.4703
 1332SOL     OW15628   4.500   2.767   4.605 -1.0542 -0.4757 -0.4977
 1332SOL    HW115629   4.512   2.672   4.605  0.1379 -0.2977  2.5281
 1332SOL    HW215630   4.552   2.790   4.681 -1.6997 -1.0904  0.1345
 1333SOL     OW15631   0.366   1.146   8.102 -0.3084  0.1471  0.0312
 1333SOL    HW115632   0.440   1.178   8.050  0.9352 -0.3369  1.4946
 1333SOL    HW215633   0.414   1.125   8.182  0.4580 -0.6739 -0.6525
 1334SOL     OW15634   0.382   4.161   7.970 -0.0306 -0.0634 -0.3829
 1334SOL    HW115635   0.298   4.172   8.015 -0.2520 -0.4393 -0.6969
 1334SOL    HW215636   0.428   4.104   8.031 -1.6501 -0.7520  0.1867
 1335SOL     OW15637   1.822   2.919   8.133 -0.2883 -0.2910 -0.1994
 1335SOL    HW115638   1.809   2.936   8.227  0.3750 -0.7266 -0.0270
 1335SOL    HW215639   1.734   2.920   8.098 -0.2787 -1.0869 -0.2424
 1336SOL     OW15640   3.807   3.416   9.866 -0.3819  0.4868  0.3604
 1336SOL    HW115641   3.855   3.356   9.809 -0.9670 -0.5264  0.9323
 1336SOL    HW215642   3.816   3.363   9.945 -1.7350 -0.0062  0.1827
 1337SOL     OW15643   2.863   1.275   4.240 -0.0668  0.4152  0.7491
 1337SOL    HW115644   2.869   1.189   4.197  1.2634  1.6767 -1.6298
 1337SOL    HW215645   2.930   1.317   4.186  0.3668  1.5689  2.2043
 1338SOL     OW15646   4.238   2.588  10.334 -0.2663  0.3041  0.6422
 1338SOL    HW115647   4.225   2.495  10.313  0.8556  0.1329  0.7229
 1338SOL    HW215648   4.203   2.634  10.257 -1.4067  1.2616  1.7405
 1339SOL     OW15649   3.782   1.341   3.209 -0.0973 -0.1510 -0.0395
 1339SOL    HW115650   3.753   1.326   3.119 -1.1877  1.9996 -0.0320
 1339SOL    HW215651   3.698   1.373   3.243  0.4061 -0.0171  1.0885
 1340SOL     OW15652   1.588   1.185   3.681 -0.1073  0.5221  0.4006
 1340SOL    HW115653   1.538   1.119   3.634 -0.7402 -0.3410  2.2703
 1340SOL    HW215654   1.560   1.261   3.630 -0.6866 -0.2826 -0.4668
 1341SOL     OW15655   2.630   1.452  11.665 -0.1976 -0.2811  0.3967
 1341SOL    HW115656   2.638   1.530  11.611  2.6650  0.0187  1.2471
 1341SOL    HW215657   2.665   1.482  11.749 -1.8174 -3.9663  2.4091
 1342SOL     OW15658   4.592   2.731   6.247 -0.0224  0.4967  0.0255
 1342SOL    HW115659   4.543   2.654   6.274  0.3499  0.2287 -0.0641
 1342SOL    HW215660   4.525   2.798   6.264 -0.8109 -0.2514 -0.1437
 1343SOL     OW15661   1.113   3.805   8.971  0.3939  0.3143  0.3216
 1343SOL    HW115662   1.124   3.715   8.940  1.1355  1.2400 -2.0684
 1343SOL    HW215663   1.022   3.810   9.001  0.4552 -0.6206  0.6965
 1344SOL     OW15664   0.568   4.488   8.438  0.5743 -0.3875  0.1652
 1344SOL    HW115665   0.531   4.400   8.429 -2.2543  0.9347 -1.2027
 1344SOL    HW215666   0.558   4.520   8.348  1.7648  0.2946  0.2725
 1345SOL     OW15667   2.538   1.908  15.512 -0.1555  0.5023 -0.2359
 1345SOL    HW115668   2.560   1.885  15.602 -0.1533 -2.5692 -1.0262
 1345SOL    HW215669   2.612   1.872  15.464 -1.2523 -3.1653  0.8296
 1346SOL     OW15670   4.444   0.535   0.043  0.2284  0.1454 -0.1726
 1346SOL    HW115671   4.509   0.515   0.110  0.3843  1.6014  0.0999
 1346SOL    HW215672   4.489   0.589  17.739 -0.4864 -0.2294 -0.9884
 1347SOL     OW15673   1.613   3.660   2.531  0.6685 -0.2039 -0.0783
 1347SOL    HW115674   1.524   3.652   2.496  0.0236  2.9776  0.8333
 1347SOL    HW215675   1.660   3.606   2.467 -0.1110 -0.3349 -0.5456
 1348SOL     OW15676   3.420   0.847   1.661  0.5017 -0.1029 -0.2020
 1348SOL    HW115677   3.484   0.802   1.606  1.0716  1.6282 -0.9444
 1348SOL    HW215678   3.341   0.820   1.614  1.3694  0.2243 -1.8431
 1349SOL     OW15679   4.232   3.343   4.089 -0.2419 -0.5760  0.2636
 1349SOL    HW115680   4.179   3.363   4.166 -2.1232  0.1866 -1.2160
 1349SOL    HW215681   4.303   3.297   4.134 -1.0151 -0.5857  1.4931
 1350SOL     OW15682   3.429   4.661   1.588  0.1365 -0.0610 -0.1507
 1350SOL    HW115683   3.368   4.649   1.515 -0.9005  0.3942  0.6525
 1350SOL    HW215684   3.426   0.016   1.589  0.8325 -0.0461  0.2591
 1351SOL     OW15685   0.653   1.358   1.352  0.1363 -0.1296  0.5881
 1351SOL    HW115686   0.652   1.337   1.259  0.2708  0.3640  0.4777
 1351SOL    HW215687   0.566   1.394   1.370 -0.1548 -1.4523  1.8525
 1352SOL     OW15688   3.083   1.805   5.142 -0.3040 -0.3763 -0.5072
 1352SOL    HW115689   2.991   1.828   5.130 -1.0205 -1.9870  1.9365
 1352SOL    HW215690   3.097   1.839   5.230  0.0861 -1.6358 -0.0807
 1353SOL     OW15691   1.908   0.877   2.197  0.1921 -0.5180  0.5840
 1353SOL    HW115692   1.936   0.959   2.238 -0.0317 -0.7615  1.2276
 1353SOL    HW215693   1.817   0.902   2.185  0.6824  1.0803  0.1675
 1354SOL     OW15694   3.169   0.119   2.906 -0.4221  0.1040 -0.7010
 1354SOL    HW115695   3.123   0.203   2.912 -0.6822  0.1193 -2.8246
 1354SOL    HW215696   3.100   0.063   2.941 -0.1041  0.0031 -0.2296
 1355SOL     OW15697   2.980   0.835   2.073 -0.5695  0.0050 -0.0686
 1355SOL    HW115698   3.052   0.840   2.009 -1.4517  0.8298 -0.9865
 1355SOL    HW215699   2.978   0.929   2.089 -1.4443 -0.2120  1.0867
 1356SOL     OW15700   1.837   2.775   8.399 -0.1669 -0.4193  0.8428
 1356SOL    HW115701   1.797   2.806   8.480  1.8013  0.7542  1.3819
 1356SOL    HW215702   1.916   2.829   8.401 -0.6516  0.2883  1.0151
 1357SOL     OW15703   0.945   3.454   9.457 -0.4028 -0.0875 -0.3516
 1357SOL    HW115704   0.905   3.528   9.503  0.3448 -0.0310  0.2096
 1357SOL    HW215705   0.989   3.488   9.378 -0.0051 -0.5438 -0.3244
 1358SOL     OW15706   3.109   4.440   5.029 -0.5845 -0.2926 -0.5850
 1358SOL    HW115707   3.112   4.390   5.111  0.8819  2.1737  0.8649
 1358SOL    HW215708   3.180   4.501   5.048 -1.4582  1.1191 -1.9233
 1359SOL     OW15709   1.600   4.058   1.886  0.3008 -0.3959  0.3442
 1359SOL    HW115710   1.622   4.135   1.937 -1.1377  0.4336 -0.2879
 1359SOL    HW215711   1.509   4.082   1.869  0.4045 -0.5479 -0.4263
 1360SOL     OW15712   0.146   3.558  13.694 -0.5615 -0.1567 -0.1560
 1360SOL    HW115713   0.098   3.491  13.645 -2.5070  1.7794 -0.9277
 1360SOL    HW215714   0.108   3.640  13.661 -1.4314  0.4432  2.2680
 1361SOL     OW15715   1.432   3.171   8.285 -0.0161  0.9448 -0.1941
 1361SOL    HW115716   1.446   3.090   8.236  1.1615  1.5855 -0.9300
 1361SOL    HW215717   1.412   3.229   8.211  0.9511  1.6345  0.0921
 1362SOL     OW15718   3.402   0.106   1.139 -0.0988  0.5291 -0.1061
 1362SOL    HW115719   3.326   0.063   1.178  0.2193 -0.4271 -0.5535
 1362SOL    HW215720   3.383   0.095   1.045  1.0018 -1.4238 -0.0887
 1363SOL     OW15721   1.067   4.493  12.620  0.6924  0.3489  0.5082
 1363SOL    HW115722   1.050   4.538  12.702 -0.3291  0.1402  0.4112
 1363SOL    HW215723   1.147   4.536  12.589  0.6215 -0.3004 -0.5827
 1364SOL     OW15724   1.011   3.729   6.949 -0.6034  0.4233  0.1391
 1364SOL    HW115725   1.072   3.802   6.953  1.2177 -0.9790 -2.4933
 1364SOL    HW215726   1.020   3.686   7.034 -1.7844  0.2565  0.1809
 1365SOL     OW15727   2.968   3.534   8.505  0.1660  0.0158  0.0198
 1365SOL    HW115728   2.894   3.585   8.541 -0.2635 -0.8623  0.3790
 1365SOL    HW215729   3.029   3.523   8.577  0.5266  2.4265  0.0759
 1366SOL     OW15730   0.676   1.118   4.084 -0.5631 -0.2108 -0.2410
 1366SOL    HW115731   0.761   1.163   4.084 -0.6322 -0.0798 -0.4136
 1366SOL    HW215732   0.651   1.113   4.176 -0.8297  0.6972 -0.2625
 1367SOL     OW15733   4.108   1.203  12.042  0.3136  0.1877  0.1369
 1367SOL    HW115734   4.194   1.165  12.027 -0.5390 -1.4649 -0.5441
 1367SOL    HW215735   4.062   1.156  12.111 -1.2504  1.1534 -0.2300
 1368SOL     OW15736   2.924   3.017   4.543  0.5479  0.3328  0.1561
 1368SOL    HW115737   2.946   3.098   4.590  1.3679  0.3823 -0.3276
 1368SOL    HW215738   2.901   3.046   4.455 -1.0230 -1.9973 -0.2070
 1369SOL     OW15739   4.128   0.138   0.844  0.4243 -0.0555  0.2115
 1369SOL    HW115740   4.089   0.109   0.926  1.2347  1.0830  0.9901
 1369SOL    HW215741   4.073   0.215   0.830  2.1243  0.9442 -0.9187
 1370SOL     OW15742   0.292   3.075   9.506  0.3449 -0.3195 -0.1632
 1370SOL    HW115743   0.261   3.063   9.416  1.2974 -0.6055 -0.4564
 1370SOL    HW215744   0.373   3.024   9.508 -0.1325 -1.1057 -0.5363
 1371SOL     OW15745   1.418   1.034   8.514  0.2873 -0.4481 -0.1382
 1371SOL    HW115746   1.487   1.010   8.577 -1.2788  1.7368  2.4155
 1371SOL    HW215747   1.454   1.116   8.480  0.9196 -0.3781  0.6853
 1372SOL     OW15748   3.010   2.224  13.475  0.4756  0.8312  0.7998
 1372SOL    HW115749   3.010   2.159  13.404  1.4289  0.1277  1.4301
 1372SOL    HW215750   3.103   2.236  13.498  1.2923  1.9500 -3.1256
 1373SOL     OW15751   0.585   3.510  12.786  0.3857 -0.0633 -0.1304
 1373SOL    HW115752   0.628   3.510  12.700  3.3655 -0.6817  1.3524
 1373SOL    HW215753   0.631   3.584  12.824  3.3065 -1.0982 -1.5902
 1374SOL     OW15754   3.010   2.614  14.636 -0.4930 -0.5372 -0.0603
 1374SOL    HW115755   2.994   2.702  14.602  0.0217 -0.2018  0.5827
 1374SOL    HW215756   3.093   2.613  14.683  1.2038  1.6170 -3.0026
 1375SOL     OW15757   1.958   1.522  16.273 -0.1639  0.1687  0.5527
 1375SOL    HW115758   2.016   1.446  16.264  1.0891  1.4552 -2.2459
 1375SOL    HW215759   1.873   1.484  16.252  1.0999 -1.6090 -1.4842
 1376SOL     OW15760   2.605   3.577   6.779  0.7343  0.0943  0.1641
 1376SOL    HW115761   2.530   3.616   6.734  1.2764 -0.2001 -0.9922
 1376SOL    HW215762   2.612   3.612   6.868 -0.0227 -0.9909  0.6535
 1377SOL     OW15763   0.682   0.821   9.817  0.5747 -0.1364  0.2660
 1377SOL    HW115764   0.635   0.899   9.847  1.3103  0.1500  0.6888
 1377SOL    HW215765   0.702   0.839   9.726 -0.9740  0.8389  0.1133
 1378SOL     OW15766   1.678   2.399  11.128  0.6460  0.5080 -0.1082
 1378SOL    HW115767   1.594   2.368  11.093  1.0676  1.1823 -1.7132
 1378SOL    HW215768   1.720   2.389  11.042 -0.2796 -0.6353 -0.4320
 1379SOL     OW15769   3.463   2.218   6.971 -0.0637 -0.4525  1.0239
 1379SOL    HW115770   3.534   2.225   7.035 -0.2906  3.2631  0.8743
 1379SOL    HW215771   3.386   2.243   7.021 -2.3603 -0.8436 -2.3297
 1380SOL     OW15772   4.293   3.159   6.102 -0.4125 -0.0242 -0.0456
 1380SOL    HW115773   4.220   3.107   6.136  0.1327 -2.3889 -2.4817
 1380SOL    HW215774   4.329   3.099   6.037 -1.6722 -0.3931 -0.3898
 1381SOL     OW15775   4.420   3.385  16.975 -0.3651  0.2666  0.1271
 1381SOL    HW115776   4.485   3.321  17.004 -0.6764 -0.7932 -1.4810
 1381SOL    HW215777   4.347   3.359  17.031  0.2637 -0.7496  0.4824
 1382SOL     OW15778   4.182   4.001  17.671  0.2236  0.0258  0.0041
 1382SOL    HW115779   4.153   4.033  17.586  0.9774 -2.1380 -1.0627
 1382SOL    HW215780   4.254   3.943  17.648  0.9506  0.8676  0.1808
 1383SOL     OW15781   0.588   2.118  13.237  0.3898 -0.2161  0.1841
 1383SOL    HW115782   0.630   2.042  13.278  0.3412 -0.3302  0.0222
 1383SOL    HW215783   0.656   2.182  13.258  0.1517  0.8807 -2.4076
 1384SOL     OW15784   3.859   1.815  17.511 -0.4615 -0.2174 -0.7152
 1384SOL    HW115785   3.771   1.808  17.550  0.3374 -3.1024  0.5128
 1384SOL    HW215786   3.881   1.907  17.528 -2.0857  0.0767 -0.1686
 1385SOL     OW15787   1.252   1.166   8.907 -0.2059 -0.4793  0.0080
 1385SOL    HW115788   1.301   1.207   8.836  0.9850 -1.7944  0.0876
 1385SOL    HW215789   1.259   1.227   8.981  1.4348  1.1529 -1.5062
 1386SOL     OW15790   2.194   2.318   7.828  0.1340  0.0754  0.1272
 1386SOL    HW115791   2.127   2.280   7.885  2.0289  0.6226  2.7100
 1386SOL    HW215792   2.251   2.241   7.819  0.8872  0.9035 -2.0782
 1387SOL     OW15793   3.267   1.317   3.740 -0.0753  0.4960 -0.8541
 1387SOL    HW115794   3.246   1.278   3.654 -0.7430  1.1658 -0.9967
 1387SOL    HW215795   3.260   1.243   3.800  2.1981  1.0700  0.1218
 1388SOL     OW15796   3.978   4.694  13.094 -0.2602  0.0981  0.2237
 1388SOL    HW115797   4.071   4.673  13.083  0.8439  4.5774  0.8709
 1388SOL    HW215798   3.965   4.654  13.180  1.3471  0.4555  0.6243
 1389SOL     OW15799   1.564   2.510   7.604  0.4000  0.2106 -0.0299
 1389SOL    HW115800   1.630   2.575   7.629  0.8544 -1.1621  2.3724
 1389SOL    HW215801   1.601   2.437   7.655 -0.6671  1.2362  2.2403
 1390SOL     OW15802   2.628   3.584   4.592  0.0487  0.6360  0.2789
 1390SOL    HW115803   2.653   3.663   4.640 -0.7892  1.0384  0.0580
 1390SOL    HW215804   2.546   3.616   4.554 -0.2828  1.5645  1.7939
 1391SOL     OW15805   0.530   4.740   9.669 -0.0819  0.2936 -0.1691
 1391SOL    HW115806   0.589   4.675   9.633 -0.0196  1.4800 -2.2039
 1391SOL    HW215807   0.591   0.069   9.692 -0.0065 -0.4663  1.9774
 1392SOL     OW15808   2.358   3.400  17.634  0.0071  0.7230 -0.1539
 1392SOL    HW115809   2.363   3.484  17.588 -0.7172  1.2673  0.7787
 1392SOL    HW215810   2.272   3.365  17.607 -0.5948  0.6327  1.9281
 1393SOL     OW15811   2.737   2.180  14.206 -0.5803  0.3403 -0.3180
 1393SOL    HW115812   2.779   2.096  14.223 -0.2213  0.5689 -0.0711
 1393SOL    HW215813   2.724   2.218  14.293 -1.6324  1.1773 -0.8466
 1394SOL     OW15814   3.850   2.008   6.058  0.1107  0.2694 -0.1666
 1394SOL    HW115815   3.831   2.093   6.099  0.7722  0.3998 -0.1234
 1394SOL    HW215816   3.935   1.985   6.095 -0.1656  0.2638  0.4687
 1395SOL     OW15817   4.623   0.994   1.734 -0.7113  0.7102 -0.6717
 1395SOL    HW115818   4.613   0.950   1.649 -1.6866  0.8637 -0.6376
 1395SOL    HW215819   4.558   1.064   1.727 -0.6827  1.1154  3.2915
 1396SOL     OW15820   1.816   0.334   9.042 -0.2577  0.3973  0.0448
 1396SOL    HW115821   1.736   0.283   9.056  0.6278 -0.4567  2.0360
 1396SOL    HW215822   1.823   0.319   8.948 -0.8880  1.7554 -0.2111
 1397SOL     OW15823   4.522   0.008  17.318  0.2069 -0.1502 -0.4827
 1397SOL    HW115824   4.596   4.718  17.265  0.3143  1.0777 -1.0271
 1397SOL    HW215825   4.480   0.053  17.246  0.3500  0.4956 -0.1615
 1398SOL     OW15826   4.054   2.497   7.542  0.0801  0.3548 -0.4463
 1398SOL    HW115827   4.004   2.507   7.623  3.9759 -0.7626  2.0726
 1398SOL    HW215828   4.057   2.402   7.534  0.8919  0.2698  0.8756
 1399SOL     OW15829   4.498   2.072   8.327  0.4909 -0.0342  0.4865
 1399SOL    HW115830   4.460   2.114   8.404 -0.7974 -1.6217  0.7411
 1399SOL    HW215831   4.425   2.014   8.304 -1.9484  2.7848  1.1127
 1400SOL     OW15832   3.375   1.383   2.891  0.5520  0.4208  0.3242
 1400SOL    HW115833   3.442   1.322   2.860 -1.2347  1.0713 -4.7955
 1400SOL    HW215834   3.304   1.359   2.832 -0.5927 -3.2648  3.2247
 1401SOL     OW15835   3.471   0.572  16.200 -0.0615 -0.4734  0.2258
 1401SOL    HW115836   3.525   0.529  16.134 -0.7305 -0.3033 -0.4313
 1401SOL    HW215837   3.399   0.509  16.193 -0.3086 -0.1208 -0.3688
 1402SOL     OW15838   3.940   4.710   6.274 -0.0212  0.0696  1.2410
 1402SOL    HW115839   3.960   4.698   6.367  1.6551 -1.6876  0.6343
 1402SOL    HW215840   3.922   0.064   6.272  1.6434  0.3364 -0.1869
 1403SOL     OW15841   3.108   0.095   0.229  0.7022 -0.8150 -0.4344
 1403SOL    HW115842   3.102   0.025   0.165 -1.1972 -1.5172  0.5089
 1403SOL    HW215843   3.019   0.111   0.261  1.9177  1.1209  2.0032
 1404SOL     OW15844   2.096   0.229  16.897 -0.6503 -0.2886  0.2438
 1404SOL    HW115845   2.078   0.242  16.990 -0.0177 -1.1589  0.4910
 1404SOL    HW215846   2.011   0.197  16.868 -0.9458 -0.2902  1.1217
 1405SOL     OW15847   3.699   0.209   4.117 -0.6422  0.0466 -0.1437
 1405SOL    HW115848   3.646   0.131   4.102 -0.9084  0.0108  1.0341
 1405SOL    HW215849   3.645   0.265   4.060 -1.1962 -1.2948 -0.9405
 1406SOL     OW15850   2.261   3.358   7.696  0.3349 -0.0500  0.3310
 1406SOL    HW115851   2.325   3.315   7.640  0.1666  0.4250 -0.2249
 1406SOL    HW215852   2.298   3.446   7.707 -2.1858  0.7706  2.4092
 1407SOL     OW15853   1.166   4.207   3.564  0.3093  0.1892  0.2280
 1407SOL    HW115854   1.171   4.209   3.660  1.5714 -0.3582  0.1804
 1407SOL    HW215855   1.113   4.128   3.553  1.1841 -0.3408 -0.1278
 1408SOL     OW15856   2.797   2.647   4.322 -0.5229  0.6393  0.0088
 1408SOL    HW115857   2.737   2.677   4.391 -0.2268 -1.4018  1.1549
 1408SOL    HW215858   2.809   2.554   4.342  3.5849  1.5770  1.9480
 1409SOL     OW15859   2.967   2.600   1.887  0.0225  0.2141  0.6028
 1409SOL    HW115860   2.876   2.628   1.877  0.5390  1.5528 -0.4306
 1409SOL    HW215861   3.009   2.686   1.893  0.0345  0.5248 -3.7560
 1410SOL     OW15862   2.410   3.091   2.439  0.9262  0.4137  0.1974
 1410SOL    HW115863   2.335   3.039   2.411  1.9394 -0.3836 -1.0406
 1410SOL    HW215864   2.403   3.171   2.386 -0.1474  0.6785  0.7483
 1411SOL     OW15865   1.561   1.001   3.081  0.3716 -0.2368 -0.0586
 1411SOL    HW115866   1.603   1.074   3.126 -0.1235  0.6835 -1.1166
 1411SOL    HW215867   1.601   1.000   2.994  1.6582  1.0831  0.5191
 1412SOL     OW15868   2.445   2.433  17.102  0.2532  0.2386  0.2041
 1412SOL    HW115869   2.380   2.413  17.036  0.8796 -1.9171  0.2482
 1412SOL    HW215870   2.433   2.528  17.098  4.1317  0.6915 -0.7956
 1413SOL     OW15871   4.311   4.043   9.336 -0.3795 -0.0517 -0.4549
 1413SOL    HW115872   4.219   4.062   9.355  0.0442 -0.2708  1.9106
 1413SOL    HW215873   4.328   3.966   9.390  1.9969  2.3390  2.2452
 1414SOL     OW15874   2.567   0.824   7.888  0.0103  0.2134  0.0008
 1414SOL    HW115875   2.495   0.850   7.830 -2.0151  1.0340  2.8421
 1414SOL    HW215876   2.608   0.909   7.901 -0.9920  0.7119 -0.0865
 1415SOL     OW15877   2.073   2.097   3.868  0.2990  0.3558  0.3391
 1415SOL    HW115878   2.085   2.184   3.905 -0.1542  0.0737  1.1442
 1415SOL    HW215879   2.157   2.054   3.879  0.1816 -0.1271 -0.5971
 1416SOL     OW15880   1.380   1.349   2.815 -0.2612  0.0691  0.0331
 1416SOL    HW115881   1.338   1.433   2.835 -0.9630 -0.1562 -0.4831
 1416SOL    HW215882   1.431   1.372   2.737  0.2024  1.1497  0.6459
 1417SOL     OW15883   1.237   3.375   2.965 -0.0161 -0.0285 -0.1459
 1417SOL    HW115884   1.242   3.459   2.920 -0.3949 -0.6545 -1.3654
 1417SOL    HW215885   1.326   3.343   2.978 -0.1416  0.0332  0.8264
 1418SOL     OW15886   4.265   3.683   7.938 -0.4116 -0.4727 -0.3040
 1418SOL    HW115887   4.201   3.746   7.907  2.8852  1.2000 -3.6407
 1418SOL    HW215888   4.279   3.699   8.032 -0.7368 -0.2745 -0.2903
 1419SOL     OW15889   4.602   2.226   9.886 -0.0227  0.1292  0.4126
 1419SOL    HW115890   4.551   2.194   9.811 -1.1675 -1.4085  1.8286
 1419SOL    HW215891   4.549   2.299   9.917 -0.5020 -0.1268  0.1994
 1420SOL     OW15892   3.564   3.789   5.473  0.2379  0.1580  0.0701
 1420SOL    HW115893   3.557   3.878   5.507 -2.5843 -0.3725  0.8880
 1420SOL    HW215894   3.470   3.770   5.477  0.3508 -0.0859  1.6256
 1421SOL     OW15895   1.122   1.057  13.272  0.1679  0.2652  0.2333
 1421SOL    HW115896   1.040   1.105  13.269  0.7857  1.2049 -1.8180
 1421SOL    HW215897   1.179   1.112  13.326  0.4015 -0.6950  0.9737
 1422SOL     OW15898   0.290   4.287   5.376  0.1577 -0.4865 -0.2738
 1422SOL    HW115899   0.333   4.205   5.400  0.2220  0.0021  1.3098
 1422SOL    HW215900   0.361   4.333   5.330 -0.9268 -0.9139 -2.3758
 1423SOL     OW15901   3.694   4.011   3.797  0.2732  0.3110 -0.6135
 1423SOL    HW115902   3.712   4.093   3.751  1.1778  0.2137 -0.4303
 1423SOL    HW215903   3.778   3.965   3.791 -0.5245 -0.9909 -1.7119
 1424SOL     OW15904   2.964   4.209   6.026  0.0371  0.0737  0.7114
 1424SOL    HW115905   3.026   4.141   5.999 -0.1680  0.5351 -0.9629
 1424SOL    HW215906   2.968   4.184   6.118  0.8855 -3.2421 -0.1945
 1425SOL     OW15907   3.345   0.798   3.551 -0.0450  0.0969  0.7838
 1425SOL    HW115908   3.392   0.868   3.597  1.8616 -0.1407 -0.8015
 1425SOL    HW215909   3.267   0.847   3.524  0.1230 -0.4994 -0.8011
 1426SOL     OW15910   0.187   4.293   6.337  0.0252 -0.0360 -0.0806
 1426SOL    HW115911   0.138   4.211   6.328  2.1598 -1.0029 -2.6994
 1426SOL    HW215912   0.272   4.277   6.379  0.9106 -0.0076 -1.8741
 1427SOL     OW15913   4.075   2.846   7.803 -0.4864 -0.2939 -0.1236
 1427SOL    HW115914   4.116   2.759   7.809  0.0009  0.0525  1.5977
 1427SOL    HW215915   4.115   2.896   7.874  0.0395 -0.3791 -0.3566
 1428SOL     OW15916   3.959   2.699   7.063 -0.1069 -0.8232 -0.0929
 1428SOL    HW115917   4.000   2.677   7.146  1.8086 -0.8774 -1.0368
 1428SOL    HW215918   3.882   2.642   7.056 -0.0653 -0.8536 -0.3221
 1429SOL     OW15919   1.926   3.715  13.221  0.2708  0.6023  0.0599
 1429SOL    HW115920   1.950   3.640  13.167 -1.9583  0.2044 -0.3797
 1429SOL    HW215921   2.013   3.754  13.235 -1.0003  3.3883  0.0938
 1430SOL     OW15922   3.033   1.123   2.985 -0.6263  0.6833 -0.4809
 1430SOL    HW115923   2.959   1.097   3.040 -0.6799  0.8347 -0.4819
 1430SOL    HW215924   3.000   1.206   2.950  0.9922  1.5073 -0.0563
 1431SOL     OW15925   0.278   0.368  17.743 -0.1310  0.8702  0.4674
 1431SOL    HW115926   0.275   0.462  17.729 -0.3004  0.8010  0.0377
 1431SOL    HW215927   0.186   0.356   0.008  0.4631 -0.8914  1.8384
 1432SOL     OW15928   1.437   3.579   7.794 -0.3854 -0.4245 -0.1975
 1432SOL    HW115929   1.383   3.502   7.778  0.2250 -0.7458 -0.7012
 1432SOL    HW215930   1.473   3.608   7.710 -1.2927  2.2615  0.3440
 1433SOL     OW15931   1.238   0.047   2.459 -0.1188  0.4071 -0.8893
 1433SOL    HW115932   1.245   0.090   2.544  2.5160 -0.4218 -0.6780
 1433SOL    HW215933   1.260   0.124   2.407  0.7658  1.5062  1.1038
 1434SOL     OW15934   3.465   0.264  12.796 -0.2048  0.5569  0.0350
 1434SOL    HW115935   3.554   0.242  12.823 -1.0853 -0.6581  1.9472
 1434SOL    HW215936   3.418   0.181  12.792  1.1326 -0.0479 -3.4849
 1435SOL     OW15937   4.109   2.795   7.513  0.0575 -0.1318 -0.1019
 1435SOL    HW115938   4.167   2.749   7.574 -1.6110 -1.6129  0.3779
 1435SOL    HW215939   4.056   2.723   7.479 -1.0921  0.5136  0.3444
 1436SOL     OW15940   3.178   0.511   4.098 -0.4599 -0.1643 -0.5021
 1436SOL    HW115941   3.159   0.522   4.191  1.5338 -0.1102 -0.0839
 1436SOL    HW215942   3.129   0.586   4.066 -0.5645  0.2695  0.6674
 1437SOL     OW15943   0.420   1.799  15.983  0.3325 -0.7166 -0.4189
 1437SOL    HW115944   0.373   1.767  16.060 -0.2182  0.0067 -0.4485
 1437SOL    HW215945   0.508   1.810  16.018  0.7178 -2.3119 -0.8885
 1438SOL     OW15946   4.159   2.834  10.822 -0.0895 -0.2640 -0.3870
 1438SOL    HW115947   4.123   2.894  10.757  0.5717 -0.2345 -0.7295
 1438SOL    HW215948   4.077   2.811  10.865  0.0842  0.2522  0.2301
 1439SOL     OW15949   3.859   2.016  13.903 -0.0245  0.1197 -0.2074
 1439SOL    HW115950   3.776   1.970  13.915 -1.6433  2.6746 -1.4695
 1439SOL    HW215951   3.838   2.106  13.929 -0.6304 -0.1056  0.0754
 1440SOL     OW15952   1.921   0.739  13.620 -0.2765  0.1530  0.3417
 1440SOL    HW115953   1.891   0.680  13.689 -0.9340 -1.7643 -1.5685
 1440SOL    HW215954   1.970   0.805  13.668  0.0440 -0.6207  1.0816
 1441SOL     OW15955   4.555   1.044   8.527 -0.5509 -0.0388 -0.0126
 1441SOL    HW115956   4.511   1.129   8.523  1.0145  0.6771 -1.5917
 1441SOL    HW215957   4.540   1.006   8.441 -0.4560  1.9973 -0.9302
 1442SOL     OW15958   2.754   2.993   0.986  0.2856 -0.0261 -0.1499
 1442SOL    HW115959   2.723   2.903   0.992 -0.2302  0.3708  3.2019
 1442SOL    HW215960   2.693   3.033   0.925  1.7280  2.3368 -0.0627
 1443SOL     OW15961   0.141   3.389   8.504  0.0301 -0.1483 -0.0373
 1443SOL    HW115962   0.087   3.358   8.432  0.0441  0.6776 -0.4079
 1443SOL    HW215963   0.109   3.332   8.574 -3.6634  1.2069 -0.6443
 1444SOL     OW15964   2.425   4.735  11.297 -0.6720 -0.1303  0.0669
 1444SOL    HW115965   2.503   4.684  11.277  0.1258  1.4739 -0.8744
 1444SOL    HW215966   2.362   4.664  11.312 -0.9928 -0.0305 -0.8367
 1445SOL     OW15967   4.462   4.429   6.301 -0.1917 -0.2382 -0.1863
 1445SOL    HW115968   4.482   4.422   6.394 -0.5813  1.0521 -0.0016
 1445SOL    HW215969   4.400   4.357   6.291  1.8186 -2.0259  0.2929
 1446SOL     OW15970   1.591   1.915   1.859 -0.0705  0.4004 -0.2418
 1446SOL    HW115971   1.632   1.985   1.909 -1.2210  1.0640 -0.2280
 1446SOL    HW215972   1.617   1.844   1.918 -0.8319  0.4526  0.1656
 1447SOL     OW15973   3.501   3.081  12.365  0.6028 -0.0076 -0.0644
 1447SOL    HW115974   3.524   3.095  12.457 -0.9455 -0.2053  0.3529
 1447SOL    HW215975   3.481   3.171  12.339 -1.2478 -0.4349 -0.0980
 1448SOL     OW15976   1.723   0.545  10.431  0.1949 -0.5331 -0.5891
 1448SOL    HW115977   1.793   0.609  10.417 -1.8607  2.2680  2.1853
 1448SOL    HW215978   1.677   0.588  10.503 -0.1377 -1.7626 -0.0643
 1449SOL     OW15979   2.950   0.150   1.461  0.6597  0.0779 -0.0500
 1449SOL    HW115980   2.914   0.118   1.544 -1.5294 -1.3104 -1.5476
 1449SOL    HW215981   2.901   0.231   1.456 -0.5980 -0.5890  1.3227
 1450SOL     OW15982   2.461   0.362   6.510 -0.7839 -0.5758  0.1060
 1450SOL    HW115983   2.416   0.283   6.540 -3.8001  0.9460 -0.4104
 1450SOL    HW215984   2.518   0.336   6.438  0.4875  1.2715  0.4490
 1451SOL     OW15985   1.037   1.246   2.554  0.3307  0.0238 -0.3694
 1451SOL    HW115986   1.086   1.254   2.473  0.7980  1.1555  0.0242
 1451SOL    HW215987   0.953   1.205   2.536  0.0657 -1.3776  3.8601
 1452SOL     OW15988   0.379   2.828   2.964 -0.0443 -0.8661  0.0674
 1452SOL    HW115989   0.447   2.765   2.940  0.3327  0.6046 -2.7974
 1452SOL    HW215990   0.429   2.891   3.015  0.6750 -1.2291 -0.1745
 1453SOL     OW15991   4.129   0.530  14.550 -0.1626 -0.1789  0.1866
 1453SOL    HW115992   4.199   0.565  14.495 -0.4659 -1.6530 -1.1469
 1453SOL    HW215993   4.061   0.517  14.483  0.5599 -0.6116 -0.4605
 1454SOL     OW15994   0.473   1.145  13.961  0.4809 -0.1759 -0.1046
 1454SOL    HW115995   0.414   1.119  13.891  1.4612 -0.8579 -0.6770
 1454SOL    HW215996   0.420   1.133  14.040  2.0660 -2.5571  0.6121
 1455SOL     OW15997   1.626   3.098   5.623 -0.1130 -0.2235 -0.7445
 1455SOL    HW115998   1.704   3.133   5.667 -0.1629 -1.2561  0.1786
 1455SOL    HW215999   1.662   3.038   5.557  0.8457  0.6012 -0.9740
 1456SOL     OW16000   1.699   2.146   9.234  0.7498  0.1196 -0.4511
 1456SOL    HW116001   1.776   2.189   9.197  0.0921  1.3549 -0.3787
 1456SOL    HW216002   1.651   2.217   9.277  1.0072  0.7095 -1.1444
 1457SOL     OW16003   3.457   3.541   3.514 -0.7303  0.6807 -0.1683
 1457SOL    HW116004   3.455   3.495   3.431 -0.0482  1.8113 -0.8079
 1457SOL    HW216005   3.471   3.628   3.477  0.6735  1.1285  1.4192
 1458SOL     OW16006   1.852   2.292   8.181  0.0255  0.2764  0.1255
 1458SOL    HW116007   1.769   2.338   8.190 -0.4109 -0.4341 -0.2104
 1458SOL    HW216008   1.907   2.350   8.233  0.6969 -0.1476 -0.1056
 1459SOL     OW16009   3.156   4.031   8.950  0.1096 -0.1005 -0.4182
 1459SOL    HW116010   3.185   4.062   8.864 -0.8451 -0.4722 -0.8724
 1459SOL    HW216011   3.061   4.027   8.943 -0.0194 -0.4693  1.4992
 1460SOL     OW16012   4.029   3.708  10.899 -0.6420  0.7752 -0.0714
 1460SOL    HW116013   4.052   3.712  10.992  1.9267 -0.1618 -0.6878
 1460SOL    HW216014   4.071   3.786  10.863  0.5723 -0.2491 -0.8252
 1461SOL     OW16015   4.615   2.473  15.306  0.7236  0.7761 -0.1105
 1461SOL    HW116016   4.597   2.473  15.212  1.5739 -0.3086 -0.2812
 1461SOL    HW216017   4.647   2.383  15.315  0.5692  0.9750  2.5996
 1462SOL     OW16018   1.023   1.139   3.440  0.5769 -0.0251 -0.4480
 1462SOL    HW116019   1.048   1.047   3.425  0.2333 -0.1032 -0.5286
 1462SOL    HW216020   0.944   1.138   3.493 -0.0682 -0.4108 -1.4163
 1463SOL     OW16021   0.227   3.976   4.472  0.4503 -0.1509  0.0373
 1463SOL    HW116022   0.247   4.050   4.415 -2.0587  1.0625  0.7284
 1463SOL    HW216023   0.317   3.948   4.490  0.5319 -0.0731 -0.2388
 1464SOL     OW16024   1.231   1.532   4.728 -0.3187 -0.1827  0.6341
 1464SOL    HW116025   1.206   1.573   4.646 -0.1714  0.5112  0.9373
 1464SOL    HW216026   1.272   1.452   4.696  1.9082  0.1425  2.6899
 1465SOL     OW16027   1.716   1.297   4.962 -0.0023 -0.3498 -0.0125
 1465SOL    HW116028   1.697   1.208   4.992  0.2548  0.3034  2.1245
 1465SOL    HW216029   1.661   1.343   5.026  0.4634 -2.0478  1.5997
 1466SOL     OW16030   3.875   0.223   4.319  0.1180  0.2659  0.4524
 1466SOL    HW116031   3.839   0.225   4.230 -1.6146 -1.1045  1.1174
 1466SOL    HW216032   3.865   0.129   4.338  1.4306 -0.3184 -1.7319
 1467SOL     OW16033   3.989   0.089   4.861 -0.0416 -0.6679  0.3984
 1467SOL    HW116034   3.925   0.021   4.884 -1.1033 -0.3611 -1.6256
 1467SOL    HW216035   3.968   0.112   4.770 -1.4260  2.1008  1.4289
 1468SOL     OW16036   1.470   2.484   5.064  0.4153 -0.0208  0.3907
 1468SOL    HW116037   1.385   2.441   5.073  0.0645  0.4933 -0.5365
 1468SOL    HW216038   1.515   2.418   5.011 -1.2275 -0.3158 -0.6329
 1469SOL     OW16039   0.230   1.624  11.647  0.2161  0.0433  0.0647
 1469SOL    HW116040   0.232   1.674  11.729  0.2976  3.7878 -2.2361
 1469SOL    HW216041   0.139   1.641  11.624  0.0921  0.4174  0.8207
 1470SOL     OW16042   2.305   1.785   6.829  0.0210  0.2401  0.0503
 1470SOL    HW116043   2.389   1.806   6.871 -0.4454 -1.0638  1.6211
 1470SOL    HW216044   2.291   1.874   6.796 -2.1847 -0.1622 -0.1236
 1471SOL     OW16045   1.329   0.054   1.704 -0.0167 -0.0498  0.0605
 1471SOL    HW116046   1.418   0.075   1.672  0.8977 -2.0467  1.3167
 1471SOL    HW216047   1.304   4.728   1.641  1.7336 -0.1036 -0.5736
 1472SOL     OW16048   4.196   4.106  15.174  0.4043  0.2735  0.3274
 1472SOL    HW116049   4.220   4.014  15.181  0.1300  0.1180 -0.8855
 1472SOL    HW216050   4.138   4.110  15.250 -0.4037  0.2103 -0.2858
 1473SOL     OW16051   4.484   1.755   5.207 -0.7080  0.2185  0.1861
 1473SOL    HW116052   4.449   1.814   5.273  0.0517 -0.4442  1.1765
 1473SOL    HW216053   4.410   1.694   5.217 -0.3431 -0.0004  1.4666
 1474SOL     OW16054   1.821   1.242   8.854  0.1018  0.1136 -0.2639
 1474SOL    HW116055   1.826   1.200   8.940  2.2254  0.9878  0.0406
 1474SOL    HW216056   1.915   1.258   8.844  0.0809 -0.1724 -0.9118
 1475SOL     OW16057   3.971   0.776   6.119  0.0729 -0.4158  0.4038
 1475SOL    HW116058   3.908   0.835   6.159 -1.8640 -1.6775 -0.7950
 1475SOL    HW216059   3.998   0.835   6.049 -0.3704  0.5995  1.1059
 1476SOL     OW16060   2.623   2.878  11.620 -0.5503  0.0539  0.4496
 1476SOL    HW116061   2.646   2.884  11.528 -0.5870 -0.2634  0.4209
 1476SOL    HW216062   2.668   2.801  11.654  1.1098  0.1599 -1.5598
 1477SOL     OW16063   1.196   0.261   7.252 -0.3890  0.0293  0.2018
 1477SOL    HW116064   1.154   0.253   7.166 -0.7078 -2.6594  0.5937
 1477SOL    HW216065   1.283   0.292   7.229  0.7091 -3.1063  0.1026
 1478SOL     OW16066   2.968   0.748  13.663  0.2390  0.7216  0.1621
 1478SOL    HW116067   2.880   0.773  13.634 -1.4255 -1.2551  3.5788
 1478SOL    HW216068   2.946   0.656  13.677 -2.0550  1.3928  0.9863
 1479SOL     OW16069   4.522   3.296   4.493  0.2601  0.0616 -0.5795
 1479SOL    HW116070   4.607   3.279   4.453 -0.5776  3.3607 -3.8051
 1479SOL    HW216071   4.553   3.360   4.557  0.6913 -1.3054  0.5461
 1480SOL     OW16072   1.179   3.346  10.587  0.0321 -0.2131 -0.9211
 1480SOL    HW116073   1.130   3.265  10.600  0.7249 -0.2602  1.4437
 1480SOL    HW216074   1.236   3.341  10.664  0.4332  3.2382 -1.0053
 1481SOL     OW16075   1.469   4.125   0.815  0.0393  0.7793 -0.2658
 1481SOL    HW116076   1.545   4.172   0.780  0.7091 -0.5222 -0.5604
 1481SOL    HW216077   1.507   4.044   0.848  0.2053  0.1846 -1.8983
 1482SOL     OW16078   4.736   1.581  16.571  0.3172  0.1892 -0.1269
 1482SOL    HW116079   0.046   1.660  16.554  0.0529  0.3354 -0.2398
 1482SOL    HW216080   4.711   1.575  16.479  0.5640 -1.6446 -0.0592
 1483SOL     OW16081   1.968   1.527   6.471 -0.3811  0.4387 -0.3963
 1483SOL    HW116082   2.004   1.584   6.403 -0.8893 -0.2230 -1.2058
 1483SOL    HW216083   1.888   1.573   6.496  0.1333  0.6731  0.8418
 1484SOL     OW16084   0.989   4.030  17.723 -0.1575 -0.0192  0.1552
 1484SOL    HW116085   1.022   4.116  17.748 -2.1765  0.4037  1.3918
 1484SOL    HW216086   1.075   3.993  17.705  0.1619  1.0890 -0.5585
 1485SOL     OW16087   0.594   4.616   6.154 -0.0362 -0.6471  0.3022
 1485SOL    HW116088   0.611   4.692   6.098  0.5801 -0.6522  0.4850
 1485SOL    HW216089   0.667   4.555   6.140  0.1898 -0.6280  1.4414
 1486SOL     OW16090   3.757   3.411   7.141  0.2695 -0.5982  0.2784
 1486SOL    HW116091   3.820   3.381   7.206  0.3596 -1.0968 -0.0371
 1486SOL    HW216092   3.696   3.338   7.150 -0.5408  0.2809  1.9157
 1487SOL     OW16093   0.245   2.478   9.113  0.3941 -0.1133  0.7289
 1487SOL    HW116094   0.256   2.485   9.018  0.1059 -1.0514  0.6350
 1487SOL    HW216095   0.159   2.437   9.113 -0.1827  1.0982 -0.3973
 1488SOL     OW16096   0.704   0.976  13.249 -0.5670 -0.1773  0.4430
 1488SOL    HW116097   0.752   0.893  13.244 -1.1542 -0.5016  0.1562
 1488SOL    HW216098   0.673   0.957  13.338 -2.1056  0.1669 -0.0283
 1489SOL     OW16099   2.527   0.926  14.987  0.0746  0.2578 -0.2433
 1489SOL    HW116100   2.578   0.930  15.068 -0.1174  1.6990 -0.2053
 1489SOL    HW216101   2.558   0.842  14.953 -0.5257  0.1803 -0.5935
 1490SOL     OW16102   3.062   1.890  13.462  0.1476  0.1973 -0.2250
 1490SOL    HW116103   2.968   1.905  13.457 -0.3915 -3.5508 -1.2090
 1490SOL    HW216104   3.059   1.798  13.486  1.1513  0.9081  2.6942
 1491SOL     OW16105   3.467   3.871   3.853  0.0765  0.3841  0.4244
 1491SOL    HW116106   3.495   3.787   3.817  1.6288  1.4066 -0.7493
 1491SOL    HW216107   3.544   3.927   3.843  1.1507 -1.0643  0.4687
 1492SOL     OW16108   0.587   2.291   4.727  0.1722  0.2705 -0.0019
 1492SOL    HW116109   0.541   2.347   4.664  0.1079 -0.7588 -0.8525
 1492SOL    HW216110   0.618   2.224   4.667 -1.9310 -2.6231  2.1759
 1493SOL     OW16111   3.139   0.803   3.767  0.0576  0.2222 -0.3891
 1493SOL    HW116112   3.199   0.732   3.744 -0.2795  0.4541 -1.9453
 1493SOL    HW216113   3.088   0.821   3.688 -1.4061  0.4601  0.6105
 1494SOL     OW16114   1.461   1.864   8.338 -0.1703 -0.2785  0.2320
 1494SOL    HW116115   1.518   1.824   8.404  0.7698  1.1882  0.3298
 1494SOL    HW216116   1.448   1.787   8.283 -1.6923 -0.8573  1.4386
 1495SOL     OW16117   1.618   0.424  14.689 -0.1214 -0.3341 -0.0951
 1495SOL    HW116118   1.674   0.496  14.659 -0.4962 -1.2125 -2.8945
 1495SOL    HW216119   1.573   0.388  14.612 -1.9989 -0.3676  1.0195
 1496SOL     OW16120   1.582   2.564   6.322  0.3534  0.1542 -0.1066
 1496SOL    HW116121   1.516   2.532   6.383 -1.3517 -0.4335 -2.2981
 1496SOL    HW216122   1.543   2.649   6.304 -0.2713 -0.2869 -0.8344
 1497SOL     OW16123   3.394   2.497  13.766  0.4132 -0.6692  0.0783
 1497SOL    HW116124   3.460   2.477  13.832 -1.1445 -2.3925  1.1119
 1497SOL    HW216125   3.452   2.457  13.700  0.0537  0.8118 -1.1314
 1498SOL     OW16126   0.906   1.333   5.026 -0.4187 -0.5007  0.3840
 1498SOL    HW116127   0.852   1.256   5.046 -1.3290  0.2136  0.6718
 1498SOL    HW216128   0.905   1.381   5.109 -0.0623 -1.2428  0.8201
 1499SOL     OW16129   0.909   0.133  10.050 -0.4806  0.3146  0.5035
 1499SOL    HW116130   0.832   0.079  10.032  0.5510  0.0872 -3.2403
 1499SOL    HW216131   0.868   0.217  10.069  0.8217  0.9155  0.6753
 1500SOL     OW16132   1.580   1.702   8.978 -0.6442 -0.1513 -0.6623
 1500SOL    HW116133   1.675   1.705   8.990 -0.7135  1.3104 -0.4487
 1500SOL    HW216134   1.549   1.769   9.039  1.6952  0.2681  0.0604
 1501SOL     OW16135   1.657   2.426   8.763  0.0475  0.4821 -0.3712
 1501SOL    HW116136   1.613   2.463   8.686  0.7205  2.0213 -0.0045
 1501SOL    HW216137   1.573   2.392   8.795 -0.5350  0.5168 -1.8411
 1502SOL     OW16138   2.204   0.202   4.514 -0.2969 -0.3358  0.2796
 1502SOL    HW116139   2.150   0.127   4.487 -1.1701  0.2151  0.4996
 1502SOL    HW216140   2.289   0.171   4.545  0.2568  1.7579  0.8218
 1503SOL     OW16141   0.195   1.590  14.036  0.1367  0.9449 -0.5369
 1503SOL    HW116142   0.279   1.595  13.989  0.0343  0.8099 -0.7329
 1503SOL    HW216143   0.187   1.685  14.031 -1.7438  0.6889 -1.9933
 1504SOL     OW16144   0.255   1.607   8.138 -0.0687  0.1500  0.1060
 1504SOL    HW116145   0.166   1.643   8.135 -0.5507 -0.9796  0.7194
 1504SOL    HW216146   0.240   1.522   8.181 -0.2374 -0.4185 -1.0699
 1505SOL     OW16147   0.899   0.619   6.659 -0.2991 -0.1567  0.5007
 1505SOL    HW116148   0.982   0.571   6.654 -0.5673 -0.5116 -0.5473
 1505SOL    HW216149   0.832   0.550   6.670 -1.5927  1.1002  0.5412
 1506SOL     OW16150   0.960   3.018  17.438 -0.0706 -0.3303  0.1993
 1506SOL    HW116151   0.917   3.103  17.427 -1.1906 -1.2605 -2.4524
 1506SOL    HW216152   1.010   3.042  17.516  0.2234  1.2433 -0.4671
 1507SOL     OW16153   4.495   4.033   6.563 -0.2053 -0.4761  0.6430
 1507SOL    HW116154   4.419   4.015   6.508 -1.6163  0.4300  2.3053
 1507SOL    HW216155   4.480   3.991   6.648  2.4424 -2.8729 -0.0856
 1508SOL     OW16156   4.077   3.459   7.549  0.3374 -0.0473 -0.2344
 1508SOL    HW116157   4.103   3.551   7.559 -1.7036  0.4569  0.3944
 1508SOL    HW216158   4.077   3.431   7.641  1.2025  0.5472 -0.0552
 1509SOL     OW16159   0.498   1.883  17.620  0.2908  0.3357  0.1030
 1509SOL    HW116160   0.444   1.960  17.640 -1.6042 -0.2436 -2.6226
 1509SOL    HW216161   0.553   1.884  17.698 -0.1357 -1.3304  0.4252
 1510SOL     OW16162   1.350   2.965   2.885 -0.2199  0.1354 -0.2532
 1510SOL    HW116163   1.318   3.015   2.809 -1.3209 -1.5217 -0.8920
 1510SOL    HW216164   1.290   2.890   2.885  0.0591 -0.0865 -1.0928
 1511SOL     OW16165   4.248   4.081   8.588  0.1483  0.7209  0.0526
 1511SOL    HW116166   4.334   4.054   8.558 -0.5921 -0.5000 -0.9859
 1511SOL    HW216167   4.227   4.039   8.672 -2.0733  1.2122 -0.2386
 1512SOL     OW16168   3.228   2.945   9.288 -0.2477  0.1303 -0.2439
 1512SOL    HW116169   3.184   3.030   9.284 -0.0284  0.3833  2.8569
 1512SOL    HW216170   3.320   2.968   9.279  0.2485 -1.8062 -0.0725
 1513SOL     OW16171   0.695   4.318   4.239  0.3443 -0.0567 -0.3828
 1513SOL    HW116172   0.720   4.372   4.313 -1.5051 -0.1341  0.2837
 1513SOL    HW216173   0.781   4.297   4.203  0.4438  3.5298 -2.2472
 1514SOL     OW16174   2.195   0.985   2.493  0.4934  0.0367 -0.0380
 1514SOL    HW116175   2.257   0.980   2.420  2.1072 -0.4044  1.3563
 1514SOL    HW216176   2.260   0.979   2.564 -0.9866  0.6540  1.3803
 1515SOL     OW16177   0.397   0.485   7.042 -0.0891 -0.1437  0.2706
 1515SOL    HW116178   0.361   0.573   7.049  0.5478  0.1358  0.0637
 1515SOL    HW216179   0.330   0.443   6.988  0.1826  0.2951 -0.3946
 1516SOL     OW16180   3.748   4.195  16.697  0.1335 -0.1752  0.3105
 1516SOL    HW116181   3.757   4.100  16.686 -0.0022 -0.1305 -0.1981
 1516SOL    HW216182   3.773   4.229  16.611  2.3154 -1.8808  0.2783
 1517SOL     OW16183   1.179   4.588  17.439 -0.0461 -0.2212  0.0870
 1517SOL    HW116184   1.101   4.642  17.425  2.6682  3.8589  0.6148
 1517SOL    HW216185   1.154   4.515  17.496  0.4972  0.8035  1.6138
 1518SOL     OW16186   1.888   1.375   7.731  0.3787  0.3947  0.1520
 1518SOL    HW116187   1.862   1.310   7.666 -1.2691 -1.1838  2.3833
 1518SOL    HW216188   1.983   1.361   7.732  0.4087  0.5884  0.0049
 1519SOL     OW16189   1.131   4.710   3.374 -0.1117 -0.4111  0.3620
 1519SOL    HW116190   1.110   4.666   3.456  0.0280  0.1062  0.6701
 1519SOL    HW216191   1.226   4.704   3.380 -0.1159  0.9714  1.6336
 1520SOL     OW16192   0.370   0.024   8.929 -0.1542 -0.3334  0.0640
 1520SOL    HW116193   0.370   4.669   8.922  2.1931 -0.4567  1.5987
 1520SOL    HW216194   0.435   0.034   8.999  0.5417  0.0544 -0.6420
 1521SOL     OW16195   2.262   0.208   9.185  0.6121 -0.3824  0.4726
 1521SOL    HW116196   2.224   0.134   9.138 -2.3718  0.1615  2.0834
 1521SOL    HW216197   2.325   0.244   9.122 -1.1594  1.3684 -0.2752
 1522SOL     OW16198   2.662   1.698   2.996  0.5052  0.4033 -0.4161
 1522SOL    HW116199   2.577   1.715   2.956  0.3465  2.6862  0.8890
 1522SOL    HW216200   2.693   1.789   2.997 -1.3230  1.0533 -2.9406
 1523SOL     OW16201   3.382   2.393   9.200  0.2140  0.4978 -0.1823
 1523SOL    HW116202   3.363   2.452   9.274  0.5316  0.3299  0.0362
 1523SOL    HW216203   3.470   2.357   9.214 -0.3173 -0.5627  0.4013
 1524SOL     OW16204   1.841   1.173  10.082 -0.4181 -0.3813  0.0499
 1524SOL    HW116205   1.841   1.267  10.103  0.7952 -1.1401  3.3811
 1524SOL    HW216206   1.759   1.176  10.033 -0.1620  0.9819 -0.2898
 1525SOL     OW16207   1.032   4.178  13.849  0.3448 -0.0427 -0.6896
 1525SOL    HW116208   1.049   4.208  13.939  0.8275 -1.4302 -0.3181
 1525SOL    HW216209   0.990   4.093  13.865 -0.1291 -0.1488 -2.4717
 1526SOL     OW16210   3.858   1.235   5.194 -0.4860 -0.5332 -0.1990
 1526SOL    HW116211   3.865   1.140   5.208 -0.9176 -0.6923 -1.1103
 1526SOL    HW216212   3.862   1.262   5.286 -0.9396 -3.1661  0.6040
 1527SOL     OW16213   0.547   3.126  15.081  0.2966 -0.9791  0.8130
 1527SOL    HW116214   0.508   3.189  15.141 -2.3968 -1.6773 -0.1728
 1527SOL    HW216215   0.575   3.187  15.013  2.9180 -1.2063  1.7021
 1528SOL     OW16216   1.569   4.028   8.893  0.0116  0.2027  0.7208
 1528SOL    HW116217   1.556   4.084   8.969  3.8407  0.6346  1.0599
 1528SOL    HW216218   1.655   4.052   8.858 -0.6108 -0.3492 -1.2311
 1529SOL     OW16219   1.209   0.359   9.736  0.0243 -0.9079 -0.1896
 1529SOL    HW116220   1.254   0.379   9.817 -0.4445  1.2983 -0.4514
 1529SOL    HW216221   1.276   0.377   9.670 -1.6468  2.0715 -1.0967
 1530SOL     OW16222   3.984   3.120   7.723 -0.2694 -1.1327 -0.1464
 1530SOL    HW116223   4.009   3.028   7.731  3.0221 -0.3343 -1.4850
 1530SOL    HW216224   4.003   3.151   7.811 -2.8806  0.2475 -0.0723
 1531SOL     OW16225   2.693   2.776   4.063 -0.1810 -0.4247 -0.1110
 1531SOL    HW116226   2.691   2.735   4.150 -0.9428  0.5457  0.3250
 1531SOL    HW216227   2.762   2.729   4.015  1.6322  1.1708  0.9684
 1532SOL     OW16228   1.783   3.571   5.394 -0.2109  0.2430 -0.3329
 1532SOL    HW116229   1.844   3.536   5.459 -0.7164 -0.6086 -0.3167
 1532SOL    HW216230   1.836   3.643   5.360 -2.5486  1.4970 -1.3257
 1533SOL     OW16231   0.810   2.279   5.654 -0.4171  0.4373 -0.0106
 1533SOL    HW116232   0.772   2.360   5.687  0.1194  1.4121 -1.7917
 1533SOL    HW216233   0.889   2.274   5.708  0.0307  0.4059 -0.6636
 1534SOL     OW16234   4.549   3.491  15.413  0.0437 -0.4637  0.1412
 1534SOL    HW116235   4.522   3.455  15.497 -1.2713  0.4812  0.1158
 1534SOL    HW216236   4.606   3.420  15.383 -0.7641 -0.7215 -0.7884
 1535SOL     OW16237   1.677   4.573   4.387 -0.3508  0.5635 -0.0338
 1535SOL    HW116238   1.738   4.630   4.432  1.2007 -2.3683  1.5769
 1535SOL    HW216239   1.599   4.629   4.385  0.5301  1.7470 -0.7032
 1536SOL     OW16240   2.249   1.495   8.968 -0.6550 -0.6037  0.8574
 1536SOL    HW116241   2.257   1.591   8.968 -1.1070 -0.5669  0.8616
 1536SOL    HW216242   2.333   1.474   9.009  0.0790  1.1712  0.2792
 1537SOL     OW16243   2.685   4.202  11.926 -0.0994 -0.1620  0.3003
 1537SOL    HW116244   2.746   4.216  11.854 -0.8048 -1.7168 -0.5842
 1537SOL    HW216245   2.671   4.108  11.924  0.7813 -0.2619 -1.0225
 1538SOL     OW16246   1.140   2.039   6.546 -0.1663 -0.2565 -0.2107
 1538SOL    HW116247   1.219   2.090   6.531 -1.1627  1.3884  0.1991
 1538SOL    HW216248   1.137   2.050   6.641  1.6372  2.2600 -0.4635
 1539SOL     OW16249   1.747   0.231   7.338  0.6362  0.4743 -0.3153
 1539SOL    HW116250   1.784   0.179   7.266  0.2492  0.8647 -0.7923
 1539SOL    HW216251   1.691   0.297   7.297  1.1074  0.3050 -1.2247
 1540SOL     OW16252   3.855   4.516   6.505 -0.0961  0.2658 -1.2056
 1540SOL    HW116253   3.888   4.502   6.594 -0.9201  0.3158 -0.8937
 1540SOL    HW216254   3.795   4.585   6.532  0.3859  1.2948 -2.7752
 1541SOL     OW16255   1.732   4.678  17.255  0.4170  0.5716  0.3555
 1541SOL    HW116256   1.687   4.666  17.171  1.5255  0.3082 -0.1998
 1541SOL    HW216257   1.764   4.593  17.285  2.0696  0.7890 -0.8174
 1542SOL     OW16258   4.333   2.230   2.951  0.0695 -0.5273  0.2339
 1542SOL    HW116259   4.407   2.183   2.912 -0.3304 -0.6386 -0.3964
 1542SOL    HW216260   4.285   2.273   2.880 -0.4629  0.5619  1.2388
 1543SOL     OW16261   0.875   0.052  15.233 -0.3210 -0.4288 -0.5842
 1543SOL    HW116262   0.816   4.722  15.207  1.5237 -2.2145  0.0692
 1543SOL    HW216263   0.943   4.734  15.266  0.6870  0.9568 -0.2163
 1544SOL     OW16264   1.548   2.210   5.893  0.0324 -0.1272 -0.0916
 1544SOL    HW116265   1.470   2.219   5.947  0.6999 -2.6212  1.3125
 1544SOL    HW216266   1.604   2.254   5.957 -0.4157  0.6303 -0.2308
 1545SOL     OW16267   0.885   1.772   9.106 -0.0808 -0.5654 -0.3436
 1545SOL    HW116268   0.886   1.677   9.121  1.7258 -0.4552  0.2919
 1545SOL    HW216269   0.878   1.775   9.011 -0.9926  0.8219 -0.2319
 1546SOL     OW16270   4.675   2.078   5.403  0.2684 -0.1151 -0.2518
 1546SOL    HW116271   4.708   1.996   5.367  1.6236 -0.1970  1.1727
 1546SOL    HW216272   4.605   2.097   5.340  1.5446 -1.5791 -2.1111
 1547SOL     OW16273   4.451   2.137  11.719 -0.1375 -0.1256 -0.3416
 1547SOL    HW116274   4.424   2.175  11.635 -0.5753  1.5009  0.5542
 1547SOL    HW216275   4.501   2.214  11.746 -0.0326  0.2800 -1.6578
 1548SOL     OW16276   3.496   4.657  13.861 -0.8723  0.2811 -0.0340
 1548SOL    HW116277   3.544   4.605  13.796 -0.1302  0.6580  0.2176
 1548SOL    HW216278   3.553   4.733  13.851 -0.3437 -0.0020  0.8675
 1549SOL     OW16279   3.911   3.975   5.074 -0.0769 -0.0579 -0.4502
 1549SOL    HW116280   3.928   4.021   4.992 -1.3153  1.0568 -0.1017
 1549SOL    HW216281   3.997   3.938   5.091 -0.6896 -0.3961  1.9706
 1550SOL     OW16282   2.861   3.505   9.216 -0.0824 -0.4152 -0.0898
 1550SOL    HW116283   2.885   3.450   9.290  1.9923  1.1071  0.3671
 1550SOL    HW216284   2.916   3.582   9.231 -0.9735  0.3138 -0.5165
 1551SOL     OW16285   4.525   1.024   9.311  0.2954 -0.4679  0.1501
 1551SOL    HW116286   4.607   0.983   9.282  0.5196 -0.5938  0.9547
 1551SOL    HW216287   4.513   1.090   9.242 -1.1162 -1.0787 -0.1782
 1552SOL     OW16288   0.090   3.577   3.487 -0.1278 -0.0047  0.3224
 1552SOL    HW116289   0.114   3.498   3.440 -0.7291 -0.5213  0.8768
 1552SOL    HW216290   4.735   3.576   3.500 -0.2458  0.4139 -0.5514
 1553SOL     OW16291   1.574   0.609   4.471  0.4243  0.5183  0.5937
 1553SOL    HW116292   1.637   0.556   4.520  0.5887  2.3629  2.3797
 1553SOL    HW216293   1.628   0.619   4.393  1.7810 -0.5077  1.4099
 1554SOL     OW16294   4.533   0.860   5.528 -0.0430  0.2942  0.6358
 1554SOL    HW116295   4.586   0.780   5.529  1.0933  1.0560  0.3659
 1554SOL    HW216296   4.460   0.844   5.589 -0.0109  2.7755  1.3083
 1555SOL     OW16297   0.763   4.360  16.710 -0.3913 -0.0561  0.4803
 1555SOL    HW116298   0.856   4.381  16.724  0.0029 -1.8479  0.5872
 1555SOL    HW216299   0.740   4.404  16.627 -1.7546 -1.1079  0.3094
 1556SOL     OW16300   4.509   2.285   4.946 -0.0332 -0.2252 -0.3337
 1556SOL    HW116301   4.544   2.368   4.912  0.7466 -1.0780 -1.6144
 1556SOL    HW216302   4.578   2.221   4.929  1.0606  0.3797  1.8777
 1557SOL     OW16303   4.229   2.298   1.414  0.0435  0.1677 -0.1596
 1557SOL    HW116304   4.274   2.308   1.498  0.5944  1.3721 -0.6001
 1557SOL    HW216305   4.288   2.333   1.348  2.2517 -1.7974  0.7791
 1558SOL     OW16306   2.490   3.257   5.363  0.2924  0.1334 -0.0601
 1558SOL    HW116307   2.525   3.170   5.343  0.0141 -0.4310  1.9544
 1558SOL    HW216308   2.484   3.245   5.458  2.2273 -1.7992 -0.1744
 1559SOL     OW16309   1.636   3.834  16.446  0.1942 -0.3279 -0.0388
 1559SOL    HW116310   1.692   3.788  16.385  0.8705  0.5302 -0.0675
 1559SOL    HW216311   1.608   3.765  16.507 -0.3755 -1.9563 -2.1660
 1560SOL     OW16312   4.731   0.837   6.481  0.0126 -0.6451 -0.3343
 1560SOL    HW116313   0.009   0.834   6.575 -0.8506  1.3984 -0.0944
 1560SOL    HW216314   0.059   0.895   6.447 -2.3970  0.9749 -2.4185
 1561SOL     OW16315   3.733   2.978   4.021  0.0873  0.1099 -0.0666
 1561SOL    HW116316   3.795   2.986   4.093 -2.5189  0.2984  2.1761
 1561SOL    HW216317   3.656   2.948   4.070 -0.4855 -0.7859 -1.4950
 1562SOL     OW16318   2.168   3.668  13.599 -0.0167  0.3501  0.3002
 1562SOL    HW116319   2.127   3.629  13.676 -1.6630 -0.9297 -1.1842
 1562SOL    HW216320   2.255   3.690  13.631 -0.4998  0.8568  1.2454
 1563SOL     OW16321   4.283   3.352   9.511 -0.0761  0.0319 -0.5530
 1563SOL    HW116322   4.231   3.348   9.591 -1.4098  0.3703 -1.4179
 1563SOL    HW216323   4.372   3.329   9.540  0.0495 -0.2964 -1.2157
 1564SOL     OW16324   0.463   4.364   7.796 -0.1558 -0.3036 -0.1302
 1564SOL    HW116325   0.411   4.329   7.867 -1.7020 -0.4129 -1.3042
 1564SOL    HW216326   0.546   4.386   7.838 -0.6294 -2.1106  1.7374
 1565SOL     OW16327   2.441   1.368   9.132 -0.3310  0.3615  0.1208
 1565SOL    HW116328   2.485   1.451   9.149  0.6022 -0.1818  0.3350
 1565SOL    HW216329   2.507   1.323   9.080  0.5291  0.8580  0.7771
 1566SOL     OW16330   0.144   2.579   3.410  0.5037 -0.1190  0.2648
 1566SOL    HW116331   0.089   2.524   3.355 -0.8547 -1.0047  2.4881
 1566SOL    HW216332   0.211   2.517   3.441 -0.6006 -0.0093  2.8950
 1567SOL     OW16333   3.176   3.150   2.853  0.7790  0.6705  0.0508
 1567SOL    HW116334   3.265   3.172   2.882  0.6927  0.3929  0.5254
 1567SOL    HW216335   3.172   3.203   2.774  1.6343 -2.2245 -1.9260
 1568SOL     OW16336   3.900   3.681   5.493 -0.6333  0.2280 -0.2804
 1568SOL    HW116337   3.979   3.667   5.440  0.2380  0.3741  0.9871
 1568SOL    HW216338   3.928   3.768   5.519  0.6739  0.0528 -1.0287
 1569SOL     OW16339   2.200   2.296   8.298 -0.1147 -0.0681 -0.1664
 1569SOL    HW116340   2.131   2.361   8.301  0.3566  0.3818  0.9957
 1569SOL    HW216341   2.258   2.315   8.372 -1.4849 -0.3033  0.9549
 1570SOL     OW16342   1.187   0.581   3.034 -0.2218 -0.4203 -0.0849
 1570SOL    HW116343   1.214   0.520   2.965 -0.9840 -0.0694 -0.6889
 1570SOL    HW216344   1.134   0.528   3.093  2.0513  2.1724  4.2735
 1571SOL     OW16345   3.874   2.256  13.468 -0.0078  0.2431  0.9969
 1571SOL    HW116346   3.862   2.247  13.374 -1.0148 -0.7966  1.2122
 1571SOL    HW216347   3.963   2.291  13.467 -1.4613  3.9298 -0.0301
 1572SOL     OW16348   0.070   2.095   3.780 -0.0370 -0.8989 -0.5811
 1572SOL    HW116349   0.059   2.178   3.826 -0.5515 -0.2859 -1.8046
 1572SOL    HW216350   0.074   2.026   3.846  2.1018 -2.2624 -2.1320
 1573SOL     OW16351   1.123   1.171  16.152  0.0943 -0.3190 -0.1886
 1573SOL    HW116352   1.218   1.167  16.164  0.4169  0.8041 -2.4043
 1573SOL    HW216353   1.126   1.103  16.084  0.1893 -0.3424 -0.1614
 1574SOL     OW16354   4.148   4.667   5.382 -0.2401  0.2353 -0.0689
 1574SOL    HW116355   4.161   4.698   5.472 -1.6858 -1.7299  0.8332
 1574SOL    HW216356   4.189   4.741   5.337  0.0617  0.9239  1.3367
 1575SOL     OW16357   1.148   4.559  16.948  0.1324  0.3615  0.6342
 1575SOL    HW116358   1.075   4.620  16.953 -0.7767 -0.8033  1.5993
 1575SOL    HW216359   1.112   4.498  16.883  0.7515  0.5954  0.0708
 1576SOL     OW16360   2.361   1.207   4.946 -0.2113  0.0735  0.0161
 1576SOL    HW116361   2.403   1.286   4.911  0.4879 -0.9197 -1.4135
 1576SOL    HW216362   2.315   1.167   4.872  0.9804  1.2580 -1.3888
 1577SOL     OW16363   0.292   2.612  15.569  0.9861 -0.4712  0.0847
 1577SOL    HW116364   0.273   2.698  15.533 -0.2012 -0.6135  0.3767
 1577SOL    HW216365   0.331   2.573  15.491 -0.6477 -1.7151 -0.1190
 1578SOL     OW16366   0.622   2.315   9.608  0.1524 -0.3152  0.3599
 1578SOL    HW116367   0.684   2.246   9.586  0.2880 -0.1241  0.1400
 1578SOL    HW216368   0.536   2.272   9.611 -0.2547  0.4757  0.2423
 1579SOL     OW16369   4.364   2.686   7.597  0.1796  0.2683 -0.3504
 1579SOL    HW116370   4.401   2.770   7.625  0.8965  0.1620 -0.9765
 1579SOL    HW216371   4.382   2.691   7.503  3.0129 -0.9460  0.1290
 1580SOL     OW16372   1.755   4.332   2.681  0.5030 -0.3203  0.0650
 1580SOL    HW116373   1.714   4.336   2.768  1.0714 -3.3793  0.4590
 1580SOL    HW216374   1.681   4.348   2.622 -0.5112 -0.5892  1.2406
 1581SOL     OW16375   0.517   1.553   4.783 -0.4611 -0.4635 -0.3467
 1581SOL    HW116376   0.544   1.461   4.782 -0.9498 -0.6107 -0.2790
 1581SOL    HW216377   0.517   1.559   4.879 -0.4891 -0.2804 -0.3577
 1582SOL     OW16378   2.418   1.949  17.624 -0.0311  0.8783 -0.4223
 1582SOL    HW116379   2.366   2.023  17.591  1.0153  1.2368 -1.2424
 1582SOL    HW216380   2.423   1.886  17.553 -1.2622 -0.1498  0.3874
 1583SOL     OW16381   2.975   1.079  15.279 -0.6988  0.1810 -0.1818
 1583SOL    HW116382   2.883   1.098  15.260 -1.2066  0.4253  2.4731
 1583SOL    HW216383   3.006   1.063  15.190  0.6816  2.2189 -0.0586
 1584SOL     OW16384   4.648   0.111  16.065  0.2433 -0.3198  0.1853
 1584SOL    HW116385   4.651   0.161  16.146 -0.7088 -1.8169  1.1581
 1584SOL    HW216386   4.607   0.181  16.015 -2.0537 -1.1582  0.8404
 1585SOL     OW16387   2.185   3.713   6.271 -0.2145  0.4825 -0.1660
 1585SOL    HW116388   2.108   3.745   6.319 -0.8908 -0.2699 -0.7647
 1585SOL    HW216389   2.195   3.626   6.308 -1.0297  0.5123  0.1359
 1586SOL     OW16390   3.276   2.851   2.061 -0.8346 -0.6164 -0.0243
 1586SOL    HW116391   3.300   2.760   2.075  0.1151 -0.1623  1.2281
 1586SOL    HW216392   3.180   2.845   2.061 -0.9230  0.7661 -1.7571
 1587SOL     OW16393   1.903   3.320  10.744  0.4279 -0.1000 -0.2303
 1587SOL    HW116394   1.959   3.264  10.799 -1.1685  0.5466  2.0463
 1587SOL    HW216395   1.819   3.277  10.761 -0.5151  1.8702  0.0867
 1588SOL     OW16396   4.210   4.002   2.908  0.2398 -0.2199 -0.0273
 1588SOL    HW116397   4.142   4.026   2.970  0.4598  1.5626 -0.4822
 1588SOL    HW216398   4.165   3.948   2.842 -0.5844  0.8603 -0.3450
 1589SOL     OW16399   1.105   2.731   1.839  0.7400 -0.0985  0.1601
 1589SOL    HW116400   1.017   2.694   1.844  0.4260  0.5278 -0.7729
 1589SOL    HW216401   1.141   2.700   1.755 -0.3176  1.0223 -0.6954
 1590SOL     OW16402   3.578   2.625   6.457  0.2607 -0.0605  0.2764
 1590SOL    HW116403   3.536   2.711   6.458  0.4941  0.0535  0.4109
 1590SOL    HW216404   3.536   2.593   6.536 -1.0770 -0.3571 -0.5530
 1591SOL     OW16405   0.973   0.791   8.879 -0.9253  0.2371  0.3217
 1591SOL    HW116406   1.013   0.711   8.912  1.5952  1.4076  0.0940
 1591SOL    HW216407   0.951   0.767   8.789  2.1292  0.6944 -0.5279
 1592SOL     OW16408   2.542   1.394   4.835  0.0083 -0.2461  0.8674
 1592SOL    HW116409   2.486   1.454   4.786  3.1200  1.3210 -0.7627
 1592SOL    HW216410   2.573   1.344   4.759  0.1960 -0.8959  1.3678
 1593SOL     OW16411   3.458   2.284   2.288  0.2411  0.2005 -0.2623
 1593SOL    HW116412   3.407   2.301   2.367  0.2456 -1.5579  0.1159
 1593SOL    HW216413   3.386   2.272   2.227  0.4308  1.6940 -0.7883
 1594SOL     OW16414   3.689   0.745   8.097  0.2499 -0.2623  0.3402
 1594SOL    HW116415   3.780   0.729   8.070  0.0133  1.4990 -1.4985
 1594SOL    HW216416   3.700   0.831   8.138  1.8879  0.1207 -0.8573
 1595SOL     OW16417   1.066   2.307   4.330 -0.4576 -0.1066 -0.7646
 1595SOL    HW116418   1.159   2.330   4.343 -0.4141 -0.1753 -0.9566
 1595SOL    HW216419   1.041   2.383   4.277  0.4626  1.7459  1.4334
 1596SOL     OW16420   0.234   3.616   4.813  0.0700 -0.0392 -0.1379
 1596SOL    HW116421   0.287   3.557   4.760  0.4242 -1.5447  1.8886
 1596SOL    HW216422   0.158   3.609   4.754 -1.1274  0.9976  1.2984
 1597SOL     OW16423   0.015   0.045  10.113 -0.2109  0.6083 -0.3271
 1597SOL    HW116424   4.702   0.123  10.123 -0.0055  0.5909  0.8441
 1597SOL    HW216425   0.098   0.064  10.157 -0.1012 -2.5990  0.8333
 1598SOL     OW16426   3.241   3.241  14.975  0.0014 -0.6133 -0.1802
 1598SOL    HW116427   3.176   3.277  14.916 -2.2533 -3.3278  0.6803
 1598SOL    HW216428   3.286   3.175  14.922 -0.9455 -0.1906 -1.4930
 1599SOL     OW16429   0.236   3.908   4.866 -0.4098  0.5904 -0.3271
 1599SOL    HW116430   0.256   3.824   4.826 -0.6616 -0.9698  2.8086
 1599SOL    HW216431   0.151   3.924   4.827 -0.6469 -0.4430 -0.2330
 1600SOL     OW16432   4.617   0.286   9.783  0.2976 -0.5570  0.5900
 1600SOL    HW116433   4.659   0.279   9.698 -1.5516 -2.0791 -0.1794
 1600SOL    HW216434   4.595   0.379   9.784  0.0620 -0.6095 -0.7715
 1601SOL     OW16435   0.169   4.444  17.429  0.2423 -0.1349  0.4094
 1601SOL    HW116436   0.147   4.536  17.416  1.2620 -0.4648 -3.7949
 1601SOL    HW216437   0.169   4.409  17.340 -0.7603  0.8345  0.0293
 1602SOL     OW16438   4.334   2.443   7.681 -0.3687 -0.2935 -0.1962
 1602SOL    HW116439   4.346   2.530   7.644 -2.1591 -0.8440 -2.0359
 1602SOL    HW216440   4.270   2.413   7.617 -0.7767  0.5189 -0.1757
 1603SOL     OW16441   2.925   1.540   8.324  0.1466 -0.0688  0.1407
 1603SOL    HW116442   2.962   1.604   8.264 -0.7344 -0.4432 -0.8121
 1603SOL    HW216443   2.833   1.549   8.298  0.7024 -2.5662 -2.8003
 1604SOL     OW16444   4.195   3.574   6.407 -0.4637  0.3589  0.2026
 1604SOL    HW116445   4.190   3.587   6.312 -1.0834 -0.0300  0.1812
 1604SOL    HW216446   4.279   3.617   6.423 -0.9383  0.0024  3.5742
 1605SOL     OW16447   3.472   1.968   2.894  0.2719 -0.5226 -0.3263
 1605SOL    HW116448   3.518   2.006   2.969 -2.2149  1.4942  0.1713
 1605SOL    HW216449   3.472   1.877   2.924 -1.2741 -1.0420 -1.9224
 1606SOL     OW16450   0.178   0.442  15.447  0.1223 -0.2408 -0.0156
 1606SOL    HW116451   0.256   0.497  15.440  0.1572 -0.2212  0.4833
 1606SOL    HW216452   0.110   0.503  15.477  2.1398  0.8059  2.5290
 1607SOL     OW16453   1.703   4.410   8.675 -0.1889 -0.0177  0.1262
 1607SOL    HW116454   1.716   4.447   8.588  0.1253  1.6549  0.8673
 1607SOL    HW216455   1.617   4.374   8.653  0.6901 -1.0722 -1.5800
 1608SOL     OW16456   0.843   4.080  11.175  0.3324  0.0356  0.3922
 1608SOL    HW116457   0.753   4.108  11.162  0.1787 -1.6362 -2.1362
 1608SOL    HW216458   0.880   4.086  11.087  0.1274  1.2107  0.3867
 1609SOL     OW16459   0.442   4.278   3.323 -0.7658  0.7039  0.0577
 1609SOL    HW116460   0.523   4.277   3.373 -0.9460  0.5975  0.3484
 1609SOL    HW216461   0.384   4.241   3.390 -1.4078 -2.3639 -2.1635
 1610SOL     OW16462   3.515   3.407   4.540  0.0309  0.1369  0.2083
 1610SOL    HW116463   3.589   3.377   4.488  2.3725  2.2535  2.3489
 1610SOL    HW216464   3.554   3.490   4.565 -0.5411  0.2417  0.7621
 1611SOL     OW16465   0.929   3.219   7.532 -0.5679 -0.1083 -0.2065
 1611SOL    HW116466   0.875   3.204   7.610 -0.0788  0.2281  0.2002
 1611SOL    HW216467   0.946   3.132   7.495 -1.8084 -0.6617  0.5166
 1612SOL     OW16468   2.391   2.948   8.030 -0.5395 -0.0304 -0.6995
 1612SOL    HW116469   2.389   2.877   8.094  1.0336  0.0344 -0.5710
 1612SOL    HW216470   2.345   3.015   8.081 -0.5332 -1.0834  0.6956
 1613SOL     OW16471   0.991   1.276   5.963  0.1072  0.2059 -0.1940
 1613SOL    HW116472   0.999   1.362   6.004 -0.5095  0.9378 -1.6102
 1613SOL    HW216473   0.975   1.221   6.040  1.3363  0.2378  0.0866
 1614SOL     OW16474   4.177   3.710   2.873  0.6102 -0.2141  0.2268
 1614SOL    HW116475   4.133   3.625   2.868  0.3394 -0.0542 -0.1243
 1614SOL    HW216476   4.102   3.756   2.911  0.4775 -1.0373  0.9643
 1615SOL     OW16477   2.501   4.149   6.576 -0.4974 -0.4171  0.1071
 1615SOL    HW116478   2.449   4.213   6.527  1.9244  1.5776  0.0838
 1615SOL    HW216479   2.436   4.093   6.617  0.0150 -0.8845  0.2820
 1616SOL     OW16480   4.306   2.023   7.880 -0.4237 -0.5293  0.4581
 1616SOL    HW116481   4.315   1.927   7.876 -0.8991 -0.5232 -0.7369
 1616SOL    HW216482   4.213   2.038   7.897 -0.7371  0.3144 -1.9847
 1617SOL     OW16483   2.552   3.649   8.596 -0.0028  0.1067 -0.0023
 1617SOL    HW116484   2.516   3.640   8.685  0.2143 -2.8640 -0.2151
 1617SOL    HW216485   2.645   3.642   8.620  0.0445 -0.9035 -0.4826
 1618SOL     OW16486   0.720   2.474   8.833 -0.6864  0.8280 -0.2189
 1618SOL    HW116487   0.713   2.566   8.858 -2.1626  0.3744  1.0086
 1618SOL    HW216488   0.691   2.432   8.914 -1.8690 -1.6946 -1.9674
 1619SOL     OW16489   0.088   1.924   7.843  0.2899  0.2423 -0.6986
 1619SOL    HW116490   4.740   1.939   7.875 -0.1548  3.2622 -3.3356
 1619SOL    HW216491   0.071   1.915   7.749  0.6884  1.0299 -0.8441
 1620SOL     OW16492   1.081   2.400  15.532  0.0450 -0.2305  0.8735
 1620SOL    HW116493   1.008   2.422  15.591 -1.8448 -1.4602 -1.0175
 1620SOL    HW216494   1.079   2.306  15.547 -2.2673 -0.4952 -1.1234
 1621SOL     OW16495   0.394   3.409   8.640 -0.2117 -0.0542  0.2348
 1621SOL    HW116496   0.316   3.422   8.586 -1.1156  3.0502  2.3125
 1621SOL    HW216497   0.432   3.330   8.602 -0.8382 -0.9279  1.4422
 1622SOL     OW16498   2.197   2.428  12.880  0.5247 -0.1913 -1.0000
 1622SOL    HW116499   2.286   2.459  12.898 -0.4666  1.3377  1.2462
 1622SOL    HW216500   2.203   2.336  12.856 -0.1419 -0.7932  1.1203
 1623SOL     OW16501   1.196   1.522   4.207  0.7023  0.3968 -0.5018
 1623SOL    HW116502   1.268   1.550   4.263 -0.3513  0.6751  0.7086
 1623SOL    HW216503   1.227   1.448   4.155  0.2860  0.7535 -1.2624
 1624SOL     OW16504   1.759   3.262  14.882 -0.2601 -0.2250  0.1350
 1624SOL    HW116505   1.717   3.342  14.849  0.0626  0.3352  1.0656
 1624SOL    HW216506   1.776   3.218  14.799 -1.0961  0.2502 -0.2932
 1625SOL     OW16507   2.148   2.442   7.600  0.5487 -0.0314 -0.4280
 1625SOL    HW116508   2.180   2.377   7.663 -2.4968 -1.5477 -0.4410
 1625SOL    HW216509   2.131   2.516   7.658  2.5367  1.1814 -1.3930
 1626SOL     OW16510   0.726   0.774  10.250  0.5389  0.5159  0.3709
 1626SOL    HW116511   0.817   0.758  10.277  0.1268 -1.7963  0.3377
 1626SOL    HW216512   0.729   0.740  10.160 -0.9931 -1.2126  0.9678
 1627SOL     OW16513   4.417   2.835   0.923  0.1060  0.2315  0.1738
 1627SOL    HW116514   4.403   2.925   0.951  1.3241  0.5017 -0.0781
 1627SOL    HW216515   4.503   2.824   0.963 -0.1079 -0.2100  0.5075
 1628SOL     OW16516   2.538   0.709  15.222 -0.1540  0.4662 -0.0133
 1628SOL    HW116517   2.497   0.694  15.307 -1.3224 -3.2888 -1.2367
 1628SOL    HW216518   2.599   0.636  15.213  0.4859  0.9698  0.2765
 1629SOL     OW16519   1.620   2.663   5.578  0.5135 -0.0319  0.2904
 1629SOL    HW116520   1.706   2.642   5.542 -0.0386 -2.4384  0.3570
 1629SOL    HW216521   1.604   2.749   5.541 -0.0497  0.1490  0.9532
 1630SOL     OW16522   0.840   2.355  10.531 -0.1291 -0.3617 -0.5169
 1630SOL    HW116523   0.896   2.406  10.473 -1.3864 -1.3747 -2.5902
 1630SOL    HW216524   0.869   2.265  10.516 -1.7646 -0.7378 -1.3988
 1631SOL     OW16525   2.074   2.482   4.632  0.5612  0.3359 -0.9028
 1631SOL    HW116526   2.062   2.562   4.684  0.9446 -0.1000 -0.1450
 1631SOL    HW216527   1.989   2.456   4.597  0.2826 -2.9278  2.2111
 1632SOL     OW16528   0.012   3.112   5.825  0.3422 -0.4858 -0.0702
 1632SOL    HW116529   4.687   3.046   5.846  0.0679  0.0213  0.6859
 1632SOL    HW216530   0.043   3.067   5.746  1.0003  1.0806 -0.6987
 1633SOL     OW16531   0.820   0.085   4.030  0.0903 -0.4371 -0.4246
 1633SOL    HW116532   0.764   0.162   4.033  0.3074 -0.3293  0.7789
 1633SOL    HW216533   0.799   0.037   3.949  1.3652 -1.7799  0.0372
 1634SOL     OW16534   0.774   3.282   8.928  0.3052  0.3654  0.3935
 1634SOL    HW116535   0.797   3.341   8.999 -0.3418  0.9282  0.1305
 1634SOL    HW216536   0.860   3.260   8.890  0.9540 -1.0283  2.6848
 1635SOL     OW16537   4.541   3.289   3.208  0.3576 -0.0826 -0.4747
 1635SOL    HW116538   4.460   3.243   3.234  0.3070 -0.2249 -0.8934
 1635SOL    HW216539   4.492   3.359   3.165  0.8948  0.0386 -0.8825
 1636SOL     OW16540   3.456   2.891   3.541  0.2486  0.1748 -0.1169
 1636SOL    HW116541   3.523   2.871   3.475  0.1217 -0.4320 -0.0547
 1636SOL    HW216542   3.511   2.908   3.617 -0.6239  3.3711 -0.1898
 1637SOL     OW16543   4.070   1.951   6.407 -0.1766 -0.3590  0.1427
 1637SOL    HW116544   4.041   2.040   6.387  1.5704  0.3767  0.8308
 1637SOL    HW216545   4.148   1.968   6.460 -0.2241  2.1348 -0.6073
 1638SOL     OW16546   3.112   2.525   3.181 -0.2498 -0.3767  0.7878
 1638SOL    HW116547   3.200   2.487   3.184 -1.0078 -2.1986 -0.3445
 1638SOL    HW216548   3.130   2.617   3.201 -1.5468  0.1000 -0.2131
 1639SOL     OW16549   2.959   3.707   1.669 -0.1536 -0.1979 -0.1278
 1639SOL    HW116550   2.974   3.777   1.605  0.1567 -0.5269 -0.4185
 1639SOL    HW216551   2.890   3.659   1.623 -1.0793  1.3736 -0.3656
 1640SOL     OW16552   3.087   4.048   2.584  0.5660 -1.0235  0.2384
 1640SOL    HW116553   3.145   4.090   2.647 -0.1375  0.2283  0.0562
 1640SOL    HW216554   3.004   4.082   2.617  1.7847  2.5470 -0.3311
 1641SOL     OW16555   3.937   3.333   8.459  0.2681 -0.0769  0.0390
 1641SOL    HW116556   4.015   3.386   8.442  0.4168  0.4000  2.2568
 1641SOL    HW216557   3.952   3.309   8.551  1.2750  0.0281 -0.0914
 1642SOL     OW16558   1.367   0.630  13.538 -0.5995  0.0024  0.0047
 1642SOL    HW116559   1.329   0.543  13.528 -0.5574 -0.1773  1.4596
 1642SOL    HW216560   1.350   0.662  13.626  0.6651 -2.0633  0.9832
 1643SOL     OW16561   2.565   3.333  14.587  0.0168 -0.1566 -0.4712
 1643SOL    HW116562   2.556   3.238  14.600  1.3270 -0.0652  1.2378
 1643SOL    HW216563   2.659   3.350  14.592 -0.5212  2.4929  0.4769
 1644SOL     OW16564   0.993   0.229   3.375 -0.2822  0.3071  0.3205
 1644SOL    HW116565   0.919   0.214   3.316 -0.4189  0.5609  0.4298
 1644SOL    HW216566   1.030   0.141   3.368 -2.3615 -0.6376  1.1857
 1645SOL     OW16567   0.922   2.982   4.485 -0.4171  0.3166  0.2133
 1645SOL    HW116568   0.869   2.922   4.538  1.0995  0.7359  2.1845
 1645SOL    HW216569   0.969   3.031   4.552 -2.7359 -1.0191  2.8057
 1646SOL     OW16570   2.750   0.595   4.734  0.1428  0.2850 -0.1299
 1646SOL    HW116571   2.751   0.507   4.696  0.3748  0.2124  0.0439
 1646SOL    HW216572   2.717   0.570   4.821 -0.1157 -0.1734 -0.3552
 1647SOL     OW16573   2.867   4.705   9.021 -0.2014  0.3640  0.9715
 1647SOL    HW116574   2.778   4.682   8.996 -0.3016  1.2000  0.5449
 1647SOL    HW216575   2.868   0.059   9.006 -1.2668  0.0559 -1.0191
 1648SOL     OW16576   4.435   0.194   4.063  0.4667 -0.3383  0.4592
 1648SOL    HW116577   4.507   0.231   4.114  0.3300  0.3391  0.1567
 1648SOL    HW216578   4.466   0.117   4.016  1.2024  0.4983 -0.4384
 1649SOL     OW16579   0.794   4.687  12.019 -0.0482 -0.1146 -0.2092
 1649SOL    HW116580   0.890   4.685  12.014 -0.0757  0.5543 -0.9158
 1649SOL    HW216581   0.781   4.684  11.924  0.3180  0.1630 -0.2697
 1650SOL     OW16582   0.075   4.597   2.927 -0.1011 -0.3734 -0.0625
 1650SOL    HW116583   0.015   4.534   2.886 -1.0794 -0.1331  0.9964
 1650SOL    HW216584   0.032   4.681   2.943  0.3607 -0.1792  0.1450
 1651SOL     OW16585   2.686   2.920  13.265 -0.6500  0.5674  0.0199
 1651SOL    HW116586   2.616   2.985  13.264 -3.3077 -2.3576 -1.5084
 1651SOL    HW216587   2.724   2.936  13.351  0.9506  2.7847 -1.1059
 1652SOL     OW16588   3.446   0.786   7.421  0.1038  0.0452  0.4872
 1652SOL    HW116589   3.371   0.823   7.376 -0.3735 -1.0116  0.4072
 1652SOL    HW216590   3.401   0.724   7.478 -0.4859  0.1423  0.1184
 1653SOL     OW16591   3.636   2.771  10.945  0.0415  0.3771  0.1327
 1653SOL    HW116592   3.565   2.834  10.936 -0.4801 -0.2200  0.0693
 1653SOL    HW216593   3.585   2.690  10.944  0.1139  0.3381 -0.4269
 1654SOL     OW16594   1.210   4.448   7.446 -0.8680 -0.2817  0.0220
 1654SOL    HW116595   1.208   4.538   7.479 -0.1002 -0.2620  0.0070
 1654SOL    HW216596   1.196   4.398   7.526  1.6628  1.6465  1.6615
 1655SOL     OW16597   0.028   0.396   1.661 -0.1477 -0.3275 -0.4932
 1655SOL    HW116598   0.122   0.386   1.677 -0.1587  0.6481  0.2379
 1655SOL    HW216599   0.016   0.305   1.634 -1.2206 -0.0970 -0.8089
 1656SOL     OW16600   3.087   1.767   8.640  0.4059 -0.2310  0.1616
 1656SOL    HW116601   3.163   1.722   8.677  1.7961 -0.2004 -2.6523
 1656SOL    HW216602   3.130   1.833   8.586 -0.2585  1.3309  1.5524
 1657SOL     OW16603   0.705   3.310   3.325  1.1091  0.6161  0.5282
 1657SOL    HW116604   0.635   3.374   3.336 -1.8200 -2.0627 -2.4037
 1657SOL    HW216605   0.658   3.249   3.269  0.9598 -0.0968  1.4185
 1658SOL     OW16606   0.664   2.898   2.591  0.3661 -0.3391  0.1710
 1658SOL    HW116607   0.568   2.908   2.586  0.4968  0.5550 -0.6204
 1658SOL    HW216608   0.691   2.987   2.616 -1.1980 -0.1355  1.2060
 1659SOL     OW16609   3.252   1.926   8.513  0.1899 -0.1845 -0.1648
 1659SOL    HW116610   3.345   1.903   8.508  0.4264  0.5282  0.9777
 1659SOL    HW216611   3.259   2.020   8.499 -0.3348  0.3002  2.8069
 1660SOL     OW16612   4.487   0.301   0.343  0.1666  0.3459  0.6073
 1660SOL    HW116613   4.396   0.301   0.314  0.6235 -1.8503 -0.7806
 1660SOL    HW216614   4.485   0.218   0.391 -1.0230  0.5654  0.9544
 1661SOL     OW16615   0.174   3.856  12.478  0.9992 -0.1929  0.0357
 1661SOL    HW116616   0.222   3.912  12.538  1.2491 -0.5861  0.2019
 1661SOL    HW216617   0.204   3.901  12.399  2.7229 -0.3754  0.6081
 1662SOL     OW16618   4.716   3.383   7.032  0.9972  0.1189 -0.2528
 1662SOL    HW116619   4.713   3.416   6.942  0.5276 -0.0323 -0.2957
 1662SOL    HW216620   0.063   3.347   7.023 -0.2697 -2.4880 -2.2645
 1663SOL     OW16621   1.904   4.327   4.787 -0.0547  0.2399  0.2606
 1663SOL    HW116622   1.840   4.271   4.744  0.7101 -0.7123  0.3526
 1663SOL    HW216623   1.848   4.402   4.801  0.8824  0.5762  2.3110
 1664SOL     OW16624   3.699   1.952   4.497 -0.5762  0.2980  0.2408
 1664SOL    HW116625   3.678   1.870   4.453  2.1272 -0.3231  0.1646
 1664SOL    HW216626   3.694   2.012   4.422  0.4939  0.5348  0.3572
 1665SOL     OW16627   3.854   2.893   6.111 -0.7847  0.1257  0.6310
 1665SOL    HW116628   3.785   2.834   6.140 -0.1014 -1.1826 -0.4462
 1665SOL    HW216629   3.824   2.914   6.022 -1.0443  3.8408  1.5961
 1666SOL     OW16630   0.731   0.571   3.846 -0.0974 -0.5452 -0.3203
 1666SOL    HW116631   0.683   0.526   3.777  0.2937  1.1054 -1.6707
 1666SOL    HW216632   0.673   0.568   3.922 -2.1808 -0.7258 -1.9285
 1667SOL     OW16633   3.126   3.677  10.240  0.1008  0.3550  0.0705
 1667SOL    HW116634   3.112   3.611  10.308  2.1520 -0.3396 -0.1836
 1667SOL    HW216635   3.180   3.739  10.289 -0.6459 -0.0687  1.4128
 1668SOL     OW16636   0.376   4.355  15.105 -0.0829 -0.1345  0.7229
 1668SOL    HW116637   0.316   4.406  15.050  1.5799 -0.2662 -1.2050
 1668SOL    HW216638   0.429   4.422  15.147  0.6703 -1.2804  1.6119
 1669SOL     OW16639   0.444   3.778   5.652 -0.0263 -0.3246 -0.5516
 1669SOL    HW116640   0.418   3.725   5.577  0.5077 -1.5080  0.1063
 1669SOL    HW216641   0.537   3.757   5.653 -0.1034 -0.6445 -0.3129
 1670SOL     OW16642   1.597   2.704   8.308 -0.6814  0.7944  0.1811
 1670SOL    HW116643   1.530   2.772   8.311 -0.9335  0.5798 -0.6972
 1670SOL    HW216644   1.681   2.749   8.320 -0.8912  0.6647  2.2168
 1671SOL     OW16645   2.850   4.641   8.732 -0.1739 -0.2672 -0.7074
 1671SOL    HW116646   2.876   4.630   8.640 -1.1658  3.3827 -1.4602
 1671SOL    HW216647   2.833   4.550   8.755 -0.3737 -0.3272 -1.0906
 1672SOL     OW16648   1.651   1.270   1.556 -0.6872 -0.6450 -0.1852
 1672SOL    HW116649   1.655   1.287   1.650  0.3378 -1.0366 -0.1547
 1672SOL    HW216650   1.596   1.342   1.524 -3.2652 -2.6055 -0.1328
 1673SOL     OW16651   2.363   1.133   3.526 -0.1175 -0.1193 -0.7054
 1673SOL    HW116652   2.386   1.210   3.578  0.6970 -1.0983  0.3717
 1673SOL    HW216653   2.443   1.131   3.474  0.0060 -1.4233 -0.4603
 1674SOL     OW16654   2.486   3.030   4.679 -0.2116  0.3407  0.0025
 1674SOL    HW116655   2.497   3.122   4.658  0.4303 -0.1025 -1.5806
 1674SOL    HW216656   2.460   2.995   4.594  2.4006  0.2893 -0.7923
 1675SOL     OW16657   0.247   0.928   4.804  0.0212  0.4859  0.2965
 1675SOL    HW116658   0.164   0.967   4.776 -0.7907 -0.7276  1.0013
 1675SOL    HW216659   0.222   0.836   4.814 -1.7179  0.7484 -1.5651
 1676SOL     OW16660   1.189   1.841  16.555 -0.2152  0.3281 -0.1432
 1676SOL    HW116661   1.237   1.911  16.511  1.1089  0.3859  1.4201
 1676SOL    HW216662   1.187   1.868  16.647 -0.1953  1.1198 -0.3701
 1677SOL     OW16663   1.862   2.414   4.474  0.4064  0.3689  0.1949
 1677SOL    HW116664   1.872   2.319   4.477  0.1694  0.3217 -0.4207
 1677SOL    HW216665   1.789   2.428   4.534  0.5802  0.0156  0.4890
 1678SOL     OW16666   2.013   0.178  11.565 -0.2823 -0.4758  0.2557
 1678SOL    HW116667   2.107   0.169  11.580 -0.3802  0.2715  1.3381
 1678SOL    HW216668   1.978   0.092  11.586 -0.1284 -0.2153  1.5809
 1679SOL     OW16669   3.925   1.709   6.786 -0.2279  0.1872  0.0593
 1679SOL    HW116670   3.842   1.665   6.768 -0.1855 -0.2531  0.9639
 1679SOL    HW216671   3.939   1.734   6.695 -1.2588  0.7029  0.0365
 1680SOL     OW16672   3.858   2.041   5.136 -0.2278 -0.3643 -0.2660
 1680SOL    HW116673   3.922   2.106   5.163 -1.4942  1.3561 -1.4144
 1680SOL    HW216674   3.848   2.044   5.040 -0.2966 -0.8940 -0.2768
 1681SOL     OW16675   2.811   0.270   8.560 -0.1779  0.2936  0.3019
 1681SOL    HW116676   2.743   0.307   8.503 -1.0385  0.2786  1.3009
 1681SOL    HW216677   2.767   0.188   8.586  0.4686 -0.3181 -0.5599
 1682SOL     OW16678   0.810   1.112   2.461 -0.2045 -0.0615 -0.4284
 1682SOL    HW116679   0.803   1.048   2.391 -1.4271  0.5840 -0.8783
 1682SOL    HW216680   0.810   1.192   2.409  1.0286  0.0246 -0.3068
 1683SOL     OW16681   0.507   0.173  11.627  0.2810 -0.4657  0.2976
 1683SOL    HW116682   0.482   0.264  11.614  0.5155 -0.6053 -1.1332
 1683SOL    HW216683   0.586   0.194  11.676  0.0150 -0.0454  0.5473
 1684SOL     OW16684   0.968   3.889   7.787  0.5938  0.0040 -0.2489
 1684SOL    HW116685   1.063   3.891   7.792  0.6784 -2.1183 -1.3700
 1684SOL    HW216686   0.956   3.976   7.826  0.0823  0.8328 -2.2765
 1685SOL     OW16687   2.455   0.754   9.115 -0.1717 -0.5483  0.2048
 1685SOL    HW116688   2.517   0.734   9.046  1.2977 -1.9870  1.9398
 1685SOL    HW216689   2.368   0.767   9.076  0.6191 -1.9148 -1.9452
 1686SOL     OW16690   2.685   3.605  10.494 -0.0852 -0.6026  0.1752
 1686SOL    HW116691   2.620   3.643  10.554 -0.6822  0.0676 -0.9101
 1686SOL    HW216692   2.652   3.515  10.484  1.5007 -0.9975 -1.3959
 1687SOL     OW16693   1.276   0.243  10.166  0.2310 -0.8085 -0.2483
 1687SOL    HW116694   1.196   0.254  10.218  0.1452 -1.6175 -0.2157
 1687SOL    HW216695   1.331   0.201  10.231 -2.0280 -1.7974  1.0329
 1688SOL     OW16696   3.796   2.907   3.253  0.2137  0.2546 -0.0397
 1688SOL    HW116697   3.839   2.852   3.318 -0.5828  2.0989  2.0520
 1688SOL    HW216698   3.798   2.844   3.181  1.3306  1.0828 -0.7220
 1689SOL     OW16699   4.737   1.972   6.767 -0.2711  0.4045  0.3763
 1689SOL    HW116700   4.721   1.986   6.861  0.3722  1.5702  0.3161
 1689SOL    HW216701   0.054   2.044   6.741 -0.9765 -0.0706 -2.5050
 1690SOL     OW16702   0.770   1.530   6.347 -0.4047 -0.2982 -0.7321
 1690SOL    HW116703   0.844   1.590   6.342 -0.0146 -0.7511 -0.2975
 1690SOL    HW216704   0.693   1.581   6.319 -1.0134 -1.3554 -0.9973
 1691SOL     OW16705   2.466   0.875   0.725  0.5993  0.1763  0.6196
 1691SOL    HW116706   2.440   0.900   0.814  1.1249  0.0477  0.8120
 1691SOL    HW216707   2.388   0.833   0.691  0.8050  2.2188 -2.3845
 1692SOL     OW16708   1.449   0.996   7.574  0.3731  0.0804 -0.2884
 1692SOL    HW116709   1.458   1.074   7.519  0.8818  0.9186  0.9813
 1692SOL    HW216710   1.389   1.029   7.642 -1.4738 -3.1271 -0.3360
 1693SOL     OW16711   2.870   4.575   4.679  0.2536  0.0598  0.4940
 1693SOL    HW116712   2.861   4.583   4.584 -2.5970 -1.5531  0.6290
 1693SOL    HW216713   2.965   4.568   4.692  0.4635  0.8779 -0.6651
 1694SOL     OW16714   3.243   0.240   4.064 -0.0489  0.2666 -0.2923
 1694SOL    HW116715   3.257   0.333   4.083  0.8135  0.3175 -1.1979
 1694SOL    HW216716   3.208   0.201   4.145  1.3759  0.5510  0.4668
 1695SOL     OW16717   3.215   3.473  13.423  0.0824 -0.2696  0.1264
 1695SOL    HW116718   3.184   3.563  13.430 -0.1070 -0.2727 -0.6830
 1695SOL    HW216719   3.308   3.485  13.403  0.4153 -0.6383  1.4648
 1696SOL     OW16720   2.264   0.569   4.623  0.2456  0.3479  0.5534
 1696SOL    HW116721   2.334   0.611   4.673  2.3273  0.4668 -2.4770
 1696SOL    HW216722   2.183   0.597   4.666 -0.5208 -0.3516 -0.4426
 1697SOL     OW16723   4.195   1.555   6.660 -0.7389 -0.2401 -0.4833
 1697SOL    HW116724   4.245   1.632   6.687  0.5432 -1.0752 -0.4985
 1697SOL    HW216725   4.119   1.604   6.627 -0.1639 -0.8578 -2.7278
 1698SOL     OW16726   0.645   4.659   4.153 -0.0771 -0.7055  0.6226
 1698SOL    HW116727   0.591   4.658   4.075  1.1883  1.0551 -0.2681
 1698SOL    HW216728   0.715   4.705   4.107 -1.7635  2.4805  1.3171
 1699SOL     OW16729   2.110   2.741  12.736  0.1895 -0.7726 -0.2096
 1699SOL    HW116730   2.141   2.682  12.667  1.3389 -0.3962 -0.0168
 1699SOL    HW216731   2.169   2.816  12.727  2.3903 -2.5425 -0.6811
 1700SOL     OW16732   3.502   0.627   6.308 -0.0450 -0.0462  0.0161
 1700SOL    HW116733   3.595   0.608   6.295 -0.0002  0.5009 -0.4697
 1700SOL    HW216734   3.507   0.717   6.338 -0.0113  0.6842 -2.1842
 1701SOL     OW16735   1.283   4.635   6.685 -0.0926 -0.3839 -0.3912
 1701SOL    HW116736   1.337   4.643   6.763 -3.1448 -1.0158  1.7586
 1701SOL    HW216737   1.197   4.619   6.724 -0.1432  0.4671 -0.1517
 1702SOL     OW16738   3.097   1.421  12.152  0.0916 -0.3513 -0.1267
 1702SOL    HW116739   3.150   1.461  12.221 -2.2726  1.6534  0.5184
 1702SOL    HW216740   3.150   1.436  12.073 -1.2077  2.2729 -0.5087
 1703SOL     OW16741   4.676   1.583   2.429 -0.1990  0.4521  0.3565
 1703SOL    HW116742   4.604   1.640   2.401 -1.6350 -0.2117  2.6630
 1703SOL    HW216743   0.008   1.628   2.386 -0.0618 -0.8028 -0.6852
 1704SOL     OW16744   3.603   4.146   7.140  0.1799  0.3394 -0.1328
 1704SOL    HW116745   3.596   4.077   7.206  0.1767 -0.9731 -1.5226
 1704SOL    HW216746   3.593   4.096   7.059 -0.3282 -1.1914  0.8905
 1705SOL     OW16747   2.079   0.592   8.618  0.0816 -0.2743  0.4840
 1705SOL    HW116748   2.113   0.503   8.623  2.3665  0.5195 -0.6368
 1705SOL    HW216749   2.118   0.623   8.537 -2.6164  0.5935 -0.4885
 1706SOL     OW16750   3.135   3.727  11.381  0.0231 -0.3251 -0.0186
 1706SOL    HW116751   3.196   3.742  11.309  1.5518 -1.6458  0.9883
 1706SOL    HW216752   3.114   3.636  11.359 -1.1778 -0.1925  0.5430
 1707SOL     OW16753   1.618   2.631   5.246 -0.3300 -0.1366  0.5374
 1707SOL    HW116754   1.550   2.602   5.185  0.2805 -2.1870  0.8220
 1707SOL    HW216755   1.663   2.549   5.266  0.1294  0.1690  0.7755
 1708SOL     OW16756   2.565   2.731   4.455 -0.1183 -0.6134  0.2441
 1708SOL    HW116757   2.520   2.813   4.436  0.5540 -0.2595  0.1783
 1708SOL    HW216758   2.588   2.755   4.545 -1.5674 -0.1145  0.4820
 1709SOL     OW16759   1.652   3.753   9.422  0.2951 -0.1746 -0.0646
 1709SOL    HW116760   1.574   3.790   9.380 -0.3496 -0.8985  0.5042
 1709SOL    HW216761   1.623   3.713   9.504  1.3397 -0.4869  0.1549
 1710SOL     OW16762   2.494   0.839  11.978  0.3956  0.0795  0.0756
 1710SOL    HW116763   2.550   0.900  12.027 -0.5019  1.8447 -1.0873
 1710SOL    HW216764   2.461   0.900  11.912 -0.6259  0.5735  1.0468
 1711SOL     OW16765   4.662   4.149   3.535  0.4670 -0.2921 -0.3258
 1711SOL    HW116766   4.627   4.211   3.599 -2.8819 -2.5834  0.0675
 1711SOL    HW216767   4.636   4.061   3.562  0.5512 -0.0957  0.3751
 1712SOL     OW16768   1.639   1.333   6.395 -0.5707 -0.2230  0.2053
 1712SOL    HW116769   1.677   1.319   6.308  3.0661  0.5339  1.6571
 1712SOL    HW216770   1.606   1.422   6.383  0.8441  0.2797 -0.0394
 1713SOL     OW16771   4.171   2.450   2.164  0.3643 -0.2035  0.0761
 1713SOL    HW116772   4.238   2.461   2.096  0.3040  1.0524  0.2147
 1713SOL    HW216773   4.091   2.425   2.118 -0.5299 -0.5463  1.7998
 1714SOL     OW16774   3.581   4.513  17.264  0.1063 -0.2340 -0.2671
 1714SOL    HW116775   3.615   4.511  17.353  1.0077 -0.5649 -0.6236
 1714SOL    HW216776   3.663   4.528  17.217 -0.2433 -1.0447 -1.1149
 1715SOL     OW16777   1.186   1.583   5.282 -0.2573 -0.2834  0.2194
 1715SOL    HW116778   1.104   1.534   5.280  0.0979 -0.8155 -1.5489
 1715SOL    HW216779   1.178   1.620   5.194 -1.9092  2.4144  1.5083
 1716SOL     OW16780   1.620   1.266   3.147 -0.0453 -0.3415 -0.2958
 1716SOL    HW116781   1.616   1.357   3.175  2.2254 -0.2282 -0.3578
 1716SOL    HW216782   1.714   1.248   3.149 -0.2027 -1.5371 -3.0350
 1717SOL     OW16783   2.988   1.659   1.739 -0.0136  0.3843 -0.4143
 1717SOL    HW116784   3.034   1.581   1.768 -0.9105  0.2940  0.7953
 1717SOL    HW216785   3.062   1.719   1.732 -1.9320  2.8768  0.4405
 1718SOL     OW16786   1.729   4.150  17.431  0.2427 -0.0952 -0.6915
 1718SOL    HW116787   1.702   4.145  17.340  0.5783 -2.4789 -0.6664
 1718SOL    HW216788   1.815   4.109  17.417  0.3285 -0.2747  0.3266
 1719SOL     OW16789   1.036   2.471   4.947 -0.6562  0.1186  0.3793
 1719SOL    HW116790   0.975   2.474   5.020  1.0412  2.3004  1.7068
 1719SOL    HW216791   0.996   2.540   4.893  0.1583  0.5541  0.3376
 1720SOL     OW16792   0.874   2.834   6.594  0.0142  0.0533  0.5109
 1720SOL    HW116793   0.786   2.871   6.603  0.0789  0.1540  0.7497
 1720SOL    HW216794   0.913   2.916   6.565 -0.0570 -0.3913 -0.8358
 1721SOL     OW16795   0.122   3.869   5.455 -0.2533  0.0521  0.3107
 1721SOL    HW116796   0.189   3.828   5.401  0.2458  0.5093  0.5908
 1721SOL    HW216797   0.079   3.788   5.483  1.6180 -1.0303  0.0693
 1722SOL     OW16798   3.310   0.964   0.105  0.2171 -0.1067 -0.0807
 1722SOL    HW116799   3.374   0.965   0.176  1.0718  1.4464 -0.8586
 1722SOL    HW216800   3.342   1.034   0.048  0.8502 -1.4667 -1.4037
 1723SOL     OW16801   4.509   1.214   5.790  0.3008 -0.2215 -0.2533
 1723SOL    HW116802   4.598   1.182   5.777 -0.9506 -3.9788  0.4407
 1723SOL    HW216803   4.471   1.127   5.803 -0.3946  0.0949 -0.1556
 1724SOL     OW16804   0.326   0.581   4.632  0.0169  0.4337 -0.0261
 1724SOL    HW116805   0.318   0.667   4.591  0.3340  0.0797 -0.8221
 1724SOL    HW216806   0.290   0.600   4.719 -1.2923  1.7779 -0.8834
 1725SOL     OW16807   2.041   0.888   1.952  0.0416 -0.5754 -0.5428
 1725SOL    HW116808   1.995   0.870   2.034  2.4034 -0.6285  0.7697
 1725SOL    HW216809   2.096   0.959   1.985 -0.5259 -0.0522 -0.7151
 1726SOL     OW16810   4.631   2.921   5.477  0.2389  0.0244 -0.4027
 1726SOL    HW116811   4.640   2.841   5.425 -0.2269  0.2808 -0.8672
 1726SOL    HW216812   4.709   2.916   5.533 -0.6314 -0.7332  0.7465
 1727SOL     OW16813   1.851   3.903   9.682 -0.7984  0.1836  0.2051
 1727SOL    HW116814   1.944   3.915   9.667 -0.7542  0.6484  0.8790
 1727SOL    HW216815   1.807   3.960   9.619  2.1097  1.1218 -0.9364
 1728SOL     OW16816   3.389   0.036   3.054 -0.6011  1.0656  0.2429
 1728SOL    HW116817   3.427   0.123   3.065 -1.6929  1.8390 -2.1882
 1728SOL    HW216818   3.318   0.055   2.994 -1.5466  0.1092  1.0468
 1729SOL     OW16819   4.445   1.363   4.245 -0.2670  0.1871  0.0117
 1729SOL    HW116820   4.471   1.311   4.320 -3.0960 -1.1323  0.0855
 1729SOL    HW216821   4.387   1.424   4.291  1.1329  0.7398  1.0323
 1730SOL     OW16822   1.301   0.305   6.734  0.4261 -0.8844  0.6972
 1730SOL    HW116823   1.289   0.397   6.709 -0.2035 -0.8661  1.0671
 1730SOL    HW216824   1.360   0.270   6.668 -1.6389  1.2089 -2.3080
 1731SOL     OW16825   2.546   0.291   0.235 -0.1077  0.1690  0.3772
 1731SOL    HW116826   2.617   0.243   0.194 -0.5605  0.3227 -0.5765
 1731SOL    HW216827   2.473   0.229   0.234  1.3571 -1.5470  0.4908
 1732SOL     OW16828   3.179   1.723   4.437 -0.5239  0.2538 -0.6721
 1732SOL    HW116829   3.091   1.720   4.476  0.9913  1.5822  2.7861
 1732SOL    HW216830   3.225   1.787   4.491  1.4084 -1.0493 -0.7979
 1733SOL     OW16831   3.205   2.269   7.479 -0.1104 -0.3673  0.0465
 1733SOL    HW116832   3.260   2.253   7.556 -1.9659 -0.2347  1.3948
 1733SOL    HW216833   3.121   2.228   7.495 -0.6397  0.6894 -0.0248
 1734SOL     OW16834   2.754   3.021  14.642  0.3397  0.6197  0.6253
 1734SOL    HW116835   2.737   2.946  14.699 -3.2914  1.4247  0.6523
 1734SOL    HW216836   2.838   2.989  14.612 -0.6576 -0.2259 -1.2810
 1735SOL     OW16837   2.346   2.008   9.895 -0.0588 -0.4728  0.3531
 1735SOL    HW116838   2.300   2.041   9.973 -2.7715  1.1247 -1.9433
 1735SOL    HW216839   2.388   1.929   9.930  3.7690  1.8470  1.0330
 1736SOL     OW16840   3.148   3.107   7.088 -0.0432  0.3281 -0.3456
 1736SOL    HW116841   3.125   3.149   7.005  0.1608 -0.9974 -1.0817
 1736SOL    HW216842   3.197   3.033   7.052 -0.2776 -0.1965  0.4157
 1737SOL     OW16843   3.948   2.127   9.126 -0.4909  0.3105  0.2593
 1737SOL    HW116844   3.975   2.131   9.218  0.1765  2.6825 -0.0547
 1737SOL    HW216845   4.038   2.107   9.102 -0.3026 -1.7681  2.6878
 1738SOL     OW16846   4.383   4.388   7.231 -0.8480  0.0698 -0.1718
 1738SOL    HW116847   4.378   4.367   7.138  0.4532  1.3470 -0.5281
 1738SOL    HW216848   4.470   4.361   7.260 -0.9235 -0.4209 -0.3997
 1739SOL     OW16849   4.539   0.666   2.602  0.5081  0.3796  0.0937
 1739SOL    HW116850   4.450   0.701   2.603  0.0937 -0.7859  2.8693
 1739SOL    HW216851   4.566   0.697   2.515 -3.2286  2.4317 -0.3374
 1740SOL     OW16852   0.968   4.427   3.698  0.3016  0.3158  0.1460
 1740SOL    HW116853   0.988   4.350   3.751  1.1014  0.0338 -0.5599
 1740SOL    HW216854   1.055   4.450   3.664  0.8783 -2.9964 -0.5461
 1741SOL     OW16855   0.980   0.198   2.157 -0.1328  0.0227  0.3541
 1741SOL    HW116856   0.933   0.203   2.074 -0.7570 -1.9537  0.5871
 1741SOL    HW216857   1.035   0.275   2.146  2.5314 -1.7659  1.2651
 1742SOL     OW16858   3.373   4.250  14.759 -0.1010  0.1195 -0.5351
 1742SOL    HW116859   3.397   4.290  14.842  0.7844  3.0965 -2.2247
 1742SOL    HW216860   3.414   4.165  14.775  0.2088  0.5308  0.8085
 1743SOL     OW16861   0.292   3.831  15.343  0.4069  0.0961 -0.0451
 1743SOL    HW116862   0.300   3.917  15.302 -1.0500  1.0954  1.7789
 1743SOL    HW216863   0.212   3.845  15.395 -0.9916 -1.3478 -1.7890
 1744SOL     OW16864   2.099   0.304   3.333  0.0674  0.4666  0.2163
 1744SOL    HW116865   2.175   0.354   3.304  0.1057 -0.3768 -1.1678
 1744SOL    HW216866   2.133   0.282   3.420  0.8083  0.4424 -0.0748
 1745SOL     OW16867   1.147   4.547   9.642 -0.1449  0.0898  0.9122
 1745SOL    HW116868   1.120   4.532   9.733  0.5359 -1.1091  0.9216
 1745SOL    HW216869   1.174   4.639   9.647  2.5657 -0.6885  0.6825
 1746SOL     OW16870   4.669   2.714   7.275  0.2678  0.4513 -0.3343
 1746SOL    HW116871   4.655   2.693   7.182 -0.2659 -0.4715 -0.0402
 1746SOL    HW216872   4.580   2.735   7.304 -0.1753 -0.5808 -0.9540
 1747SOL     OW16873   4.514   0.615  15.565  0.1839 -0.0199 -0.4186
 1747SOL    HW116874   4.516   0.548  15.497  1.4913  0.7834 -1.1607
 1747SOL    HW216875   4.427   0.655  15.560  0.5347  1.0905  2.2131
 1748SOL     OW16876   1.828   0.730   2.743  0.7014 -0.3353 -0.3358
 1748SOL    HW116877   1.916   0.725   2.706  1.3866 -0.4188  1.3077
 1748SOL    HW216878   1.849   0.687   2.826  0.4146  2.9246  1.4235
 1749SOL     OW16879   0.217   4.738   4.138  0.0701  0.4962 -0.2851
 1749SOL    HW116880   0.273   4.703   4.207 -1.7861  1.1221  1.5163
 1749SOL    HW216881   0.145   4.677   4.153  0.2398 -0.4648 -3.3557
 1750SOL     OW16882   4.555   0.032   1.879 -0.6257 -0.1905  0.3365
 1750SOL    HW116883   4.505   0.111   1.861  0.0710  0.3751  0.8743
 1750SOL    HW216884   4.484   4.709   1.876 -1.0799  0.3347 -0.1209
 1751SOL     OW16885   3.940   4.489   5.428 -0.2360 -0.0564 -0.3303
 1751SOL    HW116886   4.017   4.543   5.437  0.2892 -0.5902 -1.5398
 1751SOL    HW216887   3.915   4.503   5.336  0.4153  2.1437 -0.1591
 1752SOL     OW16888   2.735   4.421   1.725  0.7794 -0.8807 -0.2070
 1752SOL    HW116889   2.656   4.387   1.768 -2.3834  3.9976 -2.2512
 1752SOL    HW216890   2.706   4.503   1.686  3.6703  0.2273 -0.0686
 1753SOL     OW16891   2.241   2.133  17.524  0.0825 -0.0197  0.2210
 1753SOL    HW116892   2.268   2.165  17.438 -1.5777  1.6721  0.3491
 1753SOL    HW216893   2.167   2.076  17.503  1.3554 -1.7289  0.3310
 1754SOL     OW16894   0.428   2.580   0.588  0.0224 -0.8374 -0.2209
 1754SOL    HW116895   0.476   2.547   0.664  1.5526  2.1209  0.1097
 1754SOL    HW216896   0.475   2.540   0.515  0.6689 -1.5007  0.5623
 1755SOL     OW16897   0.054   3.127  16.905 -0.4930  0.0120 -0.2911
 1755SOL    HW116898   4.730   3.180  16.858  0.0812  2.0655  1.2208
 1755SOL    HW216899   0.112   3.186  16.953 -1.5369 -0.3459  1.4064
 1756SOL     OW16900   4.381   2.770   8.027  0.5992  0.1610 -0.0146
 1756SOL    HW116901   4.377   2.864   8.043 -0.9538  0.1686 -0.3981
 1756SOL    HW216902   4.463   2.748   8.071  0.5441  0.8112  0.4102
 1757SOL     OW16903   1.528   3.402   2.150 -0.4021 -0.0686 -0.8875
 1757SOL    HW116904   1.434   3.382   2.155 -0.1717 -0.6209  1.4539
 1757SOL    HW216905   1.553   3.421   2.060  2.2554 -0.2849 -0.1917
 1758SOL     OW16906   1.107   2.373   7.570  0.2934 -0.2446 -0.0819
 1758SOL    HW116907   1.169   2.446   7.566 -1.8060  1.4764 -1.7213
 1758SOL    HW216908   1.026   2.417   7.594  0.6777  0.2652  0.2857
 1759SOL     OW16909   3.758   2.499   6.303  0.0579 -0.7299  0.6437
 1759SOL    HW116910   3.682   2.520   6.358  1.0047  0.7562  1.3926
 1759SOL    HW216911   3.806   2.446   6.367 -0.1514 -0.6047  0.9055
 1760SOL     OW16912   1.354   0.435   5.681  0.1651  0.0095 -0.2583
 1760SOL    HW116913   1.262   0.449   5.702 -0.2260  0.5607 -2.3792
 1760SOL    HW216914   1.360   0.340   5.688  0.8154  0.1250  0.8648
 1761SOL     OW16915   1.576   3.631   2.818 -0.7780  0.2766  0.6025
 1761SOL    HW116916   1.634   3.576   2.766  0.8114  0.3702  2.2971
 1761SOL    HW216917   1.567   3.710   2.765  0.6149  1.2059  1.7660
 1762SOL     OW16918   3.001   3.426   8.253 -0.2413  0.0273 -0.0102
 1762SOL    HW116919   3.005   3.470   8.338  0.6420 -0.0118 -0.0278
 1762SOL    HW216920   3.023   3.337   8.284  3.8887  0.6921 -1.0057
 1763SOL     OW16921   2.249   3.840   2.230 -0.1440 -0.1978 -0.0188
 1763SOL    HW116922   2.268   3.788   2.152 -3.7949  0.3892 -1.2896
 1763SOL    HW216923   2.282   3.779   2.297  0.2793  1.6609  1.4654
 1764SOL     OW16924   0.030   3.815  15.539  0.3989 -0.3138 -0.4011
 1764SOL    HW116925   4.725   3.895  15.513 -0.7938 -0.0612  2.5418
 1764SOL    HW216926   0.040   3.834  15.632  3.5922 -2.1435 -0.3848
 1765SOL     OW16927   1.452   4.471   3.354  0.0382  0.1750  0.4075
 1765SOL    HW116928   1.469   4.447   3.445  2.3791 -3.6100 -1.0070
 1765SOL    HW216929   1.384   4.409   3.330  0.4474  0.0957 -0.5654
 1766SOL     OW16930   3.757   3.701  11.158 -0.3676  0.5747  0.4036
 1766SOL    HW116931   3.727   3.622  11.202  1.0295 -0.1297  0.0980
 1766SOL    HW216932   3.837   3.664  11.121 -0.5624 -0.3634  0.9150
 1767SOL     OW16933   3.374   2.290   0.224 -0.3103  0.1481 -0.1261
 1767SOL    HW116934   3.356   2.214   0.169  2.1109  0.5978 -1.5547
 1767SOL    HW216935   3.345   2.361   0.166  0.5207  1.0111  0.4990
 1768SOL     OW16936   0.960   4.513  13.130  0.2186 -0.9130 -0.6213
 1768SOL    HW116937   0.893   4.533  13.196 -0.5645  2.7732 -2.5156
 1768SOL    HW216938   0.997   4.432  13.165 -1.2991  0.4231  4.1566
 1769SOL     OW16939   3.755   1.603  16.850 -0.4347  0.2076 -0.0764
 1769SOL    HW116940   3.819   1.619  16.919 -2.3645 -0.6446  1.9365
 1769SOL    HW216941   3.685   1.660  16.883  0.8023  0.0414  2.8148
 1770SOL     OW16942   4.396   0.413  17.523 -0.3156  0.0643  0.2322
 1770SOL    HW116943   4.456   0.486  17.539 -0.3880 -0.0996  1.2247
 1770SOL    HW216944   4.444   0.340  17.561 -2.0018 -0.8974  0.4997
 1771SOL     OW16945   3.763   0.579  13.199  0.6483 -0.0378 -0.0142
 1771SOL    HW116946   3.698   0.563  13.268 -0.6529 -0.8521 -1.4309
 1771SOL    HW216947   3.731   0.531  13.123  2.4692  0.2848 -0.9989
 1772SOL     OW16948   3.920   3.179   3.202 -0.0784  0.0199 -0.1889
 1772SOL    HW116949   3.885   3.090   3.205 -2.3442  0.9688  1.1430
 1772SOL    HW216950   4.013   3.159   3.209  0.0388  0.9200  0.7638
 1773SOL     OW16951   4.035   3.068   1.528  0.0708  0.8174  0.1212
 1773SOL    HW116952   3.975   3.015   1.582  1.4063 -0.3909  0.3974
 1773SOL    HW216953   3.970   3.126   1.488 -0.0734  0.9331  0.5207
 1774SOL     OW16954   0.712   2.681   4.245 -0.2587 -0.0208 -0.5564
 1774SOL    HW116955   0.710   2.687   4.149  0.9895  1.2137 -0.5168
 1774SOL    HW216956   0.678   2.593   4.262 -0.9669  0.6447  1.5072
 1775SOL     OW16957   3.487   4.570   4.458 -0.3616  0.4412 -0.6188
 1775SOL    HW116958   3.524   4.591   4.372  0.4629  0.2484 -0.3121
 1775SOL    HW216959   3.553   4.603   4.519  1.3054 -1.1763 -1.5356
 1776SOL     OW16960   2.344   2.830   7.723  0.6217  0.7590 -0.7146
 1776SOL    HW116961   2.340   2.847   7.817 -1.5653 -0.5065 -0.5639
 1776SOL    HW216962   2.253   2.810   7.701  0.3473  0.7067  0.4737
 1777SOL     OW16963   1.649   1.353   8.667 -0.1758 -0.0093  0.4632
 1777SOL    HW116964   1.677   1.439   8.697 -0.6878 -0.0456  1.0484
 1777SOL    HW216965   1.705   1.299   8.723  0.1116 -0.9601 -0.7273
 1778SOL     OW16966   2.964   3.917   4.986 -0.0648  0.4136  0.0984
 1778SOL    HW116967   2.971   4.011   4.968 -0.6367  0.2376 -1.0262
 1778SOL    HW216968   2.878   3.908   5.028 -0.4350 -1.5111 -1.0954
 1779SOL     OW16969   0.238   1.167   5.533 -0.3587 -0.1753  0.2191
 1779SOL    HW116970   0.159   1.130   5.491 -1.5565  1.5844  0.9352
 1779SOL    HW216971   0.210   1.250   5.571 -1.0543 -0.9598  1.4347
 1780SOL     OW16972   3.378   4.618   6.472  0.0186 -0.3007 -0.3608
 1780SOL    HW116973   3.315   4.674   6.427 -0.8348 -0.8374  0.1657
 1780SOL    HW216974   3.364   4.544   6.414  0.1638 -0.6328  0.0235
 1781SOL     OW16975   2.353   2.207  10.426  0.8091 -0.2655  0.3578
 1781SOL    HW116976   2.308   2.124  10.411  1.7393 -0.5449 -0.9335
 1781SOL    HW216977   2.297   2.257  10.485 -0.5127  0.2638 -1.3230
 1782SOL     OW16978   4.252   3.684   4.207  0.0032 -0.7905  0.5811
 1782SOL    HW116979   4.308   3.716   4.137 -1.4592  0.6731  0.0576
 1782SOL    HW216980   4.164   3.683   4.168  0.1649  1.2845  0.1733
 1783SOL     OW16981   2.468   3.401   8.063 -0.0711 -0.4336 -0.7263
 1783SOL    HW116982   2.451   3.308   8.055  0.1740 -0.5452  0.0272
 1783SOL    HW216983   2.556   3.414   8.100 -0.5995 -0.9033  0.7010
 1784SOL     OW16984   4.409   1.361   8.530 -0.5270  0.2205  0.0288
 1784SOL    HW116985   4.379   1.452   8.521 -0.5482  0.2934  0.7782
 1784SOL    HW216986   4.374   1.326   8.449  0.1440  1.1593 -0.6742
 1785SOL     OW16987   4.600   4.208   1.046 -0.3760 -0.0420  0.1170
 1785SOL    HW116988   4.507   4.233   1.049 -0.6885 -0.9728 -2.0721
 1785SOL    HW216989   4.620   4.177   1.134  0.1694 -2.6253 -0.9354
 1786SOL     OW16990   2.527   1.639   9.119  0.2347 -0.3519  0.6866
 1786SOL    HW116991   2.480   1.717   9.087 -1.3535 -1.7778 -0.4869
 1786SOL    HW216992   2.566   1.670   9.201 -1.8922 -0.5338  1.7746
 1787SOL     OW16993   3.742   1.744   7.064  0.3537 -0.0524  0.0793
 1787SOL    HW116994   3.751   1.657   7.102  0.2588  1.0184  2.5563
 1787SOL    HW216995   3.837   1.759   7.065  0.3265 -0.1767  4.3614
 1788SOL     OW16996   3.016   2.470   6.308 -0.1928  0.3966 -0.0472
 1788SOL    HW116997   2.976   2.412   6.243 -1.5116  0.6639  0.5333
 1788SOL    HW216998   3.105   2.436   6.297  1.0581  4.2457 -1.6369
 1789SOL     OW16999   0.878   2.340   9.387 -0.0200 -0.4881 -0.0671
 1789SOL    HW117000   0.846   2.397   9.457  2.9569 -1.9718  2.5226
 1789SOL    HW217001   0.948   2.286   9.424  2.0819  2.7482  0.6814
 1790SOL     OW17002   3.786   0.015  16.034 -0.0136 -0.4431  0.1081
 1790SOL    HW117003   3.786   4.705  16.115 -1.2155 -3.4425 -1.8043
 1790SOL    HW217004   3.794   4.701  15.956 -1.3622 -1.4849  0.7117
 1791SOL     OW17005   3.761   4.612   8.062 -0.5637  0.1588 -0.3281
 1791SOL    HW117006   3.807   4.650   7.987 -0.7879  0.1870 -0.4513
 1791SOL    HW217007   3.755   4.692   8.114 -1.8207 -0.0685 -0.1148
 1792SOL     OW17008   3.190   3.260   7.325 -0.0658 -0.0734 -0.1213
 1792SOL    HW117009   3.214   3.225   7.240  1.3319  0.5708  0.0078
 1792SOL    HW217010   3.104   3.218   7.330 -0.3615  0.8612  2.9297
 1793SOL     OW17011   0.729   0.604  11.700 -0.7346  0.2784  0.1390
 1793SOL    HW117012   0.673   0.677  11.726 -1.2268  0.4766 -1.4767
 1793SOL    HW217013   0.800   0.639  11.647 -1.9413  1.0607 -0.9595
 1794SOL     OW17014   2.324   3.735   5.620  0.1822  0.6107 -0.7374
 1794SOL    HW117015   2.402   3.683   5.639  0.4201  1.2214 -0.0303
 1794SOL    HW217016   2.293   3.772   5.703  0.0619  0.3338 -0.6618
 1795SOL     OW17017   4.164   1.723   3.937  0.6363  0.7247 -0.0993
 1795SOL    HW117018   4.254   1.733   3.907  0.9388 -1.0031  0.2086
 1795SOL    HW217019   4.176   1.657   4.005 -0.8384  0.1470 -0.4003
 1796SOL     OW17020   0.302   1.957  12.964  0.5534  0.4257 -0.2528
 1796SOL    HW117021   0.371   1.894  12.984 -0.0571 -0.0789  0.2375
 1796SOL    HW217022   0.250   1.954  13.044 -0.0522  0.5833 -0.6393
 1797SOL     OW17023   2.588   4.590   5.192 -0.2734  0.4610  0.3573
 1797SOL    HW117024   2.665   4.636   5.158 -0.8932  1.2399  0.0179
 1797SOL    HW217025   2.512   4.631   5.152  0.0259 -0.5735 -1.2582
 1798SOL     OW17026   4.708   4.266   8.705  0.3376 -0.3516  0.1217
 1798SOL    HW117027   4.723   4.237   8.615  0.5588  3.0392 -0.9408
 1798SOL    HW217028   4.682   4.356   8.685 -0.0230 -0.6330 -0.6635
 1799SOL     OW17029   1.843   1.740   6.913  0.0523 -0.4089  0.9332
 1799SOL    HW117030   1.803   1.795   6.845 -1.0704  1.0651  2.7760
 1799SOL    HW217031   1.870   1.815   6.967 -0.8242  1.5725 -1.3755
 1800SOL     OW17032   4.198   2.098  11.829 -0.7363 -0.2142  0.0790
 1800SOL    HW117033   4.151   2.171  11.789  0.2191  0.1032 -0.4530
 1800SOL    HW217034   4.283   2.112  11.787 -0.1595 -2.8402  0.3796
 1801SOL     OW17035   0.641   2.868  16.437 -0.0041  0.3815  0.1425
 1801SOL    HW117036   0.661   2.878  16.344  0.0533 -1.9906 -0.1019
 1801SOL    HW217037   0.547   2.881  16.432  0.4177  2.7759 -1.5384
 1802SOL     OW17038   1.108   2.896   8.243 -0.8620 -0.5474 -0.2826
 1802SOL    HW117039   1.105   2.989   8.221 -1.3673 -0.5557 -0.2327
 1802SOL    HW217040   1.075   2.911   8.332 -1.5515 -0.3039 -0.5830
 1803SOL     OW17041   1.520   1.924  16.664  0.5508  0.4513 -0.2445
 1803SOL    HW117042   1.576   1.856  16.626  1.8715  1.4061 -0.0161
 1803SOL    HW217043   1.455   1.943  16.597 -0.0877  1.1752  0.5825
 1804SOL     OW17044   4.181   3.461   8.400  0.2119 -0.0073  0.1007
 1804SOL    HW117045   4.227   3.543   8.418  1.1517 -0.5024 -0.0381
 1804SOL    HW217046   4.197   3.427   8.488 -2.1986 -3.8332 -0.9430
 1805SOL     OW17047   1.783   0.775   8.852  0.8200  0.1212  0.1946
 1805SOL    HW117048   1.776   0.736   8.939 -1.2776 -0.5489 -0.2735
 1805SOL    HW217049   1.779   0.696   8.797  1.6969 -0.1561  0.5363
 1806SOL     OW17050   4.354   2.003   3.727  0.0697 -0.0043  0.3652
 1806SOL    HW117051   4.353   2.033   3.818 -0.3096  0.5232  0.1913
 1806SOL    HW217052   4.376   1.910   3.730 -0.4958 -0.1822 -0.7561
 1807SOL     OW17053   0.989   1.287   8.946  0.1357  0.3190  0.1309
 1807SOL    HW117054   1.075   1.262   8.913 -0.2853  0.6819 -1.2213
 1807SOL    HW217055   0.931   1.215   8.922 -0.7264  0.8258  0.7045
 1808SOL     OW17056   1.359   1.705   6.425  0.0627 -0.6265  0.2156
 1808SOL    HW117057   1.295   1.774   6.407  2.2540  1.1469 -0.6460
 1808SOL    HW217058   1.380   1.726   6.516 -1.1993 -0.8164  0.5471
 1809SOL     OW17059   1.917   3.817   8.171 -0.5845 -0.2701 -0.0132
 1809SOL    HW117060   1.851   3.800   8.238  0.0317 -1.3077  0.3225
 1809SOL    HW217061   1.995   3.795   8.222  0.9528  0.1212 -2.1884
 1810SOL     OW17062   2.198   2.342  14.945 -0.5990 -0.2876 -0.1001
 1810SOL    HW117063   2.171   2.329  14.854  1.4299  2.1149 -1.0457
 1810SOL    HW217064   2.288   2.308  14.954 -0.9338 -0.4062  2.7968
 1811SOL     OW17065   3.598   4.632   1.131 -0.0973  0.2122 -0.2579
 1811SOL    HW117066   3.643   4.651   1.049  1.2573  2.8207  1.0906
 1811SOL    HW217067   3.517   4.681   1.116  0.3323  0.9993 -0.0244
 1812SOL     OW17068   0.442   0.245   2.393  0.0456 -0.3943 -0.8037
 1812SOL    HW117069   0.536   0.244   2.372  0.1505  0.9203 -0.3511
 1812SOL    HW217070   0.406   0.176   2.337 -2.5911  1.2912 -1.1538
 1813SOL     OW17071   3.156   3.140   2.391  0.2971  0.4473 -0.5831
 1813SOL    HW117072   3.217   3.094   2.333 -1.6005 -1.0019 -1.4022
 1813SOL    HW217073   3.187   3.107   2.476  0.4811 -0.9778 -1.1989
 1814SOL     OW17074   4.692   0.708  17.057  0.2391 -0.5638 -0.0000
 1814SOL    HW117075   0.037   0.669  17.039 -0.0073 -0.4981 -1.3355
 1814SOL    HW217076   4.713   0.800  17.071 -4.0967  0.3785  0.3838
 1815SOL     OW17077   2.270   1.229  11.423  0.7305 -0.3435  0.0945
 1815SOL    HW117078   2.228   1.179  11.493 -0.2902 -0.8990 -0.9221
 1815SOL    HW217079   2.204   1.267  11.365  0.9290 -0.4332 -0.1936
 1816SOL     OW17080   3.033   3.451  10.365 -0.4019 -0.2429  0.0670
 1816SOL    HW117081   2.950   3.410  10.391  1.0801 -2.2057  1.7272
 1816SOL    HW217082   3.090   3.374  10.364  0.2223  0.2257 -0.0220
 1817SOL     OW17083   2.541   4.321   1.871 -0.1057 -0.2305  0.7868
 1817SOL    HW117084   2.445   4.318   1.877 -0.2780  1.6784 -0.7135
 1817SOL    HW217085   2.572   4.285   1.954  2.1844 -2.1458 -0.9186
 1818SOL     OW17086   3.877   2.309   3.889 -0.1187 -0.6366  0.2593
 1818SOL    HW117087   3.908   2.399   3.894 -0.3038 -0.6113  1.0191
 1818SOL    HW217088   3.781   2.315   3.890  0.0290  1.3708  1.9140
 1819SOL     OW17089   3.379   4.236   4.280  0.0649 -0.1065 -0.3816
 1819SOL    HW117090   3.360   4.197   4.194 -0.5237  0.8504 -0.6853
 1819SOL    HW217091   3.407   4.158   4.328 -2.9464  0.0027  1.5780
 1820SOL     OW17092   3.507   3.446   2.344  0.2711 -0.4147  1.1591
 1820SOL    HW117093   3.576   3.381   2.358  0.6599 -0.6805 -1.8848
 1820SOL    HW217094   3.511   3.436   2.249 -1.0584  0.7718  0.9837
 1821SOL     OW17095   4.061   0.222   7.393  0.5650 -0.6462  0.0860
 1821SOL    HW117096   4.096   0.261   7.472 -0.4490  1.0125 -0.2788
 1821SOL    HW217097   3.968   0.244   7.402  1.1985  1.3463  1.7369
 1822SOL     OW17098   3.323   1.247  10.451 -0.4467 -0.1326  0.0133
 1822SOL    HW117099   3.291   1.209  10.533  2.1506 -2.1739  0.1143
 1822SOL    HW217100   3.239   1.271  10.411  0.5650  1.8355 -0.8998
 1823SOL     OW17101   0.863   2.147  11.637 -0.5357 -0.3088 -0.1706
 1823SOL    HW117102   0.926   2.101  11.582  0.0629 -1.5071  1.5309
 1823SOL    HW217103   0.919   2.172  11.711  1.0179 -0.0589 -1.4446
 1824SOL     OW17104   4.449   3.319   5.718  0.0009 -0.1749  0.2850
 1824SOL    HW117105   4.383   3.279   5.662  1.1942 -0.3042 -1.0526
 1824SOL    HW217106   4.390   3.343   5.789  0.8762  3.6844 -0.2741
 1825SOL     OW17107   0.507   3.522   3.450  0.4550 -0.6770 -0.1705
 1825SOL    HW117108   0.449   3.472   3.393 -1.4582 -0.2009  1.3377
 1825SOL    HW217109   0.473   3.512   3.539 -1.3528  1.3371 -0.6219
 1826SOL     OW17110   0.396   2.411   2.725  0.7671  0.3519  0.1313
 1826SOL    HW117111   0.370   2.336   2.778  0.0377  0.1507 -0.5056
 1826SOL    HW217112   0.352   2.478   2.776  0.6897  1.8185 -1.8517
 1827SOL     OW17113   1.306   3.126   9.784  0.8224 -0.6830 -0.1327
 1827SOL    HW117114   1.387   3.159   9.823  0.0215 -0.4764  1.3420
 1827SOL    HW217115   1.301   3.036   9.817 -2.2774 -0.3741  0.2191
 1828SOL     OW17116   0.905   1.382   9.769  0.0822 -0.0159 -0.1401
 1828SOL    HW117117   0.989   1.393   9.725  1.2046 -3.0276  1.2466
 1828SOL    HW217118   0.839   1.417   9.710 -0.4075  0.6982  0.8248
 1829SOL     OW17119   4.434   1.526   2.570  0.0526  0.2116 -0.6786
 1829SOL    HW117120   4.513   1.559   2.613 -1.4843  1.4323  1.1966
 1829SOL    HW217121   4.429   1.433   2.594  0.5148 -0.0088 -1.4466
 1830SOL     OW17122   3.538   2.769   2.446 -0.3231 -0.0711  0.2863
 1830SOL    HW117123   3.463   2.798   2.498 -0.1564 -1.2741  1.1973
 1830SOL    HW217124   3.519   2.681   2.413  0.3910 -0.1598  0.0997
 1831SOL     OW17125   2.713   4.097  17.527  0.9977 -0.0797  0.3842
 1831SOL    HW117126   2.764   4.087  17.608  2.1623 -0.0893 -0.3469
 1831SOL    HW217127   2.622   4.086  17.554  1.4471 -2.0243  1.1224
 1832SOL     OW17128   3.009   2.162   6.405  0.0717 -0.3997 -0.0506
 1832SOL    HW117129   2.999   2.216   6.483  0.0724  1.7597 -1.5671
 1832SOL    HW217130   2.919   2.173   6.374  0.2049  4.3879  1.2990
 1833SOL     OW17131   3.688   2.950   1.945  0.0604  0.0058  0.2546
 1833SOL    HW117132   3.720   2.952   2.036  1.6431  1.4039 -0.3308
 1833SOL    HW217133   3.596   2.977   1.949 -0.7019 -2.7435  1.5611
 1834SOL     OW17134   0.014   2.978   4.535  0.1588  0.6312 -0.0704
 1834SOL    HW117135   0.014   3.059   4.485  1.7327 -0.2018 -1.4163
 1834SOL    HW217136   4.688   2.999   4.600  2.3024  0.9769  2.0227
 1835SOL     OW17137   1.092   0.811  14.799  0.4685 -0.5311  0.3431
 1835SOL    HW117138   1.178   0.852  14.795  1.0968 -1.8727  0.2172
 1835SOL    HW217139   1.041   0.876  14.846 -2.4979 -1.7777 -1.1493
 1836SOL     OW17140   0.831   3.245  17.388 -0.0410 -0.3637  0.0745
 1836SOL    HW117141   0.795   3.317  17.439 -0.9232 -0.8488  0.1407
 1836SOL    HW217142   0.816   3.274  17.298  0.9312  3.3805  1.1157
 1837SOL     OW17143   0.914   1.864  15.454 -0.1478  0.0865  0.1820
 1837SOL    HW117144   0.903   1.771  15.474  0.3573  0.0378  0.2323
 1837SOL    HW217145   0.936   1.897  15.541 -4.3541 -0.1112  1.3374
 1838SOL     OW17146   0.536   2.537   3.123  0.3502  0.3475 -0.4793
 1838SOL    HW117147   0.483   2.560   3.047  2.0887 -0.4444 -1.9389
 1838SOL    HW217148   0.626   2.546   3.092  0.0745  2.8503 -0.5982
 1839SOL     OW17149   3.919   1.472   6.502  0.1578  0.0281 -0.1933
 1839SOL    HW117150   3.932   1.416   6.425 -1.5719 -0.3675 -0.1889
 1839SOL    HW217151   3.951   1.555   6.467 -0.4841 -0.2102 -1.3498
 1840SOL     OW17152   3.112   1.121   0.698 -0.0049 -0.0548  0.5049
 1840SOL    HW117153   3.103   1.026   0.692 -0.3013 -0.1302  2.0395
 1840SOL    HW217154   3.030   1.149   0.658  0.1782 -3.3438 -2.1294
 1841SOL     OW17155   0.092   2.397   6.275  0.1005 -0.5241 -0.5307
 1841SOL    HW117156   0.148   2.438   6.342 -1.6386  2.8628 -1.1224
 1841SOL    HW217157   0.060   2.477   6.232  0.2128 -0.3121 -0.2213
 1842SOL     OW17158   0.086   3.804  13.589  0.2522  0.1402  0.2583
 1842SOL    HW117159   0.137   3.871  13.635  0.8058  0.4555 -0.8215
 1842SOL    HW217160   0.130   3.786  13.506  0.0719  2.9512 -0.4514
 1843SOL     OW17161   3.650   2.723   8.646 -0.1978  0.0249 -0.0117
 1843SOL    HW117162   3.706   2.715   8.724 -1.1484 -3.9477  0.2267
 1843SOL    HW217163   3.646   2.637   8.603  1.8777  0.2999 -0.7715
 1844SOL     OW17164   3.085   4.382  16.075  0.3049 -0.0048  0.1149
 1844SOL    HW117165   3.077   4.291  16.104 -0.7124  0.3447  0.9162
 1844SOL    HW217166   3.090   4.424  16.160 -3.6422 -0.2783  0.4809
 1845SOL     OW17167   3.583   3.910   2.132 -0.2525 -0.0918  0.0549
 1845SOL    HW117168   3.543   3.846   2.191  1.5077 -1.1395  0.0832
 1845SOL    HW217169   3.647   3.956   2.187  0.2685 -1.5700  0.6912
 1846SOL     OW17170   1.221   2.344   5.132 -0.0843 -0.5240  0.1876
 1846SOL    HW117171   1.137   2.376   5.100 -0.5047 -0.8581  0.9646
 1846SOL    HW217172   1.202   2.365   5.223 -1.3583  1.8899 -0.6281
 1847SOL     OW17173   3.192   3.012  16.097 -0.1737 -0.0259 -0.1448
 1847SOL    HW117174   3.171   2.935  16.150 -0.5247 -1.0721 -1.8007
 1847SOL    HW217175   3.103   3.032  16.068 -0.7760 -0.3651  1.5152
 1848SOL     OW17176   0.001   4.101  17.252  0.4084  0.3884 -0.0144
 1848SOL    HW117177   4.719   4.013  17.222  2.4525  0.0378 -0.5087
 1848SOL    HW217178   0.075   4.079  17.309 -0.9147 -0.8027  1.2503
 1849SOL     OW17179   3.964   2.842  16.207  0.0952  0.0522 -0.4489
 1849SOL    HW117180   4.058   2.829  16.202  0.0930 -0.1876  0.2311
 1849SOL    HW217181   3.935   2.813  16.120  1.3349 -0.4924 -0.6665
 1850SOL     OW17182   1.278   3.844  14.715  0.2767 -0.2875  0.6404
 1850SOL    HW117183   1.200   3.897  14.729  0.5764  0.2383  0.3487
 1850SOL    HW217184   1.287   3.807  14.803  1.3388 -0.7256  0.3527
 1851SOL     OW17185   4.658   0.703   4.786 -0.1445  0.0537 -0.3947
 1851SOL    HW117186   4.699   0.782   4.749 -0.4732  0.3359 -0.1475
 1851SOL    HW217187   4.622   0.670   4.704 -2.0244 -0.9855  0.8588
 1852SOL     OW17188   3.820   3.952   4.692 -0.2851  0.4633 -0.3663
 1852SOL    HW117189   3.786   3.905   4.768  2.6761  1.5833  1.6575
 1852SOL    HW217190   3.842   3.874   4.642 -0.6771 -0.5553  1.0506
 1853SOL     OW17191   3.023   4.238   3.846  0.2436 -0.0245  0.5531
 1853SOL    HW117192   3.068   4.322   3.840  1.2202 -0.5993 -0.1690
 1853SOL    HW217193   3.085   4.177   3.805  0.6354  3.6497 -4.2622
 1854SOL     OW17194   1.624   2.066   9.597  0.3452 -0.2804 -0.3122
 1854SOL    HW117195   1.658   1.989   9.641 -1.0438 -0.7857 -0.1210
 1854SOL    HW217196   1.678   2.133   9.638  0.1589  0.3145 -1.0384
 1855SOL     OW17197   1.773   0.320   8.468 -0.1665 -1.1125  0.1808
 1855SOL    HW117198   1.781   0.378   8.544 -1.5716 -2.1989  1.1649
 1855SOL    HW217199   1.830   0.365   8.406  0.9695  0.1217  2.1366
 1856SOL     OW17200   1.150   1.646  17.512  0.5132  0.0579  1.2351
 1856SOL    HW117201   1.239   1.677  17.529  1.2234 -0.2923 -1.6858
 1856SOL    HW217202   1.115   1.704  17.444 -1.7125 -2.6317  0.0602
 1857SOL     OW17203   1.574   4.024   4.930  0.1561  0.3173  0.6168
 1857SOL    HW117204   1.489   3.983   4.921 -0.3942  1.1541  2.0164
 1857SOL    HW217205   1.551   4.100   4.983 -0.0478  0.3948  0.4168
 1858SOL     OW17206   1.101   3.753   5.267  0.3928  0.0904 -0.1409
 1858SOL    HW117207   1.026   3.715   5.312  0.5182 -1.4208 -1.2106
 1858SOL    HW217208   1.166   3.745   5.337 -2.7341 -0.7652  2.6488
 1859SOL     OW17209   1.867   2.368   9.416  0.3908 -0.0224  0.1090
 1859SOL    HW117210   1.921   2.418   9.479  0.2747  1.3552 -0.8797
 1859SOL    HW217211   1.892   2.278   9.437 -2.1697 -1.4668 -3.0793
 1860SOL     OW17212   0.368   1.065   2.978 -0.7420  0.0231 -0.6894
 1860SOL    HW117213   0.462   1.076   2.967 -0.5379 -1.0373  0.0193
 1860SOL    HW217214   0.361   0.975   2.946  1.6402 -0.7395  0.8848
 1861SOL     OW17215   1.276   1.919   4.680  0.1900 -0.5047  0.5857
 1861SOL    HW117216   1.243   2.001   4.716  0.9843  0.3476 -0.6283
 1861SOL    HW217217   1.311   1.872   4.756  0.5112  1.6681  1.7587
 1862SOL     OW17218   4.274   2.639   2.330 -0.2167 -0.3479 -0.0113
 1862SOL    HW117219   4.275   2.575   2.259 -0.4384 -0.7212  0.3236
 1862SOL    HW217220   4.185   2.672   2.326 -0.5800 -1.3664 -0.3095
 1863SOL     OW17221   0.152   0.937   8.909  0.4318  0.1044  0.0238
 1863SOL    HW117222   0.223   1.000   8.927 -0.1153  1.0317 -1.0390
 1863SOL    HW217223   0.202   0.873   8.859  0.0416  1.2613 -1.8633
 1864SOL     OW17224   0.118   0.024   0.052  0.6329 -0.5004 -0.3994
 1864SOL    HW117225   0.044   4.720   0.094  0.8193 -1.0955 -0.6974
 1864SOL    HW217226   0.100   0.116   0.068  0.0218 -0.7830  0.5652
 1865SOL     OW17227   1.120   3.309  16.979  0.2324 -0.3078  0.3038
 1865SOL    HW117228   1.051   3.358  17.024 -1.3231 -0.8183 -1.4972
 1865SOL    HW217229   1.197   3.354  17.015 -0.8753  1.7955  0.0676
 1866SOL     OW17230   3.222   1.499   6.688 -0.2929  0.1406 -0.3699
 1866SOL    HW117231   3.222   1.403   6.691 -0.7812  0.1720  0.4600
 1866SOL    HW217232   3.221   1.511   6.593 -0.3627 -0.9161 -0.5129
 1867SOL     OW17233   3.426   0.693  15.659  0.0600  0.5064  1.0636
 1867SOL    HW117234   3.447   0.601  15.673  0.7466  0.7236  1.4813
 1867SOL    HW217235   3.331   0.696  15.671 -0.1674 -0.6809 -0.5621
 1868SOL     OW17236   1.768   0.042   3.586 -0.1810  0.4962  0.0965
 1868SOL    HW117237   1.807   0.092   3.514  0.2572 -1.6228 -1.1355
 1868SOL    HW217238   1.721   0.112   3.630 -0.0811  0.9451 -0.5112
 1869SOL     OW17239   0.943   2.602  15.032 -0.6081 -0.5973  0.1076
 1869SOL    HW117240   0.863   2.550  15.037 -0.0187 -1.6248 -1.0821
 1869SOL    HW217241   1.003   2.539  15.072  3.5593  2.1357 -1.9027
 1870SOL     OW17242   3.345   4.511   2.309 -0.3875 -0.3396 -0.8336
 1870SOL    HW117243   3.348   4.606   2.326  1.3402 -0.4397 -0.5867
 1870SOL    HW217244   3.368   4.480   2.397 -1.7444 -0.0566 -0.3783
 1871SOL     OW17245   3.110   3.511   7.325  0.3889 -0.1414 -0.3622
 1871SOL    HW117246   3.036   3.509   7.264 -1.0535  0.6678  1.3504
 1871SOL    HW217247   3.135   3.419   7.326  0.5586 -0.0728  1.4963
 1872SOL     OW17248   1.885   2.525  15.217  0.0888  0.1326  0.7407
 1872SOL    HW117249   1.810   2.572  15.252  0.9263  0.4159  2.1363
 1872SOL    HW217250   1.920   2.586  15.152  0.7572  0.1668  1.1411
 1873SOL     OW17251   1.062   4.397   9.447 -0.0283  0.8286  0.6023
 1873SOL    HW117252   0.985   4.359   9.489  0.4231 -0.2102  0.4789
 1873SOL    HW217253   1.093   4.459   9.514  1.7288 -0.9660  1.4501
 1874SOL     OW17254   1.499   4.240   2.171  0.4117  0.4310  0.6762
 1874SOL    HW117255   1.469   4.215   2.258 -1.1778  0.5375  0.1687
 1874SOL    HW217256   1.453   4.323   2.155  2.4375  1.2352 -0.8839
 1875SOL     OW17257   0.186   0.680  11.602  0.3965 -0.1593 -0.0005
 1875SOL    HW117258   0.181   0.774  11.588  0.4695 -0.0398  0.7607
 1875SOL    HW217259   0.268   0.672  11.650  0.6986  1.5012 -0.2369
 1876SOL     OW17260   1.117   3.098   2.990 -0.7542 -0.0766 -0.9660
 1876SOL    HW117261   1.108   3.193   2.982  1.7530  0.1051 -1.5600
 1876SOL    HW217262   1.193   3.081   2.935  0.3559  1.3943  0.1233
 1877SOL     OW17263   1.593   0.597   7.570 -0.1758  0.0767  0.0212
 1877SOL    HW117264   1.642   0.669   7.608  0.3758  0.0988 -0.7433
 1877SOL    HW217265   1.517   0.639   7.530  1.2608  1.6594 -1.0315
 1878SOL     OW17266   4.370   1.705   9.908  0.2019  0.0931 -0.0238
 1878SOL    HW117267   4.329   1.779   9.864  0.7236  0.7690  0.6049
 1878SOL    HW217268   4.331   1.716   9.995  0.6707  2.5893 -0.1188
 1879SOL     OW17269   1.804   3.847  12.187  0.1106 -0.6620 -0.7989
 1879SOL    HW117270   1.772   3.937  12.197  2.7436  0.1373  0.6457
 1879SOL    HW217271   1.897   3.873  12.190 -0.0435 -0.1413 -0.5291
 1880SOL     OW17272   3.827   3.179   5.803  0.1888  0.3820 -0.3553
 1880SOL    HW117273   3.869   3.121   5.865 -1.9102  0.4437  1.1456
 1880SOL    HW217274   3.876   3.261   5.807 -1.5111  1.3990 -0.0284
 1881SOL     OW17275   3.348   3.624   2.881 -0.5494 -0.2261 -0.4459
 1881SOL    HW117276   3.332   3.699   2.825 -2.2945 -0.5243 -0.3409
 1881SOL    HW217277   3.423   3.594   2.829 -0.2614 -0.6159  0.1957
 1882SOL     OW17278   4.345   1.023  16.610  0.2889 -0.2813 -0.2138
 1882SOL    HW117279   4.315   1.106  16.648 -0.3772 -0.7184  0.2199
 1882SOL    HW217280   4.333   1.040  16.517  1.0619  0.1907 -0.2318
 1883SOL     OW17281   1.832   1.021   8.713 -0.0686  0.5185  0.5153
 1883SOL    HW117282   1.807   0.943   8.762  2.4479  0.0447  1.0325
 1883SOL    HW217283   1.805   1.091   8.772  0.5932 -1.1580  2.7850
 1884SOL     OW17284   2.939   4.227   2.033  0.0163 -0.2795  0.2422
 1884SOL    HW117285   2.900   4.140   2.019 -0.5056  0.3011 -1.9719
 1884SOL    HW217286   2.880   4.275   2.090 -1.0573 -2.1789  0.7201
 1885SOL     OW17287   3.391   4.692   7.591 -0.0644 -1.3188  0.4106
 1885SOL    HW117288   3.351   4.658   7.671 -0.9207  0.9249  0.9619
 1885SOL    HW217289   3.450   4.622   7.564  1.4892  0.4765 -0.8769
 1886SOL     OW17290   2.516   3.579   5.044 -1.0091 -0.0358  0.4600
 1886SOL    HW117291   2.551   3.585   5.133  1.2078 -0.7837 -0.3612
 1886SOL    HW217292   2.522   3.484   5.033  2.1919 -0.1241  2.9309
 1887SOL     OW17293   2.800   3.975   6.751 -0.3492  0.2024  0.1909
 1887SOL    HW117294   2.868   3.913   6.776 -0.7603 -0.4293 -0.2860
 1887SOL    HW217295   2.847   4.059   6.758  0.9986 -0.5407 -0.0576
 1888SOL     OW17296   0.546   2.156   5.989  0.6791  0.5385 -0.3150
 1888SOL    HW117297   0.493   2.217   6.040 -1.1953 -1.0410 -0.3472
 1888SOL    HW217298   0.632   2.173   6.026  1.5292 -2.1844 -0.9967
 1889SOL     OW17299   1.996   3.203   6.289 -0.0083  0.1057  0.2145
 1889SOL    HW117300   1.972   3.216   6.380 -0.8634 -2.7518  0.3865
 1889SOL    HW217301   1.912   3.170   6.257  0.8043 -1.0083 -0.7564
 1890SOL     OW17302   4.622   0.117   5.125  0.1663  0.2524 -0.2169
 1890SOL    HW117303   4.567   0.087   5.197 -0.0344  1.5393  0.1647
 1890SOL    HW217304   4.654   0.201   5.158 -1.3856  0.9108 -0.4042
 1891SOL     OW17305   2.625   0.211   2.756 -0.1061  0.0007 -0.1014
 1891SOL    HW117306   2.544   0.263   2.760 -2.6041 -3.8877 -0.0383
 1891SOL    HW217307   2.684   0.283   2.776  0.9677 -0.7440 -0.5936
 1892SOL     OW17308   3.515   2.431   8.756 -0.0074 -0.9461  0.2072
 1892SOL    HW117309   3.440   2.477   8.793  2.2587  1.1157  2.1918
 1892SOL    HW217310   3.584   2.443   8.821  0.2500 -0.6038 -0.1328
 1893SOL     OW17311   3.127   4.405   5.477 -0.2095  0.3645  0.9051
 1893SOL    HW117312   3.068   4.345   5.430 -0.5691  1.3051  0.1628
 1893SOL    HW217313   3.210   4.370   5.444  0.1994  1.2404  0.9949
 1894SOL     OW17314   2.258   3.775  10.690  0.3458 -0.0583  0.1787
 1894SOL    HW117315   2.276   3.853  10.743 -0.9360 -0.3033  0.9630
 1894SOL    HW217316   2.164   3.788  10.674  0.0462 -1.7454  0.5421
 1895SOL     OW17317   1.812   0.693   7.999 -0.2437 -0.0586  0.1509
 1895SOL    HW117318   1.738   0.710   8.058  0.9507 -0.9332  1.8819
 1895SOL    HW217319   1.805   0.779   7.956 -1.8105  0.2242  0.9473
 1896SOL     OW17320   0.168   3.853   3.715  0.7017  0.2764  0.3094
 1896SOL    HW117321   0.126   3.816   3.637  2.0237 -0.4197 -0.0723
 1896SOL    HW217322   0.114   3.812   3.783  0.0048 -1.9954 -1.5846
 1897SOL     OW17323   3.100   4.061  10.470  0.3894 -0.4993  0.8334
 1897SOL    HW117324   3.063   4.148  10.454 -0.1319 -1.0697 -1.1151
 1897SOL    HW217325   3.025   4.015  10.509 -1.3764  0.1437 -1.8107
 1898SOL     OW17326   0.517   0.389  13.078  0.2990  0.3766  0.1403
 1898SOL    HW117327   0.570   0.312  13.057 -0.9774 -0.4590 -0.0205
 1898SOL    HW217328   0.440   0.355  13.124  0.7361 -0.7164  0.0631
 1899SOL     OW17329   1.978   4.268  15.018  0.5770 -0.1903  0.5611
 1899SOL    HW117330   2.061   4.305  15.049  0.3720 -0.3401  1.2918
 1899SOL    HW217331   1.967   4.301  14.929  1.3531  1.2221  0.9956
 1900SOL     OW17332   2.872   3.561   5.370 -0.6685  0.3774 -0.0278
 1900SOL    HW117333   2.786   3.527   5.346 -1.2773  1.7758  0.1526
 1900SOL    HW217334   2.908   3.581   5.284  0.9658 -0.2577  0.5057
 1901SOL     OW17335   3.405   3.457   8.976 -0.3800 -0.1157  0.4087
 1901SOL    HW117336   3.344   3.408   9.031  1.5968 -3.7409 -0.6377
 1901SOL    HW217337   3.487   3.459   9.024  1.8792  0.3816 -3.4276
 1902SOL     OW17338   2.370   1.413   4.256 -0.1910  0.1575 -0.5741
 1902SOL    HW117339   2.313   1.352   4.304  1.9160 -0.0305  1.6786
 1902SOL    HW217340   2.451   1.362   4.255  0.6544  1.5004 -0.7237
 1903SOL     OW17341   1.252   1.328   0.447 -0.2962 -0.2082 -0.0883
 1903SOL    HW117342   1.342   1.357   0.433 -1.1801  1.4413 -2.4040
 1903SOL    HW217343   1.218   1.331   0.358 -2.4562  2.5699  0.8114
 1904SOL     OW17344   4.455   3.058  17.009 -0.1568 -0.9557 -0.4041
 1904SOL    HW117345   4.489   3.121  17.072  0.8314  0.0622 -1.9259
 1904SOL    HW217346   4.523   2.991  17.000  0.5483 -0.3753  0.5871
 1905SOL     OW17347   4.481   2.108  13.349 -0.5811 -0.4581 -0.0302
 1905SOL    HW117348   4.467   2.071  13.263 -2.5439  0.1054  0.0541
 1905SOL    HW217349   4.404   2.158  13.375 -0.4933 -0.2417 -0.1884
 1906SOL     OW17350   3.546   1.875  12.989  0.4685  0.0667  0.3190
 1906SOL    HW117351   3.487   1.906  13.057  1.8935 -1.3625  2.2042
 1906SOL    HW217352   3.629   1.855  13.033  0.5899 -1.5084 -0.6100
 1907SOL     OW17353   2.540   1.231   4.621  0.7518  0.2037 -0.0533
 1907SOL    HW117354   2.464   1.239   4.565 -1.0013  0.3398  2.3365
 1907SOL    HW217355   2.575   1.150   4.584 -1.5614 -0.7739 -0.0705
 1908SOL     OW17356   4.542   2.391  15.999  0.1120  0.1131 -0.1830
 1908SOL    HW117357   4.462   2.390  16.052 -0.5492 -0.5089 -1.1908
 1908SOL    HW217358   4.508   2.371  15.911 -0.6613  1.6125 -0.2236
 1909SOL     OW17359   1.608   1.664   3.483  0.1152 -0.2670  0.2637
 1909SOL    HW117360   1.603   1.727   3.555 -3.6819 -2.4301  1.8582
 1909SOL    HW217361   1.561   1.717   3.418 -1.4033 -1.1410  0.6711
 1910SOL     OW17362   2.584   2.977  10.789  0.3932  0.4292 -0.3742
 1910SOL    HW117363   2.631   2.917  10.731  0.2234 -1.4562  1.4643
 1910SOL    HW217364   2.596   3.049  10.727  0.8511 -0.2865 -1.1134
 1911SOL     OW17365   4.349   1.161   8.301  0.7894 -0.2058  0.1294
 1911SOL    HW117366   4.318   1.094   8.240  1.3636 -1.4798  1.2324
 1911SOL    HW217367   4.358   1.230   8.235  0.3346 -0.2593  0.0135
 1912SOL     OW17368   3.688   2.921   6.990 -0.1697  0.0189 -0.0425
 1912SOL    HW117369   3.603   2.958   7.014 -0.3272 -0.0160 -0.5579
 1912SOL    HW217370   3.732   2.910   7.075  0.5942  0.5086 -0.3771
 1913SOL     OW17371   3.854   0.859   1.895  0.0289  0.5532 -0.0529
 1913SOL    HW117372   3.831   0.795   1.963  1.0198 -0.7134 -0.8957
 1913SOL    HW217373   3.828   0.817   1.813 -0.8184 -0.0933  0.5459
 1914SOL     OW17374   1.962   3.164   2.851  0.3642 -0.1234  0.3663
 1914SOL    HW117375   1.927   3.091   2.901 -0.3313  1.3189  2.0155
 1914SOL    HW217376   1.918   3.240   2.890  0.7667  0.5613 -0.4863
 1915SOL     OW17377   3.638   3.920  11.723  0.3722  0.1734  0.1182
 1915SOL    HW117378   3.653   3.832  11.758  0.4398 -0.3955 -1.3202
 1915SOL    HW217379   3.574   3.953  11.785  0.2773  0.8889 -0.3475
 1916SOL     OW17380   2.748   0.153  11.433  0.7835  1.1117  0.1351
 1916SOL    HW117381   2.814   0.182  11.370  1.5691  0.4606  0.6548
 1916SOL    HW217382   2.669   0.194  11.399 -0.0089  0.6899  1.4515
 1917SOL     OW17383   3.793   0.390   8.983  0.0571  0.3145 -0.1269
 1917SOL    HW117384   3.712   0.340   8.973  0.1736 -0.3088  2.0182
 1917SOL    HW217385   3.850   0.331   9.032 -1.1471  0.2206  1.1548
 1918SOL     OW17386   3.954   0.667   3.092 -0.4870 -0.1698 -0.5443
 1918SOL    HW117387   4.003   0.725   3.150 -2.4051  0.7611  0.1268
 1918SOL    HW217388   3.894   0.726   3.048 -1.6304 -3.2503 -3.1277
 1919SOL     OW17389   0.898   2.320   3.139  0.2948 -0.3012  0.0791
 1919SOL    HW117390   0.936   2.384   3.199  0.4723 -1.7997  1.5594
 1919SOL    HW217391   0.824   2.284   3.188  1.3385 -0.9389  1.1899
 1920SOL     OW17392   3.248   1.018   3.174 -0.0225 -0.2974 -0.1026
 1920SOL    HW117393   3.204   1.096   3.208  2.7789  0.9433  0.6345
 1920SOL    HW217394   3.214   1.033   3.085  1.9488  2.2243 -0.4495
 1921SOL     OW17395   2.710   0.126   2.422  0.0823  0.4283  0.4098
 1921SOL    HW117396   2.678   0.063   2.487 -2.3897  0.4844 -0.7862
 1921SOL    HW217397   2.631   0.170   2.393  0.5036 -0.6036 -2.3001
 1922SOL     OW17398   3.504   1.262   5.305 -0.5040 -0.3661  0.3942
 1922SOL    HW117399   3.553   1.195   5.352  0.1185 -0.1938 -0.0030
 1922SOL    HW217400   3.488   1.320   5.379  0.0628 -0.9504  0.9762
 1923SOL     OW17401   1.385   0.971  13.091  0.1253 -0.2521  0.7050
 1923SOL    HW117402   1.334   0.913  13.148  0.2364  2.0059  3.1602
 1923SOL    HW217403   1.323   0.978  13.018 -0.4380  1.5969  1.3482
 1924SOL     OW17404   1.114   3.780   0.184 -0.4437 -0.0989 -0.4860
 1924SOL    HW117405   1.132   3.730   0.263 -1.5212  0.1205 -0.0909
 1924SOL    HW217406   1.172   3.750   0.115  0.3844 -0.0308  0.1861
 1925SOL     OW17407   0.184   3.173   7.561  0.5543  0.3488 -0.1559
 1925SOL    HW117408   0.264   3.139   7.519 -1.9499 -2.9503 -2.3113
 1925SOL    HW217409   0.196   3.266   7.542 -0.4458  0.6861  0.9151
 1926SOL     OW17410   2.588   0.552   7.904 -0.2095  0.1171  0.7361
 1926SOL    HW117411   2.595   0.645   7.882 -0.2897  0.4715  2.2050
 1926SOL    HW217412   2.500   0.533   7.871  0.4093 -0.2840 -0.6410
 1927SOL     OW17413   2.782   3.733   0.888  0.1674 -0.1269 -0.0755
 1927SOL    HW117414   2.742   3.693   0.966 -1.5213  1.2742 -0.2352
 1927SOL    HW217415   2.874   3.715   0.907 -0.1837 -0.1357  1.6355
 1928SOL     OW17416   0.915   0.639   3.408  0.1556  0.3140  0.1801
 1928SOL    HW117417   0.977   0.645   3.481 -0.7011 -0.3535  0.9586
 1928SOL    HW217418   0.927   0.725   3.369  0.0551 -0.6216 -1.9377
 1929SOL     OW17419   4.652   1.578   6.368 -0.9810  1.1112 -0.1888
 1929SOL    HW117420   4.590   1.512   6.400 -0.8334  1.5975  1.1192
 1929SOL    HW217421   4.726   1.558   6.426 -1.9544 -0.0090  0.6622
 1930SOL     OW17422   2.586   3.247   3.886 -0.2243  0.4077  0.3152
 1930SOL    HW117423   2.676   3.221   3.902  0.1242  1.9844  0.8981
 1930SOL    HW217424   2.587   3.291   3.801 -0.5617 -1.0354 -0.4541
 1931SOL     OW17425   1.341   1.571   8.507 -0.8246  0.0862 -0.2764
 1931SOL    HW117426   1.406   1.597   8.572 -0.3761  2.8009 -1.8323
 1931SOL    HW217427   1.257   1.597   8.545 -0.5712  0.0456  0.3138
 1932SOL     OW17428   1.484   0.772   8.370  0.2611 -0.1323  0.0103
 1932SOL    HW117429   1.489   0.866   8.386  3.3030 -0.4763  0.9711
 1932SOL    HW217430   1.523   0.736   8.450 -1.5809  0.0835  1.0187
 1933SOL     OW17431   4.041   1.932  14.961  0.4545 -0.3109 -0.0630
 1933SOL    HW117432   4.006   1.904  14.877 -1.1151  3.3528 -0.6575
 1933SOL    HW217433   4.126   1.967  14.937  0.4700  1.9459  3.1908
 1934SOL     OW17434   0.937   2.181   7.829  0.3387 -0.7289  0.4652
 1934SOL    HW117435   0.844   2.196   7.812  0.5876 -0.2135 -0.4173
 1934SOL    HW217436   0.945   2.086   7.839  1.0028 -0.9237 -1.9077
 1935SOL     OW17437   0.277   1.555   7.463  0.0380  0.0354  0.2409
 1935SOL    HW117438   0.196   1.570   7.415 -0.7155 -2.1279  0.8573
 1935SOL    HW217439   0.257   1.474   7.509  2.1672  0.2718  1.6085
 1936SOL     OW17440   2.904   2.280  17.509  0.5055 -0.1989 -0.1857
 1936SOL    HW117441   2.834   2.215  17.512  0.9868 -0.6047  1.5939
 1936SOL    HW217442   2.938   2.271  17.597  0.4658 -1.0898 -0.2593
 1937SOL     OW17443   2.462   2.180   0.919 -0.5097 -0.0681 -0.2018
 1937SOL    HW117444   2.541   2.233   0.914  0.2163 -1.2863 -1.8666
 1937SOL    HW217445   2.495   2.094   0.893 -2.8174 -0.7333 -0.9741
 1938SOL     OW17446   3.741   1.219  17.153 -0.4175  0.7532 -0.4378
 1938SOL    HW117447   3.651   1.185  17.149  0.1889 -0.9794  0.6892
 1938SOL    HW217448   3.724   1.308  17.181 -0.4648  0.2642  1.0659
 1939SOL     OW17449   1.583   4.367   7.707  0.1360  0.0959  0.0094
 1939SOL    HW117450   1.660   4.420   7.689  0.6437 -1.5111 -2.6121
 1939SOL    HW217451   1.512   4.430   7.712  0.1951  0.0862  0.9414
 1940SOL     OW17452   4.553   1.702  12.134 -0.4345  0.4828  0.8414
 1940SOL    HW117453   4.581   1.618  12.168 -0.8991 -1.7530 -4.2609
 1940SOL    HW217454   4.472   1.680  12.089 -0.6933  2.4971  0.3008
 1941SOL     OW17455   4.637   2.728   6.996  0.6878  0.3400 -0.1942
 1941SOL    HW117456   4.545   2.751   6.982  1.0627  0.5406 -2.2961
 1941SOL    HW217457   4.665   2.708   6.907  0.0043 -1.8937  0.0826
 1942SOL     OW17458   4.437   0.073   2.383 -0.3684  0.6764 -0.0243
 1942SOL    HW117459   4.347   0.043   2.372  0.4883 -2.1228  0.5285
 1942SOL    HW217460   4.447   0.064   2.477 -1.8011 -0.3268  0.0359
 1943SOL     OW17461   0.944   4.043   2.924 -0.3444  0.0457 -0.1198
 1943SOL    HW117462   0.883   4.095   2.872  1.0111  0.8648 -0.9080
 1943SOL    HW217463   1.011   4.111   2.929 -0.1959 -0.0556 -0.7517
 1944SOL     OW17464   1.290   4.602   4.460 -0.1894  0.4750  1.1478
 1944SOL    HW117465   1.237   4.574   4.385 -0.0475  2.3460  0.3357
 1944SOL    HW217466   1.341   4.663   4.407  0.3570 -0.5603  0.4738
 1945SOL     OW17467   0.044   3.214   8.734  0.5589  0.0302 -0.0558
 1945SOL    HW117468   4.690   3.224   8.733  0.7500  1.6975 -0.8367
 1945SOL    HW217469   0.067   3.246   8.821  0.6199 -0.6358  0.1760
 1946SOL     OW17470   2.137   0.391   5.876 -0.6870  0.2218 -0.0019
 1946SOL    HW117471   2.220   0.437   5.865 -1.3707  1.3909 -0.3411
 1946SOL    HW217472   2.154   0.310   5.829 -2.0086  0.1247 -0.3272
 1947SOL     OW17473   4.033   2.549   3.898  0.0064 -0.0331 -0.1875
 1947SOL    HW117474   4.057   2.527   3.988  1.7466 -0.2985 -0.7056
 1947SOL    HW217475   3.996   2.636   3.912 -2.1402 -0.6409 -2.0523
 1948SOL     OW17476   2.425   2.374   5.093 -0.2304  0.3850  0.7701
 1948SOL    HW117477   2.418   2.278   5.096  0.0866  0.3010 -1.2743
 1948SOL    HW217478   2.512   2.390   5.057 -0.1815 -3.0564 -0.6575
 1949SOL     OW17479   3.778   1.362   5.754  0.0402  0.5281 -0.3935
 1949SOL    HW117480   3.867   1.391   5.773  0.2471 -0.2750 -0.1258
 1949SOL    HW217481   3.794   1.291   5.691 -2.1402  0.5119 -0.9319
 1950SOL     OW17482   1.553   2.115   8.242  0.0549  0.3672  0.1005
 1950SOL    HW117483   1.549   2.026   8.278  1.2300  0.5129  0.5778
 1950SOL    HW217484   1.555   2.177   8.315  0.6507  0.8507 -0.3289
 1951SOL     OW17485   2.815   1.248   0.403 -0.6905  0.0733  0.0280
 1951SOL    HW117486   2.753   1.224   0.333  0.6000 -4.4900  0.4000
 1951SOL    HW217487   2.877   1.178   0.382  0.0859  0.8472 -0.2655
 1952SOL     OW17488   3.818   0.790   1.565 -0.2405  0.1869  0.4824
 1952SOL    HW117489   3.738   0.739   1.576 -1.1310  1.4745 -0.0635
 1952SOL    HW217490   3.881   0.732   1.609  0.2937 -0.1940 -0.7956
 1953SOL     OW17491   1.419   1.193   6.484  0.4719 -0.6304  0.4058
 1953SOL    HW117492   1.496   1.244   6.462  0.0818  1.4812  3.9335
 1953SOL    HW217493   1.354   1.260   6.461  0.3553  0.0209  2.6092
 1954SOL     OW17494   0.836   0.721   2.677  0.3013  0.0234  0.3755
 1954SOL    HW117495   0.913   0.738   2.731 -0.2398  1.2628  0.7462
 1954SOL    HW217496   0.809   0.637   2.715  1.0701  0.0194  0.9264
 1955SOL     OW17497   3.512   1.399   4.077 -0.1187  0.0149 -0.4038
 1955SOL    HW117498   3.544   1.357   3.997  1.0755  0.5112 -0.1792
 1955SOL    HW217499   3.517   1.325   4.138  0.4315 -0.2291 -0.7481
 1956SOL     OW17500   3.985   1.099   8.020 -0.5809  0.3392  0.1040
 1956SOL    HW117501   3.904   1.086   8.070  0.0109 -1.1509  0.6757
 1956SOL    HW217502   4.037   1.138   8.090 -0.7151  0.8952 -0.1017
 1957SOL     OW17503   0.034   0.161   6.443  0.1379  0.3537  0.3684
 1957SOL    HW117504   4.705   0.147   6.507 -1.1760  1.8740 -0.7352
 1957SOL    HW217505   0.032   0.073   6.403 -1.1524  1.1403 -1.2843
 1958SOL     OW17506   3.123   0.957   3.493 -0.4047 -0.5618  0.1321
 1958SOL    HW117507   3.155   1.047   3.488 -0.1386 -0.5188  2.8421
 1958SOL    HW217508   3.029   0.970   3.500 -0.7833 -2.2729 -1.6460
 1959SOL     OW17509   4.327   1.131   5.534 -0.8575 -0.8463 -0.0704
 1959SOL    HW117510   4.403   1.187   5.516 -0.0360 -0.5892  4.3223
 1959SOL    HW217511   4.366   1.074   5.600  0.1926  1.9609  1.7393
 1960SOL     OW17512   4.506   1.286  16.683 -0.4490  0.9043  0.2304
 1960SOL    HW117513   4.415   1.315  16.689 -1.0631 -0.8021 -0.6651
 1960SOL    HW217514   4.534   1.285  16.591 -0.6747  1.6379  0.1543
 1961SOL     OW17515   0.596   3.724   8.023  0.2268  0.3016  0.2863
 1961SOL    HW117516   0.530   3.656   8.041  0.3053 -0.4532 -2.2525
 1961SOL    HW217517   0.590   3.775   8.103 -1.0108  0.3589  0.1606
 1962SOL     OW17518   3.878   3.291   9.087 -0.0666 -0.1297  0.4179
 1962SOL    HW117519   3.933   3.225   9.046 -1.3180  1.5679 -3.9373
 1962SOL    HW217520   3.849   3.259   9.173 -2.3475 -3.2563 -1.5107
 1963SOL     OW17521   3.506   3.419   2.067  0.7554 -0.2952  0.3628
 1963SOL    HW117522   3.418   3.383   2.062 -0.3141  2.3549  0.1585
 1963SOL    HW217523   3.516   3.451   1.978 -1.6768 -0.9733 -0.1620
 1964SOL     OW17524   1.392   3.160   3.164 -0.1611  0.1492 -0.0107
 1964SOL    HW117525   1.366   3.067   3.164 -0.0208  0.0999  1.2191
 1964SOL    HW217526   1.478   3.161   3.123  0.0556  2.5179  0.5185
 1965SOL     OW17527   0.517   1.566  10.703 -0.5296  0.4571 -0.4486
 1965SOL    HW117528   0.497   1.500  10.637 -2.1614 -0.4974  0.9945
 1965SOL    HW217529   0.601   1.598  10.671 -0.6817  0.1422 -1.1593
 1966SOL     OW17530   3.074   4.026   6.241  0.1447 -0.6880 -0.3654
 1966SOL    HW117531   3.002   3.963   6.252  0.9227 -1.1786  1.8645
 1966SOL    HW217532   3.121   3.979   6.172 -1.0488 -0.5910 -1.2556
 1967SOL     OW17533   4.306   2.767  13.826 -0.5828  0.7023 -0.0513
 1967SOL    HW117534   4.301   2.746  13.919  2.4385 -1.8230 -0.4848
 1967SOL    HW217535   4.321   2.678  13.793  0.3509  1.1193 -0.7556
 1968SOL     OW17536   2.062   0.369   6.887  0.0626 -0.2687  0.1033
 1968SOL    HW117537   2.111   0.338   6.963  0.5739 -0.3692 -0.2693
 1968SOL    HW217538   2.019   0.449   6.918 -0.5095 -0.1084 -1.1281
 1969SOL     OW17539   2.204   2.655   5.275  0.3207 -0.1892 -0.2604
 1969SOL    HW117540   2.179   2.703   5.354 -2.1602 -0.8546 -0.6386
 1969SOL    HW217541   2.225   2.721   5.209 -1.2386 -0.1935 -0.7680
 1970SOL     OW17542   3.803   1.093   2.158 -0.0508 -0.5420 -0.3512
 1970SOL    HW117543   3.895   1.096   2.132 -0.1119  3.3172 -0.1785
 1970SOL    HW217544   3.793   1.002   2.185  0.5060 -1.3394 -2.8309
 1971SOL     OW17545   4.310   3.579   7.405 -0.3871 -0.0901  0.3305
 1971SOL    HW117546   4.243   3.642   7.432  1.9259  2.1736  0.7890
 1971SOL    HW217547   4.329   3.540   7.490  2.2972  0.3554 -0.0558
 1972SOL     OW17548   1.091   3.934   2.261  0.5001  0.1601  0.4479
 1972SOL    HW117549   1.107   4.026   2.282 -0.3198  0.6048 -0.8713
 1972SOL    HW217550   1.058   3.897   2.343 -1.1181  0.0271 -0.2729
 1973SOL     OW17551   3.946   2.067   7.205 -0.1572  0.3899  0.3828
 1973SOL    HW117552   3.974   1.996   7.146 -0.3121 -0.8444  1.7881
 1973SOL    HW217553   3.947   2.134   7.136  0.8040  0.1190  0.1265
 1974SOL     OW17554   0.671   3.493   8.780 -0.4928 -0.4689 -0.3701
 1974SOL    HW117555   0.691   3.407   8.817 -0.6935 -0.5758 -0.5052
 1974SOL    HW217556   0.575   3.496   8.772 -0.5554 -1.3428  0.0356
 1975SOL     OW17557   3.318   2.828   2.590 -0.0375 -0.5492  0.0408
 1975SOL    HW117558   3.225   2.849   2.601  0.2932  1.4334 -1.0118
 1975SOL    HW217559   3.345   2.843   2.681  0.8567  0.7800 -0.4424
 1976SOL     OW17560   0.844   1.105   4.771  0.1875 -0.4278 -0.8950
 1976SOL    HW117561   0.885   1.187   4.747  2.3836 -0.8734  1.3287
 1976SOL    HW217562   0.917   1.064   4.817  2.0758  1.1925 -2.4741
 1977SOL     OW17563   0.454   2.310   6.204 -0.0753  0.0664 -0.2321
 1977SOL    HW117564   0.397   2.350   6.138  0.9698  0.1779 -1.0739
 1977SOL    HW217565   0.514   2.381   6.228  2.3339 -2.2966  0.6178
 1978SOL     OW17566   4.567   0.011   5.383 -0.5330  0.0896  0.0221
 1978SOL    HW117567   4.599   0.051   5.464 -1.8914  2.4311 -0.5822
 1978SOL    HW217568   4.638   4.692   5.360 -1.2710 -0.1623 -1.5931
 1979SOL     OW17569   0.023   1.019   7.787  0.0303 -0.3023 -0.2336
 1979SOL    HW117570   0.049   1.100   7.831  1.7839 -0.6413 -0.6362
 1979SOL    HW217571   0.101   0.965   7.797  0.3056 -0.2228 -1.8994
 1980SOL     OW17572   3.918   2.709   5.356 -0.0468  0.3609 -0.2076
 1980SOL    HW117573   3.941   2.640   5.294 -0.2960 -1.2771  1.5441
 1980SOL    HW217574   3.922   2.667   5.442 -2.2404  0.0877 -0.2302
 1981SOL     OW17575   3.499   4.298   4.571  0.0080 -0.1972  0.2442
 1981SOL    HW117576   3.417   4.345   4.584  0.3267  0.8986 -1.8097
 1981SOL    HW217577   3.561   4.354   4.524  0.3008 -0.4537  0.3237
 1982SOL     OW17578   4.647   4.560  11.403 -0.3477 -0.5115 -0.2186
 1982SOL    HW117579   4.584   4.540  11.472  1.5951 -1.0580  1.4123
 1982SOL    HW217580   4.722   4.513  11.439 -0.3221 -1.2309 -1.2057
 1983SOL     OW17581   3.788   3.774   2.578 -0.3807  0.2498  0.1878
 1983SOL    HW117582   3.723   3.716   2.539  1.3244 -0.3942 -1.6546
 1983SOL    HW217583   3.865   3.736   2.536  0.6989  2.1456  0.4376
 1984SOL     OW17584   2.217   4.715   9.060  0.1070 -0.3258  0.5337
 1984SOL    HW117585   2.192   4.637   9.010 -2.8430  0.2861  1.0498
 1984SOL    HW217586   2.240   4.671   9.142 -2.2961 -0.6555  1.0425
 1985SOL     OW17587   3.185   0.200   7.369  0.0021  0.3042 -0.4646
 1985SOL    HW117588   3.235   0.282   7.373  0.7771 -0.2008  0.3705
 1985SOL    HW217589   3.256   0.139   7.349 -1.6786 -1.8812  0.1478
 1986SOL     OW17590   3.168   1.657   8.000 -0.6695  0.2754 -0.1245
 1986SOL    HW117591   3.104   1.699   8.058 -3.9307 -2.6208 -1.5884
 1986SOL    HW217592   3.113   1.623   7.930 -0.3257  0.4654 -0.4856
 1987SOL     OW17593   3.592   1.906   5.906 -0.2289 -0.6606  0.3141
 1987SOL    HW117594   3.657   1.838   5.921 -0.9174 -1.7851 -1.7473
 1987SOL    HW217595   3.522   1.884   5.968 -0.5544 -0.9041 -0.1383
 1988SOL     OW17596   4.438   1.119   3.274  0.2906  0.3789 -0.2454
 1988SOL    HW117597   4.450   1.181   3.347  0.0210  0.3228 -0.1546
 1988SOL    HW217598   4.358   1.155   3.235  0.7300  1.9105  0.2490
 1989SOL     OW17599   0.881   4.168   0.540 -0.2281 -0.0363 -0.4401
 1989SOL    HW117600   0.836   4.252   0.552  1.2720  0.7426 -0.2962
 1989SOL    HW217601   0.826   4.130   0.471 -1.0839  0.5123 -0.0611
 1990SOL     OW17602   0.225   4.215  12.572 -0.9260  0.0536  0.1648
 1990SOL    HW117603   0.212   4.162  12.493  0.7911  0.9555 -0.7218
 1990SOL    HW217604   0.240   4.150  12.641  0.5531  1.9522  1.5962
 1991SOL     OW17605   2.990   4.224   6.830  0.4707  0.0444  0.1287
 1991SOL    HW117606   2.990   4.312   6.792  0.8446 -0.6807 -1.5477
 1991SOL    HW217607   3.034   4.246   6.912 -0.7189 -0.8369  1.0048
 1992SOL     OW17608   3.164   4.016   5.966  0.0569  0.1763  0.1211
 1992SOL    HW117609   3.177   3.996   5.873 -1.5295 -2.1737  0.3954
 1992SOL    HW217610   3.251   3.991   5.999  0.2819  1.2825  0.3804
 1993SOL     OW17611   0.274   4.239   7.264  0.1258 -0.5564 -0.1841
 1993SOL    HW117612   0.312   4.157   7.231  2.1049 -0.5651  2.1023
 1993SOL    HW217613   0.294   4.235   7.358  0.8012  1.3997 -0.2534
 1994SOL     OW17614   3.711   0.610   0.347  0.1972 -0.3441  0.1372
 1994SOL    HW117615   3.796   0.622   0.304  0.1940 -0.3338  0.1338
 1994SOL    HW217616   3.667   0.625   0.263  1.0139  0.8850 -0.0663
 1995SOL     OW17617   0.608   2.283   2.107 -0.1777 -0.2340  0.2404
 1995SOL    HW117618   0.689   2.333   2.102 -0.2050 -0.2625 -0.4736
 1995SOL    HW217619   0.648   2.197   2.121 -1.2629 -0.6493  0.7595
 1996SOL     OW17620   3.875   1.590   5.355 -0.2679 -0.1460  0.0635
 1996SOL    HW117621   3.817   1.659   5.322 -0.5210 -1.3188 -1.9408
 1996SOL    HW217622   3.961   1.631   5.351  0.2068 -0.9462  2.2249
 1997SOL     OW17623   0.519   2.206   9.284 -0.0428  0.2284  0.0985
 1997SOL    HW117624   0.560   2.149   9.349  0.7324  1.5849  0.7898
 1997SOL    HW217625   0.427   2.201   9.309  0.2434 -0.0099  1.0886
 1998SOL     OW17626   1.247   2.692   9.722 -0.0699  0.4110 -0.0055
 1998SOL    HW117627   1.337   2.659   9.722 -0.4981 -0.7363 -1.1972
 1998SOL    HW217628   1.231   2.692   9.817  1.7079 -0.9690  0.2862
 1999SOL     OW17629   3.619   2.412  13.617  0.1811  0.3612  0.2662
 1999SOL    HW117630   3.710   2.416  13.586  0.7724 -2.4200  1.6282
 1999SOL    HW217631   3.576   2.349  13.560  0.3652 -0.9339  1.5633
 2000SOL     OW17632   2.770   1.991   0.152 -0.4217 -0.5237  0.6215
 2000SOL    HW117633   2.681   2.019   0.173 -0.9712  0.8734 -3.4834
 2000SOL    HW217634   2.763   1.925   0.082 -0.2033  1.3233 -1.1343
 2001SOL     OW17635   2.343   0.496   3.329 -0.0613  0.1882  0.1751
 2001SOL    HW117636   2.429   0.514   3.291  1.1873 -0.4973  2.6777
 2001SOL    HW217637   2.374   0.438   3.399 -0.6021  2.1469  2.0102
 2002SOL     OW17638   3.972   4.149   4.783  0.1181 -0.0880  0.1841
 2002SOL    HW117639   4.051   4.106   4.749  0.5273  1.0696 -0.3314
 2002SOL    HW217640   3.906   4.086   4.753  0.1300 -0.1404  0.2671
 2003SOL     OW17641   4.561   0.778   2.041 -0.0431 -0.1204 -0.0206
 2003SOL    HW117642   4.489   0.715   2.042  0.9422 -1.2368  0.5348
 2003SOL    HW217643   4.524   0.863   2.017  1.8925  0.5401 -0.6857
 2004SOL     OW17644   1.293   3.739   4.621 -0.2645  0.3604  0.2304
 2004SOL    HW117645   1.233   3.793   4.673 -0.2883 -0.5639  1.1738
 2004SOL    HW217646   1.373   3.787   4.642 -1.2480  1.5997  1.1561
 2005SOL     OW17647   4.245   3.238   3.203  0.1706  0.2390  0.0478
 2005SOL    HW117648   4.257   3.146   3.181  1.5591  0.5041 -0.3239
 2005SOL    HW217649   4.265   3.270   3.115  1.9844 -2.8226 -0.6464
 2006SOL     OW17650   2.301   0.624   2.804 -0.0704 -0.1370 -0.6731
 2006SOL    HW117651   2.315   0.708   2.849 -0.0808  0.3538 -1.5776
 2006SOL    HW217652   2.387   0.604   2.768  0.7430 -0.2715  1.3807
 2007SOL     OW17653   0.473   3.211   8.462  0.4646 -0.0230  0.0832
 2007SOL    HW117654   0.450   3.231   8.371  2.6983 -0.2704 -0.5291
 2007SOL    HW217655   0.403   3.150   8.489 -1.9446  3.2590  1.2293
 2008SOL     OW17656   3.139   4.705  10.078  0.2224 -0.2613 -0.2927
 2008SOL    HW117657   3.195   4.712  10.001  1.4763 -0.4438  0.6004
 2008SOL    HW217658   3.051   4.715  10.041 -0.2609  0.0104  0.9413
 2009SOL     OW17659   1.917   2.094   9.436  0.1971 -0.2006  0.7363
 2009SOL    HW117660   1.887   2.004   9.451 -1.7608  0.4699  0.8366
 2009SOL    HW217661   1.944   2.089   9.345  0.2452 -0.1491  0.7483
 2010SOL     OW17662   3.775   0.113  15.696 -0.3271 -0.2697 -0.5177
 2010SOL    HW117663   3.808   0.176  15.633 -0.1217  1.2760  1.1185
 2010SOL    HW217664   3.712   0.167  15.745 -0.6082 -0.2270 -0.9222
 2011SOL     OW17665   3.643   4.269   2.417  0.2769 -0.3002  0.3550
 2011SOL    HW117666   3.639   4.321   2.336 -0.4513 -0.6059  0.1985
 2011SOL    HW217667   3.563   4.217   2.417  2.3097 -3.4004  1.3885
 2012SOL     OW17668   0.143   0.182   5.437 -0.5135  0.1020  0.0687
 2012SOL    HW117669   0.231   0.157   5.467 -0.2630  1.1923  0.2314
 2012SOL    HW217670   0.120   0.113   5.375  1.1823  0.7528 -1.2791
 2013SOL     OW17671   1.357   2.939   3.990 -0.8194 -0.4567  0.2820
 2013SOL    HW117672   1.387   2.982   4.070  0.4863  0.9931 -0.9769
 2013SOL    HW217673   1.285   3.002   3.980  1.2384  1.6303 -1.2686
 2014SOL     OW17674   1.358   3.351   3.797  0.5765 -0.1519 -0.4254
 2014SOL    HW117675   1.308   3.304   3.730 -0.1312 -0.9540  0.6525
 2014SOL    HW217676   1.288   3.399   3.842 -0.6609 -2.5118  0.1736
 2015SOL     OW17677   4.380   3.310   1.675 -0.3921  0.2363  0.3641
 2015SOL    HW117678   4.406   3.341   1.762  0.3622  1.3490 -0.2566
 2015SOL    HW217679   4.453   3.269   1.629 -0.4920  0.2120  0.2278
 2016SOL     OW17680   1.529   4.732   1.356 -0.8545  0.5197  0.5050
 2016SOL    HW117681   1.552   4.640   1.339  0.7132  1.0113  0.0284
 2016SOL    HW217682   1.589   0.014   1.426 -1.8146  0.4606  1.3520
 2017SOL     OW17683   4.048   1.710   9.706 -0.0433  0.2062  0.1416
 2017SOL    HW117684   3.973   1.746   9.753  0.9753 -0.1546  2.0101
 2017SOL    HW217685   4.074   1.639   9.765 -1.6657 -0.5008  0.0236
 2018SOL     OW17686   1.454   3.631  13.753 -0.1832 -0.3581 -0.2733
 2018SOL    HW117687   1.440   3.543  13.720  1.9191 -0.8140  0.0353
 2018SOL    HW217688   1.375   3.672  13.717 -0.4429  0.5573  1.3248
 2019SOL     OW17689   3.357   2.208   3.100 -0.2676 -0.0596 -0.1445
 2019SOL    HW117690   3.327   2.120   3.076  1.9030 -1.3043  1.7277
 2019SOL    HW217691   3.324   2.260   3.027 -1.1937 -1.5842 -0.8246
 2020SOL     OW17692   0.064   0.796   1.875  0.1375 -0.1697 -0.4885
 2020SOL    HW117693   0.010   0.863   1.834 -0.3208  0.8673  1.8089
 2020SOL    HW217694   4.737   0.748   1.923  2.1914  0.1584  2.7558
 2021SOL     OW17695   0.360   0.950  16.774 -0.3207  0.0490  0.6483
 2021SOL    HW117696   0.361   0.923  16.866  1.0936  0.0701  0.6421
 2021SOL    HW217697   0.336   1.041  16.793  2.7151  1.0253 -0.2278
 2022SOL     OW17698   0.751   0.399  10.098 -0.1322 -0.4664  0.0490
 2022SOL    HW117699   0.656   0.396  10.083 -0.5221 -0.6867  2.7028
 2022SOL    HW217700   0.771   0.482  10.054 -2.0922  0.0429  0.0902
 2023SOL     OW17701   4.291   3.088   9.289  0.2579  0.2353  0.3393
 2023SOL    HW117702   4.386   3.089   9.286  0.2992 -0.6628  1.4702
 2023SOL    HW217703   4.278   3.087   9.194  2.6628 -2.0807  0.0546
 2024SOL     OW17704   0.790   1.014   4.512  0.2166  0.5433  0.2756
 2024SOL    HW117705   0.858   0.946   4.507  0.8373  1.0839  1.3177
 2024SOL    HW217706   0.794   1.032   4.606 -3.4492  1.7582  0.1894
 2025SOL     OW17707   2.585   2.901   5.929  0.4767  0.6178  0.7463
 2025SOL    HW117708   2.531   2.921   6.005  0.2155  2.2522  0.1239
 2025SOL    HW217709   2.528   2.887   5.853  0.4427  0.5552  0.7840
 2026SOL     OW17710   0.760   0.356   1.554 -0.5332 -0.2080  0.1478
 2026SOL    HW117711   0.684   0.405   1.523 -1.0250 -1.1099 -0.0957
 2026SOL    HW217712   0.809   0.420   1.605 -1.1194  0.6572 -0.3770
 2027SOL     OW17713   0.294   4.696   3.187  0.2159  0.2467  0.0964
 2027SOL    HW117714   0.276   0.048   3.172 -2.5795 -0.5099 -1.2178
 2027SOL    HW217715   0.375   4.696   3.238 -0.4403  0.8506  1.1405
 2028SOL     OW17716   1.102   2.356   5.836 -0.3428  0.6564  0.3320
 2028SOL    HW117717   1.138   2.319   5.756 -2.4650 -0.2269 -0.2035
 2028SOL    HW217718   1.058   2.282   5.878  0.9352  0.0293  0.5443
 2029SOL     OW17719   1.738   3.435  13.144 -0.1570  0.1323  0.0850
 2029SOL    HW117720   1.803   3.482  13.091 -1.2281  2.1170  0.5307
 2029SOL    HW217721   1.776   3.465  13.227  1.4357  1.4100 -1.0940
 2030SOL     OW17722   2.689   1.669   3.680  0.1782  0.3019  0.4946
 2030SOL    HW117723   2.630   1.681   3.606  0.7257 -1.0303 -0.1660
 2030SOL    HW217724   2.661   1.744   3.733 -0.3226  2.1256 -2.3569
 2031SOL     OW17725   4.231   1.627  14.529  0.1246  0.5751 -0.1329
 2031SOL    HW117726   4.294   1.556  14.517 -1.7633 -1.3584  1.3071
 2031SOL    HW217727   4.208   1.655  14.441 -1.5910  1.6593  0.6775
 2032SOL     OW17728   0.540   2.199  16.089 -0.3892 -0.2028  0.5072
 2032SOL    HW117729   0.502   2.286  16.101  2.9830  1.3259  0.1475
 2032SOL    HW217730   0.491   2.177  16.011 -1.9054  1.1839  1.0614
 2033SOL     OW17731   0.753   0.815  16.017 -0.5746  0.5684  0.5295
 2033SOL    HW117732   0.719   0.727  16.000 -3.5668  1.5270  1.4387
 2033SOL    HW217733   0.782   0.816  16.109 -0.1394 -0.4063  0.4032
 2034SOL     OW17734   3.597   1.808  16.959  0.6708  0.0619  0.4312
 2034SOL    HW117735   3.525   1.860  16.993 -2.1497 -1.1694 -3.6014
 2034SOL    HW217736   3.664   1.819  17.026  0.8989 -0.5203  0.2946
 2035SOL     OW17737   0.011   3.213   3.021  0.1781 -0.0466 -0.0108
 2035SOL    HW117738   4.690   3.233   3.092  1.2328  1.3395  0.5368
 2035SOL    HW217739   0.065   3.138   3.046  0.7047 -0.3980 -2.2676
 2036SOL     OW17740   3.804   0.264   8.382 -0.4690 -0.1730  0.3806
 2036SOL    HW117741   3.829   0.264   8.474  0.2953  4.2692  0.1792
 2036SOL    HW217742   3.844   0.348   8.359  1.1694 -1.2268 -0.6297
 2037SOL     OW17743   3.730   2.241   6.179 -0.1248  0.0496  0.1686
 2037SOL    HW117744   3.654   2.286   6.142 -1.3078 -3.1782 -1.2599
 2037SOL    HW217745   3.700   2.204   6.262 -1.0366 -3.9675 -1.9417
 2038SOL     OW17746   0.007   2.135   5.053 -0.2383  0.2175  0.2277
 2038SOL    HW117747   4.716   2.083   4.979  0.2178  0.8098 -0.3896
 2038SOL    HW217748   0.082   2.084   5.084 -0.9593 -0.7570  0.3576
 2039SOL     OW17749   0.878   0.853   8.608  0.0087 -0.3575 -0.0055
 2039SOL    HW117750   0.915   0.899   8.532  2.3450 -0.3837  1.0993
 2039SOL    HW217751   0.826   0.787   8.562 -1.1642  1.4359 -1.2612
 2040SOL     OW17752   2.498   3.079   4.099 -0.3234  0.4072 -0.1922
 2040SOL    HW117753   2.590   3.063   4.077  0.4146  1.9301  1.6917
 2040SOL    HW217754   2.477   3.128   4.020 -0.9092  0.8726  0.2424
 2041SOL     OW17755   2.378   0.507   8.802  0.8218 -0.0994  0.3980
 2041SOL    HW117756   2.317   0.465   8.741  0.9660 -0.5382  0.5547
 2041SOL    HW217757   2.457   0.457   8.780 -0.0948 -1.9860  1.4057
 2042SOL     OW17758   4.735   0.387   7.631 -0.1522  0.0853  0.0772
 2042SOL    HW117759   0.082   0.420   7.652  1.3886 -2.4530 -2.4352
 2042SOL    HW217760   0.012   0.368   7.539  0.1207 -1.7728  0.5080
 2043SOL     OW17761   3.981   2.765  13.079  0.1922  0.4641  0.1880
 2043SOL    HW117762   3.925   2.792  13.152  0.3650  0.0762  0.4616
 2043SOL    HW217763   4.058   2.736  13.128  0.0311 -1.7860 -0.8864
 2044SOL     OW17764   3.221   4.083   7.702  0.1201 -0.0915 -0.0396
 2044SOL    HW117765   3.235   3.990   7.682 -0.5957  0.1193 -1.5626
 2044SOL    HW217766   3.300   4.118   7.662  2.6408 -3.8624  1.6618
 2045SOL     OW17767   0.449   3.302   4.797 -0.1180  0.0675 -0.0485
 2045SOL    HW117768   0.540   3.274   4.810 -0.1317  0.4190  0.8217
 2045SOL    HW217769   0.457   3.353   4.717 -3.0192  0.3263 -0.1814
 2046SOL     OW17770   1.368   2.244   4.215 -0.2479  0.0194 -0.0846
 2046SOL    HW117771   1.448   2.212   4.257 -0.4756 -1.7769 -1.0166
 2046SOL    HW217772   1.359   2.190   4.136 -2.7168 -0.9401  0.8586
 2047SOL     OW17773   1.391   4.186   6.239  0.5419 -0.8603 -0.3458
 2047SOL    HW117774   1.377   4.280   6.233 -0.5907 -1.0347 -0.4178
 2047SOL    HW217775   1.310   4.151   6.201 -0.1801 -0.3761  0.7501
 2048SOL     OW17776   0.914   1.680   4.848 -0.1975 -0.4196  0.0780
 2048SOL    HW117777   0.887   1.756   4.900  0.1359  0.0309 -0.4149
 2048SOL    HW217778   0.912   1.714   4.759  1.4961 -2.4937 -0.7737
 2049SOL     OW17779   4.262   2.494   5.717 -0.0012 -0.7145 -0.1547
 2049SOL    HW117780   4.305   2.548   5.650 -0.1274  0.5409  0.7991
 2049SOL    HW217781   4.194   2.448   5.667  0.1055  0.9323 -1.7934
 2050SOL     OW17782   3.150   0.597   6.964  0.0960  0.4633 -0.1477
 2050SOL    HW117783   3.214   0.532   6.936  2.7058  2.6189  0.8873
 2050SOL    HW217784   3.093   0.603   6.887  0.2991 -0.7786 -0.3922
 2051SOL     OW17785   1.033   0.897   5.860  0.2073 -0.4442 -0.5359
 2051SOL    HW117786   1.076   0.949   5.928  0.0844 -0.3270 -0.5492
 2051SOL    HW217787   0.949   0.943   5.864  0.3871 -0.4809  3.9514
 2052SOL     OW17788   1.981   3.815   4.067  0.3349 -0.6282 -0.7279
 2052SOL    HW117789   1.890   3.802   4.038  0.8788 -1.5099 -2.0227
 2052SOL    HW217790   1.983   3.748   4.136  1.9115 -1.0270 -1.1619
 2053SOL     OW17791   2.524   3.044   8.521 -0.3327  0.2529 -0.6631
 2053SOL    HW117792   2.552   3.108   8.456 -0.0842  0.0682 -0.7371
 2053SOL    HW217793   2.611   3.018   8.551  0.2997  0.2461 -2.4999
 2054SOL     OW17794   0.280   3.671   9.415 -0.1505 -1.0428 -0.8138
 2054SOL    HW117795   0.372   3.643   9.412  0.1032 -0.0644 -1.9999
 2054SOL    HW217796   0.280   3.697   9.507 -0.3553 -0.1202 -1.0780
 2055SOL     OW17797   0.048   3.505   6.111  0.4109  0.1569 -0.2836
 2055SOL    HW117798   0.065   3.589   6.069  0.9408 -0.1326 -0.6565
 2055SOL    HW217799   0.013   3.459   6.035  0.7286 -1.3077  0.4391
 2056SOL     OW17800   1.615   2.190   4.383  0.3853  0.1454 -0.4825
 2056SOL    HW117801   1.698   2.215   4.343 -0.9132 -0.3025 -3.4403
 2056SOL    HW217802   1.649   2.133   4.453  1.3317  2.2368  0.7357
 2057SOL     OW17803   2.326   2.982   0.668  0.3575 -0.0316 -0.7191
 2057SOL    HW117804   2.318   2.892   0.702  0.1039 -0.2392 -1.3415
 2057SOL    HW217805   2.405   3.009   0.714  0.8312 -1.8214 -0.4676
 2058SOL     OW17806   0.344   3.008  14.957 -0.5635 -0.2722 -0.0502
 2058SOL    HW117807   0.378   3.011  14.868 -1.2402 -0.0893 -0.3031
 2058SOL    HW217808   0.410   3.058  15.007  0.9346 -1.3159 -0.9839
 2059SOL     OW17809   1.766   1.909   7.308 -0.4883 -0.1566  0.0438
 2059SOL    HW117810   1.812   1.953   7.379  0.5819  0.8653 -1.2672
 2059SOL    HW217811   1.682   1.877   7.341  0.1044  2.0622  3.6286
 2060SOL     OW17812   0.748   1.708  14.893  0.2206 -0.2317  0.2178
 2060SOL    HW117813   0.688   1.751  14.832  0.4932  0.7927  0.6724
 2060SOL    HW217814   0.827   1.752  14.861 -1.2746  1.4881 -1.1219
 2061SOL     OW17815   2.565   1.416   2.163 -0.3526 -0.6633 -0.2556
 2061SOL    HW117816   2.570   1.394   2.070 -0.5315 -1.6450 -0.0338
 2061SOL    HW217817   2.472   1.402   2.180 -0.1170 -1.3838  0.4152
 2062SOL     OW17818   3.946   0.705   8.054  0.2901 -0.0324 -0.2590
 2062SOL    HW117819   4.005   0.744   8.119 -1.0922  2.0336 -0.2294
 2062SOL    HW217820   3.992   0.625   8.032  0.5693 -0.1736  0.8445
 2063SOL     OW17821   1.125   1.283   7.594 -0.8984 -0.0764 -0.2184
 2063SOL    HW117822   1.102   1.217   7.529  1.7772  0.1990 -1.4627
 2063SOL    HW217823   1.184   1.234   7.651 -0.3305  1.7205  0.7414
 2064SOL     OW17824   2.646   1.437   0.550 -0.3830  0.1261 -0.5498
 2064SOL    HW117825   2.636   1.501   0.480  0.5823  0.3218 -0.5174
 2064SOL    HW217826   2.728   1.393   0.526 -0.8134 -0.0449 -1.7117
 2065SOL     OW17827   2.246   3.664   2.009 -0.6341 -0.4890  0.5809
 2065SOL    HW117828   2.252   3.577   1.972 -0.1128 -0.0463 -0.3831
 2065SOL    HW217829   2.151   3.674   2.008 -0.6004 -0.1305  0.8324
 2066SOL     OW17830   2.931   2.725   5.627  0.2347  0.3948 -0.2490
 2066SOL    HW117831   2.987   2.658   5.666 -2.8809 -2.1044 -0.0890
 2066SOL    HW217832   2.861   2.730   5.693  0.2977 -0.2160 -0.1404
 2067SOL     OW17833   1.843   3.889   1.738 -0.1619 -0.6520 -0.4257
 2067SOL    HW117834   1.840   3.925   1.826  0.5538 -1.4958 -0.0589
 2067SOL    HW217835   1.890   3.956   1.688  1.4550 -0.9210  0.7500
 2068SOL     OW17836   0.030   4.412   7.543  0.0170  0.0004  1.0329
 2068SOL    HW117837   0.116   4.453   7.539  0.7730 -1.7581 -0.7987
 2068SOL    HW217838   0.047   4.324   7.577 -1.8919 -0.0181  1.9510
 2069SOL     OW17839   0.894   4.733  13.479  0.6178  0.0871 -0.2727
 2069SOL    HW117840   0.987   4.730  13.500  0.2279  0.5100  1.4990
 2069SOL    HW217841   0.888   4.653  13.426 -0.6498  0.1245 -0.1948
 2070SOL     OW17842   2.925   3.245   2.311 -0.1605 -0.1215 -0.4619
 2070SOL    HW117843   2.996   3.183   2.328  0.3509  0.7579  0.6369
 2070SOL    HW217844   2.876   3.241   2.394  1.0363  1.1724  0.3186
 2071SOL     OW17845   2.232   3.978  14.583  0.0672  0.3232 -0.2979
 2071SOL    HW117846   2.286   3.995  14.661  0.5656  2.6479 -1.1667
 2071SOL    HW217847   2.262   4.057  14.538  0.3455 -1.3880 -3.0754
 2072SOL     OW17848   3.808   0.827   7.718 -0.3599 -0.2973 -0.5175
 2072SOL    HW117849   3.757   0.747   7.724 -0.6047 -0.1260 -0.2712
 2072SOL    HW217850   3.751   0.884   7.666  1.4703  1.6186 -0.4280
 2073SOL     OW17851   2.780   1.607  17.045 -0.5202 -0.0512  0.1212
 2073SOL    HW117852   2.862   1.593  17.093 -1.1385  1.9902  1.7676
 2073SOL    HW217853   2.727   1.637  17.119  0.1122  2.2692 -0.3773
 2074SOL     OW17854   3.014   1.073   0.375  0.2021 -0.1043 -0.8639
 2074SOL    HW117855   3.108   1.085   0.386  0.0725 -1.2286  1.3870
 2074SOL    HW217856   3.016   0.978   0.391 -1.7192 -0.2346 -1.4292
 2075SOL     OW17857   1.166   2.823  11.058  0.3213 -0.3124  0.2241
 2075SOL    HW117858   1.205   2.736  11.059  2.2934  0.5594 -0.5910
 2075SOL    HW217859   1.178   2.850  11.149 -0.3974 -0.6217  0.4087
 2076SOL     OW17860   4.509   2.053   9.419 -0.0061  0.2752  0.2606
 2076SOL    HW117861   4.580   2.070   9.358  0.9084  0.5174  1.3877
 2076SOL    HW217862   4.432   2.053   9.363  0.5722  2.4385 -0.5118
 2077SOL     OW17863   4.407   1.698   6.006 -0.4591 -0.0222  0.0158
 2077SOL    HW117864   4.361   1.781   5.995 -0.2929  0.5246  3.4467
 2077SOL    HW217865   4.497   1.728   5.998 -0.6886  0.1032 -2.0311
 2078SOL     OW17866   4.582   2.452   3.741  0.3931 -0.2926  0.2128
 2078SOL    HW117867   4.587   2.531   3.688 -1.5892 -0.0116  0.4522
 2078SOL    HW217868   4.632   2.483   3.817 -2.2212 -2.0983  2.7082
 2079SOL     OW17869   0.541   3.813   6.468  0.0173  0.3701 -0.0361
 2079SOL    HW117870   0.551   3.751   6.540 -0.3650  0.2829 -0.0582
 2079SOL    HW217871   0.560   3.897   6.511  0.5889 -1.1280  2.6527
 2080SOL     OW17872   3.304   2.816   9.050  0.2962 -0.3898 -0.2079
 2080SOL    HW117873   3.270   2.827   9.139  1.0879 -0.0210  0.0485
 2080SOL    HW217874   3.226   2.828   8.996  1.4113  1.8578 -1.3280
 2081SOL     OW17875   4.699   2.714   5.323 -0.3958  0.0231  0.4486
 2081SOL    HW117876   4.700   2.692   5.230  0.2372 -0.4910  0.5746
 2081SOL    HW217877   4.678   2.628   5.360 -1.9297  0.3785  0.3881
 2082SOL     OW17878   1.834   3.938   4.350  0.4249  0.6383 -0.3850
 2082SOL    HW117879   1.862   3.894   4.431  1.2771  0.4783 -0.7675
 2082SOL    HW217880   1.794   4.013   4.395 -0.6499  0.5150 -1.1270
 2083SOL     OW17881   2.818   2.792   2.452  0.4828  0.1023  0.4807
 2083SOL    HW117882   2.782   2.703   2.451  1.7388 -0.4090  0.1679
 2083SOL    HW217883   2.740   2.843   2.431 -0.4590 -1.3101  0.5822
 2084SOL     OW17884   3.625   2.189   6.455  0.9072  0.3634  0.0063
 2084SOL    HW117885   3.574   2.210   6.534  0.1738 -2.0338  0.1716
 2084SOL    HW217886   3.712   2.219   6.481  0.9161 -1.0115  1.5860
 2085SOL     OW17887   1.431   2.808   1.392 -0.2089  0.0026  0.0836
 2085SOL    HW117888   1.525   2.798   1.404 -0.1977  1.3438  1.1040
 2085SOL    HW217889   1.408   2.895   1.424  0.3856 -0.4309  1.7183
 2086SOL     OW17890   4.277   3.370   6.628  0.3297  0.7825 -0.0022
 2086SOL    HW117891   4.248   3.416   6.550 -1.5776 -0.0120  0.2487
 2086SOL    HW217892   4.199   3.379   6.682 -1.7346  0.0227 -2.8863
 2087SOL     OW17893   3.726   4.526   1.860 -0.1598 -0.5163  0.2389
 2087SOL    HW117894   3.710   4.563   1.773  2.0758 -2.1831 -0.8842
 2087SOL    HW217895   3.649   4.470   1.875 -0.2567 -0.4073  0.1534
 2088SOL     OW17896   1.482   3.492  12.305 -0.2373  0.5297 -0.3667
 2088SOL    HW117897   1.403   3.441  12.291 -0.3294  0.9292 -1.3245
 2088SOL    HW217898   1.535   3.416  12.327 -1.3135 -0.1195 -0.0507
 2089SOL     OW17899   2.180   0.007   1.336 -0.3366  0.2643  0.9312
 2089SOL    HW117900   2.165   4.664   1.292 -1.0841  1.0990 -0.3861
 2089SOL    HW217901   2.145   4.734   1.424  0.3939 -0.6502  1.0813
 2090SOL     OW17902   0.722   3.400   5.198  0.1576 -0.3019 -0.2943
 2090SOL    HW117903   0.628   3.409   5.183  0.1872 -1.9545 -1.4123
 2090SOL    HW217904   0.743   3.324   5.144 -2.6611  0.3230 -2.2464
 2091SOL     OW17905   2.380   2.086   8.976 -0.2161 -0.4822  0.3176
 2091SOL    HW117906   2.458   2.056   9.023 -0.1482  1.1467  1.2487
 2091SOL    HW217907   2.406   2.173   8.947 -1.3968  0.0171  0.7965
 2092SOL     OW17908   1.097   2.254   7.029  0.2540  0.7309 -0.3304
 2092SOL    HW117909   1.107   2.301   7.112 -1.1261  1.1280 -0.3855
 2092SOL    HW217910   1.185   2.245   6.991 -0.0432 -0.4308 -0.7290
 2093SOL     OW17911   2.383   1.760  12.307  0.1984  0.0678  0.1168
 2093SOL    HW117912   2.290   1.776  12.291 -0.0518 -0.7741  0.6957
 2093SOL    HW217913   2.383   1.748  12.402 -1.7832  0.3128  0.1532
 2094SOL     OW17914   0.858   4.100   3.395 -0.2401 -0.1902  0.6666
 2094SOL    HW117915   0.769   4.065   3.391 -0.0058 -0.3039 -3.1949
 2094SOL    HW217916   0.869   4.086   3.489 -2.0963 -1.3598  0.6960
 2095SOL     OW17917   0.713   4.555   9.582 -0.0842  0.2430 -0.5447
 2095SOL    HW117918   0.624   4.528   9.560  0.2823  0.4110 -2.2371
 2095SOL    HW217919   0.763   4.492   9.529 -0.8775  0.4655 -1.5409
 2096SOL     OW17920   3.247   2.554   8.061  0.2870 -0.1499  0.0847
 2096SOL    HW117921   3.181   2.486   8.047 -0.5959  1.0723 -1.8077
 2096SOL    HW217922   3.224   2.614   7.989  2.8379  1.1265  0.3223
 2097SOL     OW17923   3.130   3.043   8.579  0.2610 -0.6900 -0.0020
 2097SOL    HW117924   3.092   3.110   8.635 -1.0006 -0.5361 -1.0503
 2097SOL    HW217925   3.054   3.021   8.524  0.4611 -0.1171 -0.5131
 2098SOL     OW17926   4.099   2.993   6.192  0.1842  0.2403 -0.3988
 2098SOL    HW117927   4.112   2.923   6.256  2.0451 -0.0444 -1.0829
 2098SOL    HW217928   4.025   2.956   6.143 -1.6453  1.3531  1.5367
 2099SOL     OW17929   3.441   3.022   6.918 -0.8971  0.2853  0.5744
 2099SOL    HW117930   3.485   3.063   6.843 -1.7958  3.2188  1.6259
 2099SOL    HW217931   3.378   2.970   6.868 -0.9812  2.2662 -1.4053
 2100SOL     OW17932   2.109   3.195  16.468 -0.0324  0.1840 -0.2458
 2100SOL    HW117933   2.164   3.248  16.410 -0.2310  0.8807  0.1900
 2100SOL    HW217934   2.033   3.185  16.411  0.2777  0.9067 -0.7831
 2101SOL     OW17935   3.017   2.201  15.021 -0.3535 -0.1609  0.5332
 2101SOL    HW117936   3.092   2.255  15.048  0.1481 -0.7494  0.3089
 2101SOL    HW217937   2.967   2.176  15.098  1.7743 -2.2010  1.2402
 2102SOL     OW17938   3.723   3.186   9.309 -0.2075 -0.0084  0.1854
 2102SOL    HW117939   3.653   3.251   9.304 -0.6016 -0.4863 -0.6311
 2102SOL    HW217940   3.780   3.225   9.375 -0.4934  0.9173 -0.1190
 2103SOL     OW17941   1.106   4.359   2.092  0.7083  0.2394 -0.2855
 2103SOL    HW117942   1.090   4.447   2.058  0.4982  0.1759 -0.3525
 2103SOL    HW217943   1.186   4.344   2.041  1.1146 -1.2193  0.7640
 2104SOL     OW17944   2.979   3.104   5.511 -0.1778  0.1509 -0.4589
 2104SOL    HW117945   2.945   3.190   5.486 -0.8738  0.2988  0.9774
 2104SOL    HW217946   2.950   3.051   5.436 -0.7613 -0.2843  0.0754
 2105SOL     OW17947   3.389   2.917  12.039 -0.2019  0.9686  0.4383
 2105SOL    HW117948   3.469   2.867  12.022 -1.5803 -0.7263 -1.0159
 2105SOL    HW217949   3.377   2.888  12.129  0.4075  0.2949  0.3016
 2106SOL     OW17950   0.771   3.922   1.536  0.1626 -0.6120 -0.0875
 2106SOL    HW117951   0.713   3.856   1.575  1.7718 -0.6448  2.2357
 2106SOL    HW217952   0.818   3.966   1.606 -1.6289 -1.0141  1.3538
 2107SOL     OW17953   1.169   4.121  16.726 -0.0862  0.0765 -0.3186
 2107SOL    HW117954   1.133   4.043  16.685  2.1969 -1.0402 -0.2033
 2107SOL    HW217955   1.240   4.143  16.666  0.4005 -3.7043 -1.1408
 2108SOL     OW17956   0.915   1.019  17.011 -0.2888  0.0471 -0.5540
 2108SOL    HW117957   0.832   1.062  16.993 -1.7605 -3.0352 -1.0524
 2108SOL    HW217958   0.951   1.082  17.074 -0.1742 -1.2243  0.6608
 2109SOL     OW17959   4.215   3.687   1.963  0.0744 -0.2680 -0.3206
 2109SOL    HW117960   4.195   3.596   1.943  2.1507 -1.0693  1.2439
 2109SOL    HW217961   4.267   3.672   2.042  0.1325  1.4343 -0.0286
 2110SOL     OW17962   2.722   0.650   6.961 -0.2448  0.1862  0.0304
 2110SOL    HW117963   2.717   0.712   7.033  0.0465 -0.1502  0.3428
 2110SOL    HW217964   2.634   0.647   6.925 -0.3566 -0.4389  0.3535
 2111SOL     OW17965   4.101   1.265   4.358 -0.5033 -0.4592 -0.5476
 2111SOL    HW117966   4.119   1.237   4.268  0.5274 -0.0151 -0.4818
 2111SOL    HW217967   4.041   1.198   4.390  1.0090 -1.5472  0.0539
 2112SOL     OW17968   0.573   2.068  14.462 -0.2732 -0.2335  0.0912
 2112SOL    HW117969   0.586   2.150  14.415  0.2473 -0.5195 -0.2580
 2112SOL    HW217970   0.507   2.026  14.407  0.2401 -1.9559  0.7851
 2113SOL     OW17971   2.177   4.658   7.687  1.0536  0.2935  0.0927
 2113SOL    HW117972   2.128   4.729   7.727 -1.1834 -1.6818  0.8556
 2113SOL    HW217973   2.133   4.589   7.736 -2.2875  1.2357 -1.6097
 2114SOL     OW17974   0.671   2.000   9.391  0.5112  0.2229 -0.0590
 2114SOL    HW117975   0.648   1.933   9.456  1.1520  0.2642  0.2149
 2114SOL    HW217976   0.741   2.039   9.443 -0.5144 -0.3941  1.8202
 2115SOL     OW17977   3.180   2.370   6.777 -0.6542  0.1654 -0.5501
 2115SOL    HW117978   3.122   2.408   6.711 -1.4044 -0.8328 -0.4689
 2115SOL    HW217979   3.170   2.276   6.765  0.2014  0.2689 -2.0498
 2116SOL     OW17980   1.154   3.949   8.143  0.0762  0.2913 -0.0928
 2116SOL    HW117981   1.066   3.913   8.151 -0.1936  1.1252  0.6864
 2116SOL    HW217982   1.159   3.989   8.057  1.6287  0.9712  0.3091
 2117SOL     OW17983   1.097   2.480  12.602  0.0640 -0.6670  0.0423
 2117SOL    HW117984   1.173   2.422  12.595  1.2313  0.9833 -0.9712
 2117SOL    HW217985   1.133   2.569  12.604 -1.0230 -0.2468  0.8458
 2118SOL     OW17986   2.817   2.465   2.566  0.1621  0.0460 -0.0136
 2118SOL    HW117987   2.739   2.469   2.512  0.5363  2.0344 -0.3978
 2118SOL    HW217988   2.784   2.499   2.649 -0.0523  1.6606 -0.7654
 2119SOL     OW17989   0.834   2.362   7.390  0.4894 -0.2557  0.3608
 2119SOL    HW117990   0.741   2.340   7.388  0.6095 -0.5790 -1.5849
 2119SOL    HW217991   0.834   2.457   7.378  1.3717 -0.1287  1.3992
 2120SOL     OW17992   0.136   4.079   9.861  0.1024 -0.3019 -1.0036
 2120SOL    HW117993   0.191   4.010   9.897 -1.4891 -1.7169 -1.2649
 2120SOL    HW217994   0.199   4.151   9.864 -1.7418  1.3266 -1.2946
 2121SOL     OW17995   1.666   3.680  10.345 -0.3157 -0.1756  0.6185
 2121SOL    HW117996   1.695   3.603  10.395 -3.3246 -0.2548  2.2235
 2121SOL    HW217997   1.590   3.637  10.308  1.5285 -2.1496 -0.9048
 2122SOL     OW17998   3.856   1.646   1.382  0.2133 -0.0458 -0.7080
 2122SOL    HW117999   3.805   1.656   1.302  0.0924  0.1031 -0.6107
 2122SOL    HW218000   3.836   1.553   1.390  3.7596 -0.6178  1.6084
 2123SOL     OW18001   4.251   4.446  17.496  0.3143  0.0757 -0.2522
 2123SOL    HW118002   4.267   4.530  17.538 -1.8312  0.4033 -0.0896
 2123SOL    HW218003   4.337   4.404  17.493  0.7063  0.8155  0.5116
 2124SOL     OW18004   0.199   0.531   3.110  0.6648 -0.2378 -0.6713
 2124SOL    HW118005   0.135   0.562   3.046  0.6621  0.1437 -0.4816
 2124SOL    HW218006   0.213   0.611   3.161  1.8898 -1.1243  0.3965
 2125SOL     OW18007   3.078   3.710   0.005 -0.0880 -0.2720  0.1691
 2125SOL    HW118008   3.066   3.796  17.724 -1.4173  0.3726  1.8991
 2125SOL    HW218009   2.991   3.672  17.751 -0.0577 -0.9775  1.9045
 2126SOL     OW18010   2.308   3.390   9.109 -0.5069  0.1343 -0.5756
 2126SOL    HW118011   2.322   3.386   9.203  0.9760  0.3273 -0.7951
 2126SOL    HW218012   2.217   3.419   9.104  0.4558  3.5437  1.4386
 2127SOL     OW18013   0.579   3.326   1.889  0.0068 -0.6007  0.3931
 2127SOL    HW118014   0.674   3.326   1.878  0.2330  4.8401  2.1319
 2127SOL    HW218015   0.544   3.246   1.850 -0.9995 -0.6004  1.2700
 2128SOL     OW18016   4.129   0.074   5.890  0.1355  0.0145  0.0225
 2128SOL    HW118017   4.195   0.086   5.958  1.0289 -0.7183 -0.7072
 2128SOL    HW218018   4.053   0.122   5.922  0.5182 -0.0468  1.0286
 2129SOL     OW18019   3.796   1.985   2.236  0.3872  0.1846  0.0120
 2129SOL    HW118020   3.888   1.998   2.210  0.3737  0.0041 -0.1262
 2129SOL    HW218021   3.765   2.075   2.244 -2.6549 -0.7441 -1.3629
 2130SOL     OW18022   3.270   3.600   7.889 -0.0281 -0.4220  0.6162
 2130SOL    HW118023   3.318   3.571   7.967  3.0440 -0.1040 -1.1625
 2130SOL    HW218024   3.336   3.570   7.826 -0.6991 -1.1329  0.2497
 2131SOL     OW18025   1.252   0.803   8.214  0.6703  0.4036  0.5188
 2131SOL    HW118026   1.195   0.749   8.268  2.2864 -0.4807  1.3446
 2131SOL    HW218027   1.331   0.802   8.269  1.2568  1.9263 -0.2982
 2132SOL     OW18028   2.257   2.006   6.650  0.2734 -0.0544  0.0093
 2132SOL    HW118029   2.208   1.963   6.580 -1.4399  1.6814  0.1572
 2132SOL    HW218030   2.195   2.078   6.658 -1.2891 -1.2278 -1.5707
 2133SOL     OW18031   3.528   3.818   6.235  0.8501 -0.1065 -0.3350
 2133SOL    HW118032   3.469   3.776   6.298  1.3199 -0.9864 -0.4735
 2133SOL    HW218033   3.576   3.859   6.307  1.9345  1.4121 -1.9403
 2134SOL     OW18034   0.339   2.732   8.777 -0.1493 -0.7803  0.1284
 2134SOL    HW118035   0.299   2.737   8.691 -1.3119  4.3547  0.9146
 2134SOL    HW218036   0.352   2.826   8.795 -1.3200 -0.8271  1.2147
 2135SOL     OW18037   4.113   3.756   3.200 -0.6140 -0.2274  0.1038
 2135SOL    HW118038   4.200   3.790   3.182 -0.5969  0.1698  0.9075
 2135SOL    HW218039   4.064   3.812   3.140 -1.2672  0.0741  0.9017
 2136SOL     OW18040   2.686   2.676   0.968  0.0367  0.1098 -0.4779
 2136SOL    HW118041   2.625   2.650   1.037  0.0888 -3.0963 -1.6601
 2136SOL    HW218042   2.747   2.603   0.965  0.3187  0.3016  0.5533
 2137SOL     OW18043   0.306   0.474   8.940  0.1682 -0.4173  0.0515
 2137SOL    HW118044   0.353   0.481   9.023  1.5931  3.8664 -1.1636
 2137SOL    HW218045   0.220   0.446   8.972 -1.2627  1.6930 -1.9185
 2138SOL     OW18046   1.920   0.512  15.756  0.0963 -0.0669 -0.4309
 2138SOL    HW118047   1.920   0.424  15.793  2.1146  0.1928  0.2098
 2138SOL    HW218048   1.924   0.567  15.834 -0.1812  1.7463 -1.6908
 2139SOL     OW18049   0.036   3.839   8.103  0.1126 -0.2621 -0.2640
 2139SOL    HW118050   4.701   3.897   8.111 -1.0380 -2.0631  1.7151
 2139SOL    HW218051   0.007   3.776   8.038  2.7004 -1.2633 -0.4457
 2140SOL     OW18052   0.202   0.487   0.615  0.2719 -0.4871  0.1224
 2140SOL    HW118053   0.294   0.466   0.601  0.0716  0.3504 -2.4415
 2140SOL    HW218054   0.214   0.541   0.693 -0.1621  0.2521 -0.3151
 2141SOL     OW18055   2.428   3.681   9.217  0.0125 -0.1817 -0.0094
 2141SOL    HW118056   2.367   3.607   9.220 -2.6496  2.1674  3.7528
 2141SOL    HW218057   2.497   3.647   9.274 -0.4638  0.9486  1.2635
 2142SOL     OW18058   3.724   4.345   7.778  0.4988  0.6374  0.0905
 2142SOL    HW118059   3.799   4.342   7.719 -0.1693 -0.0982 -0.7170
 2142SOL    HW218060   3.749   4.277   7.841 -1.7468 -0.0071  0.2782
 2143SOL     OW18061   3.292   4.641  12.334 -0.5284 -0.2650 -0.3926
 2143SOL    HW118062   3.261   4.662  12.422  0.2976  0.5029 -0.2926
 2143SOL    HW218063   3.309   4.729  12.302  2.2084 -0.6472  0.0233
 2144SOL     OW18064   3.008   2.044   7.872 -0.1118 -0.1099  0.1636
 2144SOL    HW118065   3.024   2.134   7.843  0.6888  0.0921  1.2522
 2144SOL    HW218066   2.981   2.045   7.964 -0.0632  0.9281  0.1764
 2145SOL     OW18067   2.620   1.296  17.712 -0.1363  0.0978 -0.3191
 2145SOL    HW118068   2.667   1.371  17.750  1.7138 -1.3234  0.2085
 2145SOL    HW218069   2.571   1.334  17.639 -2.2965 -1.9336  0.1099
 2146SOL     OW18070   3.052   0.575  13.440  0.2728  0.5917 -0.1732
 2146SOL    HW118071   3.120   0.622  13.489  0.9521 -0.5810  0.0176
 2146SOL    HW218072   2.998   0.650  13.415  0.3712  0.7485  0.0868
 2147SOL     OW18073   4.122   4.503  17.049 -0.2524  0.0340  0.0829
 2147SOL    HW118074   4.083   4.444  17.113 -1.1124 -0.9570 -1.3408
 2147SOL    HW218075   4.165   4.577  17.092 -2.0219  0.5354  0.9845
 2148SOL     OW18076   2.194   1.277   8.527  0.0380  0.1202 -0.3433
 2148SOL    HW118077   2.165   1.271   8.436  1.2455 -0.8624 -0.6691
 2148SOL    HW218078   2.158   1.198   8.568  0.6516 -0.1603 -0.3469
 2149SOL     OW18079   3.076   1.510   3.549 -0.6300 -0.4865 -0.4741
 2149SOL    HW118080   3.101   1.427   3.591 -0.5715 -0.4675 -0.4712
 2149SOL    HW218081   3.026   1.496   3.469 -0.9437  1.0557 -0.5431
 2150SOL     OW18082   0.140   1.937   3.569  0.6822 -0.1002  0.1310
 2150SOL    HW118083   0.064   1.962   3.516  1.3106 -0.6086 -0.9913
 2150SOL    HW218084   0.118   1.991   3.645  2.3788  1.0034 -0.1672
 2151SOL     OW18085   0.004   2.242   7.801  0.9384 -0.5621  0.4965
 2151SOL    HW118086   4.704   2.326   7.824 -0.1151 -0.7575 -0.6454
 2151SOL    HW218087   4.723   2.197   7.883  1.5703  1.8658  2.0033
 2152SOL     OW18088   2.451   4.345   8.244 -0.3884 -0.2182  0.4726
 2152SOL    HW118089   2.469   4.374   8.333 -1.5667  0.2737  0.5502
 2152SOL    HW218090   2.542   4.321   8.228 -0.6153 -0.5597 -0.3164
 2153SOL     OW18091   4.209   1.492   0.603  0.4272 -0.0402  0.5217
 2153SOL    HW118092   4.120   1.469   0.628  0.2780  0.8958  0.8757
 2153SOL    HW218093   4.231   1.420   0.545  0.6107 -0.1610  0.7404
 2154SOL     OW18094   4.713   0.091   0.764 -0.4629  0.6974  0.3827
 2154SOL    HW118095   4.683   0.001   0.778  0.7621  0.5215  1.9524
 2154SOL    HW218096   4.658   0.143   0.822 -2.7609 -1.1995 -0.0521
 2155SOL     OW18097   0.188   2.260  14.897  0.4206  0.0974 -0.2420
 2155SOL    HW118098   0.118   2.195  14.894  0.7963 -0.3462  0.3757
 2155SOL    HW218099   0.150   2.323  14.836 -1.1994 -0.4025  0.2427
 2156SOL     OW18100   3.374   1.762   8.110  0.2719  0.5363  0.8041
 2156SOL    HW118101   3.414   1.686   8.154 -1.7108 -1.2753 -0.5100
 2156SOL    HW218102   3.302   1.715   8.068  1.4300 -0.4675 -0.0759
 2157SOL     OW18103   4.300   1.732   7.488  0.2158  0.2955  0.1429
 2157SOL    HW118104   4.254   1.789   7.549  1.0877  0.9811  0.1593
 2157SOL    HW218105   4.252   1.732   7.405  0.4031 -0.9922  0.0320
 2158SOL     OW18106   4.477   0.457   6.028  0.6066 -0.5070 -0.7365
 2158SOL    HW118107   4.521   0.393   6.084  1.3389  1.6663  1.1674
 2158SOL    HW218108   4.498   0.435   5.937 -0.2292  0.2282 -1.1126
 2159SOL     OW18109   4.211   2.621   9.363  0.4658  0.2524  0.0025
 2159SOL    HW118110   4.193   2.700   9.414 -0.7406 -1.7170  2.5895
 2159SOL    HW218111   4.306   2.620   9.375  0.1547 -0.8613  2.2124
 2160SOL     OW18112   2.026   3.315   2.219  1.1340  0.6377  0.2498
 2160SOL    HW118113   2.087   3.293   2.149 -1.6470 -1.6650 -1.4647
 2160SOL    HW218114   1.963   3.369   2.172 -0.1984 -1.0770  0.0494
 2161SOL     OW18115   3.540   0.358   4.610  0.0985 -0.1834 -0.0779
 2161SOL    HW118116   3.548   0.387   4.519 -1.5886 -2.9858 -1.1046
 2161SOL    HW218117   3.448   0.374   4.632 -0.4077 -0.1071 -2.3145
 2162SOL     OW18118   3.912   0.473   3.332  0.4164 -0.0804  0.1810
 2162SOL    HW118119   3.818   0.487   3.330  0.4702  0.1182 -1.2579
 2162SOL    HW218120   3.934   0.539   3.266 -0.6287  2.0842  1.9766
 2163SOL     OW18121   3.397   1.984  16.555  0.1534  0.1959  0.1427
 2163SOL    HW118122   3.439   2.049  16.498 -0.2132  0.4715  0.1816
 2163SOL    HW218123   3.476   1.959  16.603  0.7974 -0.4650 -1.2685
 2164SOL     OW18124   1.315   2.075   9.229 -0.3537 -0.4893 -0.5344
 2164SOL    HW118125   1.238   2.040   9.275 -0.2159 -1.5215 -1.1057
 2164SOL    HW218126   1.362   2.137   9.285  1.2740 -1.0953 -1.2497
 2165SOL     OW18127   0.955   1.004   5.327  0.1972 -0.3739 -0.1096
 2165SOL    HW118128   0.953   0.911   5.349 -0.6071 -0.3018  0.1265
 2165SOL    HW218129   0.968   1.046   5.412  0.5586 -0.5469 -0.0824
 2166SOL     OW18130   1.151   3.333   5.712  0.0471 -0.0483  0.3834
 2166SOL    HW118131   1.236   3.373   5.733 -1.4386  2.7349  1.1424
 2166SOL    HW218132   1.182   3.243   5.708  2.1295  0.6319  1.0134
 2167SOL     OW18133   0.383   1.358   2.918 -0.4311  0.4498 -0.1427
 2167SOL    HW118134   0.427   1.337   2.835 -0.8675  1.3037 -0.5902
 2167SOL    HW218135   0.369   1.270   2.952  0.0774  0.7599  0.8604
 2168SOL     OW18136   4.439   0.555   0.439  0.4887  0.1284  0.1294
 2168SOL    HW118137   4.475   0.474   0.403 -0.5610 -0.3607  0.1609
 2168SOL    HW218138   4.516   0.585   0.486  1.0184  0.4460 -0.9462
 2169SOL     OW18139   4.585   0.381   8.397 -0.2956  0.1867 -0.6542
 2169SOL    HW118140   4.532   0.373   8.317  0.4207  0.5703 -1.1598
 2169SOL    HW218141   4.667   0.354   8.355  0.1845  0.2294  0.2594
 2170SOL     OW18142   0.240   0.788   3.904 -0.2560  0.0733 -0.5402
 2170SOL    HW118143   0.331   0.793   3.932 -0.6473  1.9357  0.3457
 2170SOL    HW218144   0.220   0.881   3.908 -4.6330 -0.8241 -0.9616
 2171SOL     OW18145   1.299   1.610   1.165  0.2977  0.1463  0.1564
 2171SOL    HW118146   1.261   1.560   1.092 -0.3197  1.2125 -0.2462
 2171SOL    HW218147   1.376   1.553   1.178  1.4354  1.5849 -0.2650
 2172SOL     OW18148   2.497   0.511   9.989 -0.6198 -0.6248 -0.1396
 2172SOL    HW118149   2.415   0.528   9.941  0.1037  1.3762 -0.6504
 2172SOL    HW218150   2.549   0.590   9.977  0.5879 -1.2115  1.2982
 2173SOL     OW18151   2.159   3.964  17.194  0.4554  0.0792  0.5908
 2173SOL    HW118152   2.183   4.056  17.188  1.7885 -0.3044  0.2325
 2173SOL    HW218153   2.066   3.965  17.169  1.6210  0.3292 -3.6327
 2174SOL     OW18154   0.635   2.225   4.451 -0.2563 -0.3316 -0.1465
 2174SOL    HW118155   0.688   2.291   4.406 -2.5711  1.1148 -0.7859
 2174SOL    HW218156   0.551   2.260   4.420  0.6253 -0.1400 -2.3152
 2175SOL     OW18157   2.166   2.661   3.550 -0.1692 -0.0516 -0.0650
 2175SOL    HW118158   2.208   2.701   3.626 -0.2074  1.5900 -0.8959
 2175SOL    HW218159   2.108   2.733   3.526  0.5201  0.7315  0.6371
 2176SOL     OW18160   4.086   2.071  12.238 -0.1037  0.0063 -0.0970
 2176SOL    HW118161   4.051   2.054  12.326  0.8277  1.4442  0.5482
 2176SOL    HW218162   4.176   2.063  12.270  0.0194 -0.4294 -0.5610
 2177SOL     OW18163   3.907   0.131   7.644  0.3620 -0.2173  0.2957
 2177SOL    HW118164   3.999   0.111   7.626  0.1592 -0.0537 -0.8798
 2177SOL    HW218165   3.886   0.200   7.582  0.2059 -1.3266 -0.8803
 2178SOL     OW18166   4.355   0.038   9.070 -0.3367 -0.1791 -0.1945
 2178SOL    HW118167   4.315   4.698   9.103 -1.4104  0.6509  0.5670
 2178SOL    HW218168   4.403   0.054   9.151  0.5261 -2.5261 -0.2228
 2179SOL     OW18169   2.692   4.262   8.188 -0.7971  0.3008  0.1369
 2179SOL    HW118170   2.712   4.176   8.151  2.4660  1.3247 -0.4517
 2179SOL    HW218171   2.775   4.309   8.179  0.6903 -2.2706  0.3112
 2180SOL     OW18172   2.409   3.839   4.145 -0.0612 -0.2484  0.7146
 2180SOL    HW118173   2.371   3.925   4.124 -0.6248 -1.2883 -2.5173
 2180SOL    HW218174   2.485   3.854   4.201  0.3243 -0.5317  0.2663
 2181SOL     OW18175   1.117   4.537   8.287  0.5915  0.5341 -0.0404
 2181SOL    HW118176   1.194   4.489   8.315  0.8825  0.8070 -0.3607
 2181SOL    HW218177   1.160   4.622   8.273  1.7735 -0.2108 -0.8892
 2182SOL     OW18178   0.333   2.096   3.491  0.6640 -0.2184 -0.0094
 2182SOL    HW118179   0.400   2.033   3.520  1.4877  0.5012 -0.3600
 2182SOL    HW218180   0.259   2.038   3.510  0.8799 -0.2181  0.7990
 2183SOL     OW18181   2.484   1.817   5.243 -0.6908  0.1150  0.3811
 2183SOL    HW118182   2.553   1.878   5.272 -0.5572  0.9130 -1.6357
 2183SOL    HW218183   2.437   1.810   5.326 -0.3681  1.9036  0.7132
 2184SOL     OW18184   0.705   2.519  13.470 -0.4061  0.2386 -0.5082
 2184SOL    HW118185   0.657   2.524  13.387 -0.4282  0.8764 -0.4607
 2184SOL    HW218186   0.688   2.609  13.500  1.5109  0.9693 -1.6416
 2185SOL     OW18187   0.737   3.622   9.256 -0.3983 -0.2474 -0.3575
 2185SOL    HW118188   0.726   3.533   9.224  0.4173  0.5460 -2.8837
 2185SOL    HW218189   0.775   3.618   9.344  2.3150  0.4353 -1.4792
 2186SOL     OW18190   3.780   4.607   4.931  0.5199 -0.0056  0.7834
 2186SOL    HW118191   3.788   4.524   4.884 -0.0903  0.6420 -0.4417
 2186SOL    HW218192   3.700   4.644   4.893  1.4076  0.3693 -0.6860
 2187SOL     OW18193   1.721   3.676   6.977 -0.2659 -0.7850  0.0941
 2187SOL    HW118194   1.726   3.676   7.072  1.1213 -1.5674  0.0090
 2187SOL    HW218195   1.785   3.613   6.944 -0.8370  0.7655 -3.9352
 2188SOL     OW18196   1.887   4.554  13.266 -0.0983  0.0845  1.1524
 2188SOL    HW118197   1.960   4.598  13.309  0.3833  0.0034  0.4257
 2188SOL    HW218198   1.881   4.469  13.310 -1.6602  0.3606  1.4878
 2189SOL     OW18199   1.646   0.988   1.585  0.0020 -0.5391 -0.5021
 2189SOL    HW118200   1.634   1.082   1.589  1.3086 -0.3384 -1.3710
 2189SOL    HW218201   1.709   0.967   1.654  0.4107  0.1034 -0.6819
 2190SOL     OW18202   3.965   0.374   1.107 -0.1825  0.6150 -0.1667
 2190SOL    HW118203   4.047   0.325   1.101  0.8273  2.1648  0.9130
 2190SOL    HW218204   3.919   0.333   1.180  1.6406  0.1787  0.7428
 2191SOL     OW18205   3.597   3.059   8.471  0.4318  0.3516 -0.1763
 2191SOL    HW118206   3.544   3.105   8.406  1.2077  1.1985 -0.2103
 2191SOL    HW218207   3.533   3.033   8.537 -0.5046  0.2776 -1.1122
 2192SOL     OW18208   2.111   0.516  12.245  0.1284 -0.4577  0.1077
 2192SOL    HW118209   2.175   0.572  12.201 -1.1519  0.6360 -0.3437
 2192SOL    HW218210   2.068   0.573  12.308  0.0175 -0.0619 -0.3273
 2193SOL     OW18211   3.271   0.251   8.398 -0.0770  0.0642  0.1700
 2193SOL    HW118212   3.210   0.319   8.427 -0.1745  0.8959 -2.0017
 2193SOL    HW218213   3.260   0.251   8.303  1.3932 -1.6286 -0.0063
 2194SOL     OW18214   4.663   4.045  15.402  0.4250 -0.0243  0.3843
 2194SOL    HW118215   4.672   4.040  15.307 -0.0091  2.2456  0.2185
 2194SOL    HW218216   4.569   4.029  15.411  0.5780 -0.8246  0.5998
 2195SOL     OW18217   4.119   0.890   7.411 -0.0994 -0.2372  0.3559
 2195SOL    HW118218   4.059   0.816   7.423 -1.9547  0.7180 -2.8369
 2195SOL    HW218219   4.114   0.883   7.315 -1.9767 -0.6762  0.4921
 2196SOL     OW18220   1.313   4.587   4.952 -0.3980 -0.4227  0.6110
 2196SOL    HW118221   1.387   4.582   5.013 -0.5653 -1.1059  0.7561
 2196SOL    HW218222   1.365   4.588   4.872 -1.0567 -1.1317  0.1820
 2197SOL     OW18223   0.389   3.498   2.848  0.4298 -0.5078 -0.4262
 2197SOL    HW118224   0.396   3.458   2.761  1.5016  1.3745 -1.1970
 2197SOL    HW218225   0.473   3.538   2.869  0.3570 -1.1430  1.0472
 2198SOL     OW18226   2.934   1.985   7.407  0.2315 -0.0607  0.5280
 2198SOL    HW118227   2.872   2.045   7.449  0.1250 -0.2261  0.6072
 2198SOL    HW218228   2.991   2.051   7.369  2.2679 -2.7305 -1.0611
 2199SOL     OW18229   2.011   2.637  14.990 -0.3839  0.1730 -0.0061
 2199SOL    HW118230   2.003   2.728  14.961  2.5315 -0.0724 -1.5604
 2199SOL    HW218231   2.096   2.619  14.951 -0.3753 -0.6367  0.3984
 2200SOL     OW18232   3.207   3.503   5.712  0.5486 -0.0202 -0.6954
 2200SOL    HW118233   3.136   3.552   5.753 -0.3825 -0.4437 -1.7718
 2200SOL    HW218234   3.182   3.503   5.619 -2.1634 -2.1233  0.0253
 2201SOL     OW18235   2.567   1.724   2.237  0.6031 -0.2560  0.0157
 2201SOL    HW118236   2.606   1.643   2.271 -0.4306  0.2223  2.3420
 2201SOL    HW218237   2.529   1.760   2.317  1.0520 -2.0665  1.0505
 2202SOL     OW18238   3.768   2.906   2.495  0.1967  0.4238  0.4057
 2202SOL    HW118239   3.842   2.849   2.478  1.2214  1.3465  1.7192
 2202SOL    HW218240   3.692   2.855   2.467 -0.5557  1.7318  0.0320
 2203SOL     OW18241   4.561   4.668   8.270  0.0995 -0.0733 -0.0030
 2203SOL    HW118242   4.595   4.736   8.328 -1.2614 -0.2401  0.9750
 2203SOL    HW218243   4.472   4.695   8.246 -0.1756  0.4129  1.5682
 2204SOL     OW18244   0.625   2.944   4.867 -0.5940  0.3837 -0.8621
 2204SOL    HW118245   0.597   3.000   4.795  2.6212  4.2141  0.8957
 2204SOL    HW218246   0.595   2.859   4.833 -0.6365 -0.9468  2.5271
 2205SOL     OW18247   3.393   1.632   3.313  0.3076 -0.0396  0.3666
 2205SOL    HW118248   3.388   1.711   3.259 -0.9935 -1.0793 -1.0384
 2205SOL    HW218249   3.355   1.567   3.254  0.7768  0.5376 -0.5569
 2206SOL     OW18250   4.565   3.273  14.173  0.7242  0.0689 -0.5355
 2206SOL    HW118251   4.630   3.218  14.128  0.8434  1.3926 -1.9682
 2206SOL    HW218252   4.614   3.340  14.221 -0.8233  0.9481 -0.1983
 2207SOL     OW18253   2.798   3.097  13.078  0.4103  0.4447  0.4025
 2207SOL    HW118254   2.872   3.098  13.139  0.4101 -0.8738  0.4295
 2207SOL    HW218255   2.756   3.027  13.128  0.1044  1.7551  1.9551
 2208SOL     OW18256   4.497   3.947   8.441 -0.8954  0.0553 -0.1917
 2208SOL    HW118257   4.528   4.037   8.456 -1.1201 -0.3117  2.4550
 2208SOL    HW218258   4.558   3.901   8.499 -1.8636  0.5042  1.1887
 2209SOL     OW18259   2.180   2.933   4.941  0.1550 -0.4285  0.3191
 2209SOL    HW118260   2.197   2.962   5.031 -1.6803 -1.6388  1.0349
 2209SOL    HW218261   2.263   2.886   4.937  0.9068  0.8556  0.5624
 2210SOL     OW18262   0.437   1.760   7.552 -0.3482  0.5424  0.3152
 2210SOL    HW118263   0.382   1.800   7.620 -1.1284 -2.1812  1.2887
 2210SOL    HW218264   0.369   1.697   7.527 -2.2164  2.9208 -0.5848
 2211SOL     OW18265   2.439   0.288   3.054  0.2613  0.2513 -0.3196
 2211SOL    HW118266   2.346   0.309   3.060  0.0642 -0.9261  0.9213
 2211SOL    HW218267   2.452   0.198   3.086  0.1320  1.5676  3.4110
 2212SOL     OW18268   0.041   2.280   5.546 -0.0136  0.2402  0.0479
 2212SOL    HW118269   4.704   2.329   5.518  0.4366 -0.1026 -1.8050
 2212SOL    HW218270   0.006   2.193   5.527  0.5547  0.2336 -0.9871
 2213SOL     OW18271   2.756   2.529   9.841 -0.7232  0.5249 -0.0456
 2213SOL    HW118272   2.834   2.567   9.803 -0.3075  0.4167  0.6916
 2213SOL    HW218273   2.713   2.488   9.767 -0.1328  1.2453 -0.7825
 2214SOL     OW18274   4.690   1.490  11.846  0.0969 -0.0500 -0.7151
 2214SOL    HW118275   4.594   1.489  11.838 -0.0049  1.1947  0.3705
 2214SOL    HW218276   4.708   1.410  11.895 -1.3389  0.9326  1.4398
 2215SOL     OW18277   1.525   1.755   3.892 -0.3196  0.2983  0.9716
 2215SOL    HW118278   1.533   1.794   3.805 -1.2169 -2.3423 -0.2954
 2215SOL    HW218279   1.436   1.774   3.923 -0.4287  1.7541 -0.2334
 2216SOL     OW18280   0.720   3.420   2.614 -0.5620  0.1057  0.0849
 2216SOL    HW118281   0.675   3.454   2.692 -2.1597 -0.4752 -0.5701
 2216SOL    HW218282   0.714   3.486   2.546  3.0596  0.3372  0.0118
 2217SOL     OW18283   4.189   0.330   6.111 -0.3657  0.1960 -0.5872
 2217SOL    HW118284   4.157   0.382   6.038 -3.0610 -0.1484  0.3407
 2217SOL    HW218285   4.284   0.344   6.110 -0.6186  1.7683 -2.7528
 2218SOL     OW18286   3.387   2.588   4.058  0.4158  0.0555  0.0030
 2218SOL    HW118287   3.354   2.645   4.127  0.9464  1.7063 -1.1143
 2218SOL    HW218288   3.376   2.498   4.089 -1.3755  0.5190  0.6922
 2219SOL     OW18289   1.383   2.478   6.470  0.0599  0.5681  0.0270
 2219SOL    HW118290   1.358   2.482   6.563  1.8308  0.2727  0.5220
 2219SOL    HW218291   1.298   2.497   6.430  0.3337  4.8517  1.5377
 2220SOL     OW18292   3.488   3.006   9.209  0.5761 -0.3495  0.5962
 2220SOL    HW118293   3.531   2.962   9.136 -1.7058 -1.1445 -0.2763
 2220SOL    HW218294   3.559   3.060   9.243  0.1643  0.2239  0.5411
 2221SOL     OW18295   0.632   0.066   5.619  0.0632  0.1441 -0.2413
 2221SOL    HW118296   0.652   0.149   5.662 -0.5663  0.8512 -1.3059
 2221SOL    HW218297   0.549   0.070   5.571 -0.1281 -1.2767  0.0007
 2222SOL     OW18298   3.697   1.820  17.243  0.3171 -0.1778  0.1052
 2222SOL    HW118299   3.616   1.789  17.283 -0.5171 -0.4586 -1.7858
 2222SOL    HW218300   3.734   1.870  17.316  2.7521 -0.7030 -0.7680
 2223SOL     OW18301   0.614   1.482   9.023  0.6290 -0.4450  0.5743
 2223SOL    HW118302   0.524   1.511   9.035  0.3026 -1.2872  0.2108
 2223SOL    HW218303   0.600   1.423   8.948 -1.2760 -3.1481  3.0698
 2224SOL     OW18304   0.462   3.339   9.477  0.4074  0.2741 -0.1923
 2224SOL    HW118305   0.547   3.311   9.509 -0.4816 -1.0394  1.0388
 2224SOL    HW218306   0.425   3.265   9.430 -1.8841  0.6270  1.0012
 2225SOL     OW18307   4.317   2.485   7.329 -0.3761 -0.3046  0.4879
 2225SOL    HW118308   4.406   2.498   7.361  0.4390 -1.9051 -1.1075
 2225SOL    HW218309   4.309   2.389   7.332 -2.0836 -0.2717 -2.7052
 2226SOL     OW18310   1.760   0.346  10.599 -0.4432 -0.7420  0.3954
 2226SOL    HW118311   1.710   0.415  10.555 -0.7681 -1.1689  0.0927
 2226SOL    HW218312   1.802   0.383  10.677 -1.0276  0.2243  0.2601
 2227SOL     OW18313   3.926   0.005   2.943  0.1840 -0.2506 -0.3644
 2227SOL    HW118314   3.863   4.675   2.942  0.2230 -0.2863 -0.3112
 2227SOL    HW218315   3.889   0.072   2.885 -0.9609  1.4857  2.3894
 2228SOL     OW18316   3.696   0.771  14.425  1.0442 -0.7020  0.3779
 2228SOL    HW118317   3.659   0.744  14.341 -1.1041  0.2322  1.0310
 2228SOL    HW218318   3.641   0.736  14.495  2.3943 -1.4215  1.0584
 2229SOL     OW18319   2.075   2.922   3.902  0.3035  0.0285  0.3052
 2229SOL    HW118320   2.144   2.904   3.839  0.6041  0.1357  0.6063
 2229SOL    HW218321   2.035   2.835   3.897  2.6748 -1.1030  1.1095
 2230SOL     OW18322   2.747   0.229   5.958  0.1897 -0.2048 -0.1731
 2230SOL    HW118323   2.711   0.290   6.023 -1.5234  0.0266 -1.3388
 2230SOL    HW218324   2.740   0.149   6.010  0.5017  0.7273  1.3147
 2231SOL     OW18325   0.254   4.638   8.012 -0.0584 -0.3361 -0.2924
 2231SOL    HW118326   0.322   4.582   8.049 -2.1745  0.0038  4.0897
 2231SOL    HW218327   0.267   4.622   7.919  0.0526 -1.8864 -0.0137
 2232SOL     OW18328   2.610   0.714   4.115 -0.4589  0.7345 -0.4221
 2232SOL    HW118329   2.570   0.630   4.096  1.5660  0.3905 -3.1233
 2232SOL    HW218330   2.530   0.768   4.116 -1.0988 -0.2148 -0.7659
 2233SOL     OW18331   1.330   2.492   5.985 -0.3084 -0.7428 -0.5919
 2233SOL    HW118332   1.253   2.480   5.930 -2.4032  1.9551  1.7779
 2233SOL    HW218333   1.386   2.545   5.929  1.5744 -1.5884  0.4967
 2234SOL     OW18334   3.097   3.912   3.454 -0.0476  0.1128  0.5350
 2234SOL    HW118335   3.108   3.917   3.359  0.1326 -0.8036  0.5025
 2234SOL    HW218336   3.021   3.968   3.466  0.7488  0.8412  2.2170
 2235SOL     OW18337   3.935   2.344  15.898 -0.0633  0.2235 -0.3521
 2235SOL    HW118338   4.023   2.379  15.911  0.4346 -0.8600 -0.8266
 2235SOL    HW218339   3.907   2.418  15.844 -0.3277  1.5153  1.5456
 2236SOL     OW18340   4.471   3.064   3.503  0.0624 -0.1238  0.3798
 2236SOL    HW118341   4.434   3.150   3.524  1.3312  0.6312 -0.4609
 2236SOL    HW218342   4.468   3.025   3.590 -0.8599 -1.2027 -0.1360
 2237SOL     OW18343   3.418   1.897   3.707 -0.5239 -0.0683 -0.2087
 2237SOL    HW118344   3.382   1.827   3.653 -0.6354 -0.1990  0.0337
 2237SOL    HW218345   3.506   1.910   3.673  0.1844  0.5807  1.8786
 2238SOL     OW18346   3.394   3.115   6.484  0.1461  0.0316 -0.5751
 2238SOL    HW118347   3.449   3.167   6.426  0.2552  0.5092 -0.0374
 2238SOL    HW218348   3.453   3.111   6.559 -0.8139 -1.7267  0.1040
 2239SOL     OW18349   3.413   3.856   4.161  0.3708  0.0812  0.5015
 2239SOL    HW118350   3.478   3.913   4.119 -2.0726  1.8441 -0.8235
 2239SOL    HW218351   3.338   3.864   4.103  2.4277  0.0304 -2.1453
 2240SOL     OW18352   0.596   4.037   9.774 -0.0152  0.0836  0.1762
 2240SOL    HW118353   0.557   4.044   9.861 -2.7613 -2.3286 -0.8526
 2240SOL    HW218354   0.690   4.044   9.789 -0.0510  0.7848  0.1091
 2241SOL     OW18355   2.289   2.810   3.725  0.2646  0.0485  0.4531
 2241SOL    HW118356   2.333   2.784   3.806  1.0009  1.4445  0.4995
 2241SOL    HW218357   2.360   2.852   3.677 -0.4821 -0.1329 -0.8155
 2242SOL     OW18358   3.890   0.102   3.954 -0.0101  0.2756 -0.2131
 2242SOL    HW118359   3.807   0.136   3.987 -1.0353 -0.4823 -2.0442
 2242SOL    HW218360   3.892   0.012   3.986 -0.9239  0.9097  1.5873
 2243SOL     OW18361   4.165   3.782  17.217  0.2536  0.2143 -0.0732
 2243SOL    HW118362   4.157   3.855  17.155  1.8791 -0.2597 -0.8534
 2243SOL    HW218363   4.141   3.708  17.162  1.0144  0.2573 -0.4645
 2244SOL     OW18364   4.710   4.576  15.088  0.7232  0.3086 -0.2868
 2244SOL    HW118365   0.014   4.648  15.133  0.6772 -0.1044  0.4186
 2244SOL    HW218366   4.621   4.593  15.118  0.3727 -0.3505 -0.9532
 2245SOL     OW18367   3.526   1.935   8.300 -0.1613 -0.2860  0.2593
 2245SOL    HW118368   3.507   1.874   8.229  2.7033 -0.2798 -0.5426
 2245SOL    HW218369   3.523   2.018   8.252 -1.3117  0.9357  2.4688
 2246SOL     OW18370   1.095   0.727  16.368  0.8546  0.1957 -0.0019
 2246SOL    HW118371   1.031   0.787  16.329  1.0230  1.5744  1.8394
 2246SOL    HW218372   1.106   0.772  16.452 -1.9122  1.1722 -0.1502
 2247SOL     OW18373   2.859   0.926  11.139 -0.7775  0.8171 -0.6569
 2247SOL    HW118374   2.916   0.943  11.214 -0.0117  0.6063 -1.1979
 2247SOL    HW218375   2.862   1.015  11.104 -0.6233  1.4005  0.8313
 2248SOL     OW18376   2.733   4.385   3.351  0.1213  0.2411 -0.3277
 2248SOL    HW118377   2.691   4.317   3.297 -0.3952  0.6074 -0.3923
 2248SOL    HW218378   2.706   4.362   3.440  1.2856  0.4063  0.0634
 2249SOL     OW18379   1.343   3.202   0.792  0.8208 -0.0022  0.1091
 2249SOL    HW118380   1.402   3.142   0.747 -0.4728 -0.7216 -0.6192
 2249SOL    HW218381   1.384   3.288   0.780 -0.4155  0.4269 -0.9455
 2250SOL     OW18382   4.263   3.385   5.905 -0.1688 -1.4690 -0.1881
 2250SOL    HW118383   4.178   3.366   5.865 -1.3479  0.3297  1.4453
 2250SOL    HW218384   4.262   3.327   5.981  1.5875  1.4768  2.0600
 2251SOL     OW18385   2.184   0.425   3.015  0.2537 -0.1822  0.4823
 2251SOL    HW118386   2.095   0.424   2.982  0.4804  1.4383 -0.1709
 2251SOL    HW218387   2.213   0.491   2.952 -2.0114 -0.0066 -0.3593
 2252SOL     OW18388   1.361   3.801   8.541 -0.3228 -0.1556 -0.3638
 2252SOL    HW118389   1.373   3.853   8.462  0.5460 -1.4753 -1.1127
 2252SOL    HW218390   1.338   3.865   8.608 -1.9741 -0.4390 -0.6498
 2253SOL     OW18391   0.714   0.126  14.976 -0.1896 -0.6225  0.6514
 2253SOL    HW118392   0.765   0.081  14.909 -1.0970 -1.4458  0.5103
 2253SOL    HW218393   0.767   0.115  15.055  0.8437 -2.2899 -0.2864
 2254SOL     OW18394   4.086   1.429   7.438  0.6225 -0.0837 -0.1979
 2254SOL    HW118395   4.111   1.469   7.521  1.2626  0.4624 -0.6490
 2254SOL    HW218396   4.104   1.336   7.451  1.9254  0.0243 -1.1713
 2255SOL     OW18397   0.003   2.971   7.022 -0.0320 -0.0357  0.0002
 2255SOL    HW118398   0.003   3.000   7.113  2.2414  1.5948 -0.5120
 2255SOL    HW218399   4.726   2.877   7.027  1.0571 -0.2838 -0.8602
 2256SOL     OW18400   2.087   3.413   6.749  0.0689 -0.5656 -0.2266
 2256SOL    HW118401   2.096   3.486   6.810  1.1504  1.1687 -2.4816
 2256SOL    HW218402   2.143   3.349   6.793 -0.4105 -0.9806 -0.2151
 2257SOL     OW18403   3.250   0.097   5.702 -0.5315  0.2979  0.1419
 2257SOL    HW118404   3.213   0.095   5.791  0.5127  2.2634  0.6144
 2257SOL    HW218405   3.297   0.013   5.699  1.2573  1.2559  1.0167
 2258SOL     OW18406   1.111   3.365   4.335  0.4872 -0.3233  0.1848
 2258SOL    HW118407   1.022   3.374   4.368 -0.1608  0.0681 -1.6936
 2258SOL    HW218408   1.117   3.270   4.324  1.2979 -0.1417 -1.0095
 2259SOL     OW18409   2.948   1.321   2.813  0.1412 -0.0616 -0.6665
 2259SOL    HW118410   2.974   1.367   2.733  0.1901 -0.1475 -0.6998
 2259SOL    HW218411   2.872   1.377   2.831  0.9989  1.4410 -1.7089
 2260SOL     OW18412   1.540   4.168   5.957 -0.2362 -0.2065  0.2289
 2260SOL    HW118413   1.580   4.198   6.039 -0.9001  0.1402  0.4234
 2260SOL    HW218414   1.550   4.074   5.969 -1.3884 -0.2067  1.1480
 2261SOL     OW18415   3.187   0.841   0.993 -0.0713 -0.4081 -0.4313
 2261SOL    HW118416   3.274   0.808   1.016  0.3141  0.2618 -0.9164
 2261SOL    HW218417   3.150   0.881   1.072  1.4908  0.3644 -0.0786
 2262SOL     OW18418   1.614   3.011   5.961  0.6345  0.3142  0.0862
 2262SOL    HW118419   1.576   2.924   5.967  1.9443 -0.2009  1.0617
 2262SOL    HW218420   1.539   3.068   5.944 -0.3012 -0.5488  1.3489
 2263SOL     OW18421   3.599   3.943   7.739 -0.4239 -0.0529 -0.3225
 2263SOL    HW118422   3.608   3.922   7.832 -0.4692  1.6808  0.0718
 2263SOL    HW218423   3.607   3.856   7.700  0.7995  0.0851 -0.3926
 2264SOL     OW18424   3.169   1.857   7.786  1.0337  0.1997  0.3188
 2264SOL    HW118425   3.160   1.789   7.853 -0.0323 -2.0287 -2.0906
 2264SOL    HW218426   3.111   1.925   7.820  0.0276  0.6726 -2.3411
 2265SOL     OW18427   3.123   3.384   6.360  0.5069 -0.3537 -0.8016
 2265SOL    HW118428   3.104   3.467   6.316  1.5358  0.2620 -0.0801
 2265SOL    HW218429   3.182   3.350   6.293  1.4973  1.9754 -1.1026
 2266SOL     OW18430   0.324   1.828   4.145  0.3773  0.1771 -0.6255
 2266SOL    HW118431   0.299   1.736   4.161  0.2709  0.1239 -1.0998
 2266SOL    HW218432   0.254   1.876   4.190  1.2951  1.8611 -1.0199
 2267SOL     OW18433   1.174   4.646  13.307  0.4583  0.1835  0.1041
 2267SOL    HW118434   1.250   4.592  13.327 -0.7356 -1.6898 -0.4265
 2267SOL    HW218435   1.133   4.607  13.230  0.5148  0.3570 -0.0124
 2268SOL     OW18436   3.053   0.815   0.397 -0.2777 -0.1756  0.1527
 2268SOL    HW118437   2.996   0.801   0.473 -1.8973  1.2499 -0.8034
 2268SOL    HW218438   3.135   0.784   0.436 -1.8821 -2.7150  1.5179
 2269SOL     OW18439   2.811   3.905  14.807 -0.3654 -0.4185 -0.0755
 2269SOL    HW118440   2.828   3.937  14.718  1.6171 -0.7800  0.1614
 2269SOL    HW218441   2.747   3.836  14.790 -0.4667  0.0264 -1.5427
 2270SOL     OW18442   1.515   3.114  16.856  0.0666  0.2250  0.2323
 2270SOL    HW118443   1.484   3.179  16.794 -0.8807 -0.0476  0.4115
 2270SOL    HW218444   1.533   3.045  16.793 -0.8427 -0.4606  0.7127
 2271SOL     OW18445   1.266   2.614  12.910 -0.4636 -0.2576  0.3857
 2271SOL    HW118446   1.343   2.624  12.854 -0.4588 -2.1168  0.0445
 2271SOL    HW218447   1.278   2.525  12.943 -0.7618 -0.3844  0.1529
 2272SOL     OW18448   1.588   0.129   4.087  0.5235  0.1382  0.4915
 2272SOL    HW118449   1.570   0.216   4.124  0.1493  0.0815  0.4452
 2272SOL    HW218450   1.533   0.124   4.009  3.8096 -1.0868 -1.7357
 2273SOL     OW18451   3.452   0.186  10.366  0.1220 -0.6712  0.2524
 2273SOL    HW118452   3.416   0.262  10.412  0.2429 -0.6473  0.3065
 2273SOL    HW218453   3.511   0.220  10.299  0.0753 -0.7482  0.1709
 2274SOL     OW18454   2.804   4.340   7.460 -0.0383 -0.4617 -0.2765
 2274SOL    HW118455   2.855   4.420   7.470 -0.9494  0.0359  0.3324
 2274SOL    HW218456   2.855   4.279   7.513 -0.6654  1.3596  2.3930
 2275SOL     OW18457   2.085   4.186   0.525 -0.6199 -0.7330  0.5162
 2275SOL    HW118458   2.030   4.239   0.468  2.0494  1.1957 -0.2791
 2275SOL    HW218459   2.033   4.157   0.600 -1.0940 -0.9431  0.1002
 2276SOL     OW18460   1.623   0.270   3.655 -0.2763  0.8051  0.1192
 2276SOL    HW118461   1.557   0.307   3.597 -0.3310  0.9651  0.2805
 2276SOL    HW218462   1.620   0.339   3.722  0.9518 -0.8862  1.9096
 2277SOL     OW18463   1.339   1.195   3.090 -0.0113 -0.0710 -0.0588
 2277SOL    HW118464   1.427   1.204   3.126 -0.4628  0.8213  0.8214
 2277SOL    HW218465   1.358   1.136   3.017  0.3893  0.3527 -0.2981
 2278SOL     OW18466   0.593   1.476   4.039 -0.1957 -0.1588  0.4842
 2278SOL    HW118467   0.679   1.488   4.079 -0.5170  1.0950  0.7736
 2278SOL    HW218468   0.545   1.441   4.114  0.2796  0.3003  0.9977
 2279SOL     OW18469   2.575   0.210   1.484  0.1986 -0.0254 -0.0110
 2279SOL    HW118470   2.499   0.219   1.541  0.5432 -1.0623  0.6175
 2279SOL    HW218471   2.536   0.180   1.402 -2.8086 -1.1690  1.8275
 2280SOL     OW18472   3.803   2.708   7.901  0.3580 -0.2164  0.1422
 2280SOL    HW118473   3.831   2.769   7.833 -0.4289  2.2596  2.0180
 2280SOL    HW218474   3.777   2.764   7.974 -0.0213 -2.0973  1.4451
 2281SOL     OW18475   4.535   0.453   7.807  0.1386 -0.0746  0.2602
 2281SOL    HW118476   4.590   0.436   7.730 -0.9427  0.7005 -0.6845
 2281SOL    HW218477   4.470   0.507   7.763  0.7563 -1.4608 -2.3948
 2282SOL     OW18478   3.106   2.572   1.235 -0.1140 -0.1931  0.2956
 2282SOL    HW118479   3.108   2.527   1.150 -0.2288  2.1358 -0.9452
 2282SOL    HW218480   3.175   2.530   1.286 -0.3042 -0.3159  0.4527
 2283SOL     OW18481   2.951   4.259   0.315 -0.0909  0.3725 -0.0465
 2283SOL    HW118482   2.873   4.253   0.371 -0.3227 -0.0349 -0.4160
 2283SOL    HW218483   2.975   4.167   0.306 -0.9456  0.0617  0.8558
 2284SOL     OW18484   1.275   0.465   4.969 -0.1487 -0.1513  0.2157
 2284SOL    HW118485   1.301   0.454   5.060 -0.7900 -3.7115 -0.0045
 2284SOL    HW218486   1.212   0.537   4.969  1.3308  1.1529 -0.5725
 2285SOL     OW18487   2.195   0.108   7.483 -0.5618 -0.0083 -0.0747
 2285SOL    HW118488   2.100   0.097   7.476 -0.3514 -2.6107  1.4569
 2285SOL    HW218489   2.210   0.056   7.562  2.4898 -0.7288 -1.1229
 2286SOL     OW18490   2.231   3.990   0.435 -0.2429 -0.1647 -0.4465
 2286SOL    HW118491   2.175   4.055   0.476 -1.1630  0.8871 -3.3447
 2286SOL    HW218492   2.285   4.045   0.379  0.5636  0.4779  0.9906
 2287SOL     OW18493   1.490   1.639  15.489 -0.8302 -0.6451 -0.4683
 2287SOL    HW118494   1.530   1.618  15.405  0.3520 -0.5130  0.0731
 2287SOL    HW218495   1.568   1.662  15.538 -2.7635  1.8234  1.4398
 2288SOL     OW18496   3.249   0.722  13.585  0.0242  0.6686  0.4633
 2288SOL    HW118497   3.171   0.733  13.640  0.2618  1.2933  0.6826
 2288SOL    HW218498   3.306   0.656  13.624 -1.5186 -1.4142 -0.7947
 2289SOL     OW18499   2.774   0.380   1.431  0.0974  0.0979  0.1348
 2289SOL    HW118500   2.793   0.409   1.520 -1.9303  1.6559  0.0546
 2289SOL    HW218501   2.693   0.333   1.450 -0.7764  1.4830 -0.1909
 2290SOL     OW18502   0.311   3.580   6.771 -0.0615 -0.2576 -0.2702
 2290SOL    HW118503   0.311   3.484   6.773 -0.2577 -0.2262  1.7642
 2290SOL    HW218504   0.390   3.602   6.722 -1.0509  3.1831 -0.2788
 2291SOL     OW18505   0.867   3.344   7.875  1.0866  0.5483  0.0390
 2291SOL    HW118506   0.837   3.264   7.831  1.9581 -0.5590  1.4653
 2291SOL    HW218507   0.790   3.396   7.851  0.1552 -1.2927 -1.0110
 2292SOL     OW18508   3.256   4.724   6.707  0.4448  0.3980 -0.4168
 2292SOL    HW118509   3.289   0.072   6.698  0.0932  0.6191  0.4663
 2292SOL    HW218510   3.264   4.683   6.621 -2.0781 -0.5470 -0.2126
 2293SOL     OW18511   0.220   0.704   2.557  0.1406 -0.2082 -0.3180
 2293SOL    HW118512   0.229   0.665   2.644 -1.6979  2.5089  1.0928
 2293SOL    HW218513   0.231   0.623   2.507  1.1194 -0.1086 -0.2609
 2294SOL     OW18514   0.726   3.976   5.793 -0.2411 -0.0366 -0.0321
 2294SOL    HW118515   0.697   3.896   5.838  1.2352  0.0745  1.1201
 2294SOL    HW218516   0.790   3.945   5.728  1.2538  1.3411  0.7694
 2295SOL     OW18517   1.230   2.688   3.920  0.3893 -0.0987  0.2500
 2295SOL    HW118518   1.293   2.760   3.924 -2.3201  2.1861  1.9359
 2295SOL    HW218519   1.179   2.721   3.994 -0.5525  0.3891 -0.6228
 2296SOL     OW18520   0.719   3.298  15.757 -0.3930  0.5097  0.0064
 2296SOL    HW118521   0.733   3.204  15.765 -1.5285  0.4290  1.0787
 2296SOL    HW218522   0.661   3.318  15.831 -2.1885 -1.6562 -0.8120
 2297SOL     OW18523   4.144   4.701  17.248 -0.4052  0.2643 -0.3039
 2297SOL    HW118524   4.174   0.043  17.210 -0.6047 -0.9290 -3.0773
 2297SOL    HW218525   4.188   4.699  17.333  0.3370 -3.8706 -0.7621
 2298SOL     OW18526   1.349   2.867   5.800  0.1653 -0.2608  0.1024
 2298SOL    HW118527   1.264   2.898   5.833  0.2193 -0.4228  0.3971
 2298SOL    HW218528   1.340   2.773   5.782  2.6650 -0.2624 -1.1110
 2299SOL     OW18529   1.858   2.900   4.939  0.0829 -0.5513 -0.0847
 2299SOL    HW118530   1.825   2.938   5.020  1.6969  0.6463  0.0244
 2299SOL    HW218531   1.867   2.978   4.883 -1.2081 -0.1872  0.2194
 2300SOL     OW18532   2.329   2.505   3.810 -0.3413 -0.1548  0.5653
 2300SOL    HW118533   2.353   2.592   3.842  0.0432  0.3082 -1.0063
 2300SOL    HW218534   2.405   2.484   3.756  0.5675  1.5674  1.1701
 2301SOL     OW18535   0.226   2.237   8.332 -0.2283  0.2018 -0.0824
 2301SOL    HW118536   0.287   2.197   8.271 -1.6804 -0.0717 -1.3500
 2301SOL    HW218537   0.229   2.331   8.311 -2.6486  0.2539 -0.1529
 2302SOL     OW18538   2.596   1.792  10.428 -0.0191  0.6656  0.0250
 2302SOL    HW118539   2.527   1.727  10.441  1.2142 -0.2136  2.1078
 2302SOL    HW218540   2.646   1.764  10.505 -0.6296  0.9346  0.5186
 2303SOL     OW18541   1.177   2.250   7.973 -0.1627 -0.5164 -0.3569
 2303SOL    HW118542   1.242   2.184   7.950  1.0188  0.1846  0.9893
 2303SOL    HW218543   1.095   2.204   7.952 -0.7290  0.8864 -1.2526
 2304SOL     OW18544   2.100   2.052   8.192 -0.1042 -0.1504 -0.4537
 2304SOL    HW118545   2.098   2.097   8.108 -1.7988  1.1353  0.2681
 2304SOL    HW218546   2.130   2.126   8.245  1.7556 -0.1469 -1.5180
 2305SOL     OW18547   3.219   0.615   8.043 -0.2709  0.0955 -0.0823
 2305SOL    HW118548   3.156   0.557   8.001 -1.4574  1.4402 -0.1545
 2305SOL    HW218549   3.302   0.608   7.996  0.3685  3.9528  0.4414
 2306SOL     OW18550   3.800   2.304   8.406 -0.0128 -0.0742  0.0590
 2306SOL    HW118551   3.884   2.290   8.449 -0.2826 -0.8436  0.3441
 2306SOL    HW218552   3.804   2.235   8.340 -1.1036  0.4045 -0.5121
 2307SOL     OW18553   1.528   2.446   4.438 -0.1858  0.6151 -0.3558
 2307SOL    HW118554   1.434   2.431   4.450 -0.0284 -1.3858 -1.7115
 2307SOL    HW218555   1.556   2.357   4.417 -0.1853  0.4144  0.4963
 2308SOL     OW18556   0.753   4.582   5.386 -0.3672 -0.2517 -0.5774
 2308SOL    HW118557   0.796   4.586   5.471 -1.0283 -1.8328 -0.1681
 2308SOL    HW218558   0.829   4.592   5.328  1.6157  0.8010  2.2022
 2309SOL     OW18559   3.837   1.723   7.427 -0.2483 -0.4758 -0.2008
 2309SOL    HW118560   3.912   1.705   7.371  0.4545 -0.3869  0.7027
 2309SOL    HW218561   3.852   1.814   7.453  2.2647 -0.6459 -1.0919
 2310SOL     OW18562   0.248   3.357   8.899 -0.2981 -0.2502 -0.4822
 2310SOL    HW118563   0.329   3.406   8.913 -0.8233  0.7979 -1.1170
 2310SOL    HW218564   0.261   3.325   8.810 -0.5320  2.4722 -1.4976
 2311SOL     OW18565   4.345   1.258   7.237  0.2095  0.0760 -0.5431
 2311SOL    HW118566   4.432   1.223   7.220 -0.2514 -1.8487  0.9941
 2311SOL    HW218567   4.370   1.309   7.314  2.3902 -0.5806 -0.8277
 2312SOL     OW18568   0.197   3.062   8.242 -0.6923  0.1538  0.0253
 2312SOL    HW118569   0.147   3.103   8.313 -0.0602 -0.5421  0.8672
 2312SOL    HW218570   0.176   2.969   8.250  0.4085  0.0103  1.2759
 2313SOL     OW18571   2.266   3.440   1.829 -0.2121 -0.0431  0.3928
 2313SOL    HW118572   2.337   3.384   1.797  0.2116 -0.2813  1.7478
 2313SOL    HW218573   2.271   3.521   1.778 -0.1829  0.3884  1.0935
 2314SOL     OW18574   3.151   3.134   6.600 -0.3094 -0.1458 -0.1497
 2314SOL    HW118575   3.221   3.140   6.534 -0.6156 -2.4201 -0.6876
 2314SOL    HW218576   3.179   3.194   6.669  0.3656  0.4028 -0.8944
 2315SOL     OW18577   1.774   1.734   2.618  0.3940 -0.1344 -0.6376
 2315SOL    HW118578   1.738   1.822   2.629 -1.1247 -0.8556  0.0647
 2315SOL    HW218579   1.714   1.687   2.676  0.7150  1.2539  0.8195
 2316SOL     OW18580   4.501   0.873   8.760 -0.9837 -0.4151  0.0281
 2316SOL    HW118581   4.535   0.940   8.699 -0.0920  0.4283  1.4460
 2316SOL    HW218582   4.462   0.936   8.821  1.5432  2.2313 -1.1104
 2317SOL     OW18583   3.693   1.169   4.836 -0.7244  0.0183 -0.1567
 2317SOL    HW118584   3.623   1.212   4.786 -1.3561 -0.1159  0.6137
 2317SOL    HW218585   3.664   1.187   4.926  0.7452  0.1188  0.2895
 2318SOL     OW18586   4.376   0.218   7.595  0.0875  0.3481 -0.6888
 2318SOL    HW118587   4.446   0.174   7.644 -0.1947  2.3418  1.4846
 2318SOL    HW218588   4.311   0.148   7.589 -0.3954  0.6632  1.0402
 2319SOL     OW18589   3.754   3.118   3.596  0.2852  0.1035 -0.5527
 2319SOL    HW118590   3.781   3.177   3.526 -2.0722  1.8935  0.0456
 2319SOL    HW218591   3.660   3.133   3.599  0.6964  2.1806  2.1393
 2320SOL     OW18592   3.737   4.012   2.327  0.1609  0.2721  0.1410
 2320SOL    HW118593   3.734   4.065   2.406  0.2926  1.1606 -0.4581
 2320SOL    HW218594   3.829   4.009   2.301  0.1400 -0.2152  0.1139
 2321SOL     OW18595   1.768   0.388   8.068  0.5770  0.4067  0.5465
 2321SOL    HW118596   1.709   0.455   8.033  0.5371 -1.0528 -2.1503
 2321SOL    HW218597   1.709   0.318   8.093  1.2337 -1.2999 -2.6703
 2322SOL     OW18598   3.917   2.721   4.957  0.0064 -0.3305  0.4174
 2322SOL    HW118599   3.892   2.659   5.025 -0.8285  0.2018  0.6067
 2322SOL    HW218600   3.872   2.801   4.984  0.2563 -0.1111  0.1830
 2323SOL     OW18601   4.397   0.466   8.604 -0.3788 -0.6011 -0.3348
 2323SOL    HW118602   4.463   0.425   8.549 -1.1492 -0.3386 -1.4646
 2323SOL    HW218603   4.434   0.517   8.676  1.2308 -0.4848 -1.2458
 2324SOL     OW18604   2.079   1.290  15.111 -0.3781  0.2261 -0.4859
 2324SOL    HW118605   2.066   1.268  15.204 -1.6108 -0.3270 -0.7824
 2324SOL    HW218606   2.087   1.202  15.074 -0.5041  0.1610 -0.3571
 2325SOL     OW18607   2.552   4.500   0.485 -0.6096 -0.0421  0.1358
 2325SOL    HW118608   2.489   4.570   0.466 -1.3196 -1.6982 -3.4519
 2325SOL    HW218609   2.583   4.528   0.571 -0.1051 -0.1631 -0.0109
 2326SOL     OW18610   2.533   0.309  10.177 -0.0843  0.2661 -0.3389
 2326SOL    HW118611   2.522   0.391  10.129 -0.8538  1.1376  1.3419
 2326SOL    HW218612   2.461   0.258  10.138 -0.6497 -0.4311  1.6042
 2327SOL     OW18613   2.330   1.041   6.449 -0.4828 -0.1771 -0.5105
 2327SOL    HW118614   2.397   0.989   6.492 -0.7168  2.7830  3.4653
 2327SOL    HW218615   2.259   1.048   6.512 -0.8697  0.7227 -1.0441
 2328SOL     OW18616   3.723   3.899   9.195  0.1021 -0.0141  0.2497
 2328SOL    HW118617   3.672   3.894   9.276  0.4418 -1.0388  0.3922
 2328SOL    HW218618   3.667   3.836   9.152 -1.9111  1.5934  0.5124
 2329SOL     OW18619   1.041   0.480   6.152 -0.0747  0.3800 -0.3349
 2329SOL    HW118620   0.961   0.507   6.198 -0.2838  0.0870 -0.5276
 2329SOL    HW218621   1.046   0.513   6.063 -2.2872  0.8890 -0.2561
 2330SOL     OW18622   3.401   4.190   3.553 -0.1705 -0.8433 -0.4724
 2330SOL    HW118623   3.318   4.232   3.532  0.4455  0.3812 -0.4692
 2330SOL    HW218624   3.471   4.218   3.494  0.2060 -0.6026  0.0906
 2331SOL     OW18625   3.805   2.027   6.854 -0.2430  0.4325  0.1091
 2331SOL    HW118626   3.784   2.003   6.763  1.4305  0.1503 -0.2090
 2331SOL    HW218627   3.724   2.030   6.904  0.9052  2.0361  1.8658
 2332SOL     OW18628   1.967   1.928  14.898  0.1587  0.1482  0.3413
 2332SOL    HW118629   1.921   1.864  14.954  1.6099 -0.5439  0.7517
 2332SOL    HW218630   1.904   1.915  14.827 -1.1084 -0.2757  1.5381
 2333SOL     OW18631   2.941   3.289   7.955 -0.2981 -0.0967 -0.7446
 2333SOL    HW118632   2.972   3.374   7.924  2.1912 -0.6601  0.1617
 2333SOL    HW218633   2.930   3.240   7.873  2.1645 -1.0859 -0.5137
 2334SOL     OW18634   1.729   1.649   6.112  0.1485 -0.2596 -0.2813
 2334SOL    HW118635   1.765   1.562   6.091  0.0331 -0.4970  0.4994
 2334SOL    HW218636   1.671   1.661   6.037 -0.0629 -0.0720 -0.0862
 2335SOL     OW18637   2.435   0.982   2.622 -0.4437 -0.5062 -0.1640
 2335SOL    HW118638   2.524   1.012   2.641 -1.5323  0.7633  2.9661
 2335SOL    HW218639   2.399   0.968   2.710 -0.6824 -1.1075 -0.3569
 2336SOL     OW18640   1.318   4.632  17.155 -0.2042 -0.0231  0.0692
 2336SOL    HW118641   1.252   4.596  17.096 -1.2910  0.2795  1.0962
 2336SOL    HW218642   1.260   4.684  17.211  0.4538  1.4601 -0.6196
 2337SOL     OW18643   4.344   4.014   3.610  0.1793  0.0471 -0.9064
 2337SOL    HW118644   4.282   3.967   3.665 -1.0743  2.0414 -0.6134
 2337SOL    HW218645   4.308   4.102   3.624  1.9873  1.0491 -2.5813
 2338SOL     OW18646   2.204   0.870   9.272 -0.2418 -0.1126  0.1119
 2338SOL    HW118647   2.176   0.806   9.338  0.4304 -0.8376 -0.3119
 2338SOL    HW218648   2.126   0.870   9.217 -0.2919 -0.5884  0.1867
 2339SOL     OW18649   0.481   1.053   6.862  0.2256  0.7893 -0.2934
 2339SOL    HW118650   0.415   0.992   6.894  0.3434  0.7818 -0.0601
 2339SOL    HW218651   0.434   1.106   6.798  2.9047  3.9469  0.3554
 2340SOL     OW18652   2.854   0.870   8.546  0.1523 -0.0773  0.1891
 2340SOL    HW118653   2.764   0.861   8.516 -0.1701 -2.8554  1.9947
 2340SOL    HW218654   2.903   0.863   8.464  0.1061  0.7994  0.0907
 2341SOL     OW18655   0.559   4.611   8.662  0.5692  0.0172 -0.0169
 2341SOL    HW118656   0.468   4.587   8.676  0.3700  0.8602  0.1009
 2341SOL    HW218657   0.568   4.595   8.568  3.9651  2.6025 -0.1297
 2342SOL     OW18658   4.072   3.945  12.586 -0.8655 -0.1431  0.3133
 2342SOL    HW118659   4.079   3.850  12.583 -0.1930 -0.0487 -0.9744
 2342SOL    HW218660   4.002   3.962  12.649  0.3472  1.3092  1.2814
 2343SOL     OW18661   1.469   0.738   6.862  0.3403  0.2983 -0.5249
 2343SOL    HW118662   1.377   0.710   6.864  0.6328 -0.7289 -2.0607
 2343SOL    HW218663   1.461   0.827   6.896 -1.4838 -0.4219  0.9237
 2344SOL     OW18664   3.205   4.506   2.904  0.2843 -0.4913 -0.1952
 2344SOL    HW118665   3.190   4.417   2.935 -0.1613 -0.1265  0.6531
 2344SOL    HW218666   3.228   4.570   2.972  0.5967  0.0866 -0.8420
 2345SOL     OW18667   2.326   0.903  10.183  0.3030  0.8684  0.1840
 2345SOL    HW118668   2.278   0.872  10.260 -1.9393 -0.8109 -1.9132
 2345SOL    HW218669   2.269   0.886  10.108  1.6349  0.3260 -0.6946
 2346SOL     OW18670   2.707   2.613   4.786  0.0535 -0.2925  0.3340
 2346SOL    HW118671   2.798   2.612   4.814  0.6079  0.3712 -1.4746
 2346SOL    HW218672   2.715   2.689   4.728 -1.4660  0.9863  1.7912
 2347SOL     OW18673   4.593   3.391   2.241 -0.5203  0.1837 -0.5628
 2347SOL    HW118674   4.642   3.430   2.168  0.1006 -0.9650 -0.7636
 2347SOL    HW218675   4.663   3.347   2.290 -0.2608 -0.1588 -1.2366
 2348SOL     OW18676   4.201   2.908  11.200  0.3325  0.1112  0.1439
 2348SOL    HW118677   4.276   2.898  11.142  1.3435 -1.2029  1.6786
 2348SOL    HW218678   4.123   2.930  11.149 -0.8468  0.6155  2.1801
 2349SOL     OW18679   0.875   1.042   8.920 -0.1561 -0.2163  0.1330
 2349SOL    HW118680   0.801   1.057   8.861 -0.8321  1.0784  1.2883
 2349SOL    HW218681   0.903   0.954   8.896  0.9179 -0.2158  1.3758
 2350SOL     OW18682   3.387   1.566   4.820  0.0389  0.7789 -0.6186
 2350SOL    HW118683   3.295   1.585   4.804  0.1536  1.4763 -0.4569
 2350SOL    HW218684   3.376   1.511   4.897  0.8963  0.3654 -0.7890
 2351SOL     OW18685   3.447   0.058  11.023  0.1556 -0.3877  0.2053
 2351SOL    HW118686   3.489   0.048  10.937 -1.6915 -0.3018 -0.7045
 2351SOL    HW218687   3.394   0.138  11.018 -0.2478 -0.8038 -2.3292
 2352SOL     OW18688   0.536   4.729   3.346 -0.2446 -0.0518  0.2371
 2352SOL    HW118689   0.572   4.641   3.357  0.4881  0.1564 -0.4497
 2352SOL    HW218690   0.557   0.003   3.254  0.8141  0.5583  0.5725
 2353SOL     OW18691   3.275   2.474  16.173  0.5329 -0.3898  0.1112
 2353SOL    HW118692   3.250   2.566  16.173  0.5674 -0.3817 -0.1068
 2353SOL    HW218693   3.318   2.468  16.088 -1.0691  0.7636 -0.7893
 2354SOL     OW18694   3.351   2.911  13.278 -0.0314 -0.2985  0.2107
 2354SOL    HW118695   3.335   2.997  13.316 -0.1372  0.0439 -0.6145
 2354SOL    HW218696   3.297   2.858  13.337  0.0755  1.0800  1.5192
 2355SOL     OW18697   4.335   0.731  15.250 -0.4969 -0.0819  0.1044
 2355SOL    HW118698   4.392   0.683  15.190  0.5556  1.2827  0.0072
 2355SOL    HW218699   4.380   0.816  15.252  1.4751 -1.1269 -0.1454
 2356SOL     OW18700   3.780   1.992  13.458  0.1148  0.0927 -0.8446
 2356SOL    HW118701   3.797   2.086  13.460  0.1551  0.0509  0.9390
 2356SOL    HW218702   3.855   1.969  13.403 -0.3299 -0.9306 -1.0302
 2357SOL     OW18703   3.422   2.751   8.077  0.2249  0.2795  0.4175
 2357SOL    HW118704   3.475   2.750   8.157 -0.6737 -0.8698  0.9957
 2357SOL    HW218705   3.391   2.661   8.066 -2.2914  1.3930 -1.3464
 2358SOL     OW18706   2.332   3.740   2.496 -0.1332 -0.3051 -0.5641
 2358SOL    HW118707   2.308   3.807   2.560 -2.3063 -1.8734  0.2491
 2358SOL    HW218708   2.331   3.653   2.536  2.7890  0.0609  0.3214
 2359SOL     OW18709   3.049   4.515  17.542  0.0900 -0.4789 -0.3431
 2359SOL    HW118710   3.114   4.452  17.510 -0.0302 -1.1721  0.7458
 2359SOL    HW218711   3.092   4.590  17.501  0.1259  2.1281  4.3826
 2360SOL     OW18712   2.541   1.162   4.158 -0.2394 -0.5610  0.0307
 2360SOL    HW118713   2.492   1.115   4.090 -1.3742  1.7565 -0.7543
 2360SOL    HW218714   2.577   1.230   4.102  0.0085 -1.5001 -0.9358
 2361SOL     OW18715   2.621   4.487   8.995 -0.4037 -0.2709  0.2658
 2361SOL    HW118716   2.696   4.431   9.013 -0.7349 -1.3405 -1.6739
 2361SOL    HW218717   2.608   4.533   9.078  0.4496  0.8880 -0.2559
 2362SOL     OW18718   4.191   4.456   8.288  0.1789 -0.0218  0.0447
 2362SOL    HW118719   4.101   4.431   8.270 -0.0987  1.4393 -0.6701
 2362SOL    HW218720   4.193   4.486   8.379 -0.0653 -2.5452  0.8636
 2363SOL     OW18721   2.886   1.137   5.656 -0.1690  0.0347 -0.5011
 2363SOL    HW118722   2.819   1.189   5.611 -1.6984  0.3048  2.1118
 2363SOL    HW218723   2.965   1.153   5.605  0.4174 -0.9314  0.0958
 2364SOL     OW18724   2.858   3.175   6.077  0.1692  0.0074 -0.1680
 2364SOL    HW118725   2.854   3.080   6.062 -1.1873  0.3768 -2.1584
 2364SOL    HW218726   2.783   3.197   6.132  0.4307 -0.3284  0.3176
 2365SOL     OW18727   0.168   4.535   9.766  0.1404 -0.4121  0.2000
 2365SOL    HW118728   0.121   4.581   9.836 -0.1033 -0.3763  0.0118
 2365SOL    HW218729   0.184   4.605   9.703  2.1112  0.5419  1.7752
 2366SOL     OW18730   0.251   2.465   5.686  1.2006 -0.5929  0.0144
 2366SOL    HW118731   0.177   2.426   5.640  0.5789  1.1339 -0.4049
 2366SOL    HW218732   0.331   2.445   5.638  0.9113 -1.1629 -0.2368
 2367SOL     OW18733   4.638   4.689  17.561  0.2008 -0.1485  0.2480
 2367SOL    HW118734   4.623   4.596  17.578  3.3991 -0.0333  3.7207
 2367SOL    HW218735   4.591   4.697  17.478  0.6277  1.0467  0.1231
 2368SOL     OW18736   4.509   4.133   7.422  0.0473 -0.3560  0.1364
 2368SOL    HW118737   4.591   4.083   7.420  0.6510  0.5762  1.5057
 2368SOL    HW218738   4.507   4.186   7.341 -0.1650  1.3012  1.2267
 2369SOL     OW18739   1.804   2.718   1.957 -0.2231 -0.3520 -0.0417
 2369SOL    HW118740   1.839   2.661   1.889  2.0604  1.5987 -0.4966
 2369SOL    HW218741   1.720   2.674   1.972 -0.4353 -0.2996 -1.0976
 2370SOL     OW18742   0.285   3.841   3.367 -0.2544  0.5120  0.2733
 2370SOL    HW118743   0.272   3.933   3.387  0.2391  1.0972 -2.1171
 2370SOL    HW218744   0.381   3.837   3.369 -0.1924  2.1491  0.2142
 2371SOL     OW18745   2.191   3.733  11.426  0.4299 -0.0557 -0.3331
 2371SOL    HW118746   2.212   3.825  11.413 -0.9085  0.3888  0.6185
 2371SOL    HW218747   2.282   3.710  11.411  0.7805 -0.3935  2.3463
 2372SOL     OW18748   3.226   1.434   8.138  0.4177  0.1137 -0.1426
 2372SOL    HW118749   3.201   1.520   8.104  0.5621  0.2765  0.1645
 2372SOL    HW218750   3.299   1.462   8.193 -0.0641  1.1278 -0.0144
 2373SOL     OW18751   3.752   2.552   1.252  0.4702  0.2785  0.3046
 2373SOL    HW118752   3.815   2.617   1.284  0.4337 -0.6321  2.2682
 2373SOL    HW218753   3.742   2.513   1.339  0.7700  0.8739  0.6137
 2374SOL     OW18754   1.367   0.648   3.511 -0.3452 -0.2233 -0.6218
 2374SOL    HW118755   1.369   0.697   3.429  2.1553  1.3472  0.3785
 2374SOL    HW218756   1.287   0.675   3.557  1.3213  2.7667  0.5045
 2375SOL     OW18757   1.002   4.641   6.328  0.2744 -0.2609 -0.5274
 2375SOL    HW118758   1.085   4.593   6.329  0.6096  0.3051 -1.2156
 2375SOL    HW218759   1.035   4.730   6.337 -1.9409  0.4550  0.3470
 2376SOL     OW18760   0.566   1.720   7.921 -0.3417 -0.1106 -0.0239
 2376SOL    HW118761   0.512   1.760   7.988  1.4103  1.1846  0.6229
 2376SOL    HW218762   0.513   1.647   7.890  1.4499 -1.2281 -0.4433
 2377SOL     OW18763   1.975   4.624   1.568  0.0652 -0.0993 -0.0523
 2377SOL    HW118764   1.955   4.535   1.539 -1.9747  0.5341 -0.5644
 2377SOL    HW218765   2.054   4.607   1.619 -1.0497  0.3400  1.8310
 2378SOL     OW18766   4.543   4.307  15.131  0.1213  0.2812 -0.0576
 2378SOL    HW118767   4.490   4.386  15.118  0.8142  0.6018 -0.9650
 2378SOL    HW218768   4.622   4.330  15.082  0.5422  0.8124  0.8853
 2379SOL     OW18769   1.280   2.682   5.311  0.1221  0.0916  0.2684
 2379SOL    HW118770   1.376   2.690   5.310  0.2925 -2.1504 -0.2422
 2379SOL    HW218771   1.265   2.772   5.282  0.4619  0.7245  2.0440
 2380SOL     OW18772   3.806   4.349   2.579 -0.4969  0.2523 -0.4891
 2380SOL    HW118773   3.738   4.327   2.515  0.6723 -2.3699 -0.8273
 2380SOL    HW218774   3.825   4.259   2.605 -0.9659  0.6160  1.0820
 2381SOL     OW18775   3.614   1.452   1.234  0.0906 -0.3804 -0.6549
 2381SOL    HW118776   3.677   1.409   1.292 -1.0383 -0.1613  0.7407
 2381SOL    HW218777   3.632   1.399   1.156 -0.3960 -0.6951 -0.5567
 2382SOL     OW18778   4.212   0.116   6.575  0.3021  0.1418 -0.2984
 2382SOL    HW118779   4.268   0.105   6.652  0.6788  3.4530 -0.1226
 2382SOL    HW218780   4.272   0.106   6.501  1.0874 -1.0068  0.4929
 2383SOL     OW18781   4.104   2.954   3.204 -0.4014 -0.2123  0.1443
 2383SOL    HW118782   4.111   2.914   3.117  1.1555 -1.0198  0.6498
 2383SOL    HW218783   4.142   2.891   3.265 -0.7757  0.2305  0.8241
 2384SOL     OW18784   4.528   2.497   4.616  0.4931  0.6229 -0.4205
 2384SOL    HW118785   4.607   2.444   4.608  1.7844  2.2960  1.0218
 2384SOL    HW218786   4.538   2.518   4.709 -1.7152 -0.0761 -0.0251
 2385SOL     OW18787   2.180   4.180   7.749 -0.2497 -0.5103 -1.0321
 2385SOL    HW118788   2.121   4.252   7.772  0.7469  0.0203 -0.0933
 2385SOL    HW218789   2.264   4.220   7.771 -2.1211  2.1010  1.3226
 2386SOL     OW18790   0.025   1.166   3.703  0.0436  0.0347 -0.3204
 2386SOL    HW118791   0.014   1.111   3.626 -1.6936 -0.1953  0.1066
 2386SOL    HW218792   0.027   1.108   3.779  0.9870  0.3008 -0.1342
 2387SOL     OW18793   2.259   0.233   2.641  0.0389  0.2950  0.1122
 2387SOL    HW118794   2.300   0.300   2.586  1.0758 -0.3540  0.1062
 2387SOL    HW218795   2.301   0.153   2.609 -2.8896 -0.9214 -0.7151
 2388SOL     OW18796   1.593   4.550   7.048 -0.4028  0.2698  0.6970
 2388SOL    HW118797   1.515   4.516   7.091 -0.4811 -0.6490 -0.1633
 2388SOL    HW218798   1.650   4.473   7.051 -0.1963  0.3919  0.0674
 2389SOL     OW18799   4.595   4.640   9.109  0.0810 -0.1227 -0.2023
 2389SOL    HW118800   4.633   4.553   9.120  0.6581  0.3104  1.2679
 2389SOL    HW218801   4.533   4.628   9.037  1.0934 -1.9468 -0.7763
 2390SOL     OW18802   0.563   0.769   2.647 -0.2980 -0.1334  0.7760
 2390SOL    HW118803   0.655   0.747   2.661  0.3310  2.3180  0.6113
 2390SOL    HW218804   0.555   0.770   2.552 -0.3183 -2.7099  0.7635
 2391SOL     OW18805   4.529   3.983   7.910  0.1487 -0.2765  0.1132
 2391SOL    HW118806   4.530   4.009   8.002  3.1207  3.9401 -1.1410
 2391SOL    HW218807   4.621   3.994   7.889  0.3830 -1.4623  0.4916
 2392SOL     OW18808   2.979   2.143   4.926 -0.3075 -0.3111  0.1912
 2392SOL    HW118809   3.008   2.067   4.874  0.8118 -0.1805  0.6176
 2392SOL    HW218810   2.934   2.109   5.004  2.2508 -1.1261  1.3145
 2393SOL     OW18811   4.410   4.498   0.012 -0.2375  0.5381 -0.4582
 2393SOL    HW118812   4.494   4.512  17.729 -0.3818  0.3764 -0.7859
 2393SOL    HW218813   4.369   4.435  17.712 -1.9911  0.9192  0.3117
 2394SOL     OW18814   0.989   3.849   3.118  0.2645 -0.1635  0.3552
 2394SOL    HW118815   0.980   3.921   3.055 -0.0057  0.8109  1.5062
 2394SOL    HW218816   0.959   3.771   3.072  0.4349  1.3690 -2.3282
 2395SOL     OW18817   1.899   3.816   4.608  0.5849  0.1737  0.1087
 2395SOL    HW118818   1.906   3.721   4.616  0.3973  0.1324 -0.1956
 2395SOL    HW218819   1.845   3.838   4.684  0.7983  1.8068 -0.2219
 2396SOL     OW18820   1.340   3.600   9.227  0.1487 -0.0143 -0.0006
 2396SOL    HW118821   1.375   3.538   9.292 -3.1497 -2.0807 -0.1489
 2396SOL    HW218822   1.323   3.546   9.150 -2.7380  0.1677  0.5034
 2397SOL     OW18823   4.302   0.526   5.751 -0.1118  0.3910 -0.2665
 2397SOL    HW118824   4.387   0.517   5.794 -0.2241  1.5459  0.1888
 2397SOL    HW218825   4.235   0.470   5.791  1.2418 -2.5783 -2.1480
 2398SOL     OW18826   2.614   3.321   4.663 -0.1832 -0.0912  0.1224
 2398SOL    HW118827   2.694   3.287   4.622 -0.0904  0.2404  0.0296
 2398SOL    HW218828   2.613   3.412   4.633 -0.9214  0.1932  1.0250
 2399SOL     OW18829   2.001   3.951  17.448  0.2946 -0.2093  0.4844
 2399SOL    HW118830   1.935   3.956  17.379 -1.2532  0.9686  2.0725
 2399SOL    HW218831   2.076   3.957  17.388  1.6698  0.2523  2.2604
 2400SOL     OW18832   1.785   1.911  11.869 -0.5431 -0.7158 -0.3030
 2400SOL    HW118833   1.752   1.890  11.781  0.7861 -1.3150 -0.6511
 2400SOL    HW218834   1.703   1.947  11.904  0.1317  1.6512 -1.1416
 2401SOL     OW18835   4.688   3.447   8.260  0.3541  0.0263  0.3793
 2401SOL    HW118836   4.643   3.417   8.180  1.9577 -2.2656  0.3176
 2401SOL    HW218837   4.625   3.512   8.291 -0.1698 -0.7118  0.8717
 2402SOL     OW18838   1.975   3.233   8.211 -0.2406 -0.0634  0.5025
 2402SOL    HW118839   1.887   3.214   8.245  0.9637 -2.4548  2.2432
 2402SOL    HW218840   1.962   3.252   8.118  0.3779  2.4673  0.9317
 2403SOL     OW18841   3.614   0.651   0.083  0.0794  0.5455 -0.1946
 2403SOL    HW118842   3.582   0.675  17.757  0.5374  1.5934 -0.0866
 2403SOL    HW218843   3.541   0.595   0.107 -0.9028  2.2851  0.9324
 2404SOL     OW18844   3.246   4.227  16.708 -0.3117 -0.3779 -0.2975
 2404SOL    HW118845   3.189   4.275  16.648  1.4126 -2.5444 -3.6526
 2404SOL    HW218846   3.332   4.259  16.683 -0.5759  1.2386  0.8733
 2405SOL     OW18847   4.331   0.676  17.381  0.3637 -0.3064 -0.3915
 2405SOL    HW118848   4.374   0.657  17.298  0.2229 -0.4611 -0.4303
 2405SOL    HW218849   4.353   0.769  17.378  0.1086 -0.2433 -0.3843
 2406SOL     OW18850   1.738   3.457   3.194 -0.5840  0.1372 -0.2684
 2406SOL    HW118851   1.820   3.426   3.155  0.9488  2.4085  1.1117
 2406SOL    HW218852   1.752   3.552   3.192 -0.7549  0.1444 -1.1623
 2407SOL     OW18853   2.266   1.044   2.068 -0.0198  0.4366 -0.4241
 2407SOL    HW118854   2.229   1.118   2.020 -0.2828 -0.9960 -2.4833
 2407SOL    HW218855   2.261   1.080   2.156  1.9225 -0.8398  0.2077
 2408SOL     OW18856   2.005   3.635   3.532 -0.3232  0.6217 -0.5462
 2408SOL    HW118857   1.913   3.634   3.558 -0.0823 -0.2243  0.2870
 2408SOL    HW218858   2.057   3.661   3.607  0.0464 -3.6987  0.7131
 2409SOL     OW18859   4.013   3.233   4.593 -0.3333 -0.3247 -0.2705
 2409SOL    HW118860   4.104   3.206   4.597 -0.7214 -1.2400  2.1413
 2409SOL    HW218861   4.034   3.324   4.570 -1.0660 -0.4831 -1.6176
 2410SOL     OW18862   3.971   3.741   6.252  0.3395 -0.2187 -0.4826
 2410SOL    HW118863   3.958   3.835   6.257 -0.9201 -0.5083  1.6408
 2410SOL    HW218864   3.968   3.706   6.341  2.2520  4.2576  1.3053
 2411SOL     OW18865   0.961   4.675  12.408  0.2827  0.0678  0.2632
 2411SOL    HW118866   0.982   4.608  12.473 -1.1828  1.3388  2.0470
 2411SOL    HW218867   1.039   4.730  12.399 -1.5075  2.7640  1.0874
 2412SOL     OW18868   1.222   2.459   1.810 -0.5464  0.0455 -0.5238
 2412SOL    HW118869   1.289   2.513   1.766 -0.7702  0.9936  0.2938
 2412SOL    HW218870   1.160   2.528   1.835 -1.1557 -0.3930 -0.8312
 2413SOL     OW18871   1.075   2.976   1.021  0.1130  0.2346  0.0345
 2413SOL    HW118872   1.039   3.060   0.992  1.0181  0.4069 -0.5971
 2413SOL    HW218873   1.166   3.000   1.034 -0.0951  0.4623  1.1042
 2414SOL     OW18874   0.504   0.542   3.197  0.0859  0.0223 -0.0906
 2414SOL    HW118875   0.593   0.568   3.224  0.6617 -0.9989 -1.0001
 2414SOL    HW218876   0.446   0.591   3.255 -1.3056 -1.4254 -0.2946
 2415SOL     OW18877   1.553   1.797   0.904 -0.0745  0.0782  0.3259
 2415SOL    HW118878   1.614   1.795   0.830 -0.1201  0.3812  0.2766
 2415SOL    HW218879   1.468   1.782   0.863  0.7296 -0.6460 -1.0739
 2416SOL     OW18880   2.781   2.713   5.389 -0.4052 -0.1717 -0.7248
 2416SOL    HW118881   2.827   2.717   5.473  0.8881 -1.3219 -1.3644
 2416SOL    HW218882   2.832   2.642   5.350 -1.0057 -0.9016 -0.1817
 2417SOL     OW18883   1.162   2.681  17.436 -0.1223  0.7082 -0.4674
 2417SOL    HW118884   1.093   2.624  17.403  1.7240 -0.4169 -2.4102
 2417SOL    HW218885   1.156   2.750  17.370  0.7648 -0.7463 -2.0765
 2418SOL     OW18886   0.893   2.803   1.181  0.5824 -0.2480 -0.0173
 2418SOL    HW118887   0.943   2.746   1.239 -0.7630 -0.2402  1.1469
 2418SOL    HW218888   0.951   2.852   1.123  2.3990 -2.2481  0.1361
 2419SOL     OW18889   1.652   3.814  13.590  0.1601  0.5538  0.6134
 2419SOL    HW118890   1.637   3.721  13.606 -2.0973  0.4401 -2.0128
 2419SOL    HW218891   1.672   3.845  13.678  1.4668 -0.6450  0.7469
 2420SOL     OW18892   0.387   0.119   7.154 -0.0627  0.1615  0.1278
 2420SOL    HW118893   0.431   0.183   7.210  0.3943  0.8527 -1.0274
 2420SOL    HW218894   0.440   0.120   7.074  1.3609  0.9832  1.0861
 2421SOL     OW18895   0.798   0.571   4.909  0.1078 -0.7935  0.5100
 2421SOL    HW118896   0.860   0.597   4.841 -0.5329  3.5707  1.5506
 2421SOL    HW218897   0.800   0.477   4.894  1.8602 -0.6717 -0.0188
 2422SOL     OW18898   0.233   4.537   5.488  0.2238 -0.6082 -0.1083
 2422SOL    HW118899   0.318   4.529   5.531  1.7805  2.5001 -2.6337
 2422SOL    HW218900   0.216   4.443   5.478 -0.4332 -0.7673  2.4152
 2423SOL     OW18901   1.576   3.840   5.246 -0.0323  0.1412 -0.2023
 2423SOL    HW118902   1.651   3.881   5.203  1.5405 -0.7432  1.7201
 2423SOL    HW218903   1.501   3.896   5.225  0.6529  1.2280  0.1995
 2424SOL     OW18904   2.195   0.668   1.886 -0.2875  0.0744 -0.2691
 2424SOL    HW118905   2.134   0.604   1.850  0.7342 -0.4542 -1.0347
 2424SOL    HW218906   2.127   0.711   1.938 -0.4375  1.3868 -1.5725
 2425SOL     OW18907   4.666   1.860   1.928  0.7438  0.3113 -0.2958
 2425SOL    HW118908   4.606   1.825   1.862  0.4951  0.0392  0.0708
 2425SOL    HW218909   4.620   1.943   1.939  0.3572 -0.1330  1.5010
 2426SOL     OW18910   1.527   3.042   8.701 -0.3441 -0.0812  0.0308
 2426SOL    HW118911   1.491   3.009   8.784 -0.1860 -2.1789 -0.7462
 2426SOL    HW218912   1.583   3.114   8.728  1.6159 -0.8054 -2.0939
 2427SOL     OW18913   4.463   0.633   3.663  0.6193 -0.0222  0.4071
 2427SOL    HW118914   4.545   0.653   3.709  0.8021  1.5272 -0.6074
 2427SOL    HW218915   4.442   0.543   3.688  1.1013 -0.1267  0.4350
 2428SOL     OW18916   3.715   2.366   5.634  0.4829  0.1816  0.1182
 2428SOL    HW118917   3.688   2.368   5.542  0.4549 -0.2639  0.1195
 2428SOL    HW218918   3.700   2.275   5.660 -3.5268  0.8828  0.2834
 2429SOL     OW18919   2.683   4.141   6.949  0.0205 -0.1896 -0.1416
 2429SOL    HW118920   2.766   4.124   6.993 -0.8783  1.4728  2.1791
 2429SOL    HW218921   2.704   4.116   6.859  2.9010 -1.6979  0.9359
 2430SOL     OW18922   1.224   0.308   6.258  0.3027 -0.0185  0.6773
 2430SOL    HW118923   1.304   0.359   6.272  0.3065 -0.0489  0.7659
 2430SOL    HW218924   1.157   0.375   6.244  0.3491 -0.2181 -0.5067
 2431SOL     OW18925   3.117   1.487  17.620 -0.0024  0.9395 -0.0753
 2431SOL    HW118926   3.070   1.404  17.610 -0.7826  1.6263 -2.1798
 2431SOL    HW218927   3.195   1.449  17.661 -0.1634  1.6356  0.8826
 2432SOL     OW18928   3.520   2.539  17.141 -0.3795 -0.7453 -0.3155
 2432SOL    HW118929   3.494   2.585  17.061  1.3530  0.6352 -0.0728
 2432SOL    HW218930   3.444   2.541  17.198 -1.1173  2.6713 -1.4480
 2433SOL     OW18931   2.464   4.201   1.612 -0.2386  0.3977 -0.2401
 2433SOL    HW118932   2.542   4.152   1.638  0.1538  0.6735 -0.8704
 2433SOL    HW218933   2.496   4.289   1.593 -0.6025  0.5009 -0.3659
 2434SOL     OW18934   3.331   1.183   2.386 -0.0560  1.0656 -0.4043
 2434SOL    HW118935   3.381   1.166   2.466  1.4368  0.4967 -1.4787
 2434SOL    HW218936   3.392   1.143   2.325  3.4355  1.3072  2.9588
 2435SOL     OW18937   4.522   0.123   0.996 -0.0953  0.6038  0.3171
 2435SOL    HW118938   4.503   0.213   1.021 -0.0159  0.7222 -0.0503
 2435SOL    HW218939   4.454   0.106   0.930  0.2759  2.3137 -0.5102
 2436SOL     OW18940   2.576   2.220  16.675 -0.9821  0.3204  0.4476
 2436SOL    HW118941   2.664   2.181  16.677 -1.6719 -1.3123 -0.8414
 2436SOL    HW218942   2.529   2.140  16.697 -0.6434 -0.4213 -1.5134
 2437SOL     OW18943   3.602   4.628   3.705  0.4539 -0.0573 -0.3816
 2437SOL    HW118944   3.670   4.562   3.720 -0.9552 -1.4485 -0.1193
 2437SOL    HW218945   3.523   4.579   3.682  0.5265 -0.9660  1.2736
 2438SOL     OW18946   4.249   2.102   0.575  0.0429  0.4688 -0.5894
 2438SOL    HW118947   4.303   2.147   0.509 -1.2063 -0.1369 -2.0261
 2438SOL    HW218948   4.170   2.156   0.568  0.5795  1.2623 -0.5896
 2439SOL     OW18949   3.237   4.203   6.512  0.1661  0.1261  0.1459
 2439SOL    HW118950   3.211   4.276   6.456 -0.9944 -0.2585  0.1922
 2439SOL    HW218951   3.211   4.131   6.455 -0.2198 -1.1747  1.9731
 2440SOL     OW18952   3.576   0.180   2.666  0.2182 -0.0091 -0.0412
 2440SOL    HW118953   3.489   0.142   2.674 -0.2535  1.4173  1.8748
 2440SOL    HW218954   3.570   0.257   2.723  0.7616 -1.1865  1.6274
 2441SOL     OW18955   3.746   2.930  11.887 -0.6040 -0.2491 -0.3281
 2441SOL    HW118956   3.698   3.011  11.906  0.5010 -0.5376  3.7410
 2441SOL    HW218957   3.683   2.864  11.858 -1.1353  0.1136  0.0033
 2442SOL     OW18958   0.288   1.987   2.217 -0.3289 -0.3326 -0.1274
 2442SOL    HW118959   0.236   1.982   2.297  0.6730 -0.7606  0.5094
 2442SOL    HW218960   0.343   2.061   2.242 -1.5479  0.1205  1.1866
 2443SOL     OW18961   3.042   3.770   0.953 -0.1855 -0.2028 -0.1338
 2443SOL    HW118962   3.093   3.736   1.026 -1.3702 -0.6733  0.4736
 2443SOL    HW218963   3.002   3.849   0.988  0.7605  0.1814  0.0988
 2444SOL     OW18964   3.437   3.292   2.741  0.4932 -0.2555 -0.1968
 2444SOL    HW118965   3.482   3.244   2.672 -1.9185  0.9979 -2.6251
 2444SOL    HW218966   3.478   3.252   2.818  1.2490  0.2572 -0.3271
 2445SOL     OW18967   2.487   4.683   2.267  0.2329  0.7208 -0.0418
 2445SOL    HW118968   2.542   4.703   2.192  1.8094 -0.9194  0.6820
 2445SOL    HW218969   2.422   4.621   2.235  1.2697 -0.2132 -0.3494
 2446SOL     OW18970   2.536   4.631   8.474 -0.4879  0.2150  0.2862
 2446SOL    HW118971   2.532   4.541   8.508 -0.0515 -0.4045 -1.2678
 2446SOL    HW218972   2.615   4.634   8.420 -0.2955  0.4831  0.5867
 2447SOL     OW18973   0.639   3.744   8.294  0.0982 -0.3458  0.1568
 2447SOL    HW118974   0.718   3.780   8.335  0.0407  1.6018 -1.4447
 2447SOL    HW218975   0.617   3.668   8.349  2.8030  0.9232  2.9954
 2448SOL     OW18976   0.630   4.400   8.045 -0.2825  0.1445  0.5645
 2448SOL    HW118977   0.563   4.425   8.109  0.5063  0.8889  1.1055
 2448SOL    HW218978   0.699   4.459   8.075  0.0359  0.5995 -1.1108
 2449SOL     OW18979   0.005   4.438   1.629  0.5705  0.2170 -0.3792
 2449SOL    HW118980   0.011   4.518   1.681 -0.3936 -0.1777  0.3520
 2449SOL    HW218981   0.014   4.366   1.692  0.2902 -0.3464 -0.9843
 2450SOL     OW18982   4.704   1.257  12.034  0.6546  0.6535  0.2821
 2450SOL    HW118983   4.647   1.196  12.081 -0.3392 -0.4940 -2.3705
 2450SOL    HW218984   0.042   1.207  12.015  0.6815  1.3457 -1.4120
 2451SOL     OW18985   4.668   3.700   6.281  0.6603  0.2709  0.8406
 2451SOL    HW118986   4.659   3.762   6.208  1.2705 -0.0278  0.5088
 2451SOL    HW218987   4.676   3.620   6.229  0.0785 -0.4649  1.8940
 2452SOL     OW18988   2.167   1.773  14.777 -0.0951 -0.1375 -0.3825
 2452SOL    HW118989   2.090   1.716  14.773 -0.7380  0.7583 -0.7726
 2452SOL    HW218990   2.122   1.851  14.812 -0.5606  0.3693 -2.0991
 2453SOL     OW18991   1.214   2.887  11.318 -0.6009  0.3813 -0.0689
 2453SOL    HW118992   1.162   2.930  11.386 -1.1029 -1.3452  0.6530
 2453SOL    HW218993   1.262   2.827  11.376 -1.9062 -1.0517 -0.4836
 2454SOL     OW18994   2.468   2.682   5.721 -0.0472 -0.0769 -0.0835
 2454SOL    HW118995   2.427   2.765   5.698 -1.2238 -0.8372 -0.7015
 2454SOL    HW218996   2.404   2.636   5.775 -1.1435 -1.0961 -2.2535
 2455SOL     OW18997   0.296   1.655   2.276 -0.0248  0.2715  0.6304
 2455SOL    HW118998   0.356   1.720   2.241 -0.0811  0.9795  1.8317
 2455SOL    HW218999   0.321   1.668   2.368 -0.1951  0.6215  0.6254
 2456SOL     OW19000   0.520   3.903   4.234 -0.6754 -0.1356 -0.8909
 2456SOL    HW119001   0.519   3.985   4.283 -1.7498 -1.3691  1.1512
 2456SOL    HW219002   0.439   3.920   4.186 -0.9140  0.0191 -0.4357
 2457SOL     OW19003   2.866   1.183   4.505  0.0256  0.0621  0.9842
 2457SOL    HW119004   2.813   1.127   4.448  0.8296  0.2363  0.0660
 2457SOL    HW219005   2.887   1.261   4.454  2.9085 -0.8705  0.7360
 2458SOL     OW19006   3.164   1.994   5.682  0.2264 -0.5915 -0.1218
 2458SOL    HW119007   3.229   1.930   5.711  0.5473 -1.0973 -1.9520
 2458SOL    HW219008   3.225   2.041   5.625 -0.5129 -1.0576 -1.3057
 2459SOL     OW19009   0.911   4.363   8.750  0.4663  0.1158  0.5807
 2459SOL    HW119010   0.995   4.386   8.791 -0.9051  3.7148  1.4041
 2459SOL    HW219011   0.918   4.418   8.672  0.7564 -2.1562 -1.0103
 2460SOL     OW19012   2.551   4.206   2.455 -0.2067  0.0269  0.3253
 2460SOL    HW119013   2.586   4.116   2.450  1.4116  0.7004 -0.5142
 2460SOL    HW219014   2.590   4.240   2.536 -1.9992 -0.4252  1.3906
 2461SOL     OW19015   3.504   1.293   6.280 -0.0115 -0.0339  0.6252
 2461SOL    HW119016   3.463   1.256   6.358  1.1278 -0.8497  0.8444
 2461SOL    HW219017   3.537   1.377   6.312 -0.2426  0.1704  0.3233
 2462SOL     OW19018   3.500   0.581   7.982  0.1966 -0.2037 -0.0641
 2462SOL    HW119019   3.557   0.620   8.049  0.2159 -1.3766  0.6011
 2462SOL    HW219020   3.571   0.531   7.941 -0.0584  0.9761 -1.9757
 2463SOL     OW19021   4.324   2.221   6.372  0.2565 -0.0637 -0.4430
 2463SOL    HW119022   4.338   2.187   6.460 -1.6885  0.2475 -0.0113
 2463SOL    HW219023   4.330   2.141   6.320 -1.4685  0.4430 -1.4480
 2464SOL     OW19024   1.628   2.259   5.608  0.0249 -0.4059  0.6773
 2464SOL    HW119025   1.596   2.219   5.690 -0.2175 -1.4171  0.0923
 2464SOL    HW219026   1.679   2.326   5.654 -0.5333 -0.5068  1.4558
 2465SOL     OW19027   1.201   1.255   4.063 -0.0837 -0.2133  0.1268
 2465SOL    HW119028   1.286   1.238   4.022 -0.8900  0.6511 -1.9001
 2465SOL    HW219029   1.219   1.236   4.155 -0.6894 -1.6598 -0.0469
 2466SOL     OW19030   4.241   2.819  16.178  0.2092 -0.5417  0.5914
 2466SOL    HW119031   4.308   2.879  16.209 -0.0058  0.6204 -1.1843
 2466SOL    HW219032   4.292   2.742  16.152  1.6295 -0.3867  2.8544
 2467SOL     OW19033   4.325   1.963   5.978 -0.0103  0.4444 -0.1325
 2467SOL    HW119034   4.286   2.050   5.966 -1.0933  0.0773  0.6944
 2467SOL    HW219035   4.371   1.987   6.059  2.3010  1.7028 -1.7995
 2468SOL     OW19036   0.010   2.047   8.389 -0.4043  0.0509  0.5200
 2468SOL    HW119037   0.064   2.122   8.364  0.1641 -0.1848  1.0272
 2468SOL    HW219038   4.671   2.059   8.336 -0.2915  2.8152  0.9748
 2469SOL     OW19039   3.476   0.523  13.714  0.1913 -0.0359 -1.1056
 2469SOL    HW119040   3.478   0.437  13.671  0.6931 -1.1612  1.1860
 2469SOL    HW219041   3.559   0.558  13.680 -0.4477  0.3513 -2.2677
 2470SOL     OW19042   0.076   1.407   9.244  0.1310 -0.1406  0.3962
 2470SOL    HW119043   0.162   1.366   9.240  0.7744  1.2389 -0.0032
 2470SOL    HW219044   0.032   1.349   9.306 -0.9430 -0.0832 -0.3228
 2471SOL     OW19045   0.583   3.084   1.760 -0.0670 -0.0432  0.2502
 2471SOL    HW119046   0.559   2.993   1.775  1.0957 -0.8985 -3.2258
 2471SOL    HW219047   0.537   3.112   1.681 -1.1612 -2.0315  0.1880
 2472SOL     OW19048   0.716   2.899  13.163  0.3561 -0.0723  0.2799
 2472SOL    HW119049   0.708   2.907  13.067  1.1094  0.5801  0.2734
 2472SOL    HW219050   0.637   2.848  13.182 -0.8547  1.3570 -0.9309
 2473SOL     OW19051   4.674   3.020   9.413  0.1403 -0.1082  0.1571
 2473SOL    HW119052   4.625   3.028   9.495  0.2487  0.7429  0.1422
 2473SOL    HW219053   0.004   2.965   9.446 -0.6867  0.5299  3.0279
 2474SOL     OW19054   1.712   4.325   3.231 -0.3879  0.0980 -0.0359
 2474SOL    HW119055   1.617   4.311   3.234 -0.2841 -0.9331 -1.8232
 2474SOL    HW219056   1.713   4.418   3.254  2.2104  0.2974 -0.9241
 2475SOL     OW19057   3.639   0.713   5.925  0.2251  0.1502  0.5401
 2475SOL    HW119058   3.640   0.808   5.932 -0.9805  0.2893 -1.1631
 2475SOL    HW219059   3.544   0.704   5.924  0.3462 -1.3408  2.2417
 2476SOL     OW19060   1.830   1.920   6.449  0.3605 -0.5721  0.1910
 2476SOL    HW119061   1.910   1.950   6.492 -0.3489  3.2101 -1.1621
 2476SOL    HW219062   1.860   1.850   6.389 -1.5518  0.9182 -2.4800
 2477SOL     OW19063   3.603   2.224   9.237  0.0435  0.3483  0.5698
 2477SOL    HW119064   3.645   2.160   9.293 -0.3103 -0.4652 -0.0944
 2477SOL    HW219065   3.672   2.289   9.250  0.9919 -0.0829 -2.2218
 2478SOL     OW19066   1.923   4.388  15.649 -0.1357 -0.0605 -0.0860
 2478SOL    HW119067   1.851   4.395  15.587  0.5674  0.8672 -0.8027
 2478SOL    HW219068   1.973   4.468  15.632  0.5189 -0.5748 -0.5755
 2479SOL     OW19069   4.422   4.024   5.368 -0.8966  0.8525 -0.2372
 2479SOL    HW119070   4.432   4.083   5.293  0.3598 -0.2399 -0.9216
 2479SOL    HW219071   4.501   4.053   5.414 -0.2758 -0.9704 -0.1577
 2480SOL     OW19072   2.986   2.074   3.363  0.0013 -0.0854  0.5643
 2480SOL    HW119073   3.021   1.997   3.407  1.6517  0.4480  0.1945
 2480SOL    HW219074   2.897   2.058   3.396 -0.4360  2.1942  0.5431
 2481SOL     OW19075   0.639   0.911  17.741  0.2970 -0.3228 -0.1144
 2481SOL    HW119076   0.573   0.980  17.735 -1.1366 -1.6239  0.7140
 2481SOL    HW219077   0.715   0.952  17.698 -1.4253  1.3510 -1.5479
 2482SOL     OW19078   0.605   0.752   2.379 -0.6668  0.1826 -0.6712
 2482SOL    HW119079   0.569   0.683   2.323 -0.4996 -0.2505 -0.2515
 2482SOL    HW219080   0.605   0.827   2.320  0.6188  0.3577 -0.4634
 2483SOL     OW19081   2.440   0.235   8.972 -0.0193 -0.0192  0.8087
 2483SOL    HW119082   2.479   0.149   8.956  1.1427  0.8776 -1.2142
 2483SOL    HW219083   2.515   0.292   8.951 -0.7009  0.1470 -1.1641
 2484SOL     OW19084   2.448   2.727   8.216  0.3377 -0.1975  0.0386
 2484SOL    HW119085   2.536   2.765   8.219  0.2677  0.1528 -1.9428
 2484SOL    HW219086   2.475   2.637   8.198 -1.8130 -1.0505  1.0821
 2485SOL     OW19087   0.835   1.076   5.881  0.3179 -0.2481  0.2963
 2485SOL    HW119088   0.868   1.165   5.897 -0.0187  0.1604 -1.2337
 2485SOL    HW219089   0.741   1.090   5.875  0.6022  1.3911 -0.3892
 2486SOL     OW19090   0.548   1.494  16.233  0.2846 -0.7062  0.0757
 2486SOL    HW119091   0.517   1.443  16.158 -2.1711  2.1153 -0.8149
 2486SOL    HW219092   0.484   1.478  16.303  2.1768  0.7453  2.1535
 2487SOL     OW19093   2.561   3.362   3.629  0.3435  0.5198 -0.1863
 2487SOL    HW119094   2.538   3.306   3.555  0.9127 -1.3626  1.0858
 2487SOL    HW219095   2.514   3.441   3.600  0.1397  0.6239  0.4247
 2488SOL     OW19096   2.739   1.450   7.367  0.2504  0.1963 -0.2163
 2488SOL    HW119097   2.738   1.539   7.403 -0.9932 -0.2813  0.8868
 2488SOL    HW219098   2.699   1.475   7.283  3.0841  0.1822 -1.5680
 2489SOL     OW19099   0.661   1.085   5.556  0.1740 -0.1496  0.2909
 2489SOL    HW119100   0.601   1.068   5.484  0.5246 -0.4099  0.0641
 2489SOL    HW219101   0.621   1.036   5.628  0.5497 -2.3912 -1.0495
 2490SOL     OW19102   3.354   1.788   5.373 -0.2935 -0.1543  0.1161
 2490SOL    HW119103   3.430   1.845   5.382  0.4363 -1.5172  2.5723
 2490SOL    HW219104   3.404   1.712   5.342 -1.9008 -1.2630  0.2282
 2491SOL     OW19105   1.742   3.291   4.560 -0.6356  0.1521  0.0295
 2491SOL    HW119106   1.763   3.198   4.546 -4.4795 -0.9867  1.8081
 2491SOL    HW219107   1.672   3.296   4.495 -0.6037 -2.4787 -0.2180
 2492SOL     OW19108   2.405   3.220   6.423 -0.1198 -0.2263 -0.0276
 2492SOL    HW119109   2.416   3.128   6.447 -2.1317 -0.5520 -0.3230
 2492SOL    HW219110   2.487   3.231   6.375 -0.9119  1.6861 -0.9516
 2493SOL     OW19111   2.859   3.565  17.710  0.0751  0.8473 -0.7124
 2493SOL    HW119112   2.771   3.598  17.696  0.7777  2.8361 -0.4673
 2493SOL    HW219113   2.844   3.484  17.758 -1.3097  1.6425  0.1735
 2494SOL     OW19114   1.299   2.438   3.877 -0.0950 -0.1328 -0.1336
 2494SOL    HW119115   1.274   2.530   3.885  2.4303  0.4679  0.9767
 2494SOL    HW219116   1.348   2.417   3.956  0.6515 -0.4893 -0.6840
 2495SOL     OW19117   1.445   0.964   7.028  0.1505 -0.0874 -0.2697
 2495SOL    HW119118   1.497   1.009   7.095  1.1166 -0.9916 -0.4022
 2495SOL    HW219119   1.378   1.028   7.006 -0.8265 -1.1533 -0.3868
 2496SOL     OW19120   0.478   0.095   6.911 -0.8261 -0.3593  0.2416
 2496SOL    HW119121   0.476   0.136   6.824  2.5427 -0.8091 -0.0467
 2496SOL    HW219122   0.429   0.014   6.900 -0.6467 -0.2986 -1.0512
 2497SOL     OW19123   2.568   0.756  11.074 -0.0918 -0.7091  0.3610
 2497SOL    HW119124   2.615   0.837  11.056  0.3098 -1.2083 -0.8216
 2497SOL    HW219125   2.491   0.790  11.121  0.5943 -0.0944  1.0439
 2498SOL     OW19126   3.101   4.383   8.285 -0.0863 -0.4172 -0.0937
 2498SOL    HW119127   3.055   4.364   8.203  1.2244  1.8717 -1.3795
 2498SOL    HW219128   3.190   4.356   8.260 -0.2747 -1.0319 -0.1052
 2499SOL     OW19129   0.393   0.865   5.892  0.0747 -0.5324  0.2260
 2499SOL    HW119130   0.463   0.800   5.893 -0.9549 -1.6261  0.9755
 2499SOL    HW219131   0.427   0.918   5.819 -1.6681  0.1163 -0.1409
 2500SOL     OW19132   2.157   0.100   6.788  0.0462  0.1421 -0.3225
 2500SOL    HW119133   2.228   0.108   6.851  1.0809  3.0626 -1.8396
 2500SOL    HW219134   2.100   0.170   6.820  1.3189  0.9961  0.0550
 2501SOL     OW19135   1.657   2.931   3.932 -0.6714  0.2482  0.2825
 2501SOL    HW119136   1.563   2.921   3.944 -0.3969 -1.5982  0.8321
 2501SOL    HW219137   1.690   2.842   3.938  1.2214  0.8406 -1.4369
 2502SOL     OW19138   3.715   1.963   2.684  0.1255 -0.2579 -0.1976
 2502SOL    HW119139   3.733   1.882   2.637  1.0447  0.3003 -0.8088
 2502SOL    HW219140   3.706   1.926   2.772  1.3121  0.8196  0.3684
 2503SOL     OW19141   4.387   3.538   7.142  0.0205  0.9408 -0.3285
 2503SOL    HW119142   4.339   3.542   7.224 -0.1088  0.6540 -0.3893
 2503SOL    HW219143   4.424   3.626   7.142  0.2005  0.8755  2.5153
 2504SOL     OW19144   1.745   3.378   8.139 -0.3133  0.6445  0.1068
 2504SOL    HW119145   1.685   3.439   8.096  0.0310  0.8702 -0.0498
 2504SOL    HW219146   1.760   3.305   8.080  0.9846  0.7953  0.2504
 2505SOL     OW19147   1.685   2.910   9.086 -0.5932 -0.0780 -0.0283
 2505SOL    HW119148   1.745   2.966   9.038  0.9843 -1.7625 -0.0129
 2505SOL    HW219149   1.603   2.957   9.070 -0.3857 -0.1896 -1.4345
 2506SOL     OW19150   1.899   1.824   5.878  0.2455 -0.2749  0.4615
 2506SOL    HW119151   1.824   1.866   5.835 -0.6279 -2.8544 -0.5119
 2506SOL    HW219152   1.894   1.739   5.835 -0.1095  1.2106 -2.4493
 2507SOL     OW19153   4.231   1.269   8.713  0.3855  0.2151  0.5045
 2507SOL    HW119154   4.303   1.297   8.657  1.0472 -0.9434  0.7889
 2507SOL    HW219155   4.210   1.195   8.656 -0.7564  0.0531  1.1372
 2508SOL     OW19156   0.730   1.647  16.349  0.1522 -0.1068  0.4138
 2508SOL    HW119157   0.793   1.676  16.283  1.7226 -2.8819  0.6945
 2508SOL    HW219158   0.653   1.625  16.297  1.3511 -3.5682  0.0481
 2509SOL     OW19159   0.898   4.525   4.443  0.6066  0.1091  0.2703
 2509SOL    HW119160   0.878   4.616   4.467 -0.5951 -0.3287  0.9008
 2509SOL    HW219161   0.916   4.475   4.523  1.8871 -0.1036 -0.1491
 2510SOL     OW19162   3.761   4.154  17.022  0.1213 -0.2183  0.1698
 2510SOL    HW119163   3.747   4.212  16.948 -0.0080  0.6034  0.8474
 2510SOL    HW219164   3.683   4.183  17.069  0.8195  1.0398  0.5410
 2511SOL     OW19165   1.982   3.562   4.625  0.2902  0.6721 -0.5195
 2511SOL    HW119166   2.077   3.554   4.635  0.4397 -0.5644 -2.8979
 2511SOL    HW219167   1.953   3.471   4.615 -1.8822  1.3097 -0.1602
 2512SOL     OW19168   3.014   0.514   7.626  0.1187  0.2984 -0.0971
 2512SOL    HW119169   3.009   0.528   7.532 -1.6245 -2.4491 -0.4211
 2512SOL    HW219170   2.955   0.584   7.656 -0.3475  0.9908 -2.6295
 2513SOL     OW19171   1.263   3.817   3.196  0.2356  0.3412  0.0286
 2513SOL    HW119172   1.271   3.912   3.184 -2.1915  0.8933  2.8109
 2513SOL    HW219173   1.173   3.810   3.163 -0.4306 -0.4294  2.0222
 2514SOL     OW19174   1.311   4.314   5.622 -0.1212  0.1865  0.3153
 2514SOL    HW119175   1.400   4.285   5.642  0.4021  0.9867 -0.8644
 2514SOL    HW219176   1.286   4.249   5.556  0.7238  1.5237 -1.3030
 2515SOL     OW19177   2.410   4.653   8.223  0.0800 -0.2353 -0.1043
 2515SOL    HW119178   2.412   0.004   8.248 -0.2344 -0.3722  0.4307
 2515SOL    HW219179   2.500   4.623   8.236 -0.1190 -1.3739 -1.3481
 2516SOL     OW19180   2.519   4.315   5.159 -0.4549 -0.3419 -0.1607
 2516SOL    HW119181   2.595   4.373   5.163 -2.1889  1.8425  1.6905
 2516SOL    HW219182   2.467   4.359   5.092 -0.2341 -1.4040 -1.0253
 2517SOL     OW19183   1.236   2.307  15.807 -0.3112  0.9563  0.2329
 2517SOL    HW119184   1.271   2.296  15.895 -1.3192  0.0310  0.5257
 2517SOL    HW219185   1.215   2.218  15.777 -1.2389  0.9258  0.9364
 2518SOL     OW19186   2.609   1.678   0.698  0.6579 -0.1502  0.2152
 2518SOL    HW119187   2.634   1.586   0.691  1.0250 -0.0500  0.2035
 2518SOL    HW219188   2.622   1.700   0.606  1.5928  0.2644  0.4447
 2519SOL     OW19189   1.123   3.271  16.702  0.6425 -0.2204  0.1084
 2519SOL    HW119190   1.123   3.295  16.795 -0.5489  1.1523 -0.2673
 2519SOL    HW219191   1.127   3.175  16.705 -0.2115 -0.2471  0.2048
 2520SOL     OW19192   0.251   4.132  15.222 -0.3847  0.3798  0.0393
 2520SOL    HW119193   0.285   4.207  15.173 -0.6135  1.4217  1.4529
 2520SOL    HW219194   0.172   4.180  15.246  0.4661  1.1137  1.3761
 2521SOL     OW19195   0.472   3.526   4.631 -0.4675 -0.3209  0.3052
 2521SOL    HW119196   0.567   3.517   4.645 -0.3120  1.6789  0.4449
 2521SOL    HW219197   0.478   3.578   4.551 -0.7528 -1.7654 -0.6665
 2522SOL     OW19198   3.208   3.410  10.989  0.0162  0.2858  0.0101
 2522SOL    HW119199   3.262   3.331  10.978  1.1886  1.1773 -0.6425
 2522SOL    HW219200   3.222   3.469  10.914  0.3119 -0.7435 -0.7532
 2523SOL     OW19201   1.601   2.657   6.991  0.1159 -0.3463 -0.0311
 2523SOL    HW119202   1.584   2.613   6.908 -0.0479 -0.6129  0.1428
 2523SOL    HW219203   1.527   2.717   7.001 -1.1693 -1.9879  0.3611
 2524SOL     OW19204   4.029   4.175  15.656  0.1537 -0.2673 -0.3340
 2524SOL    HW119205   4.020   4.252  15.712  0.9000 -0.8830  0.6360
 2524SOL    HW219206   4.036   4.105  15.720  1.2433 -0.5751 -0.7752
 2525SOL     OW19207   0.191   3.108   9.757  0.7762 -0.2535  0.3694
 2525SOL    HW119208   0.192   3.127   9.663 -0.3399 -0.6031  0.2879
 2525SOL    HW219209   0.188   3.201   9.778  0.3577  0.4239 -2.7799
 2526SOL     OW19210   1.340   1.954   8.740 -0.1772  0.8572  0.2253
 2526SOL    HW119211   1.283   2.004   8.798 -2.6845  1.3938 -2.6639
 2526SOL    HW219212   1.319   1.861   8.753  1.9957  0.5571  1.4800
 2527SOL     OW19213   2.303   0.612   9.806  0.0767  0.5327 -0.2223
 2527SOL    HW119214   2.362   0.649   9.739  1.0572  0.2134  0.4605
 2527SOL    HW219215   2.218   0.615   9.764  0.8176 -1.2373 -1.8834
 2528SOL     OW19216   0.495   4.246  14.215  1.0486 -0.1516 -0.4331
 2528SOL    HW119217   0.576   4.199  14.191  1.1209  0.7857 -2.0510
 2528SOL    HW219218   0.523   4.337  14.225 -3.0612  1.3216 -2.3604
 2529SOL     OW19219   3.271   4.438   9.070  0.6758 -0.2294  0.3153
 2529SOL    HW119220   3.219   4.514   9.093  0.7703 -0.0890  0.0599
 2529SOL    HW219221   3.217   4.405   8.998 -1.0098 -0.6092  1.7520
 2530SOL     OW19222   2.646   0.605   1.594  0.2122  0.1967 -0.1871
 2530SOL    HW119223   2.715   0.661   1.628 -0.9087  2.1706 -1.1175
 2530SOL    HW219224   2.626   0.563   1.677  0.3371 -1.5707 -1.0336
 2531SOL     OW19225   1.194   0.826   9.226  0.3831 -0.8064  0.3094
 2531SOL    HW119226   1.271   0.882   9.216  1.0221 -1.5509  1.1237
 2531SOL    HW219227   1.157   0.820   9.137 -1.9113 -1.0252  1.2896
 2532SOL     OW19228   4.310   0.480   6.679 -0.5781  0.0658 -0.9300
 2532SOL    HW119229   4.362   0.440   6.749 -0.6677 -0.3935 -1.1264
 2532SOL    HW219230   4.355   0.447   6.601  0.1659 -0.4516 -0.2824
 2533SOL     OW19231   1.278   1.375   2.463 -0.2670 -0.2525  0.0472
 2533SOL    HW119232   1.332   1.299   2.441  1.5499  1.4300 -1.2584
 2533SOL    HW219233   1.291   1.379   2.558 -2.2419 -0.5485  0.3295
 2534SOL     OW19234   4.517   2.043  15.298 -0.0605  0.0832 -0.2596
 2534SOL    HW119235   4.510   2.084  15.211 -0.7247 -2.1050 -1.2289
 2534SOL    HW219236   4.533   1.953  15.269 -2.1634 -0.9563  1.8106
 2535SOL     OW19237   0.213   4.707  17.071 -0.5732  0.1121 -0.2913
 2535SOL    HW119238   0.294   4.656  17.067 -2.7794 -3.4226 -0.0030
 2535SOL    HW219239   0.245   0.048  17.032  0.9667 -0.5119 -0.3098
 2536SOL     OW19240   3.065   0.227   6.994  0.1574  0.0507  0.4259
 2536SOL    HW119241   3.088   0.156   7.054 -0.8458 -1.3985 -0.8990
 2536SOL    HW219242   3.096   0.296   7.052  1.4183 -1.3543  1.4077
 2537SOL     OW19243   2.400   4.705   0.263 -0.1723  0.5492  0.3522
 2537SOL    HW119244   2.448   4.643   0.208  0.1541  1.8876 -0.8872
 2537SOL    HW219245   2.336   4.734   0.198 -2.1279 -1.7123  1.2986
 2538SOL     OW19246   4.724   3.619   7.945  0.1180 -0.1572  0.4071
 2538SOL    HW119247   0.060   3.563   7.955 -0.2696 -0.8593 -0.5682
 2538SOL    HW219248   4.717   3.599   7.852  1.0957 -1.3313  0.5747
 2539SOL     OW19249   0.063   3.340   3.326 -0.4487 -0.9950 -0.0649
 2539SOL    HW119250   4.721   3.372   3.289 -0.5792 -0.5361  0.6330
 2539SOL    HW219251   0.036   3.254   3.358  1.1306 -2.0493 -1.5415
 2540SOL     OW19252   4.729   2.353   9.091 -0.9242 -0.2707 -0.0761
 2540SOL    HW119253   4.722   2.351   9.186 -4.1069  0.8440 -0.2627
 2540SOL    HW219254   4.721   2.262   9.065 -0.2908 -0.6680  1.1678
 2541SOL     OW19255   3.665   4.275  13.571 -0.2887  0.0757  0.9284
 2541SOL    HW119256   3.648   4.181  13.572 -1.1669  0.2366  2.0831
 2541SOL    HW219257   3.605   4.304  13.503 -0.5495 -2.1427  0.2296
 2542SOL     OW19258   4.591   1.838   8.467 -0.4879  0.2473 -0.5955
 2542SOL    HW119259   4.664   1.895   8.443  1.0074 -2.4811 -2.5187
 2542SOL    HW219260   4.539   1.901   8.518 -1.5740  1.6163 -3.4067
 2543SOL     OW19261   3.973   1.939   7.846  1.1885  0.5030  0.4369
 2543SOL    HW119262   3.942   1.856   7.882  0.6002  0.9331  0.9224
 2543SOL    HW219263   3.914   1.998   7.893 -1.4655 -1.7952 -0.0011
 2544SOL     OW19264   2.553   1.201   8.578 -0.3889  0.2771  0.1376
 2544SOL    HW119265   2.483   1.264   8.596 -0.3481  0.0763  1.0331
 2544SOL    HW219266   2.623   1.266   8.585  0.4598 -0.4723 -1.5497
 2545SOL     OW19267   0.961   3.546   2.760 -0.1758 -0.3658 -0.3430
 2545SOL    HW119268   0.965   3.641   2.769 -0.3620 -0.0860 -3.1853
 2545SOL    HW219269   0.867   3.533   2.745 -0.1859 -1.5964  0.7984
 2546SOL     OW19270   1.327   0.401   4.037 -0.5644 -0.0130  0.4759
 2546SOL    HW119271   1.268   0.461   4.084  1.4400  1.3175  1.2784
 2546SOL    HW219272   1.288   0.313   4.041  1.3632 -0.8788  0.0467
 2547SOL     OW19273   3.356   2.419   6.315  0.1557 -0.0022  0.2794
 2547SOL    HW119274   3.354   2.358   6.388  0.9596  0.2023  0.4745
 2547SOL    HW219275   3.318   2.497   6.355 -0.0423  0.4794 -0.8407
 2548SOL     OW19276   2.123   3.419   1.550  0.1189  0.0395 -0.3983
 2548SOL    HW119277   2.147   3.512   1.550 -1.5814  0.4750 -0.2724
 2548SOL    HW219278   2.089   3.415   1.639  0.1955  1.2152 -0.3208
 2549SOL     OW19279   3.081   3.596   3.341  0.0623  0.3949  0.7068
 2549SOL    HW119280   3.121   3.527   3.394 -1.2049 -0.6109  0.3758
 2549SOL    HW219281   3.137   3.611   3.265 -0.8069  1.1275  0.2149
 2550SOL     OW19282   4.600   2.541   4.870 -0.0192 -0.3913  0.1193
 2550SOL    HW119283   4.568   2.567   4.956  0.0657 -0.7559  0.2619
 2550SOL    HW219284   4.673   2.602   4.860 -2.4166  2.2604 -1.2845
 2551SOL     OW19285   2.901   3.279   4.640 -0.1726 -0.2971  0.3079
 2551SOL    HW119286   2.945   3.321   4.567 -3.1015  0.8947 -0.8003
 2551SOL    HW219287   2.938   3.309   4.723 -0.3102  1.2109 -0.1656
 2552SOL     OW19288   1.386   4.037   0.489  1.0757 -0.0353 -0.2164
 2552SOL    HW119289   1.294   4.060   0.496  0.5051 -2.8308  1.4355
 2552SOL    HW219290   1.418   4.051   0.400  0.6771  2.6141  0.0530
 2553SOL     OW19291   2.114   0.248   5.128  0.8853 -0.3142  0.1852
 2553SOL    HW119292   2.066   0.301   5.064  1.0091 -1.2927 -0.7270
 2553SOL    HW219293   2.090   0.295   5.208  0.1573 -0.7868  0.2353
 2554SOL     OW19294   0.336   2.467   8.124 -0.1712  0.1175 -0.1497
 2554SOL    HW119295   0.411   2.463   8.183 -0.7826  0.4094  0.6462
 2554SOL    HW219296   0.373   2.465   8.036 -1.0595  0.5683 -0.5269
 2555SOL     OW19297   3.046   3.147   8.164  0.0104 -0.3181 -0.0650
 2555SOL    HW119298   3.011   3.208   8.099 -0.3323 -2.1714 -1.6328
 2555SOL    HW219299   3.134   3.132   8.129 -0.1741 -1.2407 -0.1378
 2556SOL     OW19300   3.492   4.087  16.395  0.0688  0.6356  0.1198
 2556SOL    HW119301   3.573   4.134  16.378 -0.1080  0.4364 -1.2709
 2556SOL    HW219302   3.532   4.022  16.452 -2.1062  0.6759  1.7170
 2557SOL     OW19303   0.643   0.158  13.023 -0.5817 -0.5441 -0.3312
 2557SOL    HW119304   0.644   0.093  13.093 -1.3492 -1.8026 -1.4808
 2557SOL    HW219305   0.575   0.125  12.964 -0.7447  0.0864 -0.4883
 2558SOL     OW19306   4.044   3.387   6.786 -0.0607 -0.1568  0.1573
 2558SOL    HW119307   4.035   3.364   6.878 -0.6672  0.0597  0.1487
 2558SOL    HW219308   3.953   3.405   6.766 -0.1190  1.8913  2.2637
 2559SOL     OW19309   3.071   1.089  12.174  0.4103 -0.0583  0.1397
 2559SOL    HW119310   3.160   1.077  12.206  0.5694  0.4599 -0.1007
 2559SOL    HW219311   3.054   1.182  12.189 -0.2398 -0.2644  0.6917
 2560SOL     OW19312   3.258   1.162   4.235  0.0291  0.8384 -0.3839
 2560SOL    HW119313   3.228   1.073   4.253 -0.1445  0.8232 -0.7589
 2560SOL    HW219314   3.221   1.209   4.309  0.8040 -0.4949  0.8569
 2561SOL     OW19315   1.893   2.877   6.391  0.4122  0.1245 -0.7669
 2561SOL    HW119316   1.969   2.848   6.442 -0.2692  2.6855  1.7403
 2561SOL    HW219317   1.830   2.886   6.463  0.8215  2.7367 -0.7426
 2562SOL     OW19318   3.828   1.586  15.596  0.2266 -0.1743 -0.2967
 2562SOL    HW119319   3.865   1.503  15.624  3.2487  1.0239 -0.6493
 2562SOL    HW219320   3.863   1.584  15.507 -1.4353 -2.0834 -0.8932
 2563SOL     OW19321   3.599   3.329  12.978  0.6933 -0.3667  0.1619
 2563SOL    HW119322   3.546   3.262  13.022 -1.6697  0.4364 -1.5045
 2563SOL    HW219323   3.547   3.341  12.898 -0.7756 -1.4766  0.9391
 2564SOL     OW19324   0.564   2.450   4.266 -0.5700 -0.3190 -0.0570
 2564SOL    HW119325   0.470   2.437   4.281 -0.8803  1.0081 -0.8678
 2564SOL    HW219326   0.566   2.422   4.174 -0.2087  0.7914 -0.3932
 2565SOL     OW19327   2.926   4.005   1.064 -0.6022  0.2561 -0.2077
 2565SOL    HW119328   2.864   4.001   1.137  2.8422  0.1215  2.7094
 2565SOL    HW219329   2.910   4.090   1.023  3.3318  0.9306 -0.3930
 2566SOL     OW19330   3.252   2.625   6.453 -0.0704 -0.1053 -0.0624
 2566SOL    HW119331   3.299   2.709   6.448  0.0524 -0.4139 -3.7758
 2566SOL    HW219332   3.165   2.656   6.430  1.3108  2.3920 -1.9229
 2567SOL     OW19333   1.842   1.155   7.190 -0.0653  0.2094 -0.0446
 2567SOL    HW119334   1.906   1.084   7.197  1.4766  1.7345  1.4123
 2567SOL    HW219335   1.861   1.200   7.108  0.5912  0.8477  0.4507
 2568SOL     OW19336   0.442   4.254   8.393 -0.0659 -0.1634 -0.0243
 2568SOL    HW119337   0.408   4.182   8.445 -1.5784  0.1045 -0.6437
 2568SOL    HW219338   0.514   4.203   8.356  1.4717 -1.0541  4.1289
 2569SOL     OW19339   1.610   2.810   4.410 -0.8543 -0.4140  1.1199
 2569SOL    HW119340   1.534   2.784   4.358 -0.2501  0.5261 -0.2467
 2569SOL    HW219341   1.571   2.810   4.498 -2.3185 -2.0672  0.4607
 2570SOL     OW19342   4.705   4.065   6.387 -0.3270  0.1229  0.0508
 2570SOL    HW119343   0.032   4.061   6.454 -0.7852  3.2232  0.7005
 2570SOL    HW219344   4.624   4.043   6.433 -0.5140 -0.2185 -0.4313
 2571SOL     OW19345   4.458   3.425   1.060  0.7260  0.5011  0.3770
 2571SOL    HW119346   4.467   3.362   1.131 -1.2131 -0.3902 -0.1705
 2571SOL    HW219347   4.431   3.358   0.997 -0.5380  0.1127  1.3345
 2572SOL     OW19348   1.409   2.308   6.136  0.5655  0.6384 -0.0333
 2572SOL    HW119349   1.474   2.367   6.173 -1.5395  2.3602  0.8790
 2572SOL    HW219350   1.380   2.371   6.070 -1.1297 -0.3070 -0.2151
 2573SOL     OW19351   4.310   2.083  17.064 -0.1062 -0.5737 -0.3714
 2573SOL    HW119352   4.394   2.097  17.109 -0.1998 -1.4885  0.1078
 2573SOL    HW219353   4.270   2.022  17.126 -3.6639  0.1241 -2.0169
 2574SOL     OW19354   1.014   0.853   1.988  0.2357 -0.3347  0.0439
 2574SOL    HW119355   1.100   0.814   1.977  1.5267  2.0119  1.6466
 2574SOL    HW219356   0.957   0.792   1.941  0.2221  0.7581 -1.3345
 2575SOL     OW19357   1.988   3.192   3.864  0.5344 -0.6785 -0.3443
 2575SOL    HW119358   1.995   3.098   3.882 -2.7140 -1.3282 -2.4815
 2575SOL    HW219359   1.999   3.226   3.953 -1.3696 -1.7234  0.2877
 2576SOL     OW19360   0.784   1.654  15.148 -0.9130  0.0036  0.0533
 2576SOL    HW119361   0.873   1.674  15.176 -2.1195  1.4823  2.8279
 2576SOL    HW219362   0.789   1.686  15.058  1.7211  0.7140  0.4667
 2577SOL     OW19363   0.536   2.451   2.421 -0.5862 -0.3988 -0.2709
 2577SOL    HW119364   0.537   2.432   2.515  0.1088 -0.0738 -0.2107
 2577SOL    HW219365   0.608   2.514   2.422 -0.9491  0.0314 -0.9266
 2578SOL     OW19366   0.677   1.845   5.614  0.0552 -0.0890 -0.3015
 2578SOL    HW119367   0.669   1.937   5.588 -1.9270 -0.2753 -0.2881
 2578SOL    HW219368   0.762   1.849   5.659 -0.8625  0.0669  1.4184
 2579SOL     OW19369   2.446   0.723  13.901  0.0656  0.0680 -0.2542
 2579SOL    HW119370   2.442   0.664  13.976 -1.4565  2.5202  1.6149
 2579SOL    HW219371   2.524   0.698  13.852 -0.5830 -1.1177 -0.6934
 2580SOL     OW19372   0.531   2.288   4.019  0.2391 -0.2509  0.2968
 2580SOL    HW119373   0.451   2.338   4.032  0.3302  0.1246 -0.5753
 2580SOL    HW219374   0.520   2.260   3.928  2.0045  1.8391 -0.5504
 2581SOL     OW19375   3.100   3.264   5.271  0.0395  0.0941  0.6831
 2581SOL    HW119376   3.034   3.270   5.202  0.5325  3.1490  0.4402
 2581SOL    HW219377   3.132   3.175   5.265 -1.8937 -0.4500 -1.4802
 2582SOL     OW19378   0.168   3.634   8.226 -0.0396 -0.3113  0.1641
 2582SOL    HW119379   0.092   3.587   8.259 -0.9736  0.4057 -0.9821
 2582SOL    HW219380   0.127   3.696   8.165  1.3617 -0.2311 -0.7046
 2583SOL     OW19381   4.155   4.358   8.969 -0.1318 -0.9809  0.1770
 2583SOL    HW119382   4.102   4.303   8.912 -1.0520  1.5208 -1.4172
 2583SOL    HW219383   4.109   4.436   8.938  4.6704  2.0731  0.6436
 2584SOL     OW19384   1.738   4.282   2.050 -0.7707 -0.0375 -0.0432
 2584SOL    HW119385   1.697   4.359   2.010  0.0571 -0.7781 -2.3149
 2584SOL    HW219386   1.663   4.251   2.101 -1.3164 -0.6969 -1.2361
 2585SOL     OW19387   2.555   2.457  12.471 -0.4107  0.4123 -0.4620
 2585SOL    HW119388   2.625   2.396  12.492  0.0871  0.7978 -1.0101
 2585SOL    HW219389   2.488   2.420  12.528  0.5361 -1.6807 -0.7237
 2586SOL     OW19390   2.752   3.931  13.905  0.3403  0.3035 -0.0544
 2586SOL    HW119391   2.770   3.839  13.925 -1.4738  0.4895  2.4811
 2586SOL    HW219392   2.839   3.953  13.871  1.1286 -1.6021  0.6909
 2587SOL     OW19393   3.505   0.133   8.097  0.3338 -0.1531 -0.1241
 2587SOL    HW119394   3.432   0.192   8.119  0.8507  0.4359  0.0353
 2587SOL    HW219395   3.482   0.060   8.154 -1.2277  0.6201  0.2416
 2588SOL     OW19396   1.804   3.914  17.243 -0.3142  0.0112 -0.0584
 2588SOL    HW119397   1.747   3.837  17.243  1.1513 -1.0878  0.9735
 2588SOL    HW219398   1.774   3.948  17.159 -1.5680 -0.4557  0.1914
 2589SOL     OW19399   2.335   2.995   2.931 -0.6545 -0.2114  0.4298
 2589SOL    HW119400   2.388   3.064   2.892  1.8397 -3.1245 -1.3195
 2589SOL    HW219401   2.305   3.027   3.017 -1.6275 -1.1147  0.4285
 2590SOL     OW19402   3.124   2.081   4.244 -0.6890 -0.2534 -0.3629
 2590SOL    HW119403   3.079   2.064   4.326 -0.0073 -1.7448 -0.3039
 2590SOL    HW219404   3.192   2.015   4.259 -1.6884 -1.5050 -1.3582
 2591SOL     OW19405   3.132   0.011   7.872  0.0944 -0.1069 -0.2519
 2591SOL    HW119406   3.123   0.034   7.780 -1.5043  0.1812 -0.0289
 2591SOL    HW219407   3.211   4.698   7.876 -0.0879 -0.3876 -0.3340
 2592SOL     OW19408   1.543   3.623   4.696  0.3130  0.4830 -0.1868
 2592SOL    HW119409   1.461   3.584   4.665  0.1710  0.8388 -0.2590
 2592SOL    HW219410   1.554   3.693   4.631 -0.8522 -0.1973 -1.1129
 2593SOL     OW19411   1.615   3.324   6.021  0.4210  0.2835 -0.6014
 2593SOL    HW119412   1.640   3.264   6.090  1.9415  0.9705 -0.5625
 2593SOL    HW219413   1.540   3.373   6.054 -0.0747 -0.4905 -0.5694
 2594SOL     OW19414   4.289   1.905   8.189 -0.1130  0.0931 -0.0380
 2594SOL    HW119415   4.272   1.837   8.124  0.8996  0.4690 -0.6875
 2594SOL    HW219416   4.214   1.962   8.172 -1.7267 -2.2663 -0.8107
 2595SOL     OW19417   3.522   2.214   8.257  0.2978 -0.1897  0.2460
 2595SOL    HW119418   3.493   2.305   8.259 -0.0159 -0.2638 -0.7914
 2595SOL    HW219419   3.598   2.207   8.315  0.6438 -2.2879 -0.4845
 2596SOL     OW19420   0.440   3.287   7.791  0.1969 -0.1911  0.1352
 2596SOL    HW119421   0.452   3.286   7.696  0.2857  1.2537  0.1335
 2596SOL    HW219422   0.511   3.350   7.802 -1.1619  1.5142 -0.8143
 2597SOL     OW19423   1.694   1.736   5.422  0.3190  0.0271 -0.5740
 2597SOL    HW119424   1.725   1.668   5.482  1.3307  0.9257 -0.0776
 2597SOL    HW219425   1.763   1.731   5.356  0.9348 -1.8126  0.2188
 2598SOL     OW19426   2.650   3.930   7.414  0.1488  0.8127  0.1186
 2598SOL    HW119427   2.616   3.842   7.429 -2.0072  1.6553  0.1967
 2598SOL    HW219428   2.615   3.984   7.485  1.0102 -0.0398  1.1830
 2599SOL     OW19429   2.122   3.410   3.412  0.2962 -0.6449  0.2828
 2599SOL    HW119430   2.036   3.437   3.443  0.0455  0.8530 -1.7514
 2599SOL    HW219431   2.107   3.383   3.322  1.0614  0.3454 -0.1361
 2600SOL     OW19432   2.473   0.430  16.918 -0.5106  0.0404  0.7504
 2600SOL    HW119433   2.536   0.467  16.857 -0.8496  1.7027  1.4088
 2600SOL    HW219434   2.425   0.508  16.945 -4.1551 -1.9586  0.0944
 2601SOL     OW19435   0.377   4.625   5.875  0.3176 -0.1909  0.2768
 2601SOL    HW119436   0.456   4.572   5.880 -0.7648 -1.7460  0.7274
 2601SOL    HW219437   0.308   4.565   5.902  0.9715 -0.6089  1.0213
 2602SOL     OW19438   2.392   0.484   5.861 -0.0266 -0.1700  0.0984
 2602SOL    HW119439   2.473   0.451   5.822  0.7398 -0.4305  1.8978
 2602SOL    HW219440   2.417   0.574   5.883 -1.3724  0.3310 -0.3999
 2603SOL     OW19441   1.949   2.694  16.526  0.0917  0.1031 -0.4215
 2603SOL    HW119442   1.887   2.623  16.541 -1.5899  1.7445  0.5636
 2603SOL    HW219443   2.026   2.670  16.576  0.4111  1.5228 -0.2187
 2604SOL     OW19444   2.889   2.106  15.240 -0.2100 -0.2908 -0.3307
 2604SOL    HW119445   2.898   2.095  15.334 -1.7568 -1.5157 -0.3055
 2604SOL    HW219446   2.825   2.036  15.221  0.5901 -1.5743  1.7159
 2605SOL     OW19447   1.946   0.415  10.808 -0.6790 -0.5911 -0.3030
 2605SOL    HW119448   2.031   0.411  10.852 -0.9770 -1.3759  0.1929
 2605SOL    HW219449   1.888   0.394  10.881 -1.0321 -0.6497 -0.6006
 2606SOL     OW19450   2.085   3.792   1.051  0.1129 -0.0291  0.3320
 2606SOL    HW119451   2.050   3.703   1.056  1.2032 -0.4373  0.8335
 2606SOL    HW219452   2.043   3.837   0.978  1.3238 -1.5805 -1.3187
 2607SOL     OW19453   2.641   2.711   5.124 -0.0863 -0.1713 -0.1033
 2607SOL    HW119454   2.654   2.730   5.217 -0.3822 -2.7387  0.4652
 2607SOL    HW219455   2.685   2.626   5.122  0.0136 -0.1604  2.0098
 2608SOL     OW19456   4.024   2.673   8.076  0.2840 -0.3024  0.1460
 2608SOL    HW119457   4.074   2.639   8.002 -3.3499 -0.0385 -2.4492
 2608SOL    HW219458   3.948   2.701   8.025  0.2038 -1.2242 -0.2494
 2609SOL     OW19459   3.422   3.783   6.863 -0.0208  0.4408 -0.1905
 2609SOL    HW119460   3.353   3.814   6.805 -0.8693 -1.9862 -0.4826
 2609SOL    HW219461   3.385   3.818   6.944 -3.8959  0.7877 -2.1381
 2610SOL     OW19462   4.286   0.740  15.530 -0.4626 -0.0427 -0.3213
 2610SOL    HW119463   4.276   0.749  15.435 -2.8792 -0.5454 -0.1029
 2610SOL    HW219464   4.208   0.784  15.564  0.7626  0.7662  1.4892
 2611SOL     OW19465   2.634   4.328   7.245 -0.4466  0.1940 -0.5921
 2611SOL    HW119466   2.682   4.363   7.170 -0.8875 -1.0100 -1.4460
 2611SOL    HW219467   2.692   4.325   7.321 -1.0253  1.7159 -0.0994
 2612SOL     OW19468   1.864   2.130   5.139  0.2190  0.5786 -0.3968
 2612SOL    HW119469   1.916   2.085   5.205  2.3560 -0.1798 -2.5976
 2612SOL    HW219470   1.925   2.191   5.098  1.8773 -0.6061  0.3312
 2613SOL     OW19471   0.358   0.138   6.302 -0.4810 -0.7614  0.1466
 2613SOL    HW119472   0.435   0.086   6.277  1.4802  1.1380  2.2850
 2613SOL    HW219473   0.351   0.113   6.395  2.7906  2.3599  1.2324
 2614SOL     OW19474   1.713   2.115   7.968  0.0986 -0.2131 -0.0232
 2614SOL    HW119475   1.692   2.105   8.061  0.7802  1.3777  0.3098
 2614SOL    HW219476   1.650   2.180   7.936  0.2343 -1.3549 -2.6025
 2615SOL     OW19477   4.199   4.392   9.451  0.2984 -0.0168  0.1612
 2615SOL    HW119478   4.143   4.344   9.513  2.1121 -0.4463  1.4608
 2615SOL    HW219479   4.138   4.419   9.382 -0.5495 -0.5150  0.7065
 2616SOL     OW19480   3.701   2.909   5.882  0.4663 -0.2730 -0.9649
 2616SOL    HW119481   3.740   2.952   5.806  2.2357 -1.5278 -0.7802
 2616SOL    HW219482   3.612   2.914   5.846  0.8138  1.3435 -1.5906
 2617SOL     OW19483   4.627   4.280  17.113 -0.2188  0.1421  0.5151
 2617SOL    HW119484   4.693   4.313  17.052 -1.6778 -1.7992 -2.1244
 2617SOL    HW219485   4.680   4.226  17.172 -1.4514 -0.8135  0.7408
 2618SOL     OW19486   2.894   2.902  10.928 -0.1277 -0.3598  0.1584
 2618SOL    HW119487   2.871   2.995  10.924  2.0901  0.2458  1.7164
 2618SOL    HW219488   2.861   2.866  10.845 -1.1689  0.2977  0.2753
 2619SOL     OW19489   4.281   4.553   9.187 -0.3787  0.1865 -0.0044
 2619SOL    HW119490   4.274   4.463   9.156  2.4825 -0.1514  0.3109
 2619SOL    HW219491   4.265   4.533   9.280 -1.5516 -0.6629 -0.3872
 2620SOL     OW19492   0.272   2.397  10.041 -0.5331 -0.1281 -0.3633
 2620SOL    HW119493   0.196   2.341  10.058  0.3696 -0.8204  1.4328
 2620SOL    HW219494   0.330   2.371  10.113 -0.4331  1.6971  0.2231
 2621SOL     OW19495   0.201   2.256   7.001 -0.3495 -0.1051  0.0714
 2621SOL    HW119496   0.128   2.316   7.016 -0.4549  0.2953 -2.1137
 2621SOL    HW219497   0.168   2.209   6.925  1.2957 -0.3425 -0.4970
 2622SOL     OW19498   1.405   3.763   9.014 -0.2153 -0.4752  0.3091
 2622SOL    HW119499   1.398   3.847   9.059  2.9597  0.4829 -0.9474
 2622SOL    HW219500   1.365   3.707   9.080  1.2420 -0.9193  0.8166
 2623SOL     OW19501   3.100   0.557   5.536 -0.3064  1.2246  0.0111
 2623SOL    HW119502   3.076   0.567   5.628 -0.7936  0.5714 -0.0427
 2623SOL    HW219503   3.029   0.505   5.498 -0.0052 -1.3163  2.9808
 2624SOL     OW19504   1.627   1.193   9.900  0.3660 -0.4085 -0.2682
 2624SOL    HW119505   1.660   1.226   9.816  1.6753 -1.5684 -0.2226
 2624SOL    HW219506   1.534   1.179   9.887  0.5882 -1.3478 -0.8398
 2625SOL     OW19507   4.210   1.538   4.135 -0.0380  0.0360 -0.2983
 2625SOL    HW119508   4.202   1.445   4.115  1.4971 -0.0324 -0.5754
 2625SOL    HW219509   4.237   1.535   4.226  1.1292 -3.4048 -0.7687
 2626SOL     OW19510   1.534   0.145   2.026  0.4468  0.4393 -0.0826
 2626SOL    HW119511   1.531   0.057   1.987  2.3217  0.5304 -0.4559
 2626SOL    HW219512   1.452   0.146   2.075  0.0576 -1.0022 -0.6823
 2627SOL     OW19513   0.450   0.055   4.875 -0.2956  0.3553 -0.1497
 2627SOL    HW119514   0.463   4.702   4.859 -0.3193  0.2447  0.4668
 2627SOL    HW219515   0.402   0.041   4.957 -1.5361  1.3162 -0.7090
 2628SOL     OW19516   4.084   2.632   6.827  0.0250 -0.5364 -0.1595
 2628SOL    HW119517   4.044   2.687   6.894 -0.3841 -2.5005  1.2082
 2628SOL    HW219518   4.081   2.706   6.767 -1.0107  0.1398  0.7378
 2629SOL     OW19519   4.480   4.165   4.035 -0.0663 -0.0989 -0.3679
 2629SOL    HW119520   4.497   4.110   4.111  0.0723 -0.7919 -0.8962
 2629SOL    HW219521   4.393   4.202   4.050 -0.4679 -1.5493  0.8544
 2630SOL     OW19522   4.192   2.378   3.503  0.3094 -0.5252 -0.1074
 2630SOL    HW119523   4.180   2.290   3.538 -1.6949 -1.0291 -2.1175
 2630SOL    HW219524   4.191   2.353   3.411 -1.8726 -0.1239 -0.1777
 2631SOL     OW19525   1.376   0.746   7.457 -0.4874 -0.3230  0.1262
 2631SOL    HW119526   1.402   0.746   7.365  1.6511 -0.1953  0.7328
 2631SOL    HW219527   1.424   0.821   7.493 -0.4858  0.5098 -1.6085
 2632SOL     OW19528   1.740   0.886   3.497  0.3781  0.1375  0.0818
 2632SOL    HW119529   1.718   0.809   3.549 -0.7126  0.3671 -0.0309
 2632SOL    HW219530   1.807   0.853   3.437  0.3032 -0.2802  0.2254
 2633SOL     OW19531   0.379   1.532   3.705 -0.2199 -0.3343 -0.0414
 2633SOL    HW119532   0.329   1.459   3.741  0.0890 -0.2936  0.4821
 2633SOL    HW219533   0.306   1.581   3.667  0.6499  1.0806  0.1181
 2634SOL     OW19534   3.806   2.920  16.415  0.3977  0.5543 -0.5561
 2634SOL    HW119535   3.855   2.870  16.480 -0.7600 -0.2233 -0.2732
 2634SOL    HW219536   3.858   2.887  16.343 -0.2937  0.5824 -1.0756
 2635SOL     OW19537   4.503   1.437  12.100 -0.0804 -0.0749 -0.2796
 2635SOL    HW119538   4.431   1.373  12.093 -1.5426  1.4766  0.5335
 2635SOL    HW219539   4.578   1.397  12.057 -1.5352 -0.4716 -2.4644
 2636SOL     OW19540   4.326   1.748   3.359  0.6833 -0.3755 -0.1912
 2636SOL    HW119541   4.329   1.699   3.277 -0.5722 -1.4815  0.4159
 2636SOL    HW219542   4.253   1.809   3.347 -1.6988 -2.6436  2.7306
 2637SOL     OW19543   0.784   3.570   3.059 -0.6463 -0.1165  0.0258
 2637SOL    HW119544   0.717   3.503   3.066 -1.6633  1.0328  1.5508
 2637SOL    HW219545   0.863   3.528   3.095  0.3245 -0.2033 -2.2533
 2638SOL     OW19546   2.549   3.644   7.478  1.0080  0.4831  0.2282
 2638SOL    HW119547   2.538   3.592   7.398 -2.6523  0.4908  0.7483
 2638SOL    HW219548   2.467   3.691   7.485  0.3956 -0.5556  0.0329
 2639SOL     OW19549   3.228   2.110   6.754 -0.4042 -0.3259  1.3110
 2639SOL    HW119550   3.306   2.081   6.800  0.7793  1.6576  0.5589
 2639SOL    HW219551   3.182   2.026   6.758  0.9919 -1.1579 -0.4536
 2640SOL     OW19552   2.849   1.948  11.555  0.3037  0.0904  0.2082
 2640SOL    HW119553   2.796   1.902  11.620  2.0454 -1.4238  0.5451
 2640SOL    HW219554   2.939   1.919  11.575  1.9425  4.3692 -0.9509
 2641SOL     OW19555   2.782   2.293  10.072 -0.0371  0.3522  0.3145
 2641SOL    HW119556   2.821   2.206  10.074 -1.1006 -0.1495 -1.4623
 2641SOL    HW219557   2.860   2.341  10.046 -0.4113  1.5328  1.3441
 2642SOL     OW19558   0.211   2.621   2.878  0.3816  0.8349  0.1508
 2642SOL    HW119559   0.276   2.691   2.887  0.8361  0.7084 -2.0232
 2642SOL    HW219560   0.220   2.558   2.949 -1.5312  1.0650  0.5883
 2643SOL     OW19561   0.206   1.927   1.966 -0.0751  0.1262  0.5363
 2643SOL    HW119562   0.112   1.911   1.954  0.2940 -3.3574  2.0221
 2643SOL    HW219563   0.211   1.947   2.059 -1.4002  3.2221 -0.0748
 2644SOL     OW19564   0.564   2.694   5.886 -0.3365  0.7442  0.3585
 2644SOL    HW119565   0.480   2.729   5.857  0.9114  3.1997 -0.3323
 2644SOL    HW219566   0.606   2.779   5.902  1.0062  0.3941 -1.2543
 2645SOL     OW19567   4.210   1.528   1.658  0.1692 -0.4251 -0.1219
 2645SOL    HW119568   4.278   1.506   1.594  1.1593  0.6030  0.5589
 2645SOL    HW219569   4.135   1.493   1.611 -1.8005  2.0443  1.1679
 2646SOL     OW19570   3.964   1.246   1.596 -0.2651  0.2382  0.2662
 2646SOL    HW119571   4.002   1.299   1.526 -2.5847 -0.1246 -1.2831
 2646SOL    HW219572   3.932   1.170   1.548 -0.1738 -0.6670  1.6407
 2647SOL     OW19573   1.134   2.493   8.538  0.4804 -0.1850 -0.1184
 2647SOL    HW119574   1.132   2.398   8.538  1.3311 -0.2090  0.4936
 2647SOL    HW219575   1.051   2.517   8.578 -0.2861 -0.1232 -1.7349
 2648SOL     OW19576   0.548   2.124   8.720  0.1150 -0.1754  0.2697
 2648SOL    HW119577   0.524   2.140   8.811  0.9610  0.9920  0.2948
 2648SOL    HW219578   0.600   2.045   8.730  1.2923  0.4205 -1.1139
 2649SOL     OW19579   3.082   2.947   2.696  0.4300  0.7565  0.2678
 2649SOL    HW119580   3.109   3.006   2.766  1.5661 -0.7794  1.1093
 2649SOL    HW219581   2.986   2.954   2.702  0.2802 -0.5569 -0.5675
 2650SOL     OW19582   4.399   0.539   2.143  0.2283  0.3160  0.4160
 2650SOL    HW119583   4.400   0.445   2.125 -2.8766  0.9996 -3.3364
 2650SOL    HW219584   4.328   0.573   2.088  0.9604  4.0880  1.8634
 2651SOL     OW19585   0.095   0.725   2.920  0.7201 -0.3327 -0.0592
 2651SOL    HW119586   0.089   0.643   2.871  1.2850 -0.5594  0.2605
 2651SOL    HW219587   0.185   0.727   2.951  0.3628  0.9281  0.8910
 2652SOL     OW19588   2.459   0.638  14.177  0.0164 -0.5712  0.2279
 2652SOL    HW119589   2.457   0.734  14.177 -0.0588 -0.5807 -3.2896
 2652SOL    HW219590   2.553   0.621  14.173  0.1542  0.1268  0.4340
 2653SOL     OW19591   3.953   3.861   2.996 -0.0377 -0.5476 -0.2848
 2653SOL    HW119592   3.903   3.928   3.043 -1.9229 -1.8575 -0.4686
 2653SOL    HW219593   3.879   3.834   2.943 -0.2082 -0.8585  0.1134
 2654SOL     OW19594   2.544   0.534   2.730 -0.0535 -0.0849 -0.0086
 2654SOL    HW119595   2.614   0.588   2.694  0.3269 -1.3176 -1.0745
 2654SOL    HW219596   2.595   0.474   2.784  0.1586 -1.2951 -1.5474
 2655SOL     OW19597   2.546   2.377   6.217  0.1611 -0.1512 -0.6508
 2655SOL    HW119598   2.504   2.442   6.162  0.1940  1.1564  0.8812
 2655SOL    HW219599   2.541   2.299   6.161 -0.4771  0.9321 -2.1030
 2656SOL     OW19600   1.435   4.662  17.507  0.1560  0.0830 -0.3999
 2656SOL    HW119601   1.422   0.010  17.542  1.4775  0.0372  0.1948
 2656SOL    HW219602   1.343   4.660  17.480  0.0004 -2.3257  0.3916
 2657SOL     OW19603   2.013   4.547   4.625  0.3614  0.1218  0.2521
 2657SOL    HW119604   1.938   4.605   4.628 -0.2926 -0.6315 -1.7135
 2657SOL    HW219605   1.989   4.471   4.677  0.2685 -1.2172 -1.7562
 2658SOL     OW19606   4.478   1.784   4.116 -0.2203  0.4923  0.3992
 2658SOL    HW119607   4.524   1.708   4.079 -0.2639  1.3109 -1.3405
 2658SOL    HW219608   4.502   1.854   4.056 -0.8522  0.1650 -0.2379
 2659SOL     OW19609   3.723   3.727   4.168 -0.2510  0.2282 -0.1520
 2659SOL    HW119610   3.699   3.814   4.137  2.1629  0.8718 -0.1977
 2659SOL    HW219611   3.636   3.689   4.183 -0.3218 -0.1527 -1.5346
 2660SOL     OW19612   3.912   1.666   6.108 -0.3252  0.2070 -0.4856
 2660SOL    HW119613   3.962   1.590   6.137 -3.0834 -1.3923  0.1482
 2660SOL    HW219614   3.976   1.737   6.116 -0.8563  0.3104  2.5454
 2661SOL     OW19615   1.909   2.125   8.521 -0.1065  0.2435 -0.0029
 2661SOL    HW119616   1.835   2.113   8.462  0.1215  0.6138 -0.3641
 2661SOL    HW219617   1.878   2.189   8.586 -0.0250 -0.2291  0.5069
 2662SOL     OW19618   3.557   0.167  15.282  0.1294 -0.0402 -0.5427
 2662SOL    HW119619   3.631   0.115  15.314  0.3754  0.7724  0.2133
 2662SOL    HW219620   3.605   0.244  15.253  0.6025 -1.3696 -3.3347
 2663SOL     OW19621   1.933   3.581  15.243  0.1957 -0.6097  0.7097
 2663SOL    HW119622   1.991   3.538  15.306  1.4280 -0.7882 -0.5574
 2663SOL    HW219623   1.955   3.536  15.162  0.9319  0.7219  0.1902
 2664SOL     OW19624   4.407   2.111   9.687 -0.1805  0.1900  0.1560
 2664SOL    HW119625   4.351   2.033   9.685  2.1285 -1.4414 -1.7835
 2664SOL    HW219626   4.452   2.082   9.608  1.3871  1.2405  0.6710
 2665SOL     OW19627   4.523   4.183   2.946 -0.8692 -0.3638  0.0662
 2665SOL    HW119628   4.441   4.213   2.984 -1.0896 -1.9028  0.8023
 2665SOL    HW219629   4.499   4.096   2.916 -0.6857  0.0523 -1.3122
 2666SOL     OW19630   2.719   3.936   0.564  0.1451 -0.5598 -0.0704
 2666SOL    HW119631   2.758   3.919   0.479  1.4371  1.4062  0.1305
 2666SOL    HW219632   2.798   3.962   0.612  0.6978  0.5140 -1.5917
 2667SOL     OW19633   2.323   3.283  16.060  0.0865 -0.1498  0.1471
 2667SOL    HW119634   2.369   3.200  16.071  0.7158  0.3935  1.5684
 2667SOL    HW219635   2.393   3.340  16.028  0.5028 -0.2989  0.7991
 2668SOL     OW19636   0.902   1.277   4.038  0.8494 -0.3379 -0.1113
 2668SOL    HW119637   0.899   1.367   4.071 -1.2312 -0.6039  0.4136
 2668SOL    HW219638   0.997   1.275   4.025  0.6227  0.9915 -2.0779
 2669SOL     OW19639   2.337   3.954  15.720 -0.2524 -0.0924  0.0839
 2669SOL    HW119640   2.297   3.868  15.734 -1.4911  0.1943 -1.6307
 2669SOL    HW219641   2.255   4.003  15.710  0.7234  1.3667 -0.6048
 2670SOL     OW19642   2.215   3.884   4.397  0.4810 -0.2840  0.2792
 2670SOL    HW119643   2.296   3.842   4.426  0.6903 -0.0187  0.0800
 2670SOL    HW219644   2.156   3.809   4.398  0.3297 -0.2123 -2.1417
 2671SOL     OW19645   3.326   0.084   4.681 -0.7102 -0.2028  0.3407
 2671SOL    HW119646   3.365   0.171   4.686 -0.1551 -0.4621  0.4709
 2671SOL    HW219647   3.235   0.110   4.698 -0.6367 -0.0138  0.4337
 2672SOL     OW19648   0.040   1.217  15.690 -0.1227  0.5152 -0.0706
 2672SOL    HW119649   0.108   1.234  15.756  1.7834 -0.3941 -1.7948
 2672SOL    HW219650   0.073   1.136  15.652  1.0393  0.7474  0.4275
 2673SOL     OW19651   4.243   2.239   6.066 -0.5081  0.5069 -0.0232
 2673SOL    HW119652   4.295   2.310   6.103 -1.5844  0.5958  1.3322
 2673SOL    HW219653   4.162   2.288   6.052  0.8150  2.5323 -0.6164
 2674SOL     OW19654   3.766   0.250   4.684  0.4544  0.3028 -0.7006
 2674SOL    HW119655   3.831   0.301   4.636  0.4279 -0.1987 -1.2780
 2674SOL    HW219656   3.681   0.292   4.666  0.8971  0.4654 -2.4212
 2675SOL     OW19657   0.044   4.051   5.722 -0.1390 -0.0428  0.3034
 2675SOL    HW119658   4.708   4.080   5.771  1.3720  2.0181  1.4498
 2675SOL    HW219659   0.107   4.122   5.730  1.2374 -1.2569  0.4055
 2676SOL     OW19660   4.659   3.579   7.685  0.0560  0.2248  0.6502
 2676SOL    HW119661   4.585   3.520   7.669 -0.4205  0.3055  2.5510
 2676SOL    HW219662   4.604   3.656   7.695 -1.1133 -0.1899 -2.5529
 2677SOL     OW19663   4.563   4.381   4.425  0.0171 -0.2625  0.5090
 2677SOL    HW119664   4.612   4.461   4.445  0.7606 -0.3479 -0.9581
 2677SOL    HW219665   4.492   4.389   4.488 -0.4475 -1.5232  0.1370
 2678SOL     OW19666   3.839   2.301   6.547  0.3160  0.4739  0.1065
 2678SOL    HW119667   3.917   2.278   6.495 -0.1695  1.2130 -0.9389
 2678SOL    HW219668   3.868   2.334   6.632  3.5668 -0.0137 -0.7846
 2679SOL     OW19669   3.169   0.079  17.115 -0.0601  0.3391  0.6805
 2679SOL    HW119670   3.085   0.064  17.159 -0.7997  0.1189 -0.8214
 2679SOL    HW219671   3.227   0.030  17.174  1.5986 -0.4107 -1.6121
 2680SOL     OW19672   0.481   2.889   9.039 -0.1213 -0.0170 -0.5656
 2680SOL    HW119673   0.491   2.977   9.002  0.2098 -0.6310 -1.9422
 2680SOL    HW219674   0.557   2.840   9.007 -0.4584  0.1656 -1.6540
 2681SOL     OW19675   3.149   2.157   9.968  0.4841  0.1794  0.1093
 2681SOL    HW119676   3.087   2.101  10.014  2.5410 -0.6929  1.8057
 2681SOL    HW219677   3.103   2.241   9.965  1.3086  0.5611 -2.1358
 2682SOL     OW19678   0.186   3.175  13.428  0.4984 -0.1908 -0.1988
 2682SOL    HW119679   0.251   3.145  13.492  0.6580 -0.7891 -0.6390
 2682SOL    HW219680   0.113   3.117  13.448 -1.1823  1.4507 -1.5636
 2683SOL     OW19681   3.810   3.350  11.526  0.2918  0.9846  0.2042
 2683SOL    HW119682   3.860   3.269  11.514 -0.8333  0.2763  0.2356
 2683SOL    HW219683   3.817   3.364  11.621  0.7741 -0.7024  0.4227
 2684SOL     OW19684   2.059   4.669   2.693  0.5156 -0.1808  0.0099
 2684SOL    HW119685   2.022   4.593   2.647  0.1482  0.5415 -0.8821
 2684SOL    HW219686   2.012   4.737   2.645 -0.3278  1.0428  2.5430
 2685SOL     OW19687   4.094   0.448   3.018 -0.4102 -0.4166  0.9680
 2685SOL    HW119688   4.149   0.495   2.955  0.4801 -2.3101  0.3538
 2685SOL    HW219689   4.030   0.514   3.045 -0.0839  0.1540  0.3453
 2686SOL     OW19690   4.257   1.880   9.646 -0.4023  0.4799  0.0872
 2686SOL    HW119691   4.184   1.823   9.669  1.3911 -2.2349 -0.9012
 2686SOL    HW219692   4.299   1.837   9.572  1.1683  0.6038  0.8888
 2687SOL     OW19693   1.806   0.987  16.308  0.1838 -0.5441 -0.0888
 2687SOL    HW119694   1.888   0.964  16.351 -0.6937 -0.8567  1.3848
 2687SOL    HW219695   1.800   0.903  16.262  1.2145 -0.8470  0.3300
 2688SOL     OW19696   0.245   4.046  16.945  0.0556  0.1455 -0.4333
 2688SOL    HW119697   0.234   4.031  17.039 -2.8149  0.6500 -0.6837
 2688SOL    HW219698   0.339   4.028  16.941  0.1469  0.5368  0.0420
 2689SOL     OW19699   1.956   0.699   3.950 -0.0642 -0.3037 -0.4134
 2689SOL    HW119700   2.014   0.757   3.901  0.5243  0.9917  1.8567
 2689SOL    HW219701   1.890   0.758   3.985 -0.3588 -0.6187 -0.4366
 2690SOL     OW19702   0.998   4.298   8.188  0.2054  0.0812 -0.2867
 2690SOL    HW119703   1.041   4.258   8.264  0.0269 -0.9704 -0.7549
 2690SOL    HW219704   1.005   4.390   8.216 -1.1175 -0.1142  0.7017
 2691SOL     OW19705   3.301   3.887   7.075 -0.0508  0.0483  0.0012
 2691SOL    HW119706   3.230   3.830   7.045 -2.0897  2.5629  0.0433
 2691SOL    HW219707   3.257   3.950   7.133  1.8237 -0.4408  1.9790
 2692SOL     OW19708   3.219   0.948   7.396 -0.3232  0.4299  0.1925
 2692SOL    HW119709   3.290   0.967   7.457 -0.3062  1.4110 -0.1435
 2692SOL    HW219710   3.226   1.022   7.336  1.5420  0.4384  0.4222
 2693SOL     OW19711   0.212   0.913   6.118 -0.3050 -0.3758  0.4857
 2693SOL    HW119712   0.268   0.956   6.054 -0.5487  0.7042  0.9895
 2693SOL    HW219713   0.221   0.820   6.099  1.1971  0.2679 -1.8675
 2694SOL     OW19714   3.433   1.189  15.785 -0.1119  0.6000  0.1370
 2694SOL    HW119715   3.349   1.225  15.813  0.5406  2.5225 -0.3995
 2694SOL    HW219716   3.412   1.151  15.699  1.1002  1.7885 -0.6938
 2695SOL     OW19717   4.109   0.471   6.390  0.2313  0.3820 -0.4867
 2695SOL    HW119718   4.040   0.492   6.453 -0.2856  2.5630 -1.7730
 2695SOL    HW219719   4.090   0.387   6.349  0.9647 -0.7122  1.3930
 2696SOL     OW19720   4.660   2.563   1.097  0.1072 -0.2924 -0.3844
 2696SOL    HW119721   4.658   2.640   1.041 -0.4709 -1.6670 -2.2311
 2696SOL    HW219722   4.654   2.493   1.032 -0.3703 -1.3005  0.7349
 2697SOL     OW19723   4.063   2.417   1.857 -0.3130  0.6246  0.4954
 2697SOL    HW119724   4.122   2.490   1.836  1.7921 -1.5784 -1.3425
 2697SOL    HW219725   4.008   2.430   1.780 -0.9731 -0.1362  0.8478
 2698SOL     OW19726   1.940   2.842   8.822  0.0476 -0.2162 -0.3993
 2698SOL    HW119727   2.001   2.862   8.752  1.6985 -0.1381  1.0460
 2698SOL    HW219728   1.950   2.921   8.876  3.9175  1.2844 -3.3327
 2699SOL     OW19729   3.604   2.173   8.721 -0.0039 -0.2319  0.1346
 2699SOL    HW119730   3.535   2.127   8.768  0.0192  1.6609  2.0260
 2699SOL    HW219731   3.567   2.261   8.725 -0.9597 -0.6187 -0.2563
 2700SOL     OW19732   0.882   0.974  10.779 -0.3743 -0.3588  0.3508
 2700SOL    HW119733   0.877   0.942  10.869 -0.6846 -0.3579  0.3343
 2700SOL    HW219734   0.897   0.891  10.734 -1.6421 -1.7825  2.5457
 2701SOL     OW19735   2.728   2.669   3.605  0.3259  0.0897  0.2350
 2701SOL    HW119736   2.817   2.635   3.591  0.7529  1.4802 -0.4727
 2701SOL    HW219737   2.744   2.754   3.646 -1.3263 -0.1843  1.4193
 2702SOL     OW19738   1.158   0.293  10.422  0.4090 -0.0586 -0.1409
 2702SOL    HW119739   1.086   0.339  10.379  0.0678 -0.6146 -0.1829
 2702SOL    HW219740   1.104   0.232  10.473 -1.2560 -0.4242 -2.3510
 2703SOL     OW19741   4.363   0.829  10.742 -0.3966 -0.3390  0.2353
 2703SOL    HW119742   4.390   0.737  10.742 -0.4383 -0.3570  1.4932
 2703SOL    HW219743   4.419   0.858  10.670 -0.9859 -1.6413 -0.7551
 2704SOL     OW19744   1.407   4.155  16.586 -0.2905 -0.1415  0.3569
 2704SOL    HW119745   1.433   4.247  16.585 -1.0566  0.0672 -1.4575
 2704SOL    HW219746   1.386   4.131  16.495 -0.3442  0.4988  0.1962
 2705SOL     OW19747   2.809   3.378   3.461 -0.0502 -0.0411 -0.0624
 2705SOL    HW119748   2.755   3.445   3.419 -0.5346  0.6216  1.6045
 2705SOL    HW219749   2.896   3.398   3.426  0.6122 -2.5537  0.2002
 2706SOL     OW19750   0.377   0.608   7.499  0.2672  0.1776  0.5510
 2706SOL    HW119751   0.302   0.628   7.444 -0.2441 -2.7740  0.1408
 2706SOL    HW219752   0.429   0.572   7.427 -0.0285  1.8146 -0.4659
 2707SOL     OW19753   2.783   1.151   7.059  0.2156  0.3443  0.0355
 2707SOL    HW119754   2.693   1.124   7.042 -0.2280 -0.6652  4.0823
 2707SOL    HW219755   2.802   1.106   7.142 -1.0227 -0.1169  0.0683
 2708SOL     OW19756   4.725   3.593   6.535  0.5595  0.9049 -0.2402
 2708SOL    HW119757   4.704   3.608   6.442  0.4295  0.3302 -0.3032
 2708SOL    HW219758   4.739   3.500   6.553 -0.9702  0.4103 -1.5446
 2709SOL     OW19759   3.256   3.676  11.615 -0.2218 -0.2783 -0.1965
 2709SOL    HW119760   3.215   3.726  11.545  1.3781  1.6868  0.2673
 2709SOL    HW219761   3.191   3.703  11.679  0.4314 -0.6067  0.6228
 2710SOL     OW19762   1.074   4.467  12.155  0.5080 -0.4324 -0.2829
 2710SOL    HW119763   1.089   4.399  12.090  0.2042 -1.2609  0.5199
 2710SOL    HW219764   0.982   4.454  12.178  0.4801  0.6318  0.2027
 2711SOL     OW19765   1.387   1.293   8.725  0.5119 -0.6229  0.3988
 2711SOL    HW119766   1.354   1.380   8.703 -1.3027 -1.4784 -0.2651
 2711SOL    HW219767   1.479   1.317   8.711 -0.4730  1.3058 -2.5378
 2712SOL     OW19768   1.533   4.162   5.632  0.2449 -0.5854 -0.3753
 2712SOL    HW119769   1.568   4.156   5.720  0.4656  1.7754 -0.2937
 2712SOL    HW219770   1.604   4.180   5.570 -0.2980  1.7580 -0.3355
 2713SOL     OW19771   0.070   0.451   5.886  0.0668  0.5754  0.1282
 2713SOL    HW119772   0.106   0.499   5.812  1.1439 -1.8419 -0.9198
 2713SOL    HW219773   0.094   0.514   5.954  1.1704  1.6398 -1.2541
 2714SOL     OW19774   3.535   0.802   2.574  0.0880 -0.3569  0.8627
 2714SOL    HW119775   3.490   0.725   2.540 -0.2481 -0.3725  1.3478
 2714SOL    HW219776   3.472   0.874   2.568  0.7176  0.2285  1.2542
 2715SOL     OW19777   2.966   2.780   5.092 -0.3676  0.3748 -0.7061
 2715SOL    HW119778   2.911   2.706   5.067 -1.3399  0.7256  0.4437
 2715SOL    HW219779   3.044   2.738   5.128 -1.0401  1.3198  1.8116
 2716SOL     OW19780   1.644   0.693   2.072  0.2264  0.1505 -0.0362
 2716SOL    HW119781   1.657   0.742   2.154 -0.7727  1.9280 -0.9279
 2716SOL    HW219782   1.623   0.609   2.112  0.6937 -0.1525 -0.4265
 2717SOL     OW19783   1.513   0.348   2.795  0.2045 -0.0107  0.3545
 2717SOL    HW119784   1.588   0.288   2.789  0.5968  0.5321 -0.2585
 2717SOL    HW219785   1.547   0.424   2.748  3.5450 -1.0389  1.0610
 2718SOL     OW19786   1.743   3.358   7.460 -0.5905 -0.1584  1.1276
 2718SOL    HW119787   1.804   3.312   7.517 -0.4948 -1.1482  0.2289
 2718SOL    HW219788   1.730   3.294   7.389  1.7204  1.8863 -1.1728
 2719SOL     OW19789   0.963   4.362   4.673  0.3445  0.3969 -0.2996
 2719SOL    HW119790   0.973   4.418   4.749 -1.5037  2.3855 -1.5237
 2719SOL    HW219791   0.938   4.275   4.705  0.9267  0.3701  0.0701
 2720SOL     OW19792   1.231   0.333   4.386  0.0540  0.2219  0.0921
 2720SOL    HW119793   1.191   0.274   4.322  0.7043  0.8600 -0.8892
 2720SOL    HW219794   1.248   0.408   4.330  0.8211 -0.0795 -0.0743
 2721SOL     OW19795   0.848   2.632   6.424  0.0480 -0.3261  0.5828
 2721SOL    HW119796   0.854   2.695   6.496  2.5990 -1.0547  1.0062
 2721SOL    HW219797   0.857   2.547   6.467 -0.2524 -2.0990 -2.8894
 2722SOL     OW19798   0.125   0.476  16.920 -0.2949  0.2110 -0.1835
 2722SOL    HW119799   0.122   0.546  16.855  0.9445  0.7198  0.3148
 2722SOL    HW219800   0.078   0.407  16.873 -2.1946  0.1493  1.8239
 2723SOL     OW19801   2.341   1.829   0.330  0.4466  0.0852  0.2707
 2723SOL    HW119802   2.324   1.917   0.365 -0.2532  0.1910 -0.3585
 2723SOL    HW219803   2.394   1.835   0.250  0.0773  0.7741  0.0759
 2724SOL     OW19804   0.007   1.383   4.012  1.1053  0.5567 -0.1771
 2724SOL    HW119805   0.066   1.367   3.938  0.6589 -0.2540 -0.3527
 2724SOL    HW219806   4.658   1.380   3.980  0.7697  0.7195  0.7286
 2725SOL     OW19807   2.814   0.124   6.893  0.2880 -0.1238  0.4265
 2725SOL    HW119808   2.893   0.152   6.938  0.7233  2.1009 -1.7108
 2725SOL    HW219809   2.777   0.205   6.858 -2.6048 -1.7487 -0.3054
 2726SOL     OW19810   3.631   3.695   4.434  0.0292  0.2330  0.6318
 2726SOL    HW119811   3.554   3.657   4.391  0.6880 -0.0997 -0.2293
 2726SOL    HW219812   3.681   3.728   4.360 -0.5340 -0.5966 -0.1271
 2727SOL     OW19813   1.891   2.148   4.501 -0.1200  0.2418  0.5487
 2727SOL    HW119814   1.858   2.102   4.579 -0.5806 -0.4947 -0.0838
 2727SOL    HW219815   1.985   2.135   4.509 -0.0109  1.2545  0.9271
 2728SOL     OW19816   1.894   2.047  15.273  0.7106  0.0209  0.6695
 2728SOL    HW119817   1.911   2.091  15.189  1.7068  1.2237  1.5108
 2728SOL    HW219818   1.799   2.036  15.279  0.6807 -0.0076  0.2048
 2729SOL     OW19819   1.651   4.556   5.367  0.5168  0.1959  0.3207
 2729SOL    HW119820   1.736   4.533   5.330  0.2986 -0.6901  0.3884
 2729SOL    HW219821   1.675   4.543   5.458  0.8561 -1.4712 -0.0147
 2730SOL     OW19822   4.151   1.104  15.235  0.0558  0.1352 -0.5167
 2730SOL    HW119823   4.088   1.146  15.294 -0.5696 -0.3250 -0.8558
 2730SOL    HW219824   4.187   1.031  15.286 -1.3524  1.1388  1.9146
 2731SOL     OW19825   1.999   1.106   5.772 -0.3042 -0.1295  0.0406
 2731SOL    HW119826   1.931   1.039   5.780  1.3548 -1.8372 -0.3338
 2731SOL    HW219827   1.982   1.172   5.839  3.1676 -0.2249  1.0213
 2732SOL     OW19828   2.441   4.193  15.812 -0.1344 -0.2496 -0.1099
 2732SOL    HW119829   2.421   4.105  15.779  1.6551 -0.9394  0.6255
 2732SOL    HW219830   2.484   4.238  15.739 -0.4505  0.4565  0.1422
 2733SOL     OW19831   4.143   4.078   0.658  0.0854  0.5756 -0.2809
 2733SOL    HW119832   4.114   4.136   0.729  1.6577  1.5287 -0.4063
 2733SOL    HW219833   4.060   4.045   0.626  0.6489 -0.9050 -0.1869
 2734SOL     OW19834   1.095   0.702   8.410 -0.0385 -0.4144 -0.3165
 2734SOL    HW119835   1.135   0.678   8.493 -0.0912  0.4328 -0.0403
 2734SOL    HW219836   1.027   0.635   8.406 -1.0968  0.5646  1.3363
 2735SOL     OW19837   0.704   0.956   6.263  0.7863 -0.1962 -0.2854
 2735SOL    HW119838   0.681   0.970   6.355  2.8172  1.3093  0.0022
 2735SOL    HW219839   0.788   1.000   6.253  1.1162 -0.6972  0.1958
 2736SOL     OW19840   2.466   4.343   8.524 -0.2165  0.2805 -0.2005
 2736SOL    HW119841   2.419   4.358   8.606  0.1625  2.6117 -0.4157
 2736SOL    HW219842   2.478   4.248   8.532  1.4471  0.4606 -0.5043
 2737SOL     OW19843   1.743   3.006   7.379  0.8364 -0.1029  0.6831
 2737SOL    HW119844   1.734   3.055   7.298 -2.1963 -0.3384  0.8798
 2737SOL    HW219845   1.836   3.020   7.400  1.2650  0.8291 -1.9208
 2738SOL     OW19846   0.515   0.915  12.625  0.2361 -0.3762  0.2050
 2738SOL    HW119847   0.606   0.894  12.648  0.5054  0.0996 -0.4419
 2738SOL    HW219848   0.516   0.916  12.529  0.0313 -2.3402  0.1852
 2739SOL     OW19849   2.208   2.320   4.817  0.0407 -0.0941 -0.6915
 2739SOL    HW119850   2.192   2.372   4.738  3.0072  1.5512 -0.2292
 2739SOL    HW219851   2.265   2.246   4.796 -1.7358 -1.2902 -1.2316
 2740SOL     OW19852   4.013   2.658   5.958 -0.2104  0.1894  0.6280
 2740SOL    HW119853   4.008   2.745   5.920  1.5436  0.1059  0.2338
 2740SOL    HW219854   3.945   2.621   5.901  0.2301  0.3750 -0.0084
 2741SOL     OW19855   1.897   1.713  17.278  0.6508  0.3022 -0.1734
 2741SOL    HW119856   1.944   1.636  17.246  0.2511  0.9682 -2.3377
 2741SOL    HW219857   1.839   1.665  17.337 -0.4885  1.5627 -0.2877
 2742SOL     OW19858   3.005   2.453   5.745 -0.0859 -0.0922 -0.2914
 2742SOL    HW119859   3.074   2.418   5.688  0.8382  0.9272  0.1873
 2742SOL    HW219860   3.050   2.510   5.808  1.6365 -0.3684 -1.2472
 2743SOL     OW19861   3.759   0.570   2.516  0.0277  0.0033 -0.3206
 2743SOL    HW119862   3.802   0.652   2.542 -0.1171 -0.3629  1.0894
 2743SOL    HW219863   3.667   0.593   2.500  0.4004  0.4926 -1.7256
 2744SOL     OW19864   2.368   3.190   4.992  0.2988  0.0038  0.4152
 2744SOL    HW119865   2.323   3.268   4.962  1.3378  0.1858 -0.6513
 2744SOL    HW219866   2.461   3.212   4.983  0.0529  1.0976  0.6008
 2745SOL     OW19867   2.040   0.378   4.713  0.3626  0.2738 -1.1399
 2745SOL    HW119868   2.066   0.462   4.750  1.0618 -1.1052  1.4688
 2745SOL    HW219869   2.125   0.334   4.711 -0.0175 -0.5124 -0.2406
 2746SOL     OW19870   0.713   0.077   2.552  0.2443  0.0479  0.4807
 2746SOL    HW119871   0.702   0.078   2.457  2.7880 -0.9647  0.1955
 2746SOL    HW219872   0.721   0.171   2.567 -1.0633  0.3829 -0.9318
 2747SOL     OW19873   0.564   2.925   8.097 -0.7153  0.3634 -0.5400
 2747SOL    HW119874   0.659   2.931   8.084 -0.7343  2.1425  0.1385
 2747SOL    HW219875   0.522   2.864   8.035  0.0631  0.3517 -1.0598
 2748SOL     OW19876   0.141   3.986   1.691 -0.0781 -0.1066  0.0993
 2748SOL    HW119877   0.169   3.903   1.730 -0.5787 -0.9311 -1.3101
 2748SOL    HW219878   0.148   3.966   1.598 -1.0228  2.4513 -0.5389
 2749SOL     OW19879   4.556   4.333  13.460 -0.5617  0.8203 -0.0053
 2749SOL    HW119880   4.635   4.387  13.459 -0.2339  0.4134  3.7209
 2749SOL    HW219881   4.493   4.403  13.439 -3.4436 -1.1875  1.9967
 2750SOL     OW19882   3.968   0.224   0.258  0.4308  0.5001 -0.0977
 2750SOL    HW119883   3.915   0.297   0.226 -0.6172 -0.5941 -0.8801
 2750SOL    HW219884   3.938   0.139   0.226 -1.3652  0.8545  0.6717
 2751SOL     OW19885   1.175   3.246   5.363  0.9242 -0.1806  0.3584
 2751SOL    HW119886   1.266   3.229   5.387  0.4334  0.8371  3.0387
 2751SOL    HW219887   1.133   3.161   5.368 -0.9156  0.5594 -2.5629
 2752SOL     OW19888   4.237   3.241   5.551 -0.0193 -0.1740  0.1075
 2752SOL    HW119889   4.271   3.218   5.465 -2.4866  1.0428 -1.1842
 2752SOL    HW219890   4.152   3.280   5.532  0.1530 -0.5917 -1.4858
 2753SOL     OW19891   2.571   4.026   2.980  0.8944 -0.0053  0.3551
 2753SOL    HW119892   2.505   4.062   2.920  3.4296  1.7597 -1.4177
 2753SOL    HW219893   2.611   3.951   2.937 -0.4437  0.2314 -1.3428
 2754SOL     OW19894   3.200   4.355   3.420  0.2533 -0.5864  0.1613
 2754SOL    HW119895   3.145   4.306   3.359  0.5954  0.0728 -0.6640
 2754SOL    HW219896   3.178   4.446   3.403 -1.1552 -0.8901  0.3203
 2755SOL     OW19897   4.303   2.815   3.767 -0.5732  0.1785 -0.4509
 2755SOL    HW119898   4.283   2.744   3.706 -2.8939 -2.0556  2.8311
 2755SOL    HW219899   4.394   2.835   3.748 -0.6611  2.0906  1.0780
 2756SOL     OW19900   1.179   3.400   6.963  0.5496  0.2788  0.4043
 2756SOL    HW119901   1.270   3.369   6.971  0.8417  1.3228  1.1282
 2756SOL    HW219902   1.172   3.489   6.998  3.4989  0.5074  0.4336
 2757SOL     OW19903   2.264   4.429   2.703 -0.3992  0.1525  0.2910
 2757SOL    HW119904   2.176   4.468   2.703 -1.4266 -2.1235  0.5257
 2757SOL    HW219905   2.292   4.441   2.794  1.7879 -1.3369 -0.1787
 2758SOL     OW19906   0.410   3.599   5.855  0.3849  0.0203 -0.6836
 2758SOL    HW119907   0.434   3.667   5.792 -2.6365  0.9834 -0.7964
 2758SOL    HW219908   0.341   3.554   5.806 -0.7901 -0.1185  1.0761
 2759SOL     OW19909   3.275   0.644   5.195 -0.0913 -0.3755 -0.0643
 2759SOL    HW119910   3.312   0.654   5.107 -3.4065 -2.3135 -1.6880
 2759SOL    HW219911   3.290   0.550   5.212 -1.3522 -0.1811  2.1099
 2760SOL     OW19912   3.808   3.044  15.047  0.2159  0.1405  0.3521
 2760SOL    HW119913   3.725   3.053  15.000  0.4353 -1.7585 -0.4132
 2760SOL    HW219914   3.816   3.134  15.078  0.1197  0.4964 -0.6656
 2761SOL     OW19915   4.386   0.825   5.132  0.7393 -0.2911 -0.2869
 2761SOL    HW119916   4.398   0.880   5.209 -1.0882 -0.5580  0.1845
 2761SOL    HW219917   4.353   0.753   5.185 -0.9242  0.7984  0.1630
 2762SOL     OW19918   2.622   0.472   6.122  0.0812 -0.1742 -0.1410
 2762SOL    HW119919   2.544   0.417   6.121  0.7192 -1.1038  0.8431
 2762SOL    HW219920   2.593   0.532   6.054 -3.0685  0.1726  1.5132
 2763SOL     OW19921   1.603   3.916   2.199 -0.1428 -0.8980 -0.2128
 2763SOL    HW119922   1.519   3.945   2.235 -0.3800 -1.6906 -0.1289
 2763SOL    HW219923   1.595   3.915   2.104 -1.2055  1.7458 -0.1538
 2764SOL     OW19924   1.708   1.341   7.958 -0.1751  0.9764  0.0865
 2764SOL    HW119925   1.752   1.359   7.875  1.3072 -2.0492  0.2359
 2764SOL    HW219926   1.738   1.252   7.974  1.2438  1.4019 -0.1571
 2765SOL     OW19927   0.104   4.351  15.279  0.3713  0.2741  0.2576
 2765SOL    HW119928   0.047   4.393  15.215 -1.1262  2.0005  2.7341
 2765SOL    HW219929   0.144   4.420  15.332  4.3281 -1.9132  0.1512
 2766SOL     OW19930   4.536   1.038   6.418 -0.0721  0.0251  0.3236
 2766SOL    HW119931   4.493   1.062   6.336 -1.4235 -1.0756  0.7210
 2766SOL    HW219932   4.557   0.946   6.404 -1.1845 -0.3037  0.8372
 2767SOL     OW19933   2.009   2.024   1.865  0.2960 -0.1773  0.6757
 2767SOL    HW119934   1.962   1.995   1.787  0.0204  1.8535  0.0816
 2767SOL    HW219935   1.983   1.955   1.927  3.6469 -0.0790  2.2279
 2768SOL     OW19936   2.244   3.691  15.761 -0.1880  0.0485  0.1536
 2768SOL    HW119937   2.177   3.759  15.774 -1.2309 -0.6153 -1.8672
 2768SOL    HW219938   2.215   3.626  15.825 -0.6134 -0.4307 -0.5235
 2769SOL     OW19939   0.467   3.043   2.181 -0.1237 -0.3148  0.3996
 2769SOL    HW119940   0.553   3.084   2.181 -0.5402  0.5581 -0.7748
 2769SOL    HW219941   0.485   2.958   2.221  0.3387 -0.4633 -0.1125
 2770SOL     OW19942   3.898   1.469   4.318  0.3308  0.2695  0.1949
 2770SOL    HW119943   3.971   1.409   4.330  0.9727  1.0186  0.0722
 2770SOL    HW219944   3.924   1.542   4.374  0.1720  0.9792 -0.6337
 2771SOL     OW19945   0.284   0.033   3.476  0.2043  0.2388 -0.5771
 2771SOL    HW119946   0.361   4.733   3.437  1.8538  3.6878 -0.9252
 2771SOL    HW219947   0.313   0.124   3.488  1.8301 -0.1878 -1.3048
 2772SOL     OW19948   3.788   3.579   8.673 -0.1878  0.2293  0.3706
 2772SOL    HW119949   3.778   3.498   8.622  1.8631  1.7482 -2.4644
 2772SOL    HW219950   3.824   3.547   8.756 -0.5985  0.1540  0.5194
 2773SOL     OW19951   1.781   0.278   2.101 -0.2034  0.1461 -0.2519
 2773SOL    HW119952   1.864   0.233   2.116  0.5608  0.8374 -2.5024
 2773SOL    HW219953   1.727   0.216   2.051 -1.6139  0.7505  0.5291
 2774SOL     OW19954   4.266   3.859   7.305 -0.1125 -0.3770 -0.3834
 2774SOL    HW119955   4.281   3.874   7.212  1.4459 -1.3098 -0.2838
 2774SOL    HW219956   4.353   3.873   7.342  0.1803 -0.2668 -1.1228
 2775SOL     OW19957   0.668   3.926   8.901 -0.8135  0.0344 -0.2073
 2775SOL    HW119958   0.624   3.969   8.975  1.7144  2.1675  0.0488
 2775SOL    HW219959   0.729   3.869   8.948 -0.2635  0.8605  0.0787
 2776SOL     OW19960   1.744   4.215  16.800 -0.8522  0.0525 -0.1446
 2776SOL    HW119961   1.737   4.218  16.704  1.5852  0.6906 -0.2922
 2776SOL    HW219962   1.838   4.221  16.817 -0.9612 -1.0950  0.8547
 2777SOL     OW19963   0.335   1.378   6.629 -0.0455 -0.8946  0.5306
 2777SOL    HW119964   0.354   1.284   6.630  0.8070 -0.7362 -1.1549
 2777SOL    HW219965   0.407   1.420   6.581 -2.2436  0.8397 -1.2388
 2778SOL     OW19966   4.304   2.912   2.384  0.4807  0.6032 -0.0386
 2778SOL    HW119967   4.257   2.834   2.355 -0.2696  1.3854 -0.9434
 2778SOL    HW219968   4.342   2.942   2.302 -1.0279  0.8115 -0.6614
 2779SOL     OW19969   4.682   3.427   1.850  0.5183  0.5733  0.5999
 2779SOL    HW119970   4.597   3.419   1.894  1.2396  0.0218  1.8866
 2779SOL    HW219971   4.725   3.342   1.860 -2.8524 -1.1831  0.0447
 2780SOL     OW19972   3.219   2.668   5.218  0.3589  0.5313 -0.2678
 2780SOL    HW119973   3.281   2.722   5.267  0.5322 -0.0907  0.2054
 2780SOL    HW219974   3.218   2.583   5.264  0.1647 -0.3533 -1.8929
 2781SOL     OW19975   2.926   1.117   5.947 -0.3486 -0.5798  0.6678
 2781SOL    HW119976   2.886   1.131   5.861 -0.2969  0.6347  0.8454
 2781SOL    HW219977   2.914   1.022   5.950  4.5360 -1.1975  0.0663
 2782SOL     OW19978   4.628   1.931  11.974 -0.3313  0.2528 -0.6663
 2782SOL    HW119979   4.599   2.008  12.023 -0.8780 -0.0231 -0.5655
 2782SOL    HW219980   4.577   1.863  12.017 -3.4357  2.0717 -1.4971
 2783SOL     OW19981   3.971   1.279   2.868 -0.2441 -0.0965  0.1074
 2783SOL    HW119982   3.995   1.362   2.910 -1.1957  0.6850 -0.8796
 2783SOL    HW219983   4.036   1.268   2.799 -3.6622 -0.4877 -3.0379
 2784SOL     OW19984   0.579   1.304   6.370 -0.3796  0.6625  0.6780
 2784SOL    HW119985   0.614   1.220   6.398 -0.0057  0.1836 -1.2061
 2784SOL    HW219986   0.649   1.368   6.380  0.6723 -0.2436 -0.7673
 2785SOL     OW19987   4.071   0.866   8.277 -0.2029  0.3325 -0.5061
 2785SOL    HW119988   4.001   0.847   8.339  0.2167  0.0760 -0.1177
 2785SOL    HW219989   4.022   0.933   8.228  0.7496 -0.6877 -2.8514
 2786SOL     OW19990   3.405   1.013   5.174 -0.2996 -0.7069 -0.3351
 2786SOL    HW119991   3.430   0.945   5.237 -0.0480  0.5867  0.9388
 2786SOL    HW219992   3.427   1.098   5.210  2.1999 -1.0409 -1.0225
 2787SOL     OW19993   3.325   2.258  17.091  0.2136 -0.3357 -0.3180
 2787SOL    HW119994   3.344   2.348  17.116  0.5154 -0.6865  0.6899
 2787SOL    HW219995   3.232   2.264  17.071  0.1466  0.4600  0.2521
 2788SOL     OW19996   0.687   1.204   8.403  0.3880  0.1947 -0.0879
 2788SOL    HW119997   0.751   1.148   8.446  0.1704  0.0983  0.1094
 2788SOL    HW219998   0.688   1.150   8.324  2.0799  0.0651  0.0434
 2789SOL     OW19999   2.440   4.657   5.996  0.0833 -0.1517  0.1551
 2789SOL    HW120000   2.393   4.727   6.041  1.2143  0.5110  0.3103
 2789SOL    HW220001   2.526   4.687   6.027  0.0165 -0.8009  0.9708
 2790SOL     OW20002   1.607   0.119   5.623  0.0408 -0.0762 -0.4810
 2790SOL    HW120003   1.518   0.101   5.652  1.0726 -0.3541  2.5833
 2790SOL    HW220004   1.661   0.066   5.683 -0.5266 -0.9159 -0.7078
 2791SOL     OW20005   1.833   3.977   9.294 -0.4681  0.6131  0.4162
 2791SOL    HW120006   1.921   3.944   9.276 -0.7079 -0.3702  1.0413
 2791SOL    HW220007   1.789   3.907   9.342 -0.9819  0.6478  0.0029
 2792SOL     OW20008   0.647   0.708   5.478 -0.0218 -0.0790  0.2903
 2792SOL    HW120009   0.709   0.676   5.412 -0.8374 -0.6527 -0.1805
 2792SOL    HW220010   0.708   0.752   5.537  0.7599  0.7733 -1.1427
 2793SOL     OW20011   4.324   1.743   7.933 -0.7262  0.3040 -0.1748
 2793SOL    HW120012   4.261   1.674   7.953  0.6452 -0.5021  1.4129
 2793SOL    HW220013   4.405   1.698   7.909 -1.0871  0.1111 -1.0142
 2794SOL     OW20014   0.275   2.612   4.854  0.5865 -0.1058 -0.1839
 2794SOL    HW120015   0.231   2.535   4.819 -1.1933  1.2990 -1.0407
 2794SOL    HW220016   0.266   2.673   4.781  0.2638 -0.2937 -0.2994
 2795SOL     OW20017   3.324   3.618   8.390  0.2768  0.6661  0.1648
 2795SOL    HW120018   3.254   3.670   8.430 -1.1682 -0.6263 -0.7181
 2795SOL    HW220019   3.334   3.550   8.456  0.8523 -0.0060 -0.6260
 2796SOL     OW20020   1.752   1.571  16.873 -0.0258 -0.8241 -0.1482
 2796SOL    HW120021   1.830   1.616  16.840  0.2648 -0.5056  0.9656
 2796SOL    HW220022   1.680   1.631  16.852 -1.7544 -1.7233  3.2084
 2797SOL     OW20023   0.386   1.860  15.722 -0.6101 -0.2505 -0.3437
 2797SOL    HW120024   0.374   1.849  15.817  2.0927  0.8742  0.1300
 2797SOL    HW220025   0.445   1.935  15.723 -0.4737 -0.3425 -2.7555
 2798SOL     OW20026   1.785   1.178   9.654 -0.1400 -0.1439  0.1606
 2798SOL    HW120027   1.800   1.122   9.579 -1.5416 -0.5172  0.1507
 2798SOL    HW220028   1.837   1.142   9.725  1.0071  0.6388 -0.2914
 2799SOL     OW20029   3.397   1.866   6.121 -0.1792  0.1094  0.3187
 2799SOL    HW120030   3.397   1.918   6.201  0.4831 -1.5109  1.3790
 2799SOL    HW220031   3.324   1.805   6.130  1.5970 -2.2768 -1.3518
 2800SOL     OW20032   0.443   2.858  16.776  0.2679  0.0251 -0.8894
 2800SOL    HW120033   0.477   2.770  16.759  1.4757  0.1702  0.7906
 2800SOL    HW220034   0.456   2.897  16.690  2.5459  0.7090 -0.2189
 2801SOL     OW20035   1.607   1.609   6.354 -0.0081 -0.0113  0.5769
 2801SOL    HW120036   1.515   1.635   6.349 -0.2750 -0.6553  1.9268
 2801SOL    HW220037   1.642   1.651   6.275  0.7679 -1.3085  0.2377
 2802SOL     OW20038   2.699   0.988   8.896 -0.0418  0.1005 -0.6032
 2802SOL    HW120039   2.718   0.897   8.917  1.5458  0.9471  1.6512
 2802SOL    HW220040   2.777   1.031   8.863  0.3750  1.5521  2.1898
 2803SOL     OW20041   0.236   0.521   2.775  0.2470 -0.5157  0.0674
 2803SOL    HW120042   0.271   0.458   2.712 -1.4148 -0.0184 -1.3544
 2803SOL    HW220043   0.312   0.549   2.826 -0.2794  0.4400  0.3345
 2804SOL     OW20044   4.222   2.613   9.069  0.2363 -0.1115  0.1448
 2804SOL    HW120045   4.167   2.685   9.037 -1.9598 -2.4195 -1.3033
 2804SOL    HW220046   4.237   2.632   9.162 -0.0718 -0.7518  0.3250
 2805SOL     OW20047   4.329   4.145   6.769  0.1943 -0.0929 -0.0707
 2805SOL    HW120048   4.406   4.098   6.802 -0.3060 -0.4003  0.6480
 2805SOL    HW220049   4.360   4.158   6.679 -0.5193 -1.6889 -0.5529
 2806SOL     OW20050   4.322   1.043   3.730 -0.0530  0.2557 -0.1407
 2806SOL    HW120051   4.385   1.099   3.775 -0.8167  1.5856 -0.7289
 2806SOL    HW220052   4.259   1.030   3.801  2.0811 -1.6519  1.4352
 2807SOL     OW20053   3.014   1.050  13.220 -0.3272 -0.3293 -0.4863
 2807SOL    HW120054   2.932   1.048  13.172 -1.3094  5.1838  0.9822
 2807SOL    HW220055   3.078   1.052  13.149 -0.4534  2.7118 -0.4830
 2808SOL     OW20056   1.576   2.329   2.853 -0.1193  0.0504 -0.1377
 2808SOL    HW120057   1.594   2.407   2.801  1.0782  0.4788  0.9173
 2808SOL    HW220058   1.658   2.282   2.862 -0.7637 -0.9915  0.3162
 2809SOL     OW20059   3.611   3.753   8.554  0.6655 -0.2701 -0.0372
 2809SOL    HW120060   3.681   3.703   8.597  0.2420  0.7778  1.8559
 2809SOL    HW220061   3.534   3.697   8.563  1.6037 -1.6635 -0.5783
 2810SOL     OW20062   1.065   0.219   2.745 -0.2006  0.0445 -0.2506
 2810SOL    HW120063   0.988   0.162   2.742  0.0653 -0.3252 -0.0763
 2810SOL    HW220064   1.053   0.252   2.656 -1.9097  1.4535  0.4844
 2811SOL     OW20065   4.007   3.143   2.025  0.0700  0.3583  0.5689
 2811SOL    HW120066   3.998   3.118   1.933 -0.3969 -0.7299  0.9145
 2811SOL    HW220067   3.944   3.215   2.030 -0.7151 -0.4424  2.1027
 2812SOL     OW20068   4.656   0.616   4.253  0.0897  0.0059 -0.2771
 2812SOL    HW120069   4.687   0.528   4.227  1.8335  0.4903  0.1392
 2812SOL    HW220070   4.637   0.652   4.166 -1.6138  0.5067  0.3145
 2813SOL     OW20071   2.310   2.672   2.466 -0.3654  0.0984  0.0859
 2813SOL    HW120072   2.248   2.728   2.512  2.7822  1.8164  2.2281
 2813SOL    HW220073   2.393   2.703   2.501 -0.6731 -0.0063  0.9136
 2814SOL     OW20074   1.003   2.730   3.066  0.1550  0.3084 -0.0518
 2814SOL    HW120075   0.951   2.809   3.049  0.3320  0.2292 -0.9735
 2814SOL    HW220076   1.094   2.754   3.053  0.0612  0.7971  0.1906
 2815SOL     OW20077   4.671   1.655   2.136  0.3169  0.6075  0.1601
 2815SOL    HW120078   4.677   1.719   2.066  3.2998 -0.7365 -0.8424
 2815SOL    HW220079   4.599   1.598   2.111  0.6629  0.9116 -1.4948
 2816SOL     OW20080   2.470   2.785   8.629 -0.2418  0.2043 -1.0454
 2816SOL    HW120081   2.412   2.786   8.552 -2.2231 -0.0778  0.4493
 2816SOL    HW220082   2.482   2.880   8.638  0.0157  0.2583 -1.9143
 2817SOL     OW20083   4.558   3.849  15.005  0.3300  0.0452 -0.2835
 2817SOL    HW120084   4.510   3.923  15.043 -0.5453 -1.0978  0.8398
 2817SOL    HW220085   4.557   3.788  15.079  1.3731 -0.3833 -0.6237
 2818SOL     OW20086   0.826   4.495   2.182 -0.3713 -0.2334 -0.1602
 2818SOL    HW120087   0.790   4.456   2.103  0.4251  0.1514 -0.7099
 2818SOL    HW220088   0.908   4.532   2.150  0.2842 -2.7088 -1.3182
 2819SOL     OW20089   0.326   2.938   2.555 -0.0157  0.2553 -0.2520
 2819SOL    HW120090   0.319   2.843   2.568 -1.3732  0.5672  1.2397
 2819SOL    HW220091   0.292   2.955   2.467 -2.0514 -1.8687  0.0906
 2820SOL     OW20092   3.926   3.130  17.337 -0.0543 -0.0351 -0.1190
 2820SOL    HW120093   3.936   3.089  17.251  0.7074 -0.9402  0.4137
 2820SOL    HW220094   3.936   3.223  17.315 -0.1575  0.3530  1.4829
 2821SOL     OW20095   0.833   1.692   1.628 -0.0208  0.2756  0.5309
 2821SOL    HW120096   0.908   1.656   1.581 -0.0319 -0.6762  1.2513
 2821SOL    HW220097   0.784   1.614   1.651  1.0555 -0.6559 -0.3528
 2822SOL     OW20098   1.454   3.343   3.384 -0.0423  0.2320 -0.5523
 2822SOL    HW120099   1.492   3.277   3.326  0.0051 -0.5388  0.3510
 2822SOL    HW220100   1.432   3.411   3.320 -0.1628  1.6775  1.0430
 2823SOL     OW20101   4.383   3.444  13.290  0.0321 -0.4218  0.5016
 2823SOL    HW120102   4.351   3.486  13.370 -0.2970  0.9576 -0.3717
 2823SOL    HW220103   4.471   3.483  13.287 -0.7153  1.0607 -1.7454
 2824SOL     OW20104   2.181   1.634   5.598 -0.6135  0.1856  0.4944
 2824SOL    HW120105   2.195   1.718   5.641 -0.1939 -0.0792  0.8709
 2824SOL    HW220106   2.232   1.650   5.518  0.4375 -0.2862  1.0569
 2825SOL     OW20107   3.893   3.694  16.159  0.2740 -0.5149  0.7478
 2825SOL    HW120108   3.872   3.600  16.162  1.8994 -0.9615 -1.8866
 2825SOL    HW220109   3.822   3.725  16.104  1.3016 -2.0826 -1.4548
 2826SOL     OW20110   3.161   2.866   4.567  0.4836  0.9289 -0.1163
 2826SOL    HW120111   3.135   2.816   4.490  2.3224 -0.8305  0.4302
 2826SOL    HW220112   3.089   2.930   4.563  0.1248  0.4620 -1.0805
 2827SOL     OW20113   3.675   3.493  11.347 -0.3062  0.2052 -0.1199
 2827SOL    HW120114   3.639   3.408  11.322 -1.9851  0.9413 -0.1512
 2827SOL    HW220115   3.745   3.475  11.410 -0.0919  0.2896 -0.3355
 2828SOL     OW20116   2.488   0.092   4.521  0.5840  0.0151 -0.4365
 2828SOL    HW120117   2.516   0.044   4.599 -1.9400  0.1412  0.5684
 2828SOL    HW220118   2.546   0.167   4.517  0.8164 -0.1397  0.0884
 2829SOL     OW20119   4.456   1.350   5.380  0.5053  0.4242 -0.0433
 2829SOL    HW120120   4.526   1.318   5.324 -2.0184  0.1124 -3.0466
 2829SOL    HW220121   4.510   1.413   5.429 -1.3326  1.4763  0.6573
 2830SOL     OW20122   4.244   2.107  15.153 -0.1398  0.0214 -0.3776
 2830SOL    HW120123   4.263   2.086  15.062 -4.8380 -1.7492 -0.9260
 2830SOL    HW220124   4.258   2.024  15.198  0.9045 -0.1758 -1.0794
 2831SOL     OW20125   1.403   4.181   8.422  0.1728  0.0605  0.1149
 2831SOL    HW120126   1.440   4.132   8.495  2.2871 -0.7538 -1.5063
 2831SOL    HW220127   1.395   4.113   8.355  3.7913 -0.0164 -0.2265
 2832SOL     OW20128   4.423   2.450  14.741  0.8146  0.1801 -0.5252
 2832SOL    HW120129   4.392   2.439  14.651 -0.7910 -3.9115  0.5553
 2832SOL    HW220130   4.340   2.476  14.782  1.6976  0.7399  0.9013
 2833SOL     OW20131   1.512   4.416   3.626  0.7755 -0.7335  0.1907
 2833SOL    HW120132   1.545   4.428   3.715  0.5621 -2.5874  0.5303
 2833SOL    HW220133   1.523   4.321   3.620  1.5017 -0.6498  0.1819
 2834SOL     OW20134   0.525   2.633  16.692  0.6034  0.3614 -0.5531
 2834SOL    HW120135   0.506   2.540  16.680 -0.2176  0.7434 -2.2564
 2834SOL    HW220136   0.616   2.623  16.721  0.7718  0.2943 -1.1057
 2835SOL     OW20137   0.966   2.581   9.180  0.4884 -0.2988 -0.8948
 2835SOL    HW120138   0.873   2.602   9.188  1.2104  2.7288 -0.5208
 2835SOL    HW220139   0.965   2.492   9.215  1.0832  0.2526  0.5217
 2836SOL     OW20140   4.253   4.716   1.212  0.3429  0.1832  0.3795
 2836SOL    HW120141   4.325   4.662   1.245 -0.8307 -2.1361 -0.9063
 2836SOL    HW220142   4.184   4.700   1.276 -0.8073 -1.5812 -1.3067
 2837SOL     OW20143   2.848   1.206   0.655  0.4377  0.1232 -0.1701
 2837SOL    HW120144   2.778   1.142   0.646  2.3341 -1.9030 -0.2680
 2837SOL    HW220145   2.849   1.229   0.561 -0.1364 -1.5481 -0.5774
 2838SOL     OW20146   3.373   4.607   5.683  0.2001  0.5055 -0.7056
 2838SOL    HW120147   3.415   4.582   5.601  0.6470 -1.2645  0.0819
 2838SOL    HW220148   3.363   4.527   5.734 -0.6790  2.2260  1.8559
 2839SOL     OW20149   4.185   1.835   8.460  0.1239  0.0054  0.1035
 2839SOL    HW120150   4.174   1.856   8.367 -0.7305 -0.2137  0.1526
 2839SOL    HW220151   4.108   1.861   8.510 -0.0355 -2.4217  1.1250
 2840SOL     OW20152   1.104   2.109  10.755 -0.4172  0.6738 -0.8360
 2840SOL    HW120153   1.092   2.183  10.814  0.9626  0.2273 -0.0095
 2840SOL    HW220154   1.075   2.042  10.817  0.6659 -0.8074 -1.9189
 2841SOL     OW20155   3.787   4.348   4.818 -0.6793 -0.1764 -0.7342
 2841SOL    HW120156   3.862   4.290   4.805 -0.4468 -0.4962  2.1718
 2841SOL    HW220157   3.758   4.358   4.727  0.4058  1.0591 -0.9479
 2842SOL     OW20158   1.717   0.847   9.594  0.5382 -0.3675 -0.2286
 2842SOL    HW120159   1.640   0.891   9.558  1.0669  0.9235  0.2149
 2842SOL    HW220160   1.783   0.896   9.545  3.1697 -1.1265  2.5340
 2843SOL     OW20161   2.709   2.361   7.317  0.3113 -0.5155 -0.4482
 2843SOL    HW120162   2.720   2.412   7.237  1.0801  2.2615  1.4160
 2843SOL    HW220163   2.768   2.401   7.382  0.9423  1.5240 -2.2879
 2844SOL     OW20164   2.829   0.576   8.402 -0.3021 -0.1820 -0.1881
 2844SOL    HW120165   2.827   0.584   8.307  0.7689  0.6845 -0.1457
 2844SOL    HW220166   2.777   0.655   8.420  1.4926  0.7227  1.0852
 2845SOL     OW20167   2.949   3.968   9.394 -0.0219  0.2841 -0.4445
 2845SOL    HW120168   2.909   3.980   9.481  0.0270 -1.3210 -0.2080
 2845SOL    HW220169   3.012   4.038   9.410  0.1787 -0.0441  0.1939
 2846SOL     OW20170   3.391   2.485   8.277 -0.4121  0.1218 -0.0304
 2846SOL    HW120171   3.336   2.501   8.201 -1.3353  1.2597  0.8591
 2846SOL    HW220172   3.437   2.568   8.286  0.6075 -0.7534  3.2466
 2847SOL     OW20173   3.738   4.573   1.349  0.1463  0.5399  0.0720
 2847SOL    HW120174   3.671   4.560   1.281  0.6118 -0.5728 -0.1636
 2847SOL    HW220175   3.788   4.641   1.305  0.9072 -0.1325 -0.1013
 2848SOL     OW20176   0.049   2.646   5.083 -0.7854 -0.0210 -0.5592
 2848SOL    HW120177   0.026   2.554   5.089 -1.6669  0.2415  0.1590
 2848SOL    HW220178   0.125   2.646   5.025 -0.0449  1.0328  0.4093
 2849SOL     OW20179   2.216   2.765   7.143  0.0567  0.5462  0.3846
 2849SOL    HW120180   2.193   2.682   7.102  0.7166  0.7525 -0.4041
 2849SOL    HW220181   2.169   2.769   7.226 -0.5307 -1.3156  0.1308
 2850SOL     OW20182   0.707   2.910   3.889 -0.0194  0.5530  0.6540
 2850SOL    HW120183   0.771   2.961   3.839 -1.2226  1.2294 -0.1831
 2850SOL    HW220184   0.701   2.967   3.966 -0.3649  1.5626 -0.1284
 2851SOL     OW20185   2.972   0.829  13.364 -0.6563 -0.1296 -0.5484
 2851SOL    HW120186   2.906   0.861  13.426  0.4235  1.8861 -0.4597
 2851SOL    HW220187   3.001   0.902  13.310 -0.4312  1.0078  1.0957
 2852SOL     OW20188   4.549   4.048   6.907  0.2210  0.3590 -0.3519
 2852SOL    HW120189   4.575   4.135   6.937  1.7307  0.6273 -2.4239
 2852SOL    HW220190   4.622   4.015   6.854 -1.4190  0.3938 -2.6348
 2853SOL     OW20191   3.807   3.665   7.071 -0.3114  0.3550  0.3574
 2853SOL    HW120192   3.806   3.587   7.127 -1.1599 -0.6612 -1.0840
 2853SOL    HW220193   3.716   3.692   7.084 -0.8012 -0.9423 -0.4276
 2854SOL     OW20194   1.077   4.177   2.406  0.4619  0.0907  0.4495
 2854SOL    HW120195   1.020   4.148   2.477  1.7895  0.7306  1.7779
 2854SOL    HW220196   1.004   4.195   2.347 -0.2368 -1.1640  0.9411
 2855SOL     OW20197   3.749   3.052   0.220  0.0978 -0.1119 -0.0897
 2855SOL    HW120198   3.831   3.018   0.256  0.3481 -0.0227 -0.5749
 2855SOL    HW220199   3.733   3.135   0.265  1.1689 -0.8567  1.6612
 2856SOL     OW20200   4.227   2.109   3.529  0.1250 -0.2837 -0.3093
 2856SOL    HW120201   4.279   2.077   3.603 -1.8338 -0.4670  0.9822
 2856SOL    HW220202   4.274   2.061   3.461 -0.0423 -0.8140 -0.0590
 2857SOL     OW20203   0.947   0.375   9.814 -0.0167 -0.0742 -0.5590
 2857SOL    HW120204   0.944   0.466   9.787 -4.0272 -0.4480 -1.3522
 2857SOL    HW220205   1.042   0.363   9.810 -0.2667 -1.6647 -1.8740
 2858SOL     OW20206   0.892   0.318   4.263  0.1595 -0.6489 -0.3327
 2858SOL    HW120207   0.852   0.233   4.247 -0.7990  0.2309 -2.5708
 2858SOL    HW220208   0.941   0.318   4.181 -0.0605  1.9382 -0.4754
 2859SOL     OW20209   0.980   3.210   2.659 -0.0122 -0.1951  0.5500
 2859SOL    HW120210   0.928   3.275   2.610  0.8281  1.1381  1.4132
 2859SOL    HW220211   0.933   3.209   2.743 -1.9406  0.0990 -0.5171
 2860SOL     OW20212   3.290   2.829   4.187 -0.5193  0.0219  0.6849
 2860SOL    HW120213   3.226   2.895   4.162 -0.5075 -0.8225 -1.6344
 2860SOL    HW220214   3.348   2.876   4.246  0.2288  1.4109 -1.1274
 2861SOL     OW20215   2.702   1.963  10.058 -0.4907  0.2844  0.1249
 2861SOL    HW120216   2.705   1.867  10.059  0.2889  0.3123  1.1224
 2861SOL    HW220217   2.656   1.989  10.138 -0.0704  1.1277  0.0836
 2862SOL     OW20218   3.929   2.892   2.772 -0.1991  0.4402  0.0089
 2862SOL    HW120219   3.883   2.851   2.699 -0.6725 -1.0000  1.1182
 2862SOL    HW220220   3.857   2.935   2.817 -0.1671 -0.6168  1.0598
 2863SOL     OW20221   2.751   2.706   7.292 -0.3633  0.1506 -0.2033
 2863SOL    HW120222   2.733   2.654   7.213 -1.0651  2.2723 -1.4302
 2863SOL    HW220223   2.691   2.665   7.355  1.6144  1.3348  2.4548
 2864SOL     OW20224   1.250   0.003  15.347  0.5586 -0.2883  0.0848
 2864SOL    HW120225   1.166   4.716  15.382  0.7797 -1.1270 -0.0421
 2864SOL    HW220226   1.279   4.660  15.311 -1.4701 -0.5331 -0.9575
 2865SOL     OW20227   2.829   3.038   7.401  0.0648  0.1958  0.2551
 2865SOL    HW120228   2.782   2.959   7.372  0.1874  1.1880 -2.6130
 2865SOL    HW220229   2.915   2.997   7.398 -1.7413 -3.6291 -0.3630
 2866SOL     OW20230   0.314   2.649   2.537  0.0068 -0.5592  0.2889
 2866SOL    HW120231   0.244   2.609   2.590 -0.9955  0.4287 -0.3117
 2866SOL    HW220232   0.378   2.581   2.518  2.3212  1.8810 -0.4651
 2867SOL     OW20233   4.532   4.133   6.111  0.0992 -0.1245  0.2689
 2867SOL    HW120234   4.469   4.172   6.171 -0.7294 -2.8104  1.1423
 2867SOL    HW220235   4.588   4.085   6.171 -1.2443  1.2523  2.6098
 2868SOL     OW20236   2.477   2.762   5.390  0.2403  0.8072 -0.4042
 2868SOL    HW120237   2.411   2.698   5.364  0.6649  0.1936  0.0311
 2868SOL    HW220238   2.529   2.725   5.462 -0.1190  0.2343 -0.4387
 2869SOL     OW20239   2.388   2.096   0.443  0.7564  0.5697  0.5880
 2869SOL    HW120240   2.473   2.082   0.486  0.8491  3.8920  1.4754
 2869SOL    HW220241   2.346   2.155   0.505 -0.3569  3.2820 -2.7573
 2870SOL     OW20242   1.779   0.273   9.528  0.3688 -0.2625 -0.0217
 2870SOL    HW120243   1.741   0.291   9.613  0.1222 -0.0525 -0.1762
 2870SOL    HW220244   1.771   0.179   9.509  0.2208 -0.4704  1.0859
 2871SOL     OW20245   0.659   1.072   2.688 -0.3058  0.3137 -0.2443
 2871SOL    HW120246   0.714   1.088   2.612 -1.4911 -1.8642 -1.5401
 2871SOL    HW220247   0.636   0.980   2.676 -1.0441  0.5697 -0.7487
 2872SOL     OW20248   3.360   4.053   9.143  0.2695  0.0474  0.1826
 2872SOL    HW120249   3.432   4.092   9.093 -1.0776  0.5004 -1.3610
 2872SOL    HW220250   3.291   4.056   9.077  1.4249  1.7354 -0.9387
 2873SOL     OW20251   4.064   4.410  16.068  0.5664 -0.3633 -0.1493
 2873SOL    HW120252   4.030   4.414  15.979 -0.4812 -0.0559  0.2576
 2873SOL    HW220253   4.158   4.402  16.052  0.6264  1.1075 -0.5672
 2874SOL     OW20254   0.986   2.901  13.137 -0.0488  0.1686 -0.0738
 2874SOL    HW120255   0.900   2.936  13.160 -0.1048 -0.0779  0.0940
 2874SOL    HW220256   0.993   2.827  13.198 -1.9155 -0.8522 -1.1303
 2875SOL     OW20257   0.358   2.153   5.255 -0.0014  0.2099  0.3883
 2875SOL    HW120258   0.326   2.153   5.346 -2.3543  0.0764 -0.4337
 2875SOL    HW220259   0.313   2.073   5.228  1.9338 -1.1197  1.1140
 2876SOL     OW20260   1.992   1.524   8.494 -0.2317 -0.0842 -0.0453
 2876SOL    HW120261   2.071   1.534   8.546 -1.1579 -2.9518  1.9043
 2876SOL    HW220262   1.922   1.546   8.555 -1.0862 -2.7390 -0.0809
 2877SOL     OW20263   4.586   3.487   5.511 -0.2083  0.3644  0.9184
 2877SOL    HW120264   4.547   3.414   5.559  0.8807 -0.5864  0.3341
 2877SOL    HW220265   4.597   3.453   5.422  0.5969 -1.1898  1.6112
 2878SOL     OW20266   1.381   2.887   8.502 -0.1277 -0.1151 -0.1197
 2878SOL    HW120267   1.294   2.928   8.499 -0.5333 -1.1399 -2.3915
 2878SOL    HW220268   1.433   2.928   8.571  0.3700  0.8050 -1.0450
 2879SOL     OW20269   2.151   3.669   1.711 -0.2036 -0.5448  0.4953
 2879SOL    HW120270   2.176   3.716   1.791  2.8169 -0.8747 -0.2479
 2879SOL    HW220271   2.059   3.687   1.693  0.4432  2.5131  0.1686
 2880SOL     OW20272   1.270   1.036   9.603 -0.1036 -0.1654  0.3707
 2880SOL    HW120273   1.196   1.089   9.575 -0.0291 -1.0784 -1.5458
 2880SOL    HW220274   1.316   1.092   9.665 -1.3757  0.5761  0.6419
 2881SOL     OW20275   0.069   3.222  14.907 -0.1372  0.1065 -0.1943
 2881SOL    HW120276   0.048   3.315  14.919  1.0613  0.6484 -2.2850
 2881SOL    HW220277   0.064   3.218  14.811  0.1546  0.2482 -0.2171
 2882SOL     OW20278   3.047   1.828   3.481  0.0262  0.0386  0.1001
 2882SOL    HW120279   3.126   1.782   3.511  1.1426  3.1328  1.8544
 2882SOL    HW220280   3.024   1.775   3.405 -1.0569  2.1747 -1.0515
 2883SOL     OW20281   0.604   3.990  10.552  0.4194  0.3237 -0.3396
 2883SOL    HW120282   0.537   4.035  10.604 -0.2552 -1.6302  0.4880
 2883SOL    HW220283   0.539   3.933  10.510  1.6487 -2.1685  1.1200
 2884SOL     OW20284   3.078   0.773  14.141  0.3240  0.0373 -0.1059
 2884SOL    HW120285   3.011   0.833  14.109  2.0200  2.7153  1.4167
 2884SOL    HW220286   3.082   0.807  14.230  0.9850 -0.5211  0.0726
 2885SOL     OW20287   4.633   1.984  17.553 -0.0610  0.8975  0.4406
 2885SOL    HW120288   4.604   2.073  17.571 -2.1645  0.4834 -0.8909
 2885SOL    HW220289   4.719   2.009  17.518 -1.0504  2.6624 -0.6706
 2886SOL     OW20290   3.744   3.227   4.530 -0.6050 -1.5368  1.1141
 2886SOL    HW120291   3.823   3.203   4.578  0.0689 -1.2833  0.1475
 2886SOL    HW220292   3.773   3.214   4.439  0.7430  0.1416  1.2946
 2887SOL     OW20293   3.911   4.712  16.936 -0.0520 -0.3020 -0.0015
 2887SOL    HW120294   3.983   4.657  16.966 -0.0821  0.3116  1.2015
 2887SOL    HW220295   3.924   0.048  16.992  1.0175  0.2372 -0.9981
 2888SOL     OW20296   3.332   1.055   1.294  0.5475 -0.0779  0.1845
 2888SOL    HW120297   3.419   1.069   1.331  0.0872 -1.5597  1.7983
 2888SOL    HW220298   3.270   1.087   1.360 -2.2532  1.3459 -3.1087
 2889SOL     OW20299   2.782   1.784  12.031 -0.6590  0.4585  0.5267
 2889SOL    HW120300   2.872   1.789  12.061 -0.4629 -0.7868  0.1197
 2889SOL    HW220301   2.732   1.792  12.113 -0.6651 -0.5347  0.6240
 2890SOL     OW20302   3.713   4.410   0.671 -0.2154 -0.3607 -0.0334
 2890SOL    HW120303   3.794   4.414   0.619 -0.7104  0.6339 -0.7111
 2890SOL    HW220304   3.654   4.464   0.620  0.4395  0.3223 -0.0713
 2891SOL     OW20305   3.783   1.827  13.090 -0.6570  0.0534 -0.2331
 2891SOL    HW120306   3.877   1.841  13.089 -0.7681  0.6879 -1.3509
 2891SOL    HW220307   3.784   1.740  13.049  0.4113 -0.2851  0.5152
 2892SOL     OW20308   1.829   3.487   6.835  0.1198  0.0962 -0.6321
 2892SOL    HW120309   1.755   3.452   6.785  0.3593 -3.6568  1.6040
 2892SOL    HW220310   1.908   3.460   6.789  0.5293  2.0344 -1.0662
 2893SOL     OW20311   0.365   4.247   7.558 -0.0041  0.1501  0.1943
 2893SOL    HW120312   0.419   4.274   7.632  0.6663  3.1879 -1.4127
 2893SOL    HW220313   0.309   4.181   7.600  0.3754 -0.7409 -0.7069
 2894SOL     OW20314   3.472   0.203   3.542  0.4119 -0.2056  0.3863
 2894SOL    HW120315   3.563   0.178   3.556  0.1955 -0.6655  0.9691
 2894SOL    HW220316   3.431   0.207   3.629  0.0933  3.3964  0.0471
 2895SOL     OW20317   0.311   4.705  13.870 -0.5073 -0.6340  0.0336
 2895SOL    HW120318   0.237   4.694  13.811 -1.2007  2.1841  0.3712
 2895SOL    HW220319   0.297   0.056  13.892  1.2827 -0.1421 -0.8675
 2896SOL     OW20320   2.727   1.753   6.593 -0.3382 -0.4715 -0.1184
 2896SOL    HW120321   2.631   1.749   6.595 -0.3150 -1.2704 -0.5395
 2896SOL    HW220322   2.750   1.685   6.657  1.2734 -0.1741 -0.3757
 2897SOL     OW20323   2.990   1.548   7.136  0.0136  0.4132  0.0689
 2897SOL    HW120324   3.050   1.617   7.106  0.8718 -0.1132  0.5699
 2897SOL    HW220325   3.024   1.546   7.226 -0.1465 -2.3103  0.0761
 2898SOL     OW20326   2.704   1.695   2.695  0.3524 -0.8725 -0.2563
 2898SOL    HW120327   2.789   1.712   2.654 -0.7917  4.5361 -0.3970
 2898SOL    HW220328   2.725   1.707   2.787  0.4311 -2.1723 -0.1013
 2899SOL     OW20329   2.181   1.049   8.934 -0.0083  0.4307  0.0801
 2899SOL    HW120330   2.249   1.047   8.866  1.1658 -1.3375  1.2918
 2899SOL    HW220331   2.140   0.963   8.927  0.4518  0.2615 -0.5794
 2900SOL     OW20332   0.991   4.115   7.971 -0.1573  0.7206  0.4823
 2900SOL    HW120333   0.933   4.052   8.013 -0.0822  1.1503  1.2357
 2900SOL    HW220334   1.007   4.174   8.045  1.6994  0.4589  0.3086
 2901SOL     OW20335   1.191   0.955   3.187  0.7779 -0.1190 -0.1126
 2901SOL    HW120336   1.186   0.931   3.094 -0.8681 -0.8040  0.1562
 2901SOL    HW220337   1.211   1.048   3.175 -1.5276  0.2974 -0.8772
 2902SOL     OW20338   0.554   2.509   9.420 -0.5616 -0.8203 -0.4508
 2902SOL    HW120339   0.597   2.443   9.473 -0.2360 -1.5427 -1.6132
 2902SOL    HW220340   0.469   2.474   9.396  0.0177 -1.7947 -1.0754
 2903SOL     OW20341   3.049   3.433   2.156 -0.6927 -0.0370  0.4110
 2903SOL    HW120342   2.988   3.383   2.210 -1.4667 -0.6428 -1.0337
 2903SOL    HW220343   2.993   3.509   2.139 -0.2047  0.2662  0.1394
 2904SOL     OW20344   0.241   0.679   3.641  0.8398 -0.2025  0.3127
 2904SOL    HW120345   0.233   0.722   3.726 -2.0535  2.0386 -1.0726
 2904SOL    HW220346   0.167   0.716   3.594 -0.7198 -0.7808  2.2914
 2905SOL     OW20347   0.996   0.340   8.296 -0.4113 -0.1635 -0.2619
 2905SOL    HW120348   0.931   0.371   8.233  1.9073  2.7987 -1.2265
 2905SOL    HW220349   0.945   0.334   8.376 -1.6709 -2.8892 -1.2820
 2906SOL     OW20350   0.863   3.989   8.184 -0.2959 -0.4420  0.3944
 2906SOL    HW120351   0.771   4.006   8.163 -0.0893  1.1983  0.7629
 2906SOL    HW220352   0.863   3.935   8.263  2.1143  3.3732  3.0267
 2907SOL     OW20353   1.289   2.572  11.119  0.1824  0.8317 -0.1241
 2907SOL    HW120354   1.372   2.612  11.145 -0.1726 -0.4693  2.9628
 2907SOL    HW220355   1.289   2.486  11.161  2.0752  0.8022 -0.1817
 2908SOL     OW20356   0.498   0.523   7.295  0.1690  0.7136  0.0843
 2908SOL    HW120357   0.469   0.510   7.204  1.7140  1.0279 -0.4598
 2908SOL    HW220358   0.510   0.431   7.318 -0.6618  0.4322 -0.6134
 2909SOL     OW20359   0.090   3.020  10.728  0.0062  0.3123  0.3222
 2909SOL    HW120360   0.011   3.018  10.783  0.5224  1.9912  1.1072
 2909SOL    HW220361   0.060   3.052  10.643 -0.7886  0.4400  0.6483
 2910SOL     OW20362   3.747   4.611   2.582 -0.1854  0.0104  0.1659
 2910SOL    HW120363   3.681   4.612   2.651 -1.3448  4.2405 -1.0118
 2910SOL    HW220364   3.803   4.536   2.602 -1.2238 -0.8990 -0.3424
 2911SOL     OW20365   1.301   3.558  10.448  0.0862  0.4266 -0.2569
 2911SOL    HW120366   1.355   3.479  10.455 -0.8021  0.0129  2.0342
 2911SOL    HW220367   1.232   3.531  10.508  1.3838  1.8145  1.8782
 2912SOL     OW20368   3.397   4.003  17.169  0.4333  0.1678 -0.0552
 2912SOL    HW120369   3.375   3.995  17.077  0.7114 -2.8171  0.1442
 2912SOL    HW220370   3.452   4.081  17.172 -0.8640  1.1075 -0.7027
 2913SOL     OW20371   0.811   2.117  16.069 -0.0436 -0.1726  0.1279
 2913SOL    HW120372   0.734   2.168  16.097  0.8670 -0.1014  2.5451
 2913SOL    HW220373   0.790   2.116  15.976  0.1131  1.2543  0.0728
 2914SOL     OW20374   2.666   3.922  11.969  0.2923 -0.1496 -0.5088
 2914SOL    HW120375   2.693   3.838  11.931 -0.3399 -1.0853  1.0907
 2914SOL    HW220376   2.691   3.914  12.061  0.5945 -0.7513 -0.6389
 2915SOL     OW20377   4.318   0.922   2.109  0.1169  0.2555  0.2353
 2915SOL    HW120378   4.264   0.928   2.030 -0.3931 -0.6035  0.5132
 2915SOL    HW220379   4.284   0.836   2.134 -1.0354  0.5701 -0.2495
 2916SOL     OW20380   4.431   4.429   8.893 -0.7229  0.2106 -0.4135
 2916SOL    HW120381   4.337   4.413   8.889 -0.6660 -0.2052 -0.0624
 2916SOL    HW220382   4.461   4.355   8.946  0.9427  0.0984 -1.5041
 2917SOL     OW20383   3.980   1.771   2.671  0.4962  0.2684  0.0018
 2917SOL    HW120384   4.045   1.716   2.628 -1.9380 -0.9356 -2.1343
 2917SOL    HW220385   3.977   1.848   2.615 -0.0514  1.4772  1.6841
 2918SOL     OW20386   2.591   2.104   7.184 -0.5062  0.4324  0.2357
 2918SOL    HW120387   2.611   2.193   7.213  2.7019 -0.9634  2.2696
 2918SOL    HW220388   2.578   2.113   7.089  0.8617 -0.5739 -0.0512
 2919SOL     OW20389   4.083   2.693  14.129 -0.0786 -0.0007  0.2541
 2919SOL    HW120390   4.060   2.739  14.048 -2.1765 -1.7222 -0.1215
 2919SOL    HW220391   4.168   2.660  14.101  0.2271  0.1085  1.0561
 2920SOL     OW20392   3.899   1.142   4.519 -0.5545  0.0952  0.7420
 2920SOL    HW120393   3.818   1.166   4.563 -1.1595  2.8416 -1.8609
 2920SOL    HW220394   3.962   1.170   4.584  0.0649 -2.4460  1.2636
 2921SOL     OW20395   4.053   4.205   3.489 -0.8047  0.7048 -0.0106
 2921SOL    HW120396   4.092   4.227   3.573 -0.7607 -1.3569  0.4960
 2921SOL    HW220397   4.102   4.266   3.433  0.9765 -0.5146  0.2440
 2922SOL     OW20398   0.569   4.017   9.132 -0.0660 -0.1789  0.1664
 2922SOL    HW120399   0.615   3.997   9.214 -2.4863  1.4444  1.9267
 2922SOL    HW220400   0.491   3.963   9.145 -0.1353 -0.3938 -1.1581
 2923SOL     OW20401   3.238   0.226  10.722  0.3971 -0.2576 -0.8794
 2923SOL    HW120402   3.290   0.255  10.797 -1.9802 -1.6628  1.3093
 2923SOL    HW220403   3.282   0.269  10.649  0.2344  1.6457  0.1340
 2924SOL     OW20404   0.872   4.064   8.761  0.6464 -0.4221 -0.0915
 2924SOL    HW120405   0.791   4.049   8.809  0.3500 -0.6036 -0.6597
 2924SOL    HW220406   0.867   4.160   8.753 -1.0989 -0.6928 -1.8591
 2925SOL     OW20407   3.800   1.162   6.575 -0.2127  0.4051 -0.3628
 2925SOL    HW120408   3.838   1.170   6.487 -0.1331 -0.2597 -0.3834
 2925SOL    HW220409   3.746   1.083   6.566 -0.5974  0.5170  1.0190
 2926SOL     OW20410   3.956   1.558   7.071  0.3926  0.1874 -0.2402
 2926SOL    HW120411   3.944   1.463   7.076  1.5109  0.1143  1.0335
 2926SOL    HW220412   3.995   1.564   6.983 -0.6612 -0.1607 -0.7263
 2927SOL     OW20413   3.865   0.868   9.784 -0.9836  0.1983  0.1175
 2927SOL    HW120414   3.792   0.855   9.724 -1.1331 -1.1633  0.5893
 2927SOL    HW220415   3.935   0.818   9.743 -0.1174  1.6690 -0.1676
 2928SOL     OW20416   4.712   1.183   4.188 -0.4664  0.8342  0.3648
 2928SOL    HW120417   4.618   1.195   4.203 -0.8087  0.6564 -1.5568
 2928SOL    HW220418   4.713   1.247   4.117 -2.3733  0.5411  0.0485
 2929SOL     OW20419   3.817   3.872   6.620  0.0636 -0.5087 -0.0843
 2929SOL    HW120420   3.906   3.904   6.606  0.1680  0.3085  2.3106
 2929SOL    HW220421   3.823   3.876   6.716 -0.1692  1.9254 -0.1708
 2930SOL     OW20422   4.387   3.007  11.576  0.2720  0.1936 -0.2471
 2930SOL    HW120423   4.460   3.029  11.634 -0.1011  1.1579 -0.1477
 2930SOL    HW220424   4.323   3.058  11.625 -0.3852 -2.7170  1.9714
 2931SOL     OW20425   4.502   2.284   3.268 -0.2812  0.8446  0.9687
 2931SOL    HW120426   4.512   2.239   3.352  1.6726  2.0699  1.3835
 2931SOL    HW220427   4.407   2.294   3.264 -0.1200  1.9454 -0.2848
 2932SOL     OW20428   2.656   2.663  17.054 -0.0772 -0.9556 -0.6516
 2932SOL    HW120429   2.662   2.713  16.973 -1.3699  0.9567  0.4567
 2932SOL    HW220430   2.622   2.735  17.106  1.1940  0.5386 -1.8839
 2933SOL     OW20431   2.079   2.709   7.668  0.1012 -0.0180 -0.0973
 2933SOL    HW120432   2.015   2.670   7.728  0.5832 -0.1351  0.3355
 2933SOL    HW220433   2.036   2.790   7.638  0.0860  0.1205  0.2975
 2934SOL     OW20434   2.917   4.456   6.736 -0.7098 -0.0576  0.3282
 2934SOL    HW120435   2.822   4.467   6.728 -0.1836  3.1041 -1.5992
 2934SOL    HW220436   2.940   4.537   6.783 -0.1796  0.3858 -0.7082
 2935SOL     OW20437   3.348   0.075  16.900 -0.3916 -0.2940 -0.1585
 2935SOL    HW120438   3.387   4.729  16.909  0.3985 -0.1781 -2.4887
 2935SOL    HW220439   3.276   0.069  16.964 -2.4339  2.3164 -2.2348
 2936SOL     OW20440   1.737   1.079   2.407  0.2472  0.1458  0.5675
 2936SOL    HW120441   1.802   1.117   2.348  0.3514  0.3983  0.8412
 2936SOL    HW220442   1.776   1.101   2.492 -0.3655  0.0328  0.8787
 2937SOL     OW20443   0.505   0.460  11.622 -0.1444 -0.1364  0.1887
 2937SOL    HW120444   0.442   0.492  11.687  1.1468  0.8372  0.9693
 2937SOL    HW220445   0.575   0.518  11.650 -1.0245  1.4331 -0.8495
 2938SOL     OW20446   1.835   3.082   3.465 -0.0740 -0.6042  0.2107
 2938SOL    HW120447   1.776   3.083   3.390 -0.1430 -1.1316  0.2592
 2938SOL    HW220448   1.767   3.064   3.530 -0.1009 -0.5294  0.2035
 2939SOL     OW20449   2.350   3.431   4.869  0.4569 -0.2452  0.0818
 2939SOL    HW120450   2.334   3.366   4.801  1.0957 -0.0972 -0.2077
 2939SOL    HW220451   2.382   3.501   4.812 -1.2099  0.7101  0.3061
 2940SOL     OW20452   0.927   3.775  12.910 -0.6183 -0.4123 -0.3222
 2940SOL    HW120453   0.928   3.871  12.910 -2.4139 -0.4017 -0.1982
 2940SOL    HW220454   0.836   3.759  12.887 -0.9972 -0.4064  1.1565
 2941SOL     OW20455   2.479   1.256   7.663 -0.0411  0.1455 -0.0702
 2941SOL    HW120456   2.486   1.207   7.580  1.5507 -0.6122  0.4986
 2941SOL    HW220457   2.387   1.232   7.675  1.0013 -3.3152  1.0552
 2942SOL     OW20458   2.450   3.228   2.819 -0.5250 -0.3951 -0.2020
 2942SOL    HW120459   2.434   3.300   2.881  0.5793  0.6206 -1.1012
 2942SOL    HW220460   2.371   3.237   2.765  0.9078  0.7504 -2.1259
 2943SOL     OW20461   3.106   3.446   4.996 -0.0520 -0.6215  0.1849
 2943SOL    HW120462   3.061   3.516   5.042  1.8840  0.2345  0.7501
 2943SOL    HW220463   3.063   3.364   5.021 -1.0117  0.7974  3.1179
 2944SOL     OW20464   2.422   2.476  16.622  1.1406 -0.2792 -0.3223
 2944SOL    HW120465   2.471   2.400  16.654  0.0967 -0.4000  0.9770
 2944SOL    HW220466   2.498   2.523  16.588  2.1647 -0.5504  1.6282
 2945SOL     OW20467   4.543   0.628   6.510 -0.6091 -0.2529  0.2527
 2945SOL    HW120468   4.600   0.672   6.447  0.7172  0.6971  2.1056
 2945SOL    HW220469   4.604   0.591   6.573  0.5918  1.2152 -0.0547
 2946SOL     OW20470   1.357   1.734   4.879 -0.3901  0.0267 -0.5546
 2946SOL    HW120471   1.323   1.656   4.835  0.3272 -0.1328 -0.8231
 2946SOL    HW220472   1.451   1.715   4.881 -0.2955  0.5789  0.0831
 2947SOL     OW20473   0.125   1.313   4.853  0.1670  0.4912  0.1449
 2947SOL    HW120474   0.037   1.337   4.882 -0.2076 -1.1838  0.3546
 2947SOL    HW220475   0.183   1.364   4.909  0.2288 -1.7763  2.1138
 2948SOL     OW20476   1.934   0.328   6.644  0.0046  0.4054  0.1523
 2948SOL    HW120477   1.980   0.368   6.718  0.6213  0.5023 -0.2784
 2948SOL    HW220478   1.895   0.407   6.608  0.3373  0.8495  0.7683
 2949SOL     OW20479   1.929   0.282  13.325 -0.7854  0.1029  0.2941
 2949SOL    HW120480   1.940   0.368  13.364  1.3683  0.3745 -0.9255
 2949SOL    HW220481   1.942   0.303  13.233  0.5870  1.2345  0.7492
 2950SOL     OW20482   2.040   3.780   7.085  0.1104 -0.0195  0.0613
 2950SOL    HW120483   2.058   3.703   7.139 -0.3454 -1.0040 -1.1862
 2950SOL    HW220484   2.118   3.834   7.093  1.2990 -2.1256  2.7115
 2951SOL     OW20485   0.957   0.885   7.667  0.1692  0.2633  0.2526
 2951SOL    HW120486   0.985   0.939   7.593 -1.9456  0.8775 -0.0963
 2951SOL    HW220487   0.991   0.804   7.629  0.6365  0.7346 -0.3336
 2952SOL     OW20488   4.277   1.284   6.593  0.1645  0.0583  0.2047
 2952SOL    HW120489   4.366   1.299   6.624  0.6857  1.8190 -2.0915
 2952SOL    HW220490   4.246   1.374   6.601  1.9953  0.6741  0.4467
 2953SOL     OW20491   2.518   0.901  13.043 -0.1450  0.3305  0.3497
 2953SOL    HW120492   2.430   0.932  13.021 -0.1562 -0.1594 -0.2883
 2953SOL    HW220493   2.541   0.976  13.098  0.7090  1.7189 -1.8895
 2954SOL     OW20494   4.377   2.216   8.521 -0.1188 -0.6744 -0.2288
 2954SOL    HW120495   4.375   2.130   8.564  1.4475 -0.1710  0.8899
 2954SOL    HW220496   4.452   2.257   8.565 -1.1122 -1.0367  1.8365
 2955SOL     OW20497   1.977   1.855   4.398 -0.2899 -0.0303 -0.2287
 2955SOL    HW120498   2.055   1.908   4.418 -0.8389  0.6278  0.1849
 2955SOL    HW220499   1.944   1.898   4.319  2.2499  0.9930 -0.7593
 2956SOL     OW20500   0.260   3.796  10.255  0.2241 -0.1547 -0.7435
 2956SOL    HW120501   0.325   3.780  10.323  0.2115  0.5361 -0.5756
 2956SOL    HW220502   0.183   3.743  10.276 -0.6822  1.5088  0.0581
 2957SOL     OW20503   0.280   3.678  17.396  0.5943 -0.0509  0.5059
 2957SOL    HW120504   0.298   3.619  17.470 -0.3973 -1.6180 -0.5086
 2957SOL    HW220505   0.281   3.764  17.437  3.2458  0.0002  0.2950
 2958SOL     OW20506   4.165   4.653   7.362  0.0560  0.1126  0.5355
 2958SOL    HW120507   4.260   4.642   7.363 -0.0687 -0.9117  1.0649
 2958SOL    HW220508   4.142   4.561   7.378 -2.5898  0.5707 -0.7186
 2959SOL     OW20509   2.546   2.723   7.556 -0.1840 -0.0204 -0.3643
 2959SOL    HW120510   2.490   2.768   7.492 -2.5603 -1.5332  0.6504
 2959SOL    HW220511   2.486   2.722   7.631  3.4620 -0.4849  2.5140
 2960SOL     OW20512   1.488   0.186   9.606 -0.8405 -0.7250  0.0897
 2960SOL    HW120513   1.423   0.131   9.649  0.2796 -2.8556 -0.9130
 2960SOL    HW220514   1.532   0.232   9.677  0.2403  1.6356 -2.1045
 2961SOL     OW20515   0.978   2.550  11.245  0.0353  0.1288 -0.3854
 2961SOL    HW120516   1.037   2.594  11.185  1.0057  0.5822  0.9035
 2961SOL    HW220517   0.933   2.631  11.269 -2.3418 -1.7213  1.4823
 2962SOL     OW20518   2.683   0.791   2.238  0.2167 -0.2822  0.1024
 2962SOL    HW120519   2.656   0.777   2.329  2.6665  0.8359  1.0088
 2962SOL    HW220520   2.596   0.799   2.200 -0.0997  1.1151  1.1141
 2963SOL     OW20521   0.351   3.397   3.252  0.1695  0.4883 -0.2067
 2963SOL    HW120522   0.353   3.304   3.275 -1.3998  0.0857 -1.7489
 2963SOL    HW220523   0.258   3.414   3.243  0.1809  1.2057  1.0114
 2964SOL     OW20524   1.417   3.960  16.354 -0.5245 -0.7844  0.3961
 2964SOL    HW120525   1.485   3.910  16.399 -1.7867  0.5462  3.8013
 2964SOL    HW220526   1.423   3.940  16.261 -1.6919 -0.8864  0.3338
 2965SOL     OW20527   1.954   0.619   6.945  0.1088  0.8763  0.2698
 2965SOL    HW120528   1.961   0.713   6.961 -2.2319  1.1916 -0.5105
 2965SOL    HW220529   1.882   0.620   6.882 -1.9922 -0.8013  2.6454
 2966SOL     OW20530   4.687   2.769  17.161  0.2321  0.2202 -0.3486
 2966SOL    HW120531   4.702   2.802  17.072  0.8614  2.0688  0.4428
 2966SOL    HW220532   4.691   2.851  17.209 -0.0387  0.6142 -1.0106
 2967SOL     OW20533   3.992   2.641   6.234 -0.6400 -0.1813 -0.1387
 2967SOL    HW120534   3.985   2.658   6.140  2.3428 -3.0523 -0.8852
 2967SOL    HW220535   3.916   2.589   6.260 -1.8385  0.9762 -1.3152
 2968SOL     OW20536   0.944   2.322  12.422  0.6822 -0.1334  0.0822
 2968SOL    HW120537   0.992   2.381  12.480  1.7612  0.1641 -1.1116
 2968SOL    HW220538   0.866   2.376  12.407 -0.7927 -2.0066  1.0947
 2969SOL     OW20539   2.313   1.039   7.943 -0.6975 -0.1566 -0.1456
 2969SOL    HW120540   2.233   1.001   7.980 -2.7009  1.8220 -2.4266
 2969SOL    HW220541   2.274   1.094   7.875 -1.5196 -1.3662 -0.6649
 2970SOL     OW20542   3.701   1.985   9.092  0.7024 -0.7624 -1.1633
 2970SOL    HW120543   3.790   2.009   9.114  0.2904  1.1952 -1.6523
 2970SOL    HW220544   3.671   2.075   9.106  0.3660 -0.9249 -0.8529
 2971SOL     OW20545   1.882   2.118   2.349 -0.0750 -0.2236  0.2429
 2971SOL    HW120546   1.938   2.040   2.350 -0.0846 -0.2210  0.9549
 2971SOL    HW220547   1.810   2.082   2.400 -1.2863  0.3512 -1.0674
 2972SOL     OW20548   4.107   0.577   4.205 -0.3503 -0.1465 -0.8723
 2972SOL    HW120549   4.164   0.583   4.282 -0.1338 -0.6586 -0.9906
 2972SOL    HW220550   4.084   0.485   4.198  0.5648 -0.3846 -0.8207
 2973SOL     OW20551   2.039   4.045   5.832 -0.5827 -0.3013  0.0268
 2973SOL    HW120552   2.127   4.072   5.804 -0.7011  1.0119  0.9176
 2973SOL    HW220553   2.051   3.963   5.880  1.6590 -1.7523 -3.0091
 2974SOL     OW20554   1.724   0.977   8.437  0.0014 -0.4817  0.2003
 2974SOL    HW120555   1.714   1.072   8.447 -2.1819 -0.8123  1.0972
 2974SOL    HW220556   1.757   0.947   8.522  0.3573  1.2723  0.6762
 2975SOL     OW20557   0.354   1.785   4.980  0.7058  0.7052  0.6270
 2975SOL    HW120558   0.428   1.811   4.926  0.6203 -0.5589 -0.1025
 2975SOL    HW220559   0.396   1.725   5.041  2.2978  1.7707  0.5976
 2976SOL     OW20560   2.889   1.177   8.798  0.2047  0.3775  0.3016
 2976SOL    HW120561   2.850   1.213   8.718  1.4882 -0.8731 -0.8819
 2976SOL    HW220562   2.931   1.252   8.839  3.2289 -1.0211 -0.2827
 2977SOL     OW20563   1.515   2.400  17.760 -0.2292  0.5820 -0.1368
 2977SOL    HW120564   1.484   2.347  17.687 -1.2196  0.3998  0.4200
 2977SOL    HW220565   1.553   2.332   0.055  0.7108 -0.2784 -1.8382
 2978SOL     OW20566   0.138   4.399  12.256 -0.2593 -0.5181  0.4857
 2978SOL    HW120567   0.082   4.378  12.331  0.1901 -0.0756  0.9450
 2978SOL    HW220568   0.218   4.347  12.265  0.7719  1.1268  0.7344
 2979SOL     OW20569   3.376   1.182   6.509  0.1709 -0.0728  0.0424
 2979SOL    HW120570   3.329   1.185   6.592 -2.1347 -2.4601 -1.1764
 2979SOL    HW220571   3.319   1.129   6.453  0.9405 -1.6641  0.7440
 2980SOL     OW20572   1.189   2.754   2.836  0.6682  0.5910  0.0348
 2980SOL    HW120573   1.250   2.687   2.805 -0.5038 -0.7596  0.6657
 2980SOL    HW220574   1.111   2.738   2.782 -0.0012  3.2583  0.2156
 2981SOL     OW20575   1.879   2.583   5.533 -0.0189  0.6816 -0.2676
 2981SOL    HW120576   1.890   2.549   5.444  1.8207 -0.6815  0.4840
 2981SOL    HW220577   1.955   2.640   5.542 -0.6074  0.9375  2.9937
 2982SOL     OW20578   3.624   1.564   7.704 -0.1891 -0.2306  0.1638
 2982SOL    HW120579   3.537   1.535   7.678 -0.8134  1.4612  0.3602
 2982SOL    HW220580   3.596   1.653   7.729 -0.7366  0.2762 -2.2051
 2983SOL     OW20581   0.465   4.163   9.532 -0.3266  0.0965  0.8506
 2983SOL    HW120582   0.486   4.102   9.602  1.1310 -1.3155 -0.8352
 2983SOL    HW220583   0.426   4.103   9.469 -3.6539  1.1359  1.9197
 2984SOL     OW20584   4.529   3.595  16.541  0.2064 -0.2692  0.1661
 2984SOL    HW120585   4.547   3.564  16.630 -0.1717  1.9346  1.0090
 2984SOL    HW220586   4.526   3.687  16.567 -1.9302  0.3425 -2.2811
 2985SOL     OW20587   4.284   0.778   6.525  0.3012 -0.1590  0.1851
 2985SOL    HW120588   4.250   0.765   6.436  0.1100  1.0844  0.0763
 2985SOL    HW220589   4.371   0.738   6.524  0.2998 -0.1426 -0.5556
 2986SOL     OW20590   4.482   3.613   9.813  0.3310 -0.3505 -0.1007
 2986SOL    HW120591   4.447   3.688   9.765  1.0990 -0.7942 -1.3718
 2986SOL    HW220592   4.405   3.559   9.831  0.2944  0.2519  1.5445
 2987SOL     OW20593   4.358   2.893   5.466 -0.3489 -0.6695 -0.3208
 2987SOL    HW120594   4.336   2.922   5.378 -1.3912  0.6027  0.3594
 2987SOL    HW220595   4.441   2.940   5.473 -0.0481 -1.3814  0.9631
 2988SOL     OW20596   0.351   2.140   3.175 -0.1067  0.4451 -0.2436
 2988SOL    HW120597   0.447   2.144   3.174 -0.1024  0.9325  2.1023
 2988SOL    HW220598   0.342   2.127   3.269 -1.0130 -0.3230 -0.4397
 2989SOL     OW20599   3.812   4.609  16.259  0.2851  0.2039 -0.4453
 2989SOL    HW120600   3.754   4.536  16.234 -0.8733  1.8065 -2.4745
 2989SOL    HW220601   3.807   4.596  16.354 -0.7411  1.9692 -0.2508
 2990SOL     OW20602   4.738   1.211   8.646  0.3207  0.3022 -0.6215
 2990SOL    HW120603   4.683   1.141   8.610  0.8541 -0.0230 -0.8175
 2990SOL    HW220604   0.080   1.165   8.630  0.4268  0.0204  0.7017
 2991SOL     OW20605   2.142   2.285   6.431 -0.1351  0.3393 -0.0475
 2991SOL    HW120606   2.152   2.241   6.347  1.1058 -0.5196  0.5468
 2991SOL    HW220607   2.087   2.363   6.420  0.3689  0.8876  1.2959
 2992SOL     OW20608   4.104   1.855   6.145  0.6496  0.0601 -0.1443
 2992SOL    HW120609   4.118   1.892   6.232 -2.8043  0.7310  0.1270
 2992SOL    HW220610   4.187   1.861   6.099  1.9699 -3.0855  1.7958
 2993SOL     OW20611   2.991   2.335   3.370 -0.3579  0.3851 -0.1608
 2993SOL    HW120612   3.017   2.347   3.278 -0.9738  1.9594 -0.1281
 2993SOL    HW220613   3.000   2.240   3.376 -0.7456  0.4778  1.8004
 2994SOL     OW20614   0.792   0.647   9.979 -0.4281  0.8126 -0.7627
 2994SOL    HW120615   0.859   0.620   9.916  1.4448  2.3341  0.5762
 2994SOL    HW220616   0.752   0.710   9.919 -1.8617 -0.3600 -1.0355
 2995SOL     OW20617   1.278   3.926   7.367 -0.5004 -0.2136 -0.1383
 2995SOL    HW120618   1.358   3.936   7.420 -1.4009 -0.4064  1.2364
 2995SOL    HW220619   1.218   3.978   7.420  1.2935  0.6233  1.1124
 2996SOL     OW20620   2.816   2.965   1.453  0.5972  0.1321  0.1696
 2996SOL    HW120621   2.853   3.037   1.402  0.2180  1.0001  1.1217
 2996SOL    HW220622   2.886   2.939   1.513 -0.3169 -0.4711  0.9724
 2997SOL     OW20623   1.351   1.476   6.148  0.0808 -0.6221  0.6104
 2997SOL    HW120624   1.356   1.447   6.057  3.3197 -0.9809  0.9280
 2997SOL    HW220625   1.380   1.566   6.131  0.9118 -0.8387  0.9134
 2998SOL     OW20626   1.522   1.536  17.610  0.0632 -0.0437 -0.2052
 2998SOL    HW120627   1.465   1.478  17.559  1.4055 -0.6967 -0.9499
 2998SOL    HW220628   1.557   1.476  17.677  3.7506  3.3836  0.9313
 2999SOL     OW20629   1.731   4.188  16.508 -0.1724  0.1548  0.0126
 2999SOL    HW120630   1.808   4.185  16.452 -0.9839  2.5779 -1.2494
 2999SOL    HW220631   1.661   4.197  16.443 -0.6426 -1.8835  0.2232
 3000SOL     OW20632   1.829   2.831  15.674  0.2923 -0.5645  0.2133
 3000SOL    HW120633   1.917   2.799  15.655 -0.4035 -1.8174 -0.9529
 3000SOL    HW220634   1.842   2.900  15.739 -1.1502  0.5203 -0.6295
 3001SOL     OW20635   0.163   1.451   5.538  0.3589 -0.4253  0.6922
 3001SOL    HW120636   0.206   1.485   5.617  1.5406  1.4252 -0.7509
 3001SOL    HW220637   0.221   1.477   5.466 -0.1014  0.4329  0.6225
 3002SOL     OW20638   4.101   4.560   2.081 -0.1136  0.2117 -0.0372
 3002SOL    HW120639   4.069   4.582   2.169  0.1679  2.0661 -0.3989
 3002SOL    HW220640   4.043   4.494   2.043 -0.1916  1.5581 -2.2688
 3003SOL     OW20641   1.532   4.044   8.088  0.3058  0.3680 -0.1750
 3003SOL    HW120642   1.620   4.061   8.054 -0.5378  0.3603 -2.3448
 3003SOL    HW220643   1.483   4.005   8.016 -0.7377  1.7571 -0.2038
 3004SOL     OW20644   2.708   4.262   0.442 -0.3029  0.1957  0.0683
 3004SOL    HW120645   2.640   4.330   0.445 -0.3230  0.1426  0.9475
 3004SOL    HW220646   2.692   4.216   0.525  0.7614  0.5893  0.4932
 3005SOL     OW20647   2.259   3.522  13.347 -0.2608  0.2657 -0.1393
 3005SOL    HW120648   2.221   3.503  13.433  0.8220 -0.4653  0.1754
 3005SOL    HW220649   2.224   3.611  13.343  0.2830  0.4480 -0.7649
 3006SOL     OW20650   0.354   2.834   9.960 -0.9147  0.4744  0.4073
 3006SOL    HW120651   0.306   2.870   9.886 -1.2726  1.5812  1.1723
 3006SOL    HW220652   0.366   2.741   9.938  1.9296  0.6421  1.1664
 3007SOL     OW20653   3.744   2.321   3.268  0.3916 -0.0304  0.0030
 3007SOL    HW120654   3.668   2.323   3.210 -1.4208 -1.3194  2.3383
 3007SOL    HW220655   3.714   2.285   3.351  0.4219 -0.1356 -0.0316
 3008SOL     OW20656   0.542   4.720   9.144 -0.4467 -0.1668  0.6954
 3008SOL    HW120657   0.626   0.014   9.173 -0.3102  2.1724 -2.5138
 3008SOL    HW220658   0.551   4.625   9.141  0.8331 -0.1199  3.2035
 3009SOL     OW20659   1.968   1.717  13.137  0.2993 -0.7529 -0.6512
 3009SOL    HW120660   1.960   1.741  13.229 -1.5206 -0.2400 -0.9331
 3009SOL    HW220661   1.926   1.631  13.141 -0.7722 -0.1587  1.1923
 3010SOL     OW20662   2.497   2.189   8.309  0.6916  0.1169 -0.2481
 3010SOL    HW120663   2.537   2.160   8.227 -0.5447  1.2050 -1.2314
 3010SOL    HW220664   2.565   2.240   8.353 -0.7565  1.2137  0.7203
 3011SOL     OW20665   4.065   0.328   6.638 -0.2492  0.3451  0.4087
 3011SOL    HW120666   4.105   0.245   6.614 -0.7923 -0.6978  3.1687
 3011SOL    HW220667   4.144   0.381   6.648 -0.2106  0.3569  0.0444
 3012SOL     OW20668   3.725   0.615  13.676 -0.1147 -0.3502 -0.1566
 3012SOL    HW120669   3.820   0.604  13.683 -0.3040 -2.0810 -0.3892
 3012SOL    HW220670   3.705   0.694  13.626  0.4574  2.0184  3.3497
 3013SOL     OW20671   3.757   2.910   9.135  0.3619 -0.1261 -0.0373
 3013SOL    HW120672   3.847   2.941   9.147 -0.3267  1.2745  1.5266
 3013SOL    HW220673   3.763   2.852   9.211  3.0571 -0.6887 -0.6779
 3014SOL     OW20674   4.005   2.921  14.818  0.6288 -0.6470 -0.4030
 3014SOL    HW120675   4.040   2.999  14.777  2.2088 -1.1512  0.0049
 3014SOL    HW220676   3.956   2.960  14.891  0.3583  1.1051 -1.5453
 3015SOL     OW20677   2.110   1.776  12.298  0.4087  0.2921  0.3393
 3015SOL    HW120678   2.101   1.701  12.240 -1.0205 -0.6032  1.7012
 3015SOL    HW220679   2.067   1.851  12.257  0.4692  0.5593  0.7570
 3016SOL     OW20680   3.796   0.936   6.267 -0.3612  0.2343 -0.2033
 3016SOL    HW120681   3.858   0.993   6.312  0.4173  0.0080 -0.9895
 3016SOL    HW220682   3.773   0.872   6.334 -0.3395  0.9705  0.5051
 3017SOL     OW20683   1.818   3.078   4.055  0.6589  0.5051 -0.2129
 3017SOL    HW120684   1.758   3.028   4.000  0.6992 -3.9243  3.7743
 3017SOL    HW220685   1.850   3.008   4.111 -2.7250  0.2077  1.3478
 3018SOL     OW20686   0.545   1.099   4.374  0.0592  0.6051 -0.5400
 3018SOL    HW120687   0.479   1.048   4.421  0.1792  2.4343  1.6292
 3018SOL    HW220688   0.617   1.073   4.432 -2.7785  0.0831  2.7630
 3019SOL     OW20689   2.226   1.564   6.223 -0.1328  0.1472 -0.4226
 3019SOL    HW120690   2.319   1.583   6.211  0.2061 -0.1133  1.7708
 3019SOL    HW220691   2.205   1.539   6.133 -3.3787 -0.8161  0.6045
 3020SOL     OW20692   3.586   2.012  14.472  0.3714  0.2367  0.0800
 3020SOL    HW120693   3.577   1.936  14.414 -1.6402  0.4512  0.0884
 3020SOL    HW220694   3.569   2.095  14.428 -2.2010  2.6437  5.6414
 3021SOL     OW20695   0.841   2.002   7.313  0.3851  0.1740 -0.3847
 3021SOL    HW120696   0.802   1.960   7.390  2.1319 -2.3338 -0.8702
 3021SOL    HW220697   0.928   2.033   7.341 -0.5707  0.3692  2.3951
 3022SOL     OW20698   4.107   3.159   3.931  0.1063  0.1809  0.4395
 3022SOL    HW120699   4.026   3.207   3.911  0.9291  1.9203  1.2865
 3022SOL    HW220700   4.160   3.215   3.987 -1.3596  0.4649  1.5541
 3023SOL     OW20701   1.317   3.590   2.818 -0.5228  0.0152  0.0533
 3023SOL    HW120702   1.292   3.679   2.845  0.5974  0.9185 -1.8890
 3023SOL    HW220703   1.412   3.596   2.820 -0.7197  2.5723  2.9449
 3024SOL     OW20704   3.777   2.825  12.177  0.8987 -0.1055  0.0841
 3024SOL    HW120705   3.858   2.775  12.180 -0.0388 -1.7110 -1.2641
 3024SOL    HW220706   3.751   2.816  12.085 -2.4786  0.4846  0.9592
 3025SOL     OW20707   0.072   0.192   7.805  0.2637  0.2105 -0.5587
 3025SOL    HW120708   0.047   0.279   7.775 -1.6455  0.5473  2.0356
 3025SOL    HW220709   0.079   0.203   7.899 -2.3819  0.2950 -0.3663
 3026SOL     OW20710   4.348   0.159   4.640  0.0818  0.3181  0.1392
 3026SOL    HW120711   4.384   0.247   4.650 -1.1606  0.7362  1.0449
 3026SOL    HW220712   4.265   0.173   4.687  0.3399  2.2199  0.0280
 3027SOL     OW20713   2.196   3.102   5.740 -0.1774 -0.1456 -0.5692
 3027SOL    HW120714   2.212   3.174   5.801 -0.6605  0.4832 -1.1948
 3027SOL    HW220715   2.151   3.143   5.666  1.3901  1.1967 -0.7818
 3028SOL     OW20716   2.468   2.223   3.252  0.2822  0.0334  0.0265
 3028SOL    HW120717   2.410   2.246   3.325  1.3930  0.7021  0.6886
 3028SOL    HW220718   2.514   2.151   3.295 -3.9436 -2.0671  1.1160
 3029SOL     OW20719   0.867   2.950   2.925  0.1895  0.1009  0.0657
 3029SOL    HW120720   0.829   3.026   2.970 -0.8537  0.4941 -1.4881
 3029SOL    HW220721   0.956   2.983   2.913 -0.3630  1.3340 -0.5728
 3030SOL     OW20722   2.655   2.862   6.308  0.1071  0.2013 -0.6841
 3030SOL    HW120723   2.708   2.801   6.257  0.0932 -1.1342  0.9340
 3030SOL    HW220724   2.692   2.853   6.395 -0.2472  1.3242 -0.4132
 3031SOL     OW20725   1.960   3.689   2.018 -0.0219  0.3746 -0.3185
 3031SOL    HW120726   1.876   3.645   2.005  0.8681 -0.4308 -3.5696
 3031SOL    HW220727   1.943   3.746   2.092 -0.8565  1.0826 -1.0485
 3032SOL     OW20728   4.281   3.843   9.522  0.0856  0.2524  0.4454
 3032SOL    HW120729   4.292   3.830   9.616 -0.4167 -1.9943  0.1926
 3032SOL    HW220730   4.284   3.751   9.494 -1.1781  1.0403 -2.2111
 3033SOL     OW20731   0.394   0.127   8.340 -0.2442 -0.3648 -0.2018
 3033SOL    HW120732   0.437   0.168   8.265 -0.3182 -2.9184 -1.6565
 3033SOL    HW220733   0.331   0.063   8.307  0.7680 -1.3239 -0.2822
 3034SOL     OW20734   3.486   3.424  16.302 -0.6779  0.0167  0.6678
 3034SOL    HW120735   3.488   3.516  16.275 -0.1573 -0.6399 -1.4740
 3034SOL    HW220736   3.393   3.413  16.281 -0.5100 -0.9581  0.4515
 3035SOL     OW20737   0.309   0.766   6.614 -0.0077  0.0719 -0.8385
 3035SOL    HW120738   0.283   0.839   6.670  0.1586  0.0459 -0.7257
 3035SOL    HW220739   0.301   0.802   6.526  0.5497  0.2663 -0.8130
 3036SOL     OW20740   2.450   3.789   6.419  0.3568  0.3784 -0.6518
 3036SOL    HW120741   2.415   3.876   6.436  2.3465  0.8882  0.7987
 3036SOL    HW220742   2.370   3.759   6.375  1.4945 -3.4912 -0.0729
 3037SOL     OW20743   3.655   1.593   8.233  0.0872  0.3080 -0.0359
 3037SOL    HW120744   3.630   1.564   8.145 -4.2165  3.4806  0.1543
 3037SOL    HW220745   3.573   1.589   8.281 -0.8238  0.6693 -1.5617
 3038SOL     OW20746   4.611   1.054   2.334  0.0645 -0.3542  0.1923
 3038SOL    HW120747   4.534   1.013   2.374  0.2953 -1.9440 -1.0100
 3038SOL    HW220748   4.614   1.139   2.378  2.8977  1.0236 -2.6790
 3039SOL     OW20749   1.081   1.322   2.830  0.4138  0.1846  0.2711
 3039SOL    HW120750   1.167   1.292   2.859 -0.1892 -3.5152 -1.8135
 3039SOL    HW220751   1.088   1.294   2.739  0.0739 -2.4784  1.0671
 3040SOL     OW20752   2.781   3.576   7.949  0.0946 -0.0972  0.2324
 3040SOL    HW120753   2.871   3.578   7.915  1.0673  0.9911  2.9289
 3040SOL    HW220754   2.731   3.561   7.868  0.9682  2.4478 -0.7628
 3041SOL     OW20755   4.329   3.966  11.205 -0.0445 -0.1467 -0.0775
 3041SOL    HW120756   4.306   4.049  11.164 -1.5701 -0.1889  0.7200
 3041SOL    HW220757   4.340   3.999  11.295 -1.6996  0.2391 -0.0301
 3042SOL     OW20758   3.471   0.620   3.155 -0.4737 -0.0904  0.4793
 3042SOL    HW120759   3.505   0.703   3.188  0.5034  0.2622 -1.3828
 3042SOL    HW220760   3.386   0.610   3.196 -0.7879  3.4893  0.6808
 3043SOL     OW20761   1.380   4.453   7.231  0.5262  0.6534 -0.5727
 3043SOL    HW120762   1.425   4.375   7.263  0.1462  0.5646 -0.2443
 3043SOL    HW220763   1.308   4.453   7.295  1.9493 -1.3462  1.0038
 3044SOL     OW20764   2.496   2.156  11.069  0.1855 -0.4043  0.3048
 3044SOL    HW120765   2.528   2.131  11.155  0.0556 -1.8617 -0.0660
 3044SOL    HW220766   2.504   2.250  11.085 -2.7311  0.2680 -2.0277
 3045SOL     OW20767   4.229   2.577   3.262  0.8459 -0.3289 -0.3475
 3045SOL    HW120768   4.245   2.484   3.250 -0.6116 -0.9250  2.2227
 3045SOL    HW220769   4.313   2.618   3.242  0.8878 -1.6995 -2.8652
 3046SOL     OW20770   0.694   3.848   3.678 -0.2150 -0.1977 -0.1928
 3046SOL    HW120771   0.756   3.790   3.635  0.2741  0.0545  0.1774
 3046SOL    HW220772   0.613   3.823   3.633  0.6498 -1.9574 -0.7788
 3047SOL     OW20773   0.246   2.324  10.630  0.1880 -0.4598  0.3258
 3047SOL    HW120774   0.247   2.419  10.626  1.5893 -0.4151  1.7621
 3047SOL    HW220775   0.256   2.309  10.724 -2.3729 -1.5369  0.4311
 3048SOL     OW20776   0.953   3.254   1.983  0.2164 -0.2167  0.5144
 3048SOL    HW120777   0.908   3.239   1.900  1.4373 -0.4647 -0.0998
 3048SOL    HW220778   1.002   3.173   1.992 -0.9665 -1.0486 -0.7182
 3049SOL     OW20779   3.887   2.468   7.773 -0.2122 -0.2287 -0.2684
 3049SOL    HW120780   3.874   2.552   7.817 -1.4752 -1.0926  1.0250
 3049SOL    HW220781   3.902   2.419   7.854  2.0504 -1.0618 -1.1854
 3050SOL     OW20782   0.393   0.612  16.922 -0.2339  0.1605  0.2265
 3050SOL    HW120783   0.318   0.636  16.868  2.1090  2.3985 -2.0536
 3050SOL    HW220784   0.410   0.528  16.881 -1.6774  1.0354 -2.1335
 3051SOL     OW20785   3.900   1.026   1.448 -0.0672 -0.0115  0.5522
 3051SOL    HW120786   3.892   1.009   1.354  0.2072  0.1728  0.4948
 3051SOL    HW220787   3.864   0.943   1.479 -1.3172 -0.3364 -1.7846
 3052SOL     OW20788   1.051   1.549  10.259  1.2033  0.1796  0.0397
 3052SOL    HW120789   1.116   1.479  10.254  2.4802  1.2552  1.1890
 3052SOL    HW220790   0.968   1.503  10.259  0.7995  0.9084 -0.5196
 3053SOL     OW20791   3.663   3.328   8.631  0.1066  0.1713 -0.5500
 3053SOL    HW120792   3.626   3.338   8.543 -3.0792  2.8576  1.0973
 3053SOL    HW220793   3.656   3.233   8.639  0.6328  0.2477  0.7990
 3054SOL     OW20794   2.591   3.077   0.749 -0.4630  0.0550  0.2071
 3054SOL    HW120795   2.669   3.128   0.726  0.9838 -1.2502  2.1159
 3054SOL    HW220796   2.591   3.016   0.675 -2.2811 -0.8142  0.9264
 3055SOL     OW20797   4.400   3.010   3.089 -0.1173  0.2671 -0.4232
 3055SOL    HW120798   4.350   2.958   3.025  1.0008 -2.1755  0.6684
 3055SOL    HW220799   4.470   2.946   3.103 -1.1056 -0.9138 -0.8585
 3056SOL     OW20800   3.251   0.010   8.809 -0.1650  0.3399  0.0081
 3056SOL    HW120801   3.267   0.096   8.771 -0.2721  0.0803 -0.6212
 3056SOL    HW220802   3.177   4.718   8.759  1.6002  1.5156 -3.3537
 3057SOL     OW20803   4.529   2.151   4.332  0.4110 -0.6650 -0.0248
 3057SOL    HW120804   4.544   2.084   4.265  0.0088 -1.1815  0.3932
 3057SOL    HW220805   4.441   2.186   4.317  0.7128  0.4586  0.8012
 3058SOL     OW20806   4.696   2.327  11.050 -0.4055  0.1615 -0.2368
 3058SOL    HW120807   4.737   2.336  11.136  4.0215  0.4067 -2.3707
 3058SOL    HW220808   4.728   2.405  11.005  2.5580 -2.0261 -1.9004
 3059SOL     OW20809   3.575   0.989  16.381 -0.2476 -0.4564 -0.1694
 3059SOL    HW120810   3.553   0.965  16.291  1.2092 -1.0621 -0.3695
 3059SOL    HW220811   3.651   0.934  16.399  0.6444  1.5465  2.2042
 3060SOL     OW20812   1.619   1.840   8.067 -0.2533  0.2834 -0.6214
 3060SOL    HW120813   1.650   1.906   8.130  1.6281 -0.7347 -0.4940
 3060SOL    HW220814   1.536   1.875   8.034 -1.0356 -0.2084  0.7990
 3061SOL     OW20815   1.124   0.489   1.309  0.5625 -0.0473  0.0895
 3061SOL    HW120816   1.083   0.551   1.249  0.4152 -1.2981 -1.0775
 3061SOL    HW220817   1.208   0.532   1.329  0.7169  0.3779 -1.5090
 3062SOL     OW20818   2.045   0.615   2.175 -0.2892 -0.3034  0.2249
 3062SOL    HW120819   1.990   0.693   2.179  0.4571  0.3430 -2.0653
 3062SOL    HW220820   1.981   0.565   2.125  1.0570 -0.5702 -1.2485
 3063SOL     OW20821   4.584   3.685  17.493  0.2541  0.3602  0.4719
 3063SOL    HW120822   4.491   3.697  17.478  0.3418 -0.5197 -0.8110
 3063SOL    HW220823   4.590   3.603  17.443 -0.7971  2.6488 -3.3438
 3064SOL     OW20824   4.075   4.539   1.067 -0.6800  0.3904  0.1844
 3064SOL    HW120825   4.147   4.601   1.079  1.0419 -1.7880  1.1067
 3064SOL    HW220826   4.055   4.534   0.973  3.7097 -1.7400 -0.6288
 3065SOL     OW20827   0.294   0.070   1.464  0.2942 -0.0123  0.7950
 3065SOL    HW120828   0.376   0.106   1.496 -0.5088  1.9458  0.6434
 3065SOL    HW220829   0.317   4.726   1.426  1.2092  0.2771  0.7144
 3066SOL     OW20830   4.445   4.481   8.016 -0.2015 -0.1345 -0.3136
 3066SOL    HW120831   4.476   4.492   8.106  0.6906 -1.9711 -0.3848
 3066SOL    HW220832   4.427   4.387   8.018 -0.3917 -0.0532  1.7542
 3067SOL     OW20833   1.251   4.298   3.326  0.2420  0.0177  0.1233
 3067SOL    HW120834   1.173   4.283   3.272 -0.0881  1.2090  0.2746
 3067SOL    HW220835   1.232   4.249   3.405  2.5060 -0.1505  0.5728
 3068SOL     OW20836   2.262   2.084   5.068 -0.2912 -0.0659 -0.1003
 3068SOL    HW120837   2.194   2.019   5.048 -0.4397 -0.3114  1.2069
 3068SOL    HW220838   2.230   2.127   5.147  0.4539 -0.1219  0.2375
 3069SOL     OW20839   1.490   3.604  16.243  0.2197  0.1496 -0.0478
 3069SOL    HW120840   1.567   3.651  16.211 -0.3725  0.7634 -0.5792
 3069SOL    HW220841   1.521   3.568  16.326 -1.5371 -2.5870 -0.5438
 3070SOL     OW20842   2.494   4.726   7.951 -0.1644 -0.2839  0.0842
 3070SOL    HW120843   2.484   4.691   8.040  2.1141  0.6799  0.6959
 3070SOL    HW220844   2.445   0.067   7.963  0.3718  0.0120  0.2329
 3071SOL     OW20845   1.540   3.032  17.115  0.0357 -0.2460 -0.7870
 3071SOL    HW120846   1.518   2.939  17.121 -1.6599  0.0473 -2.3665
 3071SOL    HW220847   1.538   3.046  17.020 -0.6392 -1.4712 -0.9644
 3072SOL     OW20848   1.185   1.350  10.067 -0.5109  1.1522 -0.2593
 3072SOL    HW120849   1.094   1.327  10.047  0.4677 -1.5189 -1.6286
 3072SOL    HW220850   1.213   1.397   9.988 -2.0220  0.2206 -1.3348
 3073SOL     OW20851   0.562   3.622   6.656  0.2232 -0.0377  0.0484
 3073SOL    HW120852   0.627   3.559   6.624  1.1378  1.1215 -0.3911
 3073SOL    HW220853   0.599   3.642   6.742 -0.9581  1.1640  0.2658
 3074SOL     OW20854   1.891   3.432   5.035  0.3255 -0.1025 -0.0325
 3074SOL    HW120855   1.937   3.516   5.028 -0.3038  0.1830 -0.7267
 3074SOL    HW220856   1.843   3.421   4.954  0.1692  2.9406 -0.3643
 3075SOL     OW20857   0.468   1.946   1.887 -0.0896  0.4194  0.0647
 3075SOL    HW120858   0.483   2.035   1.854 -2.4707 -0.1044 -2.4116
 3075SOL    HW220859   0.374   1.951   1.901 -0.3008  0.3145 -1.3105
 3076SOL     OW20860   0.972   2.045  15.657  0.1143 -0.3992 -0.2245
 3076SOL    HW120861   1.061   2.061  15.689  0.1191 -0.1453 -0.3652
 3076SOL    HW220862   0.924   2.099  15.720 -2.8106 -2.1844 -0.9352
 3077SOL     OW20863   3.773   2.145  12.709 -0.3473  0.8510 -0.0394
 3077SOL    HW120864   3.752   2.226  12.663 -0.0857  1.7384  1.3977
 3077SOL    HW220865   3.867   2.141  12.691 -0.0468 -0.4187  1.7997
 3078SOL     OW20866   0.403   3.413  15.479  0.0194 -0.0333  0.1192
 3078SOL    HW120867   0.397   3.353  15.553 -0.3276 -1.7481 -1.2774
 3078SOL    HW220868   0.373   3.490  15.527  1.6505  2.1825 -2.3662
 3079SOL     OW20869   0.888   1.197  13.264  0.5705 -0.3986 -0.1348
 3079SOL    HW120870   0.811   1.139  13.260  0.6400 -0.3958 -1.3260
 3079SOL    HW220871   0.868   1.256  13.336 -1.1613  1.2750 -1.9906
 3080SOL     OW20872   0.048   1.028   3.165  0.2838  0.2113 -0.2801
 3080SOL    HW120873   0.120   0.966   3.177 -1.0730 -0.7482  2.6329
 3080SOL    HW220874   4.737   0.973   3.106  0.7622 -2.2562  1.6259
 3081SOL     OW20875   3.294   0.588  14.434  0.0823  0.8135 -0.5032
 3081SOL    HW120876   3.294   0.661  14.372 -0.0903 -1.1018 -2.7904
 3081SOL    HW220877   3.199   0.575  14.432  0.5888 -3.0568 -0.1655
 3082SOL     OW20878   2.088   4.169   5.344  0.0678 -0.0927 -0.0861
 3082SOL    HW120879   2.163   4.222   5.315 -1.4631  3.0362  1.6013
 3082SOL    HW220880   2.037   4.167   5.263 -0.8216 -0.0136  0.4771
 3083SOL     OW20881   0.517   1.385  10.518  0.4045 -0.3399 -0.3481
 3083SOL    HW120882   0.540   1.355  10.430  0.2193 -0.6637 -0.2834
 3083SOL    HW220883   0.490   1.304  10.561 -1.1361 -0.0840 -0.8583
 3084SOL     OW20884   1.793   4.577   7.667  0.1312 -0.4000 -0.1453
 3084SOL    HW120885   1.784   4.634   7.591  1.5890  2.8807  2.1392
 3084SOL    HW220886   1.868   4.521   7.646  1.2741  0.6321  1.1589
 3085SOL     OW20887   3.438   0.737  13.959  0.1422  0.4160  0.1664
 3085SOL    HW120888   3.352   0.753  13.922 -0.0524  0.8727  0.8003
 3085SOL    HW220889   3.462   0.688  13.881 -0.5751 -2.4289  1.7150
 3086SOL     OW20890   0.240   2.247  16.954 -0.5165  0.1820 -0.1249
 3086SOL    HW120891   0.295   2.320  16.924  1.6906 -1.2247  0.5013
 3086SOL    HW220892   0.156   2.252  16.908 -1.6499  1.9546  2.0783
 3087SOL     OW20893   0.153   0.945  11.538 -0.0016 -0.0092 -0.0381
 3087SOL    HW120894   0.122   1.035  11.546 -0.9225 -0.2511 -0.7874
 3087SOL    HW220895   0.163   0.934  11.444  0.0588 -0.2292 -0.0058
 3088SOL     OW20896   1.946   0.648   4.355 -0.2053  0.1838 -0.2939
 3088SOL    HW120897   1.985   0.702   4.424  1.7387 -0.7820 -0.6520
 3088SOL    HW220898   1.996   0.569   4.378 -0.9241 -0.5560 -1.2748
 3089SOL     OW20899   1.563   3.756   6.196 -0.3156 -0.0309 -0.4651
 3089SOL    HW120900   1.503   3.685   6.221 -1.6997  1.1029 -0.6062
 3089SOL    HW220901   1.647   3.710   6.189  1.3442  2.7213  1.3047
 3090SOL     OW20902   4.188   1.676  10.103 -0.4059  0.4051  0.5046
 3090SOL    HW120903   4.096   1.663  10.077 -0.2770  0.1508  0.1784
 3090SOL    HW220904   4.204   1.609  10.169  0.4257  0.0647 -0.0448
 3091SOL     OW20905   4.413   1.950  14.548 -0.2962 -0.0486  0.1511
 3091SOL    HW120906   4.467   2.002  14.489  2.8692 -1.7519  1.5203
 3091SOL    HW220907   4.323   1.953  14.517 -0.0241 -0.0412 -0.6458
 3092SOL     OW20908   0.134   4.388   3.691 -0.4360  0.4076 -0.7743
 3092SOL    HW120909   0.219   4.375   3.650  0.2044  3.0832 -0.3200
 3092SOL    HW220910   0.150   4.373   3.784 -1.5103 -0.4196 -0.7101
 3093SOL     OW20911   1.428   0.379   3.493 -0.1479 -0.4224 -0.4434
 3093SOL    HW120912   1.424   0.475   3.486 -0.5622 -0.3318  1.0587
 3093SOL    HW220913   1.434   0.366   3.399  1.7799 -0.0130 -0.3701
 3094SOL     OW20914   3.953   0.501   1.520  0.0285  0.2064  0.0381
 3094SOL    HW120915   3.889   0.496   1.449  0.3148 -2.1541 -0.0494
 3094SOL    HW220916   4.029   0.478   1.468 -0.9135 -1.7291 -0.4719
 3095SOL     OW20917   0.071   3.292  14.624 -0.2677 -0.2975 -0.1042
 3095SOL    HW120918   0.138   3.245  14.574  0.8089  0.8987  0.1867
 3095SOL    HW220919   0.001   3.283  14.560  0.7757  1.8403 -1.5710
 3096SOL     OW20920   1.100   0.842   7.379  0.0916  0.4093 -0.1956
 3096SOL    HW120921   1.070   0.757   7.348  0.8340  0.1889 -0.3191
 3096SOL    HW220922   1.190   0.818   7.404  0.0122 -0.1319 -0.4374
 3097SOL     OW20923   4.703   4.524   6.714  0.5533  0.3341 -0.0784
 3097SOL    HW120924   4.624   4.496   6.669  1.5920  1.4165 -2.6584
 3097SOL    HW220925   0.028   4.485   6.656 -0.0953  1.2040 -1.4213
 3098SOL     OW20926   4.657   1.640  16.304  0.7984 -0.1632 -0.1342
 3098SOL    HW120927   4.705   1.709  16.258  0.2830 -1.1192 -2.1325
 3098SOL    HW220928   4.602   1.693  16.362  0.8636 -0.3506  0.0957
 3099SOL     OW20929   2.338   2.590  17.328  0.2251 -0.0280 -0.2014
 3099SOL    HW120930   2.415   2.566  17.379  0.4950  2.6105  0.6320
 3099SOL    HW220931   2.263   2.560  17.379 -0.4608  1.7659 -0.1316
 3100SOL     OW20932   2.551   1.372   6.585  0.1606 -0.3012 -0.1655
 3100SOL    HW120933   2.491   1.434   6.545 -0.3922 -0.5346  0.3125
 3100SOL    HW220934   2.596   1.324   6.515  0.7748  0.7109 -0.4639
 3101SOL     OW20935   2.464   2.522  12.901 -0.7521 -0.3849 -0.1868
 3101SOL    HW120936   2.471   2.562  12.987 -0.9635 -0.6184 -0.0583
 3101SOL    HW220937   2.517   2.587  12.856  1.9670 -0.5739  2.7502
 3102SOL     OW20938   3.984   1.717  13.933 -0.3523 -0.4515  0.4525
 3102SOL    HW120939   3.970   1.645  13.995  1.7382  0.4790  2.0089
 3102SOL    HW220940   3.912   1.771  13.964 -0.8536  0.2047 -1.8389
 3103SOL     OW20941   4.675   3.901  16.482  0.1369  0.2264  0.0673
 3103SOL    HW120942   4.622   3.890  16.562 -1.7456  0.2371 -1.1802
 3103SOL    HW220943   0.000   3.832  16.488  1.5312  1.4692 -1.2729
 3104SOL     OW20944   3.573   1.690   1.117  0.5522  0.2695  0.7135
 3104SOL    HW120945   3.542   1.618   1.172 -2.9048  1.7469  0.7056
 3104SOL    HW220946   3.495   1.719   1.069 -0.7906  0.4512  2.9986
 3105SOL     OW20947   4.138   3.033   8.024 -0.1609 -0.3948 -0.1293
 3105SOL    HW120948   4.190   3.099   7.979 -0.3222 -1.4629 -1.8885
 3105SOL    HW220949   4.193   3.004   8.097 -0.6717 -0.8144  0.0926
 3106SOL     OW20950   2.771   1.549  15.807  0.1587 -0.0354  0.2787
 3106SOL    HW120951   2.712   1.621  15.785 -1.0980 -0.6564  1.6014
 3106SOL    HW220952   2.787   1.570  15.899 -1.6884  1.2929  0.2824
 3107SOL     OW20953   4.109   4.125   7.352  0.4691 -0.1958 -0.1701
 3107SOL    HW120954   4.056   4.158   7.280 -0.1802  2.9491  1.7663
 3107SOL    HW220955   4.127   4.033   7.332  0.1901 -1.2102  4.1018
 3108SOL     OW20956   1.294   3.905   4.178 -0.1451 -0.2274  0.2931
 3108SOL    HW120957   1.210   3.912   4.133  0.0295 -1.2984 -0.1887
 3108SOL    HW220958   1.266   3.890   4.268 -2.4457 -0.7556 -0.4980
 3109SOL     OW20959   3.223   0.346   5.957  0.0680 -0.1121  0.5922
 3109SOL    HW120960   3.280   0.398   6.014  2.1399  0.4992 -2.0343
 3109SOL    HW220961   3.256   0.262   5.987 -1.4283 -0.3955  1.4507
 3110SOL     OW20962   0.157   3.154  17.539  0.5094 -0.2013 -0.1416
 3110SOL    HW120963   0.075   3.111  17.518 -1.5263  2.6850  1.8720
 3110SOL    HW220964   0.127   3.244  17.551 -0.4071 -0.3239 -1.6369
 3111SOL     OW20965   0.702   3.601   5.648 -0.6934  0.1537  0.3125
 3111SOL    HW120966   0.689   3.519   5.602 -1.6391 -1.1166  2.8145
 3111SOL    HW220967   0.771   3.591   5.713  0.2404  1.4359 -0.4752
 3112SOL     OW20968   4.541   4.453   3.173 -0.1950 -0.0605 -0.0777
 3112SOL    HW120969   4.548   4.545   3.149  1.2471  0.4575  2.3605
 3112SOL    HW220970   4.501   4.402   3.102  1.0290 -0.4943 -0.4575
 3113SOL     OW20971   4.116   0.314  12.253  0.2205 -0.3571 -0.0376
 3113SOL    HW120972   4.067   0.308  12.336  0.8379 -2.6786  0.1393
 3113SOL    HW220973   4.180   0.243  12.254  1.6444  0.9222 -2.4743
 3114SOL     OW20974   0.352   4.605   6.854 -0.4449 -0.0805  0.5192
 3114SOL    HW120975   0.356   4.600   6.759 -0.6758 -0.5291  0.5329
 3114SOL    HW220976   0.380   4.514   6.869 -0.0961 -0.1194 -0.3826
 3115SOL     OW20977   3.020   0.949  15.521 -0.0006 -0.3818 -0.0831
 3115SOL    HW120978   2.972   0.867  15.508  1.0470 -1.0214  0.1252
 3115SOL    HW220979   3.004   0.987  15.435 -1.8798 -0.7487  0.0841
 3116SOL     OW20980   3.572   2.603   5.576 -0.1461  0.6112  0.5660
 3116SOL    HW120981   3.657   2.573   5.607 -1.3584 -1.0199  2.3282
 3116SOL    HW220982   3.515   2.565   5.643 -0.0707 -0.9984 -0.2694
 3117SOL     OW20983   0.407   1.976   2.624  0.1136 -0.2850  0.4273
 3117SOL    HW120984   0.473   2.039   2.595 -0.6412  0.7043  0.8473
 3117SOL    HW220985   0.434   1.888   2.598 -1.5387 -1.0189  1.2252
 3118SOL     OW20986   1.567   0.260   6.951 -0.3573  0.2642 -0.2609
 3118SOL    HW120987   1.549   0.168   6.929  2.5494 -0.4988  0.5577
 3118SOL    HW220988   1.528   0.299   6.873  1.8937  0.1701 -1.4459
 3119SOL     OW20989   2.149   1.788  12.714  0.2608  0.0628 -0.2634
 3119SOL    HW120990   2.177   1.816  12.802  0.3218 -1.0205  0.0532
 3119SOL    HW220991   2.226   1.788  12.658  0.1790 -2.2882 -0.3734
 3120SOL     OW20992   3.028   0.965   1.722  0.2465 -0.2574 -0.1160
 3120SOL    HW120993   3.076   0.927   1.648  0.8098 -2.7941  1.5327
 3120SOL    HW220994   2.992   1.045   1.684  2.9649  0.5367 -0.9854
 3121SOL     OW20995   2.125   1.794  10.222  0.1736 -0.2811  0.4935
 3121SOL    HW120996   2.131   1.762  10.132 -2.5653  0.6161 -0.0144
 3121SOL    HW220997   2.147   1.886  10.208 -0.8382 -0.1659 -0.3477
 3122SOL     OW20998   0.549   2.609   3.398 -0.1019  0.8430 -0.3066
 3122SOL    HW120999   0.539   2.583   3.306 -1.0405  0.4545 -0.0897
 3122SOL    HW221000   0.630   2.564   3.424 -0.9242 -1.2209 -1.3839
 3123SOL     OW21001   2.738   1.643  10.610  0.0045 -0.1476 -0.0116
 3123SOL    HW121002   2.832   1.637  10.593  0.3398  2.3489  0.9441
 3123SOL    HW221003   2.726   1.568  10.669  2.9113 -1.0348 -0.5376
 3124SOL     OW21004   1.332   3.863   2.848 -0.2523  0.5589  0.2306
 3124SOL    HW121005   1.323   3.908   2.932  0.4426 -0.8890  1.0644
 3124SOL    HW221006   1.423   3.887   2.831  0.2638 -0.8038  1.0360
 3125SOL     OW21007   0.249   0.378   6.231  0.1151  0.1085  0.5336
 3125SOL    HW121008   0.207   0.381   6.317 -1.7426 -1.5305 -0.3225
 3125SOL    HW221009   0.298   0.297   6.240  2.2487  1.3499  0.1775
 3126SOL     OW21010   4.413   1.293  11.546 -0.3862 -0.6892  0.1046
 3126SOL    HW121011   4.384   1.203  11.531  1.1914 -1.2740  0.4958
 3126SOL    HW221012   4.368   1.307  11.629  0.7241 -0.6043  0.6981
 3127SOL     OW21013   4.522   0.652   9.452 -0.7029  0.3207  0.6390
 3127SOL    HW121014   4.547   0.560   9.441 -0.9768  0.1492  1.4249
 3127SOL    HW221015   4.548   0.683   9.366  0.2830  0.4833  0.9997
 3128SOL     OW21016   2.532   2.535   1.126 -0.1516 -0.1648  0.1019
 3128SOL    HW121017   2.462   2.499   1.072 -1.3884  2.1729  0.1151
 3128SOL    HW221018   2.478   2.579   1.192  0.7402  1.5672 -0.3182
 3129SOL     OW21019   1.920   1.346   3.976  0.4418  0.4094 -0.2380
 3129SOL    HW121020   1.913   1.434   4.012  2.2013  0.4622  0.0088
 3129SOL    HW221021   1.914   1.363   3.882 -3.1958 -1.7553 -0.3817
 3130SOL     OW21022   4.135   0.840  17.593  0.1587  0.0928  0.4658
 3130SOL    HW121023   4.145   0.753  17.631 -1.0013  0.0173  0.6029
 3130SOL    HW221024   4.146   0.819  17.500 -1.9563  1.4895 -0.1026
 3131SOL     OW21025   3.408   3.106   8.659  0.0475  0.0018  0.0710
 3131SOL    HW121026   3.386   3.091   8.750  0.1970  0.5192  0.1900
 3131SOL    HW221027   3.341   3.050   8.618  2.3592 -0.1751 -3.5381
 3132SOL     OW21028   2.813   0.794   8.141  0.2339 -0.1248  0.0800
 3132SOL    HW121029   2.869   0.831   8.209  0.3093 -0.7191  0.3479
 3132SOL    HW221030   2.752   0.865   8.126  1.1624  0.5349 -0.5638
 3133SOL     OW21031   1.099   1.694   3.976  0.2899  0.6535 -0.0978
 3133SOL    HW121032   1.100   1.641   3.896  0.8770 -0.4899  0.6683
 3133SOL    HW221033   1.125   1.631   4.043 -0.1801 -1.2501 -1.7171
 3134SOL     OW21034   1.545   1.810   7.411  0.2110  0.2368 -0.0935
 3134SOL    HW121035   1.522   1.837   7.500  0.4080  1.6978 -0.4929
 3134SOL    HW221036   1.567   1.719   7.432  0.8567  0.7045  1.3098
 3135SOL     OW21037   3.700   0.513   3.073 -1.0704  0.2922 -0.4541
 3135SOL    HW121038   3.617   0.552   3.101 -1.9719 -4.1198  3.0309
 3135SOL    HW221039   3.755   0.590   3.062 -1.0451  0.3637  0.1500
 3136SOL     OW21040   2.472   2.828   1.881  0.4554  0.4908  0.0119
 3136SOL    HW121041   2.387   2.799   1.847  2.4072 -2.2454 -2.4849
 3136SOL    HW221042   2.466   2.916   1.919  1.4876 -0.2334  1.8448
 3137SOL     OW21043   4.250   2.557   5.144 -0.1184  0.0612 -0.1946
 3137SOL    HW121044   4.192   2.568   5.219 -0.2602 -0.2008 -0.2626
 3137SOL    HW221045   4.282   2.467   5.153 -0.5874 -0.1163 -0.3164
 3138SOL     OW21046   0.486   1.494   3.232  0.0724  0.4226 -0.0066
 3138SOL    HW121047   0.466   1.454   3.148  2.4339 -0.5034 -0.1176
 3138SOL    HW221048   0.568   1.537   3.210  0.5657 -1.0828 -1.0744
 3139SOL     OW21049   1.211   2.182   8.511  0.4918 -0.1822  0.3630
 3139SOL    HW121050   1.217   2.200   8.417 -1.3244 -1.4791 -0.0097
 3139SOL    HW221051   1.201   2.087   8.514 -1.8820  0.0659  0.2803
 3140SOL     OW21052   3.267   0.606   7.531  0.3736 -0.1265 -0.4852
 3140SOL    HW121053   3.181   0.607   7.489  2.2642  1.5225 -4.3431
 3140SOL    HW221054   3.247   0.660   7.607 -1.0825  0.9121 -1.5930
 3141SOL     OW21055   4.611   2.925   4.216  0.4279 -0.1198  0.1298
 3141SOL    HW121056   4.542   2.872   4.177 -0.6992  1.1220  0.4460
 3141SOL    HW221057   4.632   2.978   4.140  1.1067 -1.9410 -0.9550
 3142SOL     OW21058   3.554   0.315   0.844 -0.7509  0.0563  0.3539
 3142SOL    HW121059   3.608   0.267   0.780  2.5131  1.3637  2.0989
 3142SOL    HW221060   3.618   0.326   0.914  1.3863 -0.6924 -1.4749
 3143SOL     OW21061   0.109   3.407  17.598  0.0194  0.3692  0.3127
 3143SOL    HW121062   0.199   3.441  17.595 -0.5028  1.6614 -0.6872
 3143SOL    HW221063   0.097   3.406  17.693 -1.7031  2.2932  0.1118
 3144SOL     OW21064   3.769   1.640   0.945  0.1473  0.1983 -0.3838
 3144SOL    HW121065   3.761   1.547   0.920  0.1234  0.5875 -1.8203
 3144SOL    HW221066   3.693   1.662   1.000  1.0390 -2.2808  1.8604
 3145SOL     OW21067   4.697   4.325   7.805 -0.5840 -0.6449  0.0039
 3145SOL    HW121068   4.681   4.395   7.868  1.4490  0.8454 -1.1215
 3145SOL    HW221069   4.684   4.377   7.725 -2.4634 -0.6074  0.3289
 3146SOL     OW21070   2.944   0.648   6.767  0.0309  0.1430  0.4449
 3146SOL    HW121071   2.899   0.671   6.685  1.4552 -0.8557 -0.6092
 3146SOL    HW221072   2.868   0.660   6.824 -0.5312 -0.7846 -0.0939
 3147SOL     OW21073   0.768   3.683   0.857 -0.0110  0.2633  0.2506
 3147SOL    HW121074   0.808   3.766   0.831 -3.0255  1.3724 -0.8485
 3147SOL    HW221075   0.838   3.618   0.860  1.5366  1.9651  0.5167
 3148SOL     OW21076   1.529   0.517   6.312  0.0533  0.5836  0.3095
 3148SOL    HW121077   1.566   0.603   6.331  0.0645  0.7789 -0.6334
 3148SOL    HW221078   1.456   0.544   6.257  0.0851 -0.2108 -0.1318
 3149SOL     OW21079   0.418   0.235  13.540  0.2081  0.0096  0.4690
 3149SOL    HW121080   0.466   0.315  13.563 -0.3700  0.8385 -1.1919
 3149SOL    HW221081   0.453   0.174  13.606 -2.6642 -0.6475  1.3752
 3150SOL     OW21082   1.914   0.501   6.029  0.7245  0.3126 -0.4758
 3150SOL    HW121083   1.959   0.450   5.962 -1.2602 -1.8995 -0.1266
 3150SOL    HW221084   1.915   0.442   6.105  2.5913 -0.2376 -0.9254
 3151SOL     OW21085   1.273   3.453   5.194 -0.9240 -0.2594 -0.7982
 3151SOL    HW121086   1.189   3.499   5.202 -1.5086 -1.7265  1.4704
 3151SOL    HW221087   1.262   3.371   5.243  2.1568 -0.8076 -1.0361
 3152SOL     OW21088   0.852   1.027   3.849 -0.0831  0.3038 -0.5134
 3152SOL    HW121089   0.777   1.037   3.908 -0.9825  2.9086 -2.1340
 3152SOL    HW221090   0.908   1.101   3.871  0.3199 -0.7090  1.8921
 3153SOL     OW21091   0.680   3.745   6.254  0.2543 -0.2135  0.2810
 3153SOL    HW121092   0.653   3.773   6.342 -0.5250 -3.5738  1.1165
 3153SOL    HW221093   0.772   3.761   6.276  0.1602  0.8342 -0.0812
 3154SOL     OW21094   2.948   3.974   0.719 -0.0003 -0.3552 -0.1694
 3154SOL    HW121095   2.919   3.900   0.773 -1.0495  1.2869  1.4895
 3154SOL    HW221096   2.973   4.043   0.781  1.2313 -0.4985 -0.5040
 3155SOL     OW21097   3.273   0.740   2.496 -0.1362 -0.0084  0.0344
 3155SOL    HW121098   3.240   0.740   2.405  0.4006 -2.0809 -0.1658
 3155SOL    HW221099   3.217   0.806   2.535  0.1666  0.5495 -0.4796
 3156SOL     OW21100   2.478   4.403   4.768  0.3047 -0.0896 -0.1443
 3156SOL    HW121101   2.412   4.459   4.727 -0.1405 -2.1321 -2.1471
 3156SOL    HW221102   2.464   4.410   4.863  2.0984 -0.6197  0.1584
 3157SOL     OW21103   0.122   2.464  14.774  0.0083 -0.4003 -0.1349
 3157SOL    HW121104   0.144   2.527  14.842 -1.8179 -0.7969  0.8197
 3157SOL    HW221105   0.039   2.500  14.744  1.4107  2.0574 -1.0851
 3158SOL     OW21106   0.519   0.932   3.947 -0.0282 -0.5020 -0.5493
 3158SOL    HW121107   0.570   0.976   4.015 -1.9036  0.4203  0.2896
 3158SOL    HW221108   0.561   0.847   3.962 -0.6537 -0.5743  0.7766
 3159SOL     OW21109   4.516   1.825   7.651  0.1539 -0.6450 -0.0297
 3159SOL    HW121110   4.573   1.837   7.575 -0.7663 -0.4591 -0.7042
 3159SOL    HW221111   4.438   1.791   7.607 -1.1681  1.6578  0.5384
 3160SOL     OW21112   0.823   0.629   5.208  0.5767 -0.0768  0.1600
 3160SOL    HW121113   0.823   0.635   5.112  0.1865  0.1861  0.1732
 3160SOL    HW221114   0.788   0.540   5.217  0.1450  0.0367 -0.3705
 3161SOL     OW21115   3.134   0.887   6.509  0.2676  0.5574  0.4933
 3161SOL    HW121116   3.061   0.835   6.476 -1.7590  2.6364  1.6710
 3161SOL    HW221117   3.120   0.963   6.451  2.9869  2.3598  2.2167
 3162SOL     OW21118   3.172   2.748   7.041  0.1228 -0.2594  0.1811
 3162SOL    HW121119   3.101   2.774   6.982  0.7709 -2.2240 -1.4726
 3162SOL    HW221120   3.142   2.685   7.107  1.9621 -1.9048 -0.5576
 3163SOL     OW21121   3.022   3.920  11.218  0.4704 -0.0220  0.1670
 3163SOL    HW121122   3.006   3.850  11.155 -0.5581  0.0773  0.3308
 3163SOL    HW221123   3.035   3.875  11.301  2.9718 -0.4855 -0.4650
 3164SOL     OW21124   4.666   1.864  17.163 -0.3620  0.0158 -0.6624
 3164SOL    HW121125   0.003   1.849  17.110  1.3146 -0.1818  1.8381
 3164SOL    HW221126   4.627   1.777  17.173 -0.1751 -0.0913 -0.8679
 3165SOL     OW21127   3.148   2.621   7.486 -0.3027 -0.1888  0.0530
 3165SOL    HW121128   3.110   2.698   7.444  0.9228 -0.5630 -1.7327
 3165SOL    HW221129   3.232   2.628   7.441 -0.1828 -1.3317  0.0894
 3166SOL     OW21130   0.627   2.086   2.477 -0.4791  0.1044 -0.4103
 3166SOL    HW121131   0.696   2.062   2.415  1.3463  2.3430  0.7532
 3166SOL    HW221132   0.613   2.178   2.457 -4.8354 -1.1783 -3.1001
 3167SOL     OW21133   3.215   1.588   2.721 -0.5167  0.0406 -0.1984
 3167SOL    HW121134   3.143   1.538   2.682 -1.4875  0.3199  1.2426
 3167SOL    HW221135   3.235   1.634   2.639 -0.6801  1.9622  0.8536
 3168SOL     OW21136   0.128   2.635   3.674 -0.4045  0.1296 -0.2520
 3168SOL    HW121137   0.127   2.630   3.579 -1.4780 -2.2726 -0.0983
 3168SOL    HW221138   0.217   2.671   3.680 -0.6730  0.9904 -1.5194
 3169SOL     OW21139   4.673   0.674  16.696  0.6542 -0.8321  0.6926
 3169SOL    HW121140   4.600   0.721  16.736  0.3422 -1.7280  1.1866
 3169SOL    HW221141   4.659   0.582  16.717  0.8852 -1.0529 -0.1314
 3170SOL     OW21142   0.678   1.789   7.195  0.0297 -0.0388  0.3979
 3170SOL    HW121143   0.600   1.760   7.242  0.5560 -3.5346 -0.9078
 3170SOL    HW221144   0.692   1.876   7.232 -1.6845 -0.0986  1.1763
 3171SOL     OW21145   4.189   4.606   0.099 -0.0262 -0.1711 -0.9623
 3171SOL    HW121146   4.280   4.584   0.076  0.1805 -1.2777  0.8342
 3171SOL    HW221147   4.174   4.685   0.049 -1.4816  0.2708  0.1731
 3172SOL     OW21148   1.580   2.943   6.318  0.7848  0.0346  0.4739
 3172SOL    HW121149   1.535   2.915   6.398  0.2570 -0.7466 -0.0847
 3172SOL    HW221150   1.512   2.922   6.254  0.2134  2.3616  0.3330
 3173SOL     OW21151   3.700   4.499  14.184 -0.0562 -0.2112 -0.1943
 3173SOL    HW121152   3.640   4.559  14.229 -0.8414 -0.6356 -0.6695
 3173SOL    HW221153   3.755   4.554  14.128  0.8381 -0.3254  0.5698
 3174SOL     OW21154   0.877   2.320  11.391 -0.0537 -0.0569 -0.2075
 3174SOL    HW121155   0.951   2.284  11.440 -0.0786  0.3290  0.1136
 3174SOL    HW221156   0.913   2.400  11.351 -1.6154  0.3070 -0.8939
 3175SOL     OW21157   2.530   1.871   7.295  0.3308 -0.1836 -0.5343
 3175SOL    HW121158   2.457   1.897   7.353  0.3967 -0.6444 -0.2469
 3175SOL    HW221159   2.571   1.950   7.260  0.2420  0.1763  0.1673
 3176SOL     OW21160   2.766   4.128   1.711  0.2480  0.0067  0.6211
 3176SOL    HW121161   2.856   4.102   1.732 -0.2890 -1.5319  1.0974
 3176SOL    HW221162   2.781   4.222   1.704  1.8783 -0.2749  0.4788
 3177SOL     OW21163   1.171   2.573  14.817  0.0129 -0.9649  0.1323
 3177SOL    HW121164   1.251   2.529  14.846  0.9110 -0.5180 -1.6426
 3177SOL    HW221165   1.118   2.565  14.896  0.3623  0.0896  0.4798
 3178SOL     OW21166   3.826   3.594   3.654 -1.0378  0.1573  0.3335
 3178SOL    HW121167   3.840   3.578   3.561 -0.9840 -0.3679  0.4309
 3178SOL    HW221168   3.740   3.554   3.661  0.1353 -2.7894 -2.0566
 3179SOL     OW21169   4.296   1.681  12.015  0.1395 -0.2397  0.2576
 3179SOL    HW121170   4.231   1.612  12.026  0.8250 -0.5389  2.3720
 3179SOL    HW221171   4.241   1.755  11.989 -0.4050 -0.5164  0.6023
 3180SOL     OW21172   4.723   2.462   3.231  0.2684  0.3769 -0.4472
 3180SOL    HW121173   4.657   2.397   3.252  0.7098 -0.7858 -2.5977
 3180SOL    HW221174   4.694   2.488   3.143 -1.0403 -0.8067 -0.3558
 3181SOL     OW21175   1.274   4.449   0.147 -0.1254  0.0943  0.0923
 3181SOL    HW121176   1.251   4.360   0.171  0.3938  0.3442  1.5045
 3181SOL    HW221177   1.196   4.464   0.092  0.6057  0.6579 -0.7925
 3182SOL     OW21178   0.215   4.016   2.130 -0.3754  0.4859 -0.6568
 3182SOL    HW121179   0.246   4.020   2.040  0.2798 -1.4620 -0.5198
 3182SOL    HW221180   0.132   4.063   2.126 -0.2890  0.5963 -1.0712
 3183SOL     OW21181   3.085   0.756   8.932 -0.1041  0.3530  0.9555
 3183SOL    HW121182   3.077   0.834   8.877  0.1114  1.7037  2.8315
 3183SOL    HW221183   2.991   0.746   8.945 -0.3289 -2.5902 -3.0565
 3184SOL     OW21184   2.881   2.170   5.401  0.0226 -0.1073  0.2128
 3184SOL    HW121185   2.886   2.122   5.484  2.1577 -0.9801 -0.4201
 3184SOL    HW221186   2.799   2.137   5.362  0.4107 -1.5271  0.5780
 3185SOL     OW21187   2.106   2.376  15.348  0.3025 -0.0511  0.2692
 3185SOL    HW121188   2.031   2.433  15.331  1.3187  1.0609 -0.4295
 3185SOL    HW221189   2.100   2.325  15.267 -0.6745 -2.7338  2.0368
 3186SOL     OW21190   0.067   1.052  16.591  0.4071 -0.2926  0.2458
 3186SOL    HW121191   4.737   0.989  16.573 -0.8133  1.5712 -1.4306
 3186SOL    HW221192   0.015   1.131  16.581  0.6968 -0.0228  0.9330
 3187SOL     OW21193   4.724   3.327  10.543 -0.3741  0.1895 -0.1668
 3187SOL    HW121194   0.024   3.246  10.513 -0.6078 -1.0910  3.0027
 3187SOL    HW221195   4.681   3.351  10.461 -0.5605  1.5138  0.3043
 3188SOL     OW21196   1.709   0.336   0.922  0.0741  0.4775 -0.4233
 3188SOL    HW121197   1.772   0.398   0.884  0.0186  0.2404 -0.9114
 3188SOL    HW221198   1.698   0.370   1.011 -0.2012  2.1499 -1.0779
 3189SOL     OW21199   2.407   4.379   8.794 -0.7508  0.1689 -0.0139
 3189SOL    HW121200   2.447   4.416   8.873 -2.5888 -1.5093  1.6688
 3189SOL    HW221201   2.322   4.352   8.828 -0.3549 -1.4914 -0.3703
 3190SOL     OW21202   4.680   1.568   3.626 -0.0056  0.1489 -0.1663
 3190SOL    HW121203   4.655   1.613   3.546  1.3886 -1.3345 -1.4566
 3190SOL    HW221204   0.035   1.570   3.621 -0.0772  2.6067 -0.4737
 3191SOL     OW21205   3.228   4.047   2.185  0.6398  0.0233 -0.4504
 3191SOL    HW121206   3.188   3.969   2.223 -1.4899  1.9613  1.2698
 3191SOL    HW221207   3.197   4.044   2.094 -3.3277 -0.5021  0.9518
 3192SOL     OW21208   2.126   2.671   4.102 -0.1114  0.1688 -0.3067
 3192SOL    HW121209   2.068   2.655   4.027  0.5406 -0.4475 -0.6836
 3192SOL    HW221210   2.070   2.649   4.176  0.2181 -3.0846 -1.0200
 3193SOL     OW21211   2.767   2.493   3.262  0.4461  0.3758  0.3523
 3193SOL    HW121212   2.834   2.557   3.285  1.4722 -0.1524 -1.1644
 3193SOL    HW221213   2.806   2.410   3.290  1.4555  1.5385  2.3886
 3194SOL     OW21214   1.282   3.378   7.657 -0.8517  0.6203 -0.3740
 3194SOL    HW121215   1.249   3.459   7.618  1.8961  3.4167  3.2029
 3194SOL    HW221216   1.276   3.318   7.582 -2.1679 -0.5816  0.6884
 3195SOL     OW21217   1.507   4.478   1.611 -0.0243  0.9983  0.0610
 3195SOL    HW121218   1.521   4.491   1.517 -2.4079  3.1972  0.0205
 3195SOL    HW221219   1.415   4.455   1.617 -0.2370  1.5643 -1.0113
 3196SOL     OW21220   4.523   1.907   6.619 -0.0486  0.4181  0.0795
 3196SOL    HW121221   4.600   1.936   6.668  0.3258 -1.5557  0.6716
 3196SOL    HW221222   4.555   1.900   6.529 -2.1528  0.4413 -0.6711
 3197SOL     OW21223   3.627   2.914   3.754  0.0868 -0.0099 -0.4724
 3197SOL    HW121224   3.672   2.998   3.752 -0.2870  0.2080  0.3076
 3197SOL    HW221225   3.650   2.884   3.842 -3.3718 -1.1029  0.0711
 3198SOL     OW21226   3.168   0.041  12.016 -0.1087  0.0205  0.3840
 3198SOL    HW121227   3.218   4.738  11.947  0.6820 -1.2370  1.7644
 3198SOL    HW221228   3.237   0.084  12.067 -0.3083 -2.2178  2.5093
 3199SOL     OW21229   0.470   1.521  17.627  0.3415 -0.2144  0.7050
 3199SOL    HW121230   0.483   1.597  17.570  0.5126 -2.3118 -1.9942
 3199SOL    HW221231   0.546   1.530  17.685  0.1823  0.2936  0.8387
 3200SOL     OW21232   1.665   1.312   5.711  0.6677 -0.0574  0.3865
 3200SOL    HW121233   1.710   1.232   5.684  0.4620 -1.2455  3.5703
 3200SOL    HW221234   1.618   1.333   5.629 -1.2256  2.0094  2.0025
 3201SOL     OW21235   3.828   1.270   6.026 -0.5140 -0.1831 -0.1416
 3201SOL    HW121236   3.802   1.178   6.021  2.1524 -0.9256 -0.4919
 3201SOL    HW221237   3.772   1.305   5.957 -2.5538 -1.6235  0.7783
 3202SOL     OW21238   1.749   4.732   3.240  0.0353 -0.1495 -0.2242
 3202SOL    HW121239   1.778   0.059   3.302 -1.3949 -0.4954  0.8108
 3202SOL    HW221240   1.814   4.663   3.256 -0.5259 -0.4974  0.5462
 3203SOL     OW21241   2.434   3.783   3.155 -0.6926 -0.2085  0.1005
 3203SOL    HW121242   2.353   3.833   3.150 -1.0699 -1.1565 -3.3774
 3203SOL    HW221243   2.484   3.831   3.221  0.2305 -2.7437  1.2407
 3204SOL     OW21244   0.735   1.407   4.482  0.3526  0.0734  0.1086
 3204SOL    HW121245   0.707   1.494   4.455  0.2221  0.0338  0.1181
 3204SOL    HW221246   0.824   1.433   4.505  0.5539  1.4667 -2.2427
 3205SOL     OW21247   4.027   2.969   0.274 -0.0550  0.6509 -0.4048
 3205SOL    HW121248   4.059   3.049   0.316 -3.2035  2.3556 -1.2686
 3205SOL    HW221249   4.073   2.968   0.191  0.3537  0.4460 -0.1780
 3206SOL     OW21250   3.444   1.038   6.761 -0.4497 -0.2727  0.2859
 3206SOL    HW121251   3.482   0.994   6.837  1.4396 -0.3480 -0.7172
 3206SOL    HW221252   3.521   1.039   6.704  1.1140 -2.0333  2.3613
 3207SOL     OW21253   2.010   3.395  17.395  0.2262  0.2401  0.4112
 3207SOL    HW121254   2.083   3.375  17.336 -0.4796  2.5686 -1.2154
 3207SOL    HW221255   2.007   3.325  17.461  0.0128 -0.6484 -0.5326
 3208SOL     OW21256   3.773   0.191   8.728 -0.4658 -0.0000  0.0910
 3208SOL    HW121257   3.680   0.198   8.706 -0.0097  1.7451 -1.1891
 3208SOL    HW221258   3.794   0.284   8.730  1.3817 -0.4177  0.5094
 3209SOL     OW21259   0.743   1.598   3.268 -0.5111 -0.2909 -0.0514
 3209SOL    HW121260   0.705   1.668   3.322 -0.6649 -0.1214 -0.3804
 3209SOL    HW221261   0.837   1.615   3.259 -0.5175  0.0541  0.4844
 3210SOL     OW21262   2.125   2.594   1.175  0.5951  0.6517 -0.1741
 3210SOL    HW121263   2.160   2.513   1.138 -0.7779 -0.9951  2.1232
 3210SOL    HW221264   2.103   2.638   1.093 -0.3949  3.6458  1.7013
 3211SOL     OW21265   4.158   0.055   7.614  0.1737 -0.6744  0.4770
 3211SOL    HW121266   4.153   0.013   7.529  0.9307 -0.7832  0.4905
 3211SOL    HW221267   4.148   4.718   7.670  1.3411  0.0109  1.6265
 3212SOL     OW21268   4.430   2.515  10.861 -0.5387 -0.4630  0.0550
 3212SOL    HW121269   4.482   2.496  10.784 -0.5597 -1.0022  0.1762
 3212SOL    HW221270   4.430   2.425  10.892  1.7070 -0.1114  1.1157
 3213SOL     OW21271   2.203   2.827   2.661 -0.2136 -0.1767  0.4178
 3213SOL    HW121272   2.181   2.753   2.717  3.1767 -1.9288 -0.5557
 3213SOL    HW221273   2.221   2.891   2.730  0.4074 -0.8278  0.8613
 3214SOL     OW21274   4.321   3.377   8.854 -0.1017 -0.0803 -0.2695
 3214SOL    HW121275   4.333   3.374   8.949  0.9308 -0.7066 -0.4149
 3214SOL    HW221276   4.377   3.307   8.819  0.2160 -0.4920  1.0631
 3215SOL     OW21277   0.366   4.056   8.594  0.4855 -0.1396 -0.0652
 3215SOL    HW121278   0.345   4.101   8.676  0.7339  0.4926 -0.3552
 3215SOL    HW221279   0.413   3.979   8.628 -2.1079 -0.9235  1.7794
 3216SOL     OW21280   4.604   1.523   7.613  0.0488  0.3190 -0.7897
 3216SOL    HW121281   4.682   1.572   7.639 -0.5811  0.9768 -0.1633
 3216SOL    HW221282   4.543   1.570   7.670 -1.4594 -0.1128 -2.0412
 3217SOL     OW21283   2.237   3.921   1.814 -0.3986 -0.2087  0.5229
 3217SOL    HW121284   2.152   3.918   1.857  0.7154  0.7783  2.7654
 3217SOL    HW221285   2.243   4.017   1.813 -2.0956 -0.1053 -1.0144
 3218SOL     OW21286   1.535   2.126   8.641 -0.0696 -0.0968 -0.2292
 3218SOL    HW121287   1.584   2.125   8.723 -0.6637 -1.6904  0.1177
 3218SOL    HW221288   1.473   2.055   8.659  1.3351 -1.2870 -0.0461
 3219SOL     OW21289   0.160   2.458   5.344 -0.5989 -0.4250 -0.2063
 3219SOL    HW121290   0.150   2.388   5.408 -1.4468 -1.5407 -1.5704
 3219SOL    HW221291   0.087   2.444   5.284 -0.2801  0.6223 -0.8515
 3220SOL     OW21292   0.135   4.267   8.073 -0.3406 -0.2215 -0.3044
 3220SOL    HW121293   0.105   4.358   8.075  0.0251 -0.1421  1.6653
 3220SOL    HW221294   0.092   4.245   8.156 -1.3897 -0.8078 -0.9953
 3221SOL     OW21295   2.951   0.940   7.474  0.0730  0.5780  0.3054
 3221SOL    HW121296   3.042   0.940   7.446 -0.6379 -0.2137 -1.9949
 3221SOL    HW221297   2.909   0.936   7.387  1.5654  0.3032 -0.4020
 3222SOL     OW21298   2.749   0.796   4.529  0.5746 -0.5200 -0.0056
 3222SOL    HW121299   2.748   0.725   4.465  3.2141 -0.5720  0.0151
 3222SOL    HW221300   2.772   0.755   4.613 -0.1860 -0.4552  0.2355
 3223SOL     OW21301   2.009   2.030   5.329 -0.3578 -0.1186  0.3980
 3223SOL    HW121302   1.988   2.035   5.422 -1.0718 -2.8740  0.3771
 3223SOL    HW221303   1.980   1.940   5.313  1.6016 -0.4568 -1.2246
 3224SOL     OW21304   4.472   3.671  17.151 -0.2390  0.4288  0.4856
 3224SOL    HW121305   4.463   3.599  17.089 -0.8252  2.3468 -1.6733
 3224SOL    HW221306   4.380   3.678  17.178 -0.7080 -0.9750 -0.7053
 3225SOL     OW21307   0.611   2.105   1.377 -0.1870  0.0442 -0.2726
 3225SOL    HW121308   0.548   2.108   1.450  1.4154  1.4766  1.0422
 3225SOL    HW221309   0.634   2.198   1.369 -0.0634 -0.0766 -1.3186
 3226SOL     OW21310   4.535   0.380   7.430  0.3704 -0.3795  0.4796
 3226SOL    HW121311   4.475   0.329   7.484 -1.5331  1.5518  0.2069
 3226SOL    HW221312   4.600   0.314   7.405 -2.1159 -1.5659 -2.9132
 3227SOL     OW21313   2.248   0.489   4.959  0.2827 -0.1051 -0.1064
 3227SOL    HW121314   2.293   0.470   5.041 -0.2174 -0.0608  0.1777
 3227SOL    HW221315   2.270   0.415   4.903 -0.3291 -1.0244  0.8564
 3228SOL     OW21316   3.456   0.351   7.149 -0.4821  0.0950 -0.1569
 3228SOL    HW121317   3.419   0.389   7.229  1.5831  0.9540  0.4183
 3228SOL    HW221318   3.550   0.369   7.159 -0.3924  0.0597 -0.9209
 3229SOL     OW21319   2.808   0.883   5.726  0.3366 -0.3152  0.2055
 3229SOL    HW121320   2.825   0.819   5.657 -1.2484  0.2532 -0.7290
 3229SOL    HW221321   2.812   0.960   5.669 -0.7480 -0.2895  0.1680
 3230SOL     OW21322   0.032   4.424   9.223 -0.2088  0.4544 -0.0037
 3230SOL    HW121323   0.054   4.355   9.160 -0.5040  0.8669 -0.5475
 3230SOL    HW221324   0.116   4.471   9.231  0.4984 -0.9903  1.2316
 3231SOL     OW21325   1.820   4.101   7.989  0.6581 -0.3184  0.0721
 3231SOL    HW121326   1.834   4.163   7.917 -0.0145 -1.7830 -1.3232
 3231SOL    HW221327   1.892   4.121   8.048  1.1450 -1.8908  0.0065
 3232SOL     OW21328   0.560   0.345   9.442 -0.2251  0.4613 -0.2715
 3232SOL    HW121329   0.537   0.426   9.487  0.0258 -0.0346  0.7439
 3232SOL    HW221330   0.492   0.288   9.478  1.8370 -1.3437  0.7586
 3233SOL     OW21331   2.446   0.092   0.696  0.1544  0.1445  0.5934
 3233SOL    HW121332   2.401   0.051   0.622  0.0672  1.7048 -0.2331
 3233SOL    HW221333   2.401   0.177   0.704 -2.0403 -1.1636  2.0490
 3234SOL     OW21334   4.087   1.488   9.846 -0.4635 -0.2060 -0.2835
 3234SOL    HW121335   4.079   1.399   9.812  1.5501 -0.7513  0.6815
 3234SOL    HW221336   4.068   1.479   9.940  0.1567 -2.8894 -0.4182
 3235SOL     OW21337   1.704   3.846  13.883  0.4056  0.1135  0.5799
 3235SOL    HW121338   1.612   3.872  13.883  0.2829 -0.3218 -1.3129
 3235SOL    HW221339   1.706   3.783  13.955 -1.4526 -1.8997 -1.1436
 3236SOL     OW21340   4.616   1.532   4.353  0.0146 -0.3473  0.2747
 3236SOL    HW121341   4.573   1.495   4.276 -1.3301 -1.0272  1.3733
 3236SOL    HW221342   4.620   1.459   4.414 -0.7017 -2.3457 -2.0380
 3237SOL     OW21343   4.017   3.813   7.874 -0.5088  0.8628 -1.2631
 3237SOL    HW121344   4.006   3.902   7.840  0.5937  1.1955 -0.7197
 3237SOL    HW221345   3.988   3.816   7.965  0.3480  0.4542 -0.9825
 3238SOL     OW21346   1.690   4.532   6.671  0.3560 -0.5439  0.5406
 3238SOL    HW121347   1.779   4.498   6.677  0.9103  1.2394  2.1440
 3238SOL    HW221348   1.684   4.540   6.575  3.5939  2.5762  0.6385
 3239SOL     OW21349   2.371   0.438   2.482 -0.8739 -0.2997  0.1960
 3239SOL    HW121350   2.341   0.489   2.407 -0.7427 -1.0297 -0.3600
 3239SOL    HW221351   2.426   0.495   2.536  0.3203 -1.5449  0.3143
 3240SOL     OW21352   1.608   0.239  11.900  0.4131 -0.1420  0.4559
 3240SOL    HW121353   1.687   0.247  11.848  0.7599 -0.7815  0.8805
 3240SOL    HW221354   1.633   0.167  11.958  2.0563 -0.9418 -1.2491
 3241SOL     OW21355   0.616   0.454   4.665 -0.1885 -0.5264  0.3104
 3241SOL    HW121356   0.576   0.540   4.672 -0.2018 -0.7579  3.0311
 3241SOL    HW221357   0.699   0.478   4.624  0.6356 -0.0854  2.2325
 3242SOL     OW21358   3.575   3.600   0.550  0.1737 -0.2541 -0.0921
 3242SOL    HW121359   3.641   3.538   0.580  2.0269  1.5176 -0.5246
 3242SOL    HW221360   3.536   3.561   0.472  1.1014 -0.1598 -0.5967
 3243SOL     OW21361   2.661   0.075   8.665  0.7654  0.4658  0.0027
 3243SOL    HW121362   2.726   0.021   8.710  0.3050 -0.2659 -0.2139
 3243SOL    HW221363   2.628   4.735   8.625  1.5580 -0.0996  0.4679
 3244SOL     OW21364   2.208   2.634   5.861  0.0754  0.1222  0.1814
 3244SOL    HW121365   2.186   2.575   5.788 -2.0946  0.7103  0.3514
 3244SOL    HW221366   2.154   2.708   5.834  0.4527 -0.2470 -1.6189
 3245SOL     OW21367   3.697   0.021   4.548  0.3789 -0.3054  0.5576
 3245SOL    HW121368   3.734   4.723   4.468 -1.2953 -0.9754  0.1135
 3245SOL    HW221369   3.761   0.089   4.571  0.9421 -1.0292  1.1201
 3246SOL     OW21370   3.212   0.142  12.670  0.3103  0.3187 -0.0537
 3246SOL    HW121371   3.227   0.098  12.754 -3.7866 -0.2373  0.3936
 3246SOL    HW221372   3.151   0.214  12.687  0.9680  0.8662 -0.0013
 3247SOL     OW21373   0.067   1.780   7.239 -0.0487 -0.3619  0.1574
 3247SOL    HW121374   0.070   1.876   7.246 -0.4954 -0.1987 -1.6453
 3247SOL    HW221375   0.141   1.755   7.184 -0.2033 -0.1264 -0.1590
 3248SOL     OW21376   0.871   3.879   0.158  0.2061  0.6736  1.1072
 3248SOL    HW121377   0.899   3.928   0.081 -2.5385  1.3760  0.5825
 3248SOL    HW221378   0.958   3.841   0.170 -1.0025 -2.4609 -0.2860
 3249SOL     OW21379   2.391   4.173  16.101 -0.8010  0.1571  0.2056
 3249SOL    HW121380   2.402   4.184  16.007  2.1950  1.4983  0.7195
 3249SOL    HW221381   2.483   4.183  16.127 -0.5925  1.3317 -1.0127
 3250SOL     OW21382   2.565   4.332  13.751  0.2699  0.2915  1.0322
 3250SOL    HW121383   2.632   4.306  13.814  0.0169  0.1683  1.2538
 3250SOL    HW221384   2.606   4.406  13.707  0.8368 -0.0387  1.0151
 3251SOL     OW21385   3.067   2.851   2.370  0.2439 -0.0090 -0.0240
 3251SOL    HW121386   2.981   2.819   2.397 -0.0040  1.4334  0.8935
 3251SOL    HW221387   3.056   2.940   2.403 -1.8227 -0.2656 -0.0125
 3252SOL     OW21388   1.532   3.322   9.049  0.4482 -0.2481 -0.0669
 3252SOL    HW121389   1.625   3.331   9.028  0.8689  1.3613  2.4913
 3252SOL    HW221390   1.501   3.327   8.958  2.8181 -1.0835 -0.9320
 3253SOL     OW21391   1.356   0.039  13.864  0.5398  0.1181  0.4350
 3253SOL    HW121392   1.310   4.696  13.872 -0.3093  0.6412  1.1247
 3253SOL    HW221393   1.428   0.025  13.925  2.2040 -1.0900 -1.8284
 3254SOL     OW21394   4.579   3.374   3.989  0.5592  0.2822 -0.5548
 3254SOL    HW121395   4.518   3.426   3.938  0.7659  1.3884  0.3143
 3254SOL    HW221396   4.566   3.402   4.080  0.5936  0.5863 -0.6430
 3255SOL     OW21397   1.425   4.519   2.804 -0.7694  0.1087 -0.1219
 3255SOL    HW121398   1.477   4.597   2.785 -0.5874  0.2702  1.0800
 3255SOL    HW221399   1.357   4.529   2.737 -0.2116  1.2585 -0.5244
 3256SOL     OW21400   0.810   1.125   9.395  0.1907 -0.2631  0.4173
 3256SOL    HW121401   0.756   1.070   9.339  1.3485 -1.3533  0.3837
 3256SOL    HW221402   0.761   1.207   9.390  1.8783  0.7023 -0.4575
 3257SOL     OW21403   4.244   2.103  12.864 -0.0172  0.1427 -0.0329
 3257SOL    HW121404   4.316   2.105  12.928  1.7032 -0.4361 -1.9325
 3257SOL    HW221405   4.181   2.138  12.926  0.9950 -0.1955  1.1882
 3258SOL     OW21406   4.199   2.179   1.904  0.2856  0.3881  0.3789
 3258SOL    HW121407   4.164   2.266   1.885  1.4071  0.7145 -0.2284
 3258SOL    HW221408   4.245   2.158   1.823 -0.5379  3.1879 -0.8242
 3259SOL     OW21409   1.572   0.302   1.369 -0.4134 -0.2961  0.0095
 3259SOL    HW121410   1.561   0.207   1.378 -1.1847 -0.3481 -1.4401
 3259SOL    HW221411   1.502   0.335   1.425 -0.6351  0.5593 -0.7731
 3260SOL     OW21412   1.872   1.460   2.203 -0.0468 -0.0313  0.1286
 3260SOL    HW121413   1.913   1.546   2.213 -1.0572  0.5004 -0.2922
 3260SOL    HW221414   1.888   1.444   2.110  0.4909 -1.3031  0.4454
 3261SOL     OW21415   1.245   1.689   1.413  0.3576  0.4486 -0.5528
 3261SOL    HW121416   1.190   1.767   1.409  1.2338  1.1689  1.1372
 3261SOL    HW221417   1.241   1.651   1.325  1.3276  0.2578 -0.5179
 3262SOL     OW21418   4.145   0.866   2.409  0.4742  0.1929  0.3641
 3262SOL    HW121419   4.139   0.778   2.447 -0.8613 -0.1991 -0.7346
 3262SOL    HW221420   4.085   0.869   2.334  1.1718  0.7450 -0.1768
 3263SOL     OW21421   1.043   4.386  16.748 -0.0314 -0.0341 -0.3939
 3263SOL    HW121422   1.075   4.349  16.666  1.0387  2.2878 -1.0170
 3263SOL    HW221423   1.054   4.313  16.810  2.6584  2.3794  1.9534
 3264SOL     OW21424   2.650   2.147  11.596 -0.6038 -0.3952  0.2480
 3264SOL    HW121425   2.587   2.101  11.650 -3.0281  2.0758 -0.5095
 3264SOL    HW221426   2.717   2.079  11.583 -0.0812  0.2286 -0.3552
 3265SOL     OW21427   1.641   2.683   4.882  0.0061 -0.2252  0.4946
 3265SOL    HW121428   1.706   2.742   4.920 -1.0713  0.5503  1.1441
 3265SOL    HW221429   1.622   2.624   4.955 -1.1833 -0.4183  0.0401
 3266SOL     OW21430   1.578   0.196   6.638  0.1917  0.3278 -0.1541
 3266SOL    HW121431   1.517   0.169   6.569 -0.2010  1.7773 -0.3575
 3266SOL    HW221432   1.557   0.139   6.712  2.6243  0.5489  0.7237
 3267SOL     OW21433   3.174   2.604   8.757  0.3906 -0.1928 -0.2366
 3267SOL    HW121434   3.168   2.542   8.684  2.5271 -0.0103 -0.5557
 3267SOL    HW221435   3.215   2.543   8.819 -1.9231  0.7041  2.1430
 3268SOL     OW21436   2.592   0.095   4.981  0.1329 -0.4954 -0.0352
 3268SOL    HW121437   2.497   0.087   4.988  0.0162  0.1236 -0.9810
 3268SOL    HW221438   2.606   0.149   5.059 -4.0884  1.3329 -0.5332
 3269SOL     OW21439   2.671   2.418   4.959  0.3825  0.6607 -0.3582
 3269SOL    HW121440   2.660   2.490   4.897  0.7295 -1.1659 -2.5452
 3269SOL    HW221441   2.738   2.451   5.019  1.5651 -1.5560 -0.4560
 3270SOL     OW21442   4.166   1.093   4.661  0.1082  0.6715  0.3973
 3270SOL    HW121443   4.252   1.091   4.702  1.2217  1.2225 -1.8767
 3270SOL    HW221444   4.123   1.022   4.709  0.6335 -0.6371 -1.0333
 3271SOL     OW21445   0.776   3.008   8.806  0.2975  0.0365  0.3844
 3271SOL    HW121446   0.720   3.049   8.872  0.5115  2.7759 -1.1705
 3271SOL    HW221447   0.736   3.035   8.723 -0.8918 -1.0678  0.6037
 3272SOL     OW21448   4.443   0.981  15.235 -0.2581 -0.3330 -0.2367
 3272SOL    HW121449   4.502   0.982  15.160 -0.3354  0.2922 -0.2882
 3272SOL    HW221450   4.440   1.071  15.268  1.6825 -0.3304 -0.0532
 3273SOL     OW21451   0.066   0.806   9.513 -0.4543 -0.7622  0.1974
 3273SOL    HW121452   4.738   0.786   9.449 -1.2689 -0.4591  0.9782
 3273SOL    HW221453   0.081   0.897   9.486  0.7686 -0.9679  0.2179
 3274SOL     OW21454   2.072   0.451  11.872  0.3415 -0.4577  0.3267
 3274SOL    HW121455   1.984   0.442  11.836  0.9959 -1.8275 -0.9015
 3274SOL    HW221456   2.067   0.425  11.964 -0.7695 -0.6184  0.2128
 3275SOL     OW21457   0.115   3.666  15.069  0.4392 -0.1705  0.0929
 3275SOL    HW121458   0.033   3.657  15.117  0.5875 -1.3874  0.1231
 3275SOL    HW221459   0.076   3.631  14.988  1.3198 -1.1804  0.1127
 3276SOL     OW21460   2.596   0.385  15.004 -0.2124 -0.6122 -0.5966
 3276SOL    HW121461   2.589   0.290  15.010  0.7515 -0.6889 -0.6571
 3276SOL    HW221462   2.535   0.411  15.072  0.6764  1.0996 -0.4501
 3277SOL     OW21463   3.574   4.485   5.521 -0.3870  0.1057 -0.6752
 3277SOL    HW121464   3.661   4.522   5.535 -1.5079  2.3069  0.4283
 3277SOL    HW221465   3.601   4.396   5.497  1.3213 -0.1747  2.2244
 3278SOL     OW21466   0.283   1.362  10.968 -0.0578  0.0112  0.2467
 3278SOL    HW121467   0.252   1.340  11.055  1.5315 -1.7843  0.3455
 3278SOL    HW221468   0.216   1.334  10.905  1.5679 -3.1608 -0.0459
 3279SOL     OW21469   2.869   1.800  14.863 -0.0163 -0.7878 -0.2545
 3279SOL    HW121470   2.871   1.890  14.830 -1.3783 -1.5090 -2.3171
 3279SOL    HW221471   2.949   1.767  14.824 -0.1943 -1.6700  0.1323
 3280SOL     OW21472   2.640   0.644   6.363 -0.2927  0.1460 -0.6129
 3280SOL    HW121473   2.636   0.554   6.330 -1.2415 -0.3055  0.7595
 3280SOL    HW221474   2.662   0.704   6.291  3.4058 -1.3938 -0.7603
 3281SOL     OW21475   4.126   1.132  11.718  0.8002 -0.0382  0.0529
 3281SOL    HW121476   4.160   1.092  11.638 -0.6237  0.5364 -0.8353
 3281SOL    HW221477   4.097   1.057  11.770  1.7830  0.1512  0.8902
 3282SOL     OW21478   3.119   3.552  12.745 -0.3578  0.0610  0.2432
 3282SOL    HW121479   3.186   3.572  12.810 -1.4037  1.1229  0.9960
 3282SOL    HW221480   3.172   3.528  12.669 -1.5848 -0.5221 -0.4395
 3283SOL     OW21481   1.235   3.429   4.071 -0.1659 -0.0889  0.0858
 3283SOL    HW121482   1.236   3.334   4.064 -0.4192 -0.3463  3.4327
 3283SOL    HW221483   1.202   3.439   4.161  0.9370  2.6120  0.1815
 3284SOL     OW21484   3.717   0.164   0.670  0.0581 -0.6127  0.8574
 3284SOL    HW121485   3.684   0.086   0.626  2.3907 -1.4060  0.4780
 3284SOL    HW221486   3.718   0.219   0.592 -1.4594 -0.0088  1.2630
 3285SOL     OW21487   3.402   2.235   7.291 -0.2962 -0.3309  0.1547
 3285SOL    HW121488   3.348   2.249   7.368 -0.5726  0.2398 -0.1495
 3285SOL    HW221489   3.403   2.139   7.293 -1.2192 -0.3237  0.9722
 3286SOL     OW21490   2.201   3.844   3.635  0.5102  0.4836  0.3710
 3286SOL    HW121491   2.234   3.768   3.682 -1.4356 -0.7522 -0.2780
 3286SOL    HW221492   2.261   3.913   3.665 -1.2552  2.2516 -0.2084
 3287SOL     OW21493   4.593   1.765   0.910  0.1338 -0.3375  0.8329
 3287SOL    HW121494   4.517   1.793   0.858  1.2803  1.2483  0.0087
 3287SOL    HW221495   4.647   1.718   0.847  1.0935  0.2149  1.2464
 3288SOL     OW21496   0.716   1.052   6.531 -0.1250  0.0582  0.1354
 3288SOL    HW121497   0.775   0.991   6.575  1.7951  1.9028  0.1618
 3288SOL    HW221498   0.755   1.129   6.573 -0.6101  0.1801  0.3601
 3289SOL     OW21499   3.624   0.769   5.089  0.0047 -0.0039  0.2726
 3289SOL    HW121500   3.564   0.789   5.017  0.1474 -1.0439 -0.1398
 3289SOL    HW221501   3.635   0.675   5.078 -2.9558 -0.2654 -0.4871
 3290SOL     OW21502   0.797   3.739   3.289  0.1305 -0.3606  0.2367
 3290SOL    HW121503   0.774   3.700   3.204 -0.2469  1.9869 -0.7393
 3290SOL    HW221504   0.860   3.805   3.260 -1.5242  0.5711 -1.2397
 3291SOL     OW21505   3.347   0.780  14.243 -0.2994 -0.2174 -0.5082
 3291SOL    HW121506   3.323   0.851  14.301 -2.6249 -1.5237  0.1617
 3291SOL    HW221507   3.316   0.816  14.160 -0.9058  3.1963  1.1943
 3292SOL     OW21508   4.503   0.409  15.360  0.0301 -0.1450 -0.0740
 3292SOL    HW121509   4.498   0.326  15.312  1.0759 -0.3755  0.2202
 3292SOL    HW221510   4.485   0.461  15.282  1.7315  1.1569  0.4177
 3293SOL     OW21511   3.939   2.976   4.526 -0.1622  0.3245 -0.0148
 3293SOL    HW121512   3.987   3.054   4.551 -2.6463  1.3972  1.3852
 3293SOL    HW221513   3.908   2.938   4.608  2.7128 -0.2159  0.8270
 3294SOL     OW21514   4.526   0.906   4.907  0.6811 -0.3077  0.5874
 3294SOL    HW121515   4.468   0.871   4.975  1.5760 -1.1716  0.8981
 3294SOL    HW221516   4.588   0.833   4.900  2.7451  1.3079  2.3904
 3295SOL     OW21517   1.179   2.609   7.253  0.1837 -0.2942 -1.0067
 3295SOL    HW121518   1.217   2.655   7.328 -3.1608 -1.3966  1.3707
 3295SOL    HW221519   1.086   2.611   7.275  0.5989  1.3862  0.5839
 3296SOL     OW21520   0.448   1.657   2.949  0.2391  0.1123 -0.2688
 3296SOL    HW121521   0.368   1.631   2.902  1.2664 -0.4656 -1.6820
 3296SOL    HW221522   0.516   1.629   2.888 -1.9984 -2.3740 -1.6660
 3297SOL     OW21523   0.866   1.504   9.134  0.4384  0.3390  0.1817
 3297SOL    HW121524   0.776   1.477   9.115  0.6215  0.3071 -0.6684
 3297SOL    HW221525   0.907   1.426   9.097 -0.6178 -1.5726  3.0430
 3298SOL     OW21526   4.287   1.554   5.216 -0.8143  0.3388 -0.0396
 3298SOL    HW121527   4.292   1.483   5.280  3.9097  0.1266 -0.6158
 3298SOL    HW221528   4.308   1.500   5.140 -2.2264 -1.0230  0.5616
 3299SOL     OW21529   4.720   2.706  11.586  0.5626  0.4708 -0.1037
 3299SOL    HW121530   4.674   2.751  11.657  2.3238  1.0545  0.6706
 3299SOL    HW221531   4.660   2.713  11.512  0.0789 -3.1594 -0.0787
 3300SOL     OW21532   1.407   2.260   3.119 -0.0454 -0.2520  0.5774
 3300SOL    HW121533   1.329   2.211   3.094 -1.1756  0.9019  1.8107
 3300SOL    HW221534   1.473   2.263   3.050 -0.4334  0.1628  0.2288
 3301SOL     OW21535   3.897   3.331   1.663 -0.0544 -0.6766  0.3203
 3301SOL    HW121536   3.883   3.259   1.725  2.2510 -0.7164  0.7906
 3301SOL    HW221537   3.851   3.286   1.593  0.7740  0.4495 -0.9552
 3302SOL     OW21538   4.118   0.606   2.458 -0.1936 -0.5923 -0.0014
 3302SOL    HW121539   4.077   0.573   2.538 -2.3154  1.9951 -0.0473
 3302SOL    HW221540   4.138   0.523   2.414 -0.3812 -0.4159 -0.4148
 3303SOL     OW21541   3.636   0.963  11.353 -0.4022 -0.2558  0.3277
 3303SOL    HW121542   3.731   0.958  11.357 -0.3067  1.8397  0.5721
 3303SOL    HW221543   3.608   0.931  11.439 -1.4529  0.3946  0.2266
 3304SOL     OW21544   0.348   0.033   9.937 -0.0077 -0.1032  0.0071
 3304SOL    HW121545   0.270   4.718   9.932  1.0544 -1.7194  1.4796
 3304SOL    HW221546   0.368   0.041   9.844  2.1117  0.5771  0.5246
 3305SOL     OW21547   3.654   0.060   3.242  0.1206  0.8667 -0.0409
 3305SOL    HW121548   3.661   0.098   3.330 -0.1712  0.7658  0.0283
 3305SOL    HW221549   3.596   0.126   3.203  1.3056 -0.2047 -3.6024
 3306SOL     OW21550   1.654   4.254  13.635 -0.2466  0.3508  0.4579
 3306SOL    HW121551   1.657   4.235  13.729 -0.7518  1.5931  0.7274
 3306SOL    HW221552   1.725   4.193  13.612 -0.3994  0.2996  0.1196
 3307SOL     OW21553   0.386   1.918   5.962 -0.0862  0.0725 -0.0907
 3307SOL    HW121554   0.419   2.004   5.987 -0.6953 -0.1680  1.5552
 3307SOL    HW221555   0.468   1.867   5.962 -1.4193 -2.0571  0.1709
 3308SOL     OW21556   0.127   3.380  10.036  0.1243  0.0869 -0.6391
 3308SOL    HW121557   0.095   3.440  10.103  2.3982  0.6226 -0.0166
 3308SOL    HW221558   0.205   3.425  10.003  0.0728  0.8692  0.3296
 3309SOL     OW21559   1.133   3.154   8.196 -0.4306  0.4478 -0.1787
 3309SOL    HW121560   1.100   3.239   8.166  0.6126  0.0558 -2.4164
 3309SOL    HW221561   1.219   3.181   8.229  0.6437 -0.1275 -2.5512
 3310SOL     OW21562   1.357   3.688   7.279 -0.0062 -0.1412  0.7212
 3310SOL    HW121563   1.330   3.779   7.292 -2.6520 -0.7390 -0.6274
 3310SOL    HW221564   1.452   3.700   7.276  0.1689 -2.2051 -1.5961
 3311SOL     OW21565   3.948   2.210   6.976  0.6816 -0.1847  0.2114
 3311SOL    HW121566   3.888   2.154   6.927 -0.0413  1.1274 -0.4236
 3311SOL    HW221567   3.926   2.295   6.936  4.1113  1.2882  1.4272
 3312SOL     OW21568   4.622   1.444   9.062 -0.0009  0.2705 -0.1657
 3312SOL    HW121569   4.701   1.434   9.115 -0.2935 -1.4027 -0.0438
 3312SOL    HW221570   4.585   1.355   9.065  0.5143  0.1114  1.7551
 3313SOL     OW21571   2.419   2.978  11.756  0.2102  0.2837  0.6098
 3313SOL    HW121572   2.501   2.954  11.714 -0.5595 -0.6522 -0.3763
 3313SOL    HW221573   2.431   2.914  11.827 -1.8795 -0.2514  0.5094
 3314SOL     OW21574   2.259   3.653   4.018 -0.5904  0.0335  0.2783
 3314SOL    HW121575   2.185   3.712   4.026 -0.1568  0.8774 -1.8213
 3314SOL    HW221576   2.333   3.713   4.031 -1.5134  1.0577  0.7559
 3315SOL     OW21577   1.324   2.095  16.088 -0.3093 -0.0885 -0.0458
 3315SOL    HW121578   1.366   2.118  16.005 -2.0493  1.9319 -0.3598
 3315SOL    HW221579   1.233   2.120  16.072 -0.3226 -1.3403 -1.8558
 3316SOL     OW21580   4.537   1.627   8.872  0.2470  0.2318 -0.2001
 3316SOL    HW121581   4.573   1.563   8.932  0.1115 -0.3390 -0.7250
 3316SOL    HW221582   4.568   1.598   8.786  0.6052  0.3254 -0.1011
 3317SOL     OW21583   0.904   2.322   2.476  1.0768 -0.4607  0.0324
 3317SOL    HW121584   0.831   2.288   2.528 -0.2645  0.5477 -1.2216
 3317SOL    HW221585   0.944   2.394   2.525 -0.5734 -0.5545  1.5373
 3318SOL     OW21586   3.465   0.163   5.490 -0.0018 -0.9469 -0.2623
 3318SOL    HW121587   3.541   0.192   5.440 -1.2313  1.9663 -0.4183
 3318SOL    HW221588   3.499   0.195   5.574 -1.0734 -1.3231  0.3198
 3319SOL     OW21589   1.159   3.939   7.047  0.1014 -0.3065  0.4546
 3319SOL    HW121590   1.242   3.893   7.046  0.1078 -0.2921  0.3120
 3319SOL    HW221591   1.203   4.024   7.040  0.0085 -0.2104  1.0293
 3320SOL     OW21592   4.467   4.007   2.062  0.0005  1.0233 -0.1832
 3320SOL    HW121593   4.528   4.022   1.990  0.4103  2.6006  0.4677
 3320SOL    HW221594   4.470   3.912   2.064  1.3010  1.1080  2.4677
 3321SOL     OW21595   4.238   1.024   8.532 -0.2501 -0.2326 -0.2771
 3321SOL    HW121596   4.280   0.938   8.528 -1.2585 -0.6087 -2.3093
 3321SOL    HW221597   4.287   1.091   8.485  1.1213 -1.4378 -0.5496
 3322SOL     OW21598   2.661   3.971   5.360  0.3181 -0.1449 -0.3889
 3322SOL    HW121599   2.573   3.933   5.362  1.2162 -2.1916  0.8310
 3322SOL    HW221600   2.661   4.006   5.449 -1.5780 -0.2000 -0.3585
 3323SOL     OW21601   0.998   4.314  11.749 -0.4857  0.1849  0.6276
 3323SOL    HW121602   0.926   4.284  11.694  1.2474 -2.5073 -0.1570
 3323SOL    HW221603   1.008   4.407  11.730  0.8752 -0.2265 -0.6622
 3324SOL     OW21604   0.853   1.467   9.408 -0.2594 -0.3446  0.0286
 3324SOL    HW121605   0.759   1.483   9.404  0.1760  2.5837  1.0895
 3324SOL    HW221606   0.872   1.473   9.315  0.1537  1.1497  0.2068
 3325SOL     OW21607   3.738   0.345   0.474 -0.2326 -0.3614  0.5338
 3325SOL    HW121608   3.673   0.307   0.414  1.9583 -0.2602 -1.9132
 3325SOL    HW221609   3.729   0.440   0.465 -0.6330 -0.5557 -1.1525
 3326SOL     OW21610   0.228   2.700  11.737 -0.1575  0.6314  0.5716
 3326SOL    HW121611   0.168   2.703  11.662 -1.5554 -1.1378  1.6182
 3326SOL    HW221612   0.277   2.619  11.723 -1.7310  0.1340 -2.0925
 3327SOL     OW21613   3.326   4.579   7.851 -0.0307  0.1192 -0.2027
 3327SOL    HW121614   3.298   4.488   7.844  1.2012 -0.2093 -0.9376
 3327SOL    HW221615   3.421   4.567   7.843 -0.1158 -0.2350 -0.6624
 3328SOL     OW21616   0.397   4.034   6.887 -0.1158  0.5819  0.5723
 3328SOL    HW121617   0.319   4.008   6.837  0.8681 -1.3656  0.0510
 3328SOL    HW221618   0.355   4.063   6.968 -0.9744 -2.1242  1.0890
 3329SOL     OW21619   2.834   1.541  12.153 -0.2775  0.6103  0.1225
 3329SOL    HW121620   2.868   1.631  12.153  0.1601  0.4505 -2.0846
 3329SOL    HW221621   2.914   1.491  12.140 -0.3444  0.2240  1.2283
 3330SOL     OW21622   4.224   0.266   8.749 -0.1730 -0.1761  0.4402
 3330SOL    HW121623   4.269   0.320   8.684 -0.5521 -1.4919 -0.9153
 3330SOL    HW221624   4.134   0.266   8.716  0.2151 -1.4581 -0.6122
 3331SOL     OW21625   4.435   0.653   2.985  0.4459  0.0722  0.4268
 3331SOL    HW121626   4.365   0.621   2.928  1.7188 -0.1262 -1.0321
 3331SOL    HW221627   4.449   0.577   3.040  1.8042  1.3537  1.8568
 3332SOL     OW21628   3.658   2.071   4.058 -0.2967  0.6719 -0.1017
 3332SOL    HW121629   3.732   2.013   4.077  0.6053  1.3366 -1.6185
 3332SOL    HW221630   3.620   2.016   3.989  0.9042 -1.2807  0.7813
 3333SOL     OW21631   0.102   3.923  14.597  0.3635 -0.3900 -0.5824
 3333SOL    HW121632   0.080   3.995  14.537  1.4219  2.0070  1.9131
 3333SOL    HW221633   0.058   3.943  14.679  0.6690  0.2518 -0.5773
 3334SOL     OW21634   2.921   3.552   7.534 -0.8439 -0.0766 -0.0428
 3334SOL    HW121635   2.889   3.514   7.453 -0.2958  1.9663 -1.2248
 3334SOL    HW221636   2.988   3.604   7.491 -0.7968 -0.5793 -0.5726
 3335SOL     OW21637   1.956   3.742   9.167 -0.7389  0.1554 -0.1034
 3335SOL    HW121638   1.878   3.688   9.178  0.8979 -1.8416  1.7395
 3335SOL    HW221639   1.918   3.796   9.098 -3.2549  2.8466  3.4149
 3336SOL     OW21640   2.227   3.149   4.158  0.5419  0.0493  0.5135
 3336SOL    HW121641   2.319   3.127   4.171  1.3466  1.9023 -1.9182
 3336SOL    HW221642   2.236   3.207   4.082  0.8683  0.9500  1.2318
 3337SOL     OW21643   4.693   0.381   5.231 -0.6060  0.7212  0.1796
 3337SOL    HW121644   4.672   0.435   5.307 -1.3274  0.4590  0.1655
 3337SOL    HW221645   4.672   0.439   5.157 -2.2317  1.7590  1.4414
 3338SOL     OW21646   3.439   1.830  16.292 -0.4607 -0.1828  0.3061
 3338SOL    HW121647   3.397   1.904  16.334  0.4213  1.6275 -2.0154
 3338SOL    HW221648   3.426   1.848  16.199 -3.2054  1.5465  1.0291
 3339SOL     OW21649   4.181   0.663   2.026 -0.0897  0.2517  0.6316
 3339SOL    HW121650   4.118   0.677   2.097 -1.7741 -0.2370 -0.7605
 3339SOL    HW221651   4.146   0.730   1.967 -2.5763 -2.2145 -0.6746
 3340SOL     OW21652   0.344   2.788   3.658 -0.0953 -0.1422  0.2627
 3340SOL    HW121653   0.339   2.852   3.729 -0.0195  2.0342 -1.6617
 3340SOL    HW221654   0.416   2.731   3.687 -0.8837 -1.4859 -0.4373
 3341SOL     OW21655   3.699   0.091  10.471 -0.1095 -1.1203 -0.2292
 3341SOL    HW121656   3.734   0.002  10.476 -0.3575 -1.3281 -2.0621
 3341SOL    HW221657   3.616   0.087  10.517  0.1908  1.6874  0.5748
 3342SOL     OW21658   3.628   1.689  10.061 -0.3986 -0.3701  0.0667
 3342SOL    HW121659   3.595   1.719  10.145 -1.4685  1.9668 -1.2074
 3342SOL    HW221660   3.564   1.710   9.993  0.7886 -0.0528 -0.9483
 3343SOL     OW21661   3.794   2.156  11.686  0.1910  0.2077  0.4632
 3343SOL    HW121662   3.851   2.218  11.640  1.0749 -0.1405  1.0944
 3343SOL    HW221663   3.733   2.222  11.719  2.4136  1.1289  2.7593
 3344SOL     OW21664   2.664   4.553   3.868 -0.1265 -0.3204  0.0831
 3344SOL    HW121665   2.584   4.605   3.865 -0.1694 -0.2805  1.6688
 3344SOL    HW221666   2.637   4.474   3.915  3.6704 -0.3920  2.1440
 3345SOL     OW21667   0.400   2.140   9.598  0.2504  0.2770 -0.0800
 3345SOL    HW121668   0.343   2.161   9.673 -0.7895 -0.1346 -0.7531
 3345SOL    HW221669   0.470   2.093   9.644  0.6158  1.9061  1.0188
 3346SOL     OW21670   4.021   3.664  14.808 -0.1094  0.4902  0.2030
 3346SOL    HW121671   3.933   3.642  14.778  0.3377  1.5875 -1.8955
 3346SOL    HW221672   4.034   3.758  14.795  3.7862  0.0659  0.8826
 3347SOL     OW21673   1.024   3.447   5.468 -0.3675  0.5052 -0.5843
 3347SOL    HW121674   1.042   3.376   5.406  0.0708  0.7417 -0.7291
 3347SOL    HW221675   1.078   3.413   5.539  0.8868  1.2043 -1.2052
 3348SOL     OW21676   1.205   0.617   6.404 -0.6969  0.2749  0.1382
 3348SOL    HW121677   1.276   0.626   6.340 -1.0591  0.3879 -0.2464
 3348SOL    HW221678   1.126   0.659   6.370  0.2771  2.3407  0.4653
 3349SOL     OW21679   4.324   2.820   7.021  0.0990 -0.2341  0.2306
 3349SOL    HW121680   4.252   2.836   7.082  2.4210  2.8021  2.1716
 3349SOL    HW221681   4.286   2.800   6.936  0.2027 -1.5134  0.4901
 3350SOL     OW21682   3.758   0.887   7.103 -0.5736  0.3313 -0.5222
 3350SOL    HW121683   3.764   0.845   7.018  1.0502  1.4245 -0.9468
 3350SOL    HW221684   3.699   0.957   7.074 -0.3163  0.8314  0.1709
 3351SOL     OW21685   1.769   3.553  13.464 -0.0996 -0.4433 -0.4312
 3351SOL    HW121686   1.691   3.509  13.498  0.4834 -0.1907  1.2333
 3351SOL    HW221687   1.838   3.486  13.468 -0.9652 -1.3769 -1.1303
 3352SOL     OW21688   0.939   2.835   2.206 -0.3516  0.5096 -0.0874
 3352SOL    HW121689   0.934   2.931   2.213 -0.4459  0.4380  0.7375
 3352SOL    HW221690   0.932   2.822   2.111  1.3087  1.0352 -0.2662
 3353SOL     OW21691   2.101   3.343   1.288 -0.5365 -0.7998  0.5520
 3353SOL    HW121692   2.082   3.363   1.379  0.7600  2.6535  0.0579
 3353SOL    HW221693   2.024   3.287   1.276 -0.8111 -0.1680 -0.6432
 3354SOL     OW21694   1.669   2.918  13.885 -0.7834  0.0449 -0.4705
 3354SOL    HW121695   1.698   3.009  13.881  0.5531 -0.4956 -3.3130
 3354SOL    HW221696   1.592   2.915  13.828 -1.7229  1.6342  0.7191
 3355SOL     OW21697   2.513   1.574   0.136 -0.5515  0.6726 -0.4197
 3355SOL    HW121698   2.592   1.556   0.087  0.5381  2.2638  0.7512
 3355SOL    HW221699   2.504   1.507   0.203 -0.4864  1.1042  0.0241
 3356SOL     OW21700   4.481   2.248   2.431 -0.2679 -0.0758  0.2158
 3356SOL    HW121701   4.425   2.186   2.478  0.9978 -0.2121  1.5353
 3356SOL    HW221702   4.551   2.192   2.399  1.1991  1.1305  1.2978
 3357SOL     OW21703   3.814   4.075  17.302  0.0364 -0.9838 -0.3571
 3357SOL    HW121704   3.828   4.097  17.210  3.0467 -0.0963  0.3143
 3357SOL    HW221705   3.793   4.162  17.336  3.7188 -0.1563 -0.1906
 3358SOL     OW21706   2.249   0.878   5.849 -0.2393  1.0346  0.1600
 3358SOL    HW121707   2.331   0.902   5.892  1.1524 -0.6658 -1.6013
 3358SOL    HW221708   2.191   0.919   5.914  0.7106  2.3231  0.2084
 3359SOL     OW21709   3.850   3.189   9.705  0.9116 -0.1684 -0.2301
 3359SOL    HW121710   3.776   3.147   9.748  1.0242  1.0695  1.1401
 3359SOL    HW221711   3.918   3.129   9.735  0.7854 -0.0393  0.3024
 3360SOL     OW21712   1.625   3.799   5.537  0.5582  0.0006 -0.2351
 3360SOL    HW121713   1.700   3.857   5.523  0.6567 -0.1406 -0.2882
 3360SOL    HW221714   1.606   3.773   5.447 -0.8571 -0.3054  0.1530
 3361SOL     OW21715   4.244   4.191   5.750 -0.0301 -0.4460  0.2205
 3361SOL    HW121716   4.240   4.111   5.698  0.4215  0.4869 -1.2232
 3361SOL    HW221717   4.231   4.265   5.692  0.6966 -0.2995  0.2443
 3362SOL     OW21718   2.333   0.610  12.101 -0.4808  0.2061 -0.2391
 3362SOL    HW121719   2.421   0.581  12.075 -0.5518  1.2633 -1.6493
 3362SOL    HW221720   2.337   0.705  12.089 -3.4314 -0.0860 -3.4931
 3363SOL     OW21721   0.249   4.098  16.099 -0.0687 -0.1562  0.4289
 3363SOL    HW121722   0.222   4.152  16.173 -0.2449 -0.2825  0.4571
 3363SOL    HW221723   0.337   4.134  16.087 -1.3322  2.7196 -0.0430
 3364SOL     OW21724   3.865   4.383   3.243 -0.0171 -0.1906 -0.5167
 3364SOL    HW121725   3.853   4.469   3.283  0.6491 -0.5391  0.4271
 3364SOL    HW221726   3.960   4.387   3.235  0.0261  0.3586  0.3225
 3365SOL     OW21727   4.491   1.049  14.794 -0.1247 -0.0420 -0.1565
 3365SOL    HW121728   4.430   1.087  14.857  1.0622  0.0962  0.9141
 3365SOL    HW221729   4.526   1.131  14.759 -0.7977  0.6618  0.8058
 3366SOL     OW21730   0.287   3.115   2.757 -0.2601 -0.4173  0.1783
 3366SOL    HW121731   0.377   3.130   2.787  0.0753 -2.0061 -0.0049
 3366SOL    HW221732   0.305   3.055   2.685 -0.9753  0.5753 -0.8187
 3367SOL     OW21733   3.522   2.140   3.315 -0.4170 -0.3873  0.3642
 3367SOL    HW121734   3.470   2.073   3.360  0.3516 -2.3203 -1.6281
 3367SOL    HW221735   3.463   2.166   3.244  0.8327 -1.7661 -1.1787
 3368SOL     OW21736   0.802   3.048  10.836 -0.1097 -0.2230  0.5581
 3368SOL    HW121737   0.834   2.975  10.891  1.0173  0.4161  0.7575
 3368SOL    HW221738   0.709   3.042  10.855  0.1564 -1.3974  1.5164
 3369SOL     OW21739   3.257   4.325   0.261  0.0891 -0.1180 -0.4839
 3369SOL    HW121740   3.315   4.320   0.337 -1.9587 -0.6328  1.0566
 3369SOL    HW221741   3.176   4.340   0.310 -0.2569 -1.0054 -0.7746
 3370SOL     OW21742   4.015   2.824  13.899 -0.0419 -0.3903 -0.5572
 3370SOL    HW121743   4.084   2.831  13.833  0.0249  0.2850 -0.4188
 3370SOL    HW221744   3.937   2.859  13.856 -0.6726 -0.8417  0.2283
 3371SOL     OW21745   0.029   4.204   1.824  0.2457 -0.5844  0.1496
 3371SOL    HW121746   0.040   4.119   1.782  0.6642 -0.8553  0.8201
 3371SOL    HW221747   0.022   4.178   1.915  0.9131  0.1813  0.4146
 3372SOL     OW21748   3.179   0.420   7.817 -0.4043 -0.0081 -0.5966
 3372SOL    HW121749   3.139   0.476   7.750 -2.1749 -2.1119 -1.2912
 3372SOL    HW221750   3.146   0.333   7.792 -0.8637 -0.3421  1.1857
 3373SOL     OW21751   0.734   0.821   6.014  0.5045  0.0644 -0.1685
 3373SOL    HW121752   0.717   0.875   6.091  0.3148  0.3452 -0.4101
 3373SOL    HW221753   0.729   0.733   6.053 -0.8948  0.1211 -0.2386
 3374SOL     OW21754   1.065   2.366  15.130  0.4812 -0.9904  0.5091
 3374SOL    HW121755   1.020   2.317  15.199 -2.4930  3.6842  1.8199
 3374SOL    HW221756   1.070   2.311  15.051 -2.6801 -0.0132 -0.3669
 3375SOL     OW21757   0.111   2.660   2.264 -0.1079 -0.3390  0.5126
 3375SOL    HW121758   0.185   2.602   2.276  0.7986  0.8791  0.8316
 3375SOL    HW221759   0.041   2.596   2.277 -0.4457 -0.0258  0.2283
 3376SOL     OW21760   2.093   3.609   3.038 -0.2965  0.0790 -0.2209
 3376SOL    HW121761   2.131   3.678   3.092 -0.6679  0.0979  0.0220
 3376SOL    HW221762   2.069   3.657   2.959  1.8670  0.8041 -0.4257
 3377SOL     OW21763   2.178   3.012   4.693 -0.3552 -0.3754 -0.5362
 3377SOL    HW121764   2.214   3.100   4.680 -1.3110  0.1486  0.3788
 3377SOL    HW221765   2.191   2.999   4.787 -1.6598 -1.3657 -0.4993
 3378SOL     OW21766   0.014   3.890  17.578  0.7887 -0.1441  0.0756
 3378SOL    HW121767   0.054   3.829  17.641 -0.7311  0.0175  1.1987
 3378SOL    HW221768   4.686   3.842  17.531 -0.6675  1.0791  0.9709
 3379SOL     OW21769   0.583   3.389   3.078 -0.4211 -0.3457 -0.1775
 3379SOL    HW121770   0.511   3.371   3.018 -0.6563 -0.1218  0.0402
 3379SOL    HW221771   0.535   3.423   3.153  1.2473  2.0470 -0.2150
 3380SOL     OW21772   3.357   0.725   5.977  0.2298 -0.5483 -0.1264
 3380SOL    HW121773   3.321   0.769   5.899  1.3504 -1.5071 -1.1839
 3380SOL    HW221774   3.299   0.649   5.987  0.2969 -0.9768 -2.9779
 3381SOL     OW21775   4.010   1.717  12.684  0.6356 -0.4834  0.8024
 3381SOL    HW121776   3.957   1.691  12.759 -2.6833  2.7868 -0.3961
 3381SOL    HW221777   4.092   1.752  12.718  0.8917  0.5814 -0.8809
 3382SOL     OW21778   1.072   2.656  10.701 -0.2888 -0.2491  0.7558
 3382SOL    HW121779   1.071   2.560  10.700 -0.1514 -0.2529  1.1207
 3382SOL    HW221780   1.058   2.671  10.607 -0.8796  0.9015  1.0305
 3383SOL     OW21781   1.119   2.566   9.469  0.4632  0.1090  0.6990
 3383SOL    HW121782   1.134   2.593   9.559 -1.1428  2.1348  0.3427
 3383SOL    HW221783   1.024   2.557   9.472  0.6582 -1.3618  2.3401
 3384SOL     OW21784   3.657   3.166  15.439 -0.5312  0.0767  0.7769
 3384SOL    HW121785   3.646   3.161  15.534 -0.0279 -0.4366  0.8060
 3384SOL    HW221786   3.605   3.245  15.426 -1.3571 -0.5820  0.0690
 3385SOL     OW21787   4.030   1.619   3.409  0.7176  0.4400  0.1400
 3385SOL    HW121788   4.022   1.542   3.464  1.3030  0.2963  0.0294
 3385SOL    HW221789   4.070   1.580   3.332 -2.4006  0.1926 -1.3386
 3386SOL     OW21790   1.064   0.851   9.653 -0.1553  0.1389  0.3377
 3386SOL    HW121791   1.025   0.840   9.566  3.3699 -0.4539 -1.1523
 3386SOL    HW221792   1.139   0.906   9.630 -0.1548  0.1248  0.3061
 3387SOL     OW21793   2.570   1.106   7.877  0.7762  0.4190  0.3855
 3387SOL    HW121794   2.479   1.098   7.905  0.2738 -0.3206 -1.4069
 3387SOL    HW221795   2.563   1.167   7.803 -2.4192 -0.0826  0.2602
 3388SOL     OW21796   0.698   0.102  13.327 -0.3184 -0.7773 -0.2014
 3388SOL    HW121797   0.736   0.067  13.407 -0.9146 -0.5773  0.1678
 3388SOL    HW221798   0.734   0.191  13.331 -1.5164 -0.2833 -0.3020
 3389SOL     OW21799   4.464   1.494   5.693  0.1380 -0.1207 -0.0381
 3389SOL    HW121800   4.473   1.536   5.779 -2.8858  0.9704 -0.2519
 3389SOL    HW221801   4.504   1.412   5.721 -1.2590 -0.5779  0.6150
 3390SOL     OW21802   3.614   1.252   5.063  0.5584 -0.3082  0.1946
 3390SOL    HW121803   3.567   1.243   5.146  0.4172 -0.7343  0.0670
 3390SOL    HW221804   3.703   1.267   5.096  0.5643  0.1086 -0.0020
 3391SOL     OW21805   3.423   4.270   2.686  0.1805  0.3666 -0.4446
 3391SOL    HW121806   3.500   4.320   2.714  0.8849 -1.6768  1.2359
 3391SOL    HW221807   3.373   4.336   2.638  0.0212  0.4912 -0.1086
 3392SOL     OW21808   4.203   2.753   4.961 -0.1059 -0.2941 -0.0868
 3392SOL    HW121809   4.109   2.771   4.963 -0.1040 -0.5139  2.6290
 3392SOL    HW221810   4.213   2.670   5.008  0.1382 -0.1361  0.1448
 3393SOL     OW21811   2.162   2.043   4.477 -0.3970  0.1132  0.5981
 3393SOL    HW121812   2.235   1.982   4.470 -2.1473 -2.0117  0.7444
 3393SOL    HW221813   2.220   2.118   4.469 -1.1473  0.6473  0.1924
 3394SOL     OW21814   0.105   0.405   4.873 -0.0721  0.2883 -0.2614
 3394SOL    HW121815   0.081   0.330   4.818 -0.0017  0.6559 -0.7823
 3394SOL    HW221816   0.020   0.435   4.907 -0.3351 -1.7370  0.9173
 3395SOL     OW21817   3.729   1.763  16.462  0.1121 -0.0677 -0.1917
 3395SOL    HW121818   3.672   1.830  16.499 -2.2071 -3.1290  1.8113
 3395SOL    HW221819   3.697   1.761  16.372  2.3772 -0.6991 -0.9971
 3396SOL     OW21820   2.699   0.997   1.859 -0.1867 -0.3409  0.2398
 3396SOL    HW121821   2.779   0.982   1.808  1.4077 -0.9400  2.8858
 3396SOL    HW221822   2.690   0.923   1.920 -0.8958 -1.6392 -1.4406
 3397SOL     OW21823   3.389   3.096   4.987  0.2897  0.0497  0.4645
 3397SOL    HW121824   3.353   3.044   4.916 -0.2409  0.0882  0.7022
 3397SOL    HW221825   3.346   3.062   5.065 -0.5577 -1.0071 -0.4824
 3398SOL     OW21826   0.263   0.890  16.508 -0.3029  0.2433  0.7297
 3398SOL    HW121827   0.194   0.949  16.479  2.2330  3.4713  1.3252
 3398SOL    HW221828   0.273   0.925  16.596  2.4147 -1.1246  0.9694
 3399SOL     OW21829   2.179   2.631   2.036 -0.2881 -0.1759 -0.1012
 3399SOL    HW121830   2.238   2.611   2.109 -0.2495  0.0726 -0.0633
 3399SOL    HW221831   2.094   2.653   2.075 -0.4419 -2.3133  0.7762
 3400SOL     OW21832   0.250   2.363   0.774 -0.3969 -0.5066 -0.5557
 3400SOL    HW121833   0.249   2.400   0.862 -0.4808 -1.6315 -0.0819
 3400SOL    HW221834   0.338   2.387   0.745  0.5939 -0.5894  2.3505
 3401SOL     OW21835   3.178   3.081   4.074  0.2140  0.2623  0.6953
 3401SOL    HW121836   3.123   3.157   4.057 -0.3604 -0.2956  0.0783
 3401SOL    HW221837   3.217   3.123   4.150  2.1399 -0.5854  0.1856
 3402SOL     OW21838   0.776   2.586  15.921 -0.1066  0.4906  0.1020
 3402SOL    HW121839   0.854   2.538  15.893  0.5939  0.9087  1.3373
 3402SOL    HW221840   0.777   2.661  15.862  0.0328  1.3155  1.1477
 3403SOL     OW21841   3.613   1.914  16.692 -0.0545  0.7800  0.4339
 3403SOL    HW121842   3.707   1.903  16.683 -0.5226 -1.2027 -1.9490
 3403SOL    HW221843   3.597   1.864  16.772  1.5784  0.7546  0.7453
 3404SOL     OW21844   4.196   3.384   2.306  0.4542 -0.2690  0.1894
 3404SOL    HW121845   4.223   3.441   2.378  0.6806 -0.5403  0.3226
 3404SOL    HW221846   4.125   3.341   2.354  1.1792 -1.1651  0.4705
 3405SOL     OW21847   0.639   4.175   5.638  0.4634  0.1747  0.0255
 3405SOL    HW121848   0.544   4.175   5.642  0.4708 -0.6478  0.2616
 3405SOL    HW221849   0.657   4.106   5.702 -1.4380 -1.9212 -1.7024
 3406SOL     OW21850   1.653   0.844  13.743  0.1260  0.2635 -0.1007
 3406SOL    HW121851   1.686   0.756  13.763 -1.0983  0.0335  0.8885
 3406SOL    HW221852   1.576   0.826  13.690 -0.2349 -1.4137  1.0186
 3407SOL     OW21853   1.659   2.256   7.381  0.0984 -0.5514  0.0576
 3407SOL    HW121854   1.753   2.273   7.381 -0.0435  0.1711 -1.2661
 3407SOL    HW221855   1.624   2.322   7.441  1.1407  1.7020 -1.8113
 3408SOL     OW21856   2.594   1.685   0.428  0.7402 -0.5638 -0.4537
 3408SOL    HW121857   2.524   1.746   0.402  0.9967 -0.4127 -0.7821
 3408SOL    HW221858   2.655   1.688   0.355 -0.6068  0.2181 -1.5649
 3409SOL     OW21859   3.869   0.603   5.780 -0.4113  0.1521 -0.3347
 3409SOL    HW121860   3.809   0.539   5.743  0.3997  0.1400 -1.6088
 3409SOL    HW221861   3.800   0.649   5.828 -0.8433 -1.1920  0.3425
 3410SOL     OW21862   4.457   2.138  10.581  0.4281 -0.1086  0.3066
 3410SOL    HW121863   4.497   2.166  10.663  2.0710  0.0354 -0.5587
 3410SOL    HW221864   4.367   2.148  10.611  1.3339  2.3094  2.1411
 3411SOL     OW21865   0.487   4.113   0.507 -0.3969  0.3982  0.5309
 3411SOL    HW121866   0.497   4.078   0.419 -3.9669  1.3662 -0.2641
 3411SOL    HW221867   0.430   4.048   0.549  1.0003 -1.8473 -1.0575
 3412SOL     OW21868   3.163   4.595   2.114 -0.0378  0.8339  0.1400
 3412SOL    HW121869   3.249   4.553   2.125 -1.5356 -1.4284  3.2578
 3412SOL    HW221870   3.133   4.583   2.205 -0.7729  0.4684 -0.1486
 3413SOL     OW21871   3.816   1.113  15.288 -0.4805  0.1211 -0.3483
 3413SOL    HW121872   3.846   1.044  15.230 -1.1727 -0.1914 -0.3365
 3413SOL    HW221873   3.796   1.181  15.224  0.6506 -0.4358 -1.2864
 3414SOL     OW21874   1.586   3.218   1.499 -0.4138 -0.7134  0.1678
 3414SOL    HW121875   1.526   3.153   1.462 -0.7650 -1.0589  1.3515
 3414SOL    HW221876   1.530   3.255   1.567  1.1364 -2.7256  2.5528
 3415SOL     OW21877   0.159   3.400   7.940 -0.0358 -0.3176 -0.2284
 3415SOL    HW121878   0.251   3.401   7.965 -0.3477  0.3279  0.8886
 3415SOL    HW221879   0.136   3.308   7.950  0.4640 -0.5269 -0.9255
 3416SOL     OW21880   1.170   0.398   9.174 -0.4458 -0.3723 -0.4765
 3416SOL    HW121881   1.244   0.361   9.221 -0.5484  0.9004  0.7069
 3416SOL    HW221882   1.132   0.317   9.141 -0.2562 -1.8037  2.7912
 3417SOL     OW21883   2.491   1.357  15.525  0.1046 -0.2462 -0.5181
 3417SOL    HW121884   2.509   1.273  15.569  4.2221  0.3541 -1.0891
 3417SOL    HW221885   2.576   1.400  15.531 -0.7009  1.3533 -0.5824
 3418SOL     OW21886   2.722   2.590   1.554 -0.0128  0.9790  0.2108
 3418SOL    HW121887   2.716   2.630   1.467 -0.0212 -0.7882 -0.5968
 3418SOL    HW221888   2.810   2.553   1.555 -0.7674 -0.8819 -2.1499
 3419SOL     OW21889   2.074   0.991  14.465  0.3722  0.0796 -0.4981
 3419SOL    HW121890   1.987   0.956  14.485  0.9451 -1.6420 -1.0309
 3419SOL    HW221891   2.101   1.034  14.547 -1.0548 -0.2197  0.1437
 3420SOL     OW21892   4.707   1.108   8.244  0.1166 -0.5486  0.7905
 3420SOL    HW121893   4.658   1.087   8.164  1.0198 -0.4189  0.1975
 3420SOL    HW221894   4.669   1.196   8.254  2.2653  0.2757  1.6476
 3421SOL     OW21895   4.193   4.070   8.170  0.3497 -0.3607  0.1323
 3421SOL    HW121896   4.271   4.123   8.187  1.3576 -2.3171  1.7048
 3421SOL    HW221897   4.129   4.126   8.214  0.7755  0.3474 -0.1569
 3422SOL     OW21898   1.043   4.331   6.816  0.2326  0.6266 -0.0914
 3422SOL    HW121899   1.026   4.330   6.722 -0.3365 -0.7113  0.0326
 3422SOL    HW221900   1.132   4.298   6.822 -0.1545 -0.8101 -2.0784
 3423SOL     OW21901   2.588   4.740   2.618  0.0721 -0.3088 -0.6130
 3423SOL    HW121902   2.495   4.736   2.596  0.0298 -0.0969 -0.4711
 3423SOL    HW221903   2.596   0.075   2.676 -0.8481 -1.0904  0.5305
 3424SOL     OW21904   0.386   2.837   3.380  0.4999  0.0753 -0.1432
 3424SOL    HW121905   0.459   2.780   3.403 -0.7649 -1.5578 -0.1772
 3424SOL    HW221906   0.328   2.823   3.455  0.1870  0.8732 -0.2427
 3425SOL     OW21907   0.387   0.688  11.755 -0.1345 -0.1970 -0.3678
 3425SOL    HW121908   0.391   0.660  11.846 -2.0707  1.1062  0.1332
 3425SOL    HW221909   0.463   0.747  11.755 -0.9283  0.8410 -0.5492
 3426SOL     OW21910   0.919   3.921   7.183  0.2756 -1.3453 -0.2442
 3426SOL    HW121911   0.996   3.915   7.127  1.2530  1.2850  0.8204
 3426SOL    HW221912   0.889   4.009   7.160  1.3920 -0.6731  0.8632
 3427SOL     OW21913   0.180   1.395  14.535  0.3448 -0.0161  0.0633
 3427SOL    HW121914   0.205   1.402  14.443 -1.3997  2.4974 -0.2351
 3427SOL    HW221915   0.239   1.328  14.570  1.7360  1.5603  0.7612
 3428SOL     OW21916   1.050   4.180   3.199  0.2038  0.3431 -0.4729
 3428SOL    HW121917   0.989   4.135   3.257 -0.1575  2.3645  0.7178
 3428SOL    HW221918   0.986   4.201   3.132  0.1530  1.4133 -0.0884
 3429SOL     OW21919   0.725   4.144  14.091 -0.1836  0.0521 -0.2668
 3429SOL    HW121920   0.796   4.090  14.125  1.7696  3.2635  0.7691
 3429SOL    HW221921   0.687   4.081  14.029  0.1114  0.2034 -0.6069
 3430SOL     OW21922   0.799   0.970   9.159  0.0003  0.0059 -0.3438
 3430SOL    HW121923   0.879   0.950   9.208 -1.2741  0.8257  2.0877
 3430SOL    HW221924   0.841   0.993   9.076  0.0923  0.0891 -0.2740
 3431SOL     OW21925   4.031   2.003  12.485  0.6406  0.0556 -0.6670
 3431SOL    HW121926   4.024   1.925  12.540  0.7282  0.0641 -0.6444
 3431SOL    HW221927   4.048   2.068  12.554  1.8280 -1.8082  0.7952
 3432SOL     OW21928   0.055   3.880   7.375 -0.4119 -0.3062 -0.3334
 3432SOL    HW121929   0.079   3.804   7.322 -2.2850 -0.8976 -0.3354
 3432SOL    HW221930   4.710   3.848   7.404 -0.2630 -0.3547  0.0498
 3433SOL     OW21931   2.517   1.587   1.812 -0.1967  0.0959  0.0261
 3433SOL    HW121932   2.577   1.581   1.887 -1.4904  0.1918  1.0615
 3433SOL    HW221933   2.529   1.672   1.771 -3.1223  0.8559  0.7316
 3434SOL     OW21934   1.450   0.769   8.870  0.0075 -0.0193 -0.0069
 3434SOL    HW121935   1.363   0.804   8.890  0.1683  0.5127 -0.2427
 3434SOL    HW221936   1.499   0.850   8.853  0.4016 -0.0885  0.7545
 3435SOL     OW21937   2.612   3.501   2.194 -0.2240 -0.6668  0.6694
 3435SOL    HW121938   2.631   3.520   2.286 -0.4651  0.8863  0.3933
 3435SOL    HW221939   2.570   3.583   2.170 -0.2727 -1.1044 -0.7404
 3436SOL     OW21940   2.309   4.088   8.170  0.2037  0.2990  0.8989
 3436SOL    HW121941   2.276   4.059   8.255  0.3240 -0.1864  0.7767
 3436SOL    HW221942   2.378   4.151   8.188 -0.1618  0.6601  1.0440
 3437SOL     OW21943   4.648   1.131  17.458 -0.0881  0.0756  0.2385
 3437SOL    HW121944   4.599   1.122  17.376  0.6394  0.1234 -0.2003
 3437SOL    HW221945   4.640   1.045  17.499 -4.2612  0.3512 -0.0236
 3438SOL     OW21946   0.739   4.567  15.195 -0.3215 -0.1695  0.0868
 3438SOL    HW121947   0.780   4.485  15.169  0.4394 -0.0054  0.7866
 3438SOL    HW221948   0.660   4.536  15.240  0.6743  1.5744  2.9813
 3439SOL     OW21949   3.987   4.232   8.258 -0.0510 -0.4573  0.1575
 3439SOL    HW121950   4.019   4.255   8.345  0.7173 -2.4556  0.3944
 3439SOL    HW221951   3.893   4.248   8.268 -0.2252 -2.9911  2.7170
 3440SOL     OW21952   3.633   0.959   6.582  0.5409 -0.5723 -0.2841
 3440SOL    HW121953   3.677   0.878   6.556  0.4430 -0.7698  0.1676
 3440SOL    HW221954   3.551   0.947   6.533  0.4120 -0.4258 -0.1024
 3441SOL     OW21955   0.596   0.137   6.500  0.2109  0.1534  0.0031
 3441SOL    HW121956   0.511   0.095   6.514  0.0959 -0.2198 -1.8146
 3441SOL    HW221957   0.588   0.206   6.566  0.4593  1.6250 -1.5026
 3442SOL     OW21958   3.794   1.717   8.553 -0.0496  0.4221  0.4145
 3442SOL    HW121959   3.834   1.652   8.494 -0.9244  0.8862 -0.7078
 3442SOL    HW221960   3.853   1.792   8.545 -0.2443  0.4870 -0.4413
 3443SOL     OW21961   0.836   2.835   7.078  0.0910 -0.3753 -0.3912
 3443SOL    HW121962   0.825   2.920   7.035 -1.7602 -0.9504 -1.0744
 3443SOL    HW221963   0.749   2.798   7.062  0.0971 -0.5308 -0.0708
 3444SOL     OW21964   3.568   3.036   4.641  0.1569  0.1289  0.2176
 3444SOL    HW121965   3.633   3.098   4.607 -0.6977  1.4691  1.0482
 3444SOL    HW221966   3.612   2.951   4.650  0.1404  0.3631  2.4883
 3445SOL     OW21967   1.337   0.270  11.274  0.4154 -0.1008  0.3175
 3445SOL    HW121968   1.425   0.262  11.309  0.7940  0.4028 -0.5271
 3445SOL    HW221969   1.356   0.348  11.222 -0.4377  0.8415  1.3991
 3446SOL     OW21970   3.026   3.353  16.726  0.2179 -0.1361 -0.2076
 3446SOL    HW121971   3.001   3.385  16.812  2.0205 -0.2665  0.3607
 3446SOL    HW221972   3.117   3.383  16.727  0.2354 -0.1420 -1.1006
 3447SOL     OW21973   2.793   3.401   6.681  0.5991 -0.0915  0.2430
 3447SOL    HW121974   2.718   3.457   6.698  0.5330 -0.0343 -0.2260
 3447SOL    HW221975   2.837   3.411   6.765  0.6630  3.4769 -0.2314
 3448SOL     OW21976   3.640   0.470   3.448 -0.0226  0.5859  0.2751
 3448SOL    HW121977   3.549   0.454   3.424  0.3199 -0.2797 -0.4374
 3448SOL    HW221978   3.653   0.564   3.431  0.4704  0.7470  1.5312
 3449SOL     OW21979   0.359   3.490  17.575  0.0988 -0.3278  0.8177
 3449SOL    HW121980   0.391   3.417  17.522  1.3914  1.8843 -1.4911
 3449SOL    HW221981   0.437   3.522  17.620  0.7062 -1.8922  0.8479
 3450SOL     OW21982   3.907   2.510  13.921  0.3864  0.0067 -0.3034
 3450SOL    HW121983   3.996   2.475  13.927 -0.6070 -2.3687  0.8280
 3450SOL    HW221984   3.916   2.605  13.921 -2.6955  0.3299  2.2464
 3451SOL     OW21985   1.396   0.140   2.918  0.4441 -0.6251 -0.0907
 3451SOL    HW121986   1.413   0.077   2.847  1.0067 -0.1972 -0.3245
 3451SOL    HW221987   1.411   0.227   2.882 -0.2736  0.2269  1.6777
 3452SOL     OW21988   4.124   1.209  15.498 -0.2716 -0.1119 -0.3279
 3452SOL    HW121989   4.196   1.248  15.547  1.0941 -1.9389 -0.9043
 3452SOL    HW221990   4.078   1.286  15.462  0.5442  0.5784  0.1178
 3453SOL     OW21991   3.613   0.443  16.424  0.1113 -0.3161 -0.7728
 3453SOL    HW121992   3.601   0.422  16.332 -1.6870  2.1073 -1.0807
 3453SOL    HW221993   3.635   0.536  16.429 -1.9335  0.1664 -0.9969
 3454SOL     OW21994   3.677   1.006   9.936  0.1451  0.1098  0.4860
 3454SOL    HW121995   3.753   0.965   9.895 -1.6454 -3.4226  0.7965
 3454SOL    HW221996   3.628   0.926   9.953  2.3424 -1.0263  1.5445
 3455SOL     OW21997   2.832   0.729  15.181  0.4616  0.1297  0.5453
 3455SOL    HW121998   2.923   0.719  15.209  0.8306 -1.8224 -1.3675
 3455SOL    HW221999   2.842   0.771  15.095  0.9313  2.5897  1.7820
 3456SOL     OW22000   0.762   1.004  10.425 -0.1108 -0.5314 -0.1530
 3456SOL    HW122001   0.695   0.967  10.482  2.1889 -0.5109  2.5963
 3456SOL    HW222002   0.780   0.941  10.355  1.0090  0.2786 -0.6009
 3457SOL     OW22003   1.146   3.139   9.090  0.0501  0.4287 -0.3070
 3457SOL    HW122004   1.132   3.049   9.121 -0.6450  1.0986  1.3784
 3457SOL    HW222005   1.182   3.185   9.165 -0.7664 -0.0558  0.3944
 3458SOL     OW22006   1.306   3.564   8.435 -0.1185  1.0614  0.3020
 3458SOL    HW122007   1.320   3.646   8.481 -0.1134  0.3181  1.6306
 3458SOL    HW222008   1.210   3.571   8.430 -0.1327  1.6994  1.6299
 3459SOL     OW22009   1.925   1.575   5.488  0.7398  0.0401 -0.3448
 3459SOL    HW122010   2.007   1.594   5.535  0.7678 -1.2194  0.1102
 3459SOL    HW222011   1.904   1.494   5.535 -0.5280  0.4240 -0.2608
 3460SOL     OW22012   2.854   2.035   5.687  0.2612  0.0983  0.4136
 3460SOL    HW122013   2.936   1.987   5.702 -1.0089 -2.1928 -0.0470
 3460SOL    HW222014   2.888   2.123   5.708 -2.1164  1.0351  0.2572
 3461SOL     OW22015   2.432   4.364  13.972  0.3268 -0.4939 -0.0489
 3461SOL    HW122016   2.496   4.346  14.041  1.5671  0.2304 -1.0120
 3461SOL    HW222017   2.471   4.347  13.886 -0.8446 -0.2309 -0.6390
 3462SOL     OW22018   2.410   4.402   5.867  0.0095 -0.3992  0.3761
 3462SOL    HW122019   2.473   4.397   5.940  1.9556  1.8213 -1.1366
 3462SOL    HW222020   2.420   4.497   5.873  1.1157 -0.5932  1.7799
 3463SOL     OW22021   0.707   2.990   3.325  0.6199  0.2481  0.0015
 3463SOL    HW122022   0.758   2.922   3.369  0.5285  0.8227  1.0142
 3463SOL    HW222023   0.726   3.069   3.377  0.5318  1.2152 -1.4280
 3464SOL     OW22024   4.084   1.489   8.534 -0.5251 -0.0561  0.6568
 3464SOL    HW122025   4.023   1.550   8.491  1.3276  0.3487 -1.3773
 3464SOL    HW222026   4.052   1.402   8.508 -0.4912 -0.0172  0.4840
 3465SOL     OW22027   1.278   2.281  14.141  0.2544  0.1261  0.0043
 3465SOL    HW122028   1.203   2.221  14.134  0.7664 -0.5729  0.4972
 3465SOL    HW222029   1.236   2.363  14.116  0.5064  0.6412  1.2620
 3466SOL     OW22030   3.811   1.019   0.985  0.4618 -0.8151 -0.3199
 3466SOL    HW122031   3.894   0.987   0.951 -0.7165 -5.3925  1.0369
 3466SOL    HW222032   3.747   1.001   0.916  0.8380  1.5286 -1.2666
 3467SOL     OW22033   2.087   0.863   4.208  0.3002  0.6404 -0.4798
 3467SOL    HW122034   2.030   0.874   4.131  2.6466 -0.3647 -2.3629
 3467SOL    HW222035   2.057   0.781   4.246 -0.1030  1.7397  1.5398
 3468SOL     OW22036   0.246   3.324   0.821  0.2671  0.4980 -0.1652
 3468SOL    HW122037   0.268   3.249   0.766 -1.6007 -0.8198  0.9060
 3468SOL    HW222038   0.208   3.389   0.762 -0.0231 -0.2438 -0.7858
 3469SOL     OW22039   2.377   4.010   3.777 -0.2568 -0.1816 -0.1753
 3469SOL    HW122040   2.387   4.102   3.754  0.3259  0.3557  2.2303
 3469SOL    HW222041   2.348   4.018   3.867  1.7059  0.3527  0.4246
 3470SOL     OW22042   0.431   4.352   6.733  0.3211  0.0260 -0.4924
 3470SOL    HW122043   0.522   4.381   6.733  0.5022 -0.4653  2.5799
 3470SOL    HW222044   0.425   4.313   6.646 -1.6750 -0.0397 -0.3430
 3471SOL     OW22045   0.459   4.457   3.129  0.4590  0.0456  0.1673
 3471SOL    HW122046   0.544   4.486   3.162 -0.1309 -0.0959  1.8402
 3471SOL    HW222047   0.450   4.384   3.191  2.1905  0.8675  1.3839
 3472SOL     OW22048   1.935   4.217  17.177  0.3188 -0.2150  0.5709
 3472SOL    HW122049   1.839   4.217  17.172  0.3246  0.4820  0.4921
 3472SOL    HW222050   1.949   4.272  17.254 -1.0393 -0.2536  0.8462
 3473SOL     OW22051   4.435   0.839   3.295  0.1749 -0.0718 -0.6196
 3473SOL    HW122052   4.468   0.854   3.383  0.7886 -0.1718 -0.8275
 3473SOL    HW222053   4.423   0.930   3.268  0.8790  0.5197  1.0957
 3474SOL     OW22054   0.932   1.705   5.403 -0.5509  0.1913 -0.0801
 3474SOL    HW122055   0.996   1.773   5.382 -0.1027 -0.9229 -2.2508
 3474SOL    HW222056   0.849   1.753   5.391  0.7308  1.7316 -2.6119
 3475SOL     OW22057   2.817   0.910   1.110 -0.0152  0.1362  0.1852
 3475SOL    HW122058   2.785   1.000   1.106  1.6499  0.8171  2.1348
 3475SOL    HW222059   2.906   0.909   1.074 -0.0747  0.9046  0.0274
 3476SOL     OW22060   0.928   0.249   1.872  0.6493  0.2246 -0.4195
 3476SOL    HW122061   0.974   0.184   1.819 -1.3225  0.8945 -2.9782
 3476SOL    HW222062   0.955   0.333   1.835  1.5328  1.6501  3.4420
 3477SOL     OW22063   1.292   2.330   2.056 -0.2441 -0.1090  0.2120
 3477SOL    HW122064   1.263   2.376   1.977  1.6379 -0.5839 -0.7779
 3477SOL    HW222065   1.324   2.253   2.009  2.0008  1.1521 -0.3211
 3478SOL     OW22066   4.171   4.158   1.804  0.0634 -0.0818 -0.5786
 3478SOL    HW122067   4.239   4.191   1.863  0.2616  0.2660 -1.0067
 3478SOL    HW222068   4.139   4.088   1.861  1.4638 -1.1855 -1.1532
 3479SOL     OW22069   0.055   0.756   1.491 -0.4928 -0.0624 -0.2557
 3479SOL    HW122070   4.713   0.788   1.526 -1.1334 -1.9252 -0.0517
 3479SOL    HW222071   0.031   0.672   1.452  0.9842 -1.6681  2.2519
 3480SOL     OW22072   3.914   3.577   1.901  0.3927 -0.0934  0.5390
 3480SOL    HW122073   3.975   3.555   1.831  0.2418  1.3044 -0.0331
 3480SOL    HW222074   3.882   3.489   1.920  2.9988 -0.8843  1.3231
 3481SOL     OW22075   0.548   3.118   2.871  0.1663  0.1981 -0.2123
 3481SOL    HW122076   0.562   3.090   2.961  0.4144  0.1078 -0.2783
 3481SOL    HW222077   0.637   3.110   2.836  0.3998  0.4539  0.3189
 3482SOL     OW22078   0.292   4.660   4.579  0.1820 -0.2749 -0.3371
 3482SOL    HW122079   0.289   0.008   4.613  3.2561 -1.1358  2.1511
 3482SOL    HW222080   0.315   4.681   4.488 -0.4925 -0.5134 -0.5669
 3483SOL     OW22081   1.880   1.654   8.924  0.1005 -0.3979  0.4549
 3483SOL    HW122082   1.938   1.722   8.957  0.4313 -1.2008  1.5459
 3483SOL    HW222083   1.898   1.585   8.988  0.0296 -0.0746  0.8248
 3484SOL     OW22084   3.103   2.449   4.248  0.0614  0.2618  0.7104
 3484SOL    HW122085   3.038   2.428   4.181  0.1471 -1.3168  1.1183
 3484SOL    HW222086   3.120   2.367   4.294 -0.1454  0.1680  0.6235
 3485SOL     OW22087   1.046   4.574   4.880 -0.0639  0.2592  1.1759
 3485SOL    HW122088   1.141   4.568   4.895  0.0614 -0.7390 -0.0132
 3485SOL    HW222089   1.059   4.625   4.800 -0.8135  1.9057  2.0934
 3486SOL     OW22090   3.355   3.388  11.528  0.1630  0.8475  0.2149
 3486SOL    HW122091   3.325   3.358  11.442  1.9261 -1.1628  0.3234
 3486SOL    HW222092   3.375   3.476  11.497  1.6550  1.4263  2.8184
 3487SOL     OW22093   0.060   4.124   9.589 -0.0345  0.0042 -0.0652
 3487SOL    HW122094   0.048   4.208   9.544  2.8126 -1.5627 -3.7208
 3487SOL    HW222095   0.082   4.163   9.674 -0.0022 -1.5064  0.6094
 3488SOL     OW22096   1.215   1.912   8.427 -0.0122  0.0850  0.1123
 3488SOL    HW122097   1.173   1.828   8.447 -1.2466  1.4879  3.3547
 3488SOL    HW222098   1.303   1.886   8.402  0.7875  4.0428 -1.1267
 3489SOL     OW22099   2.247   4.532   1.731  0.2623 -0.4594  0.2627
 3489SOL    HW122100   2.316   4.555   1.793  0.7195  2.2649 -1.2518
 3489SOL    HW222101   2.303   4.502   1.659  1.7841  0.7313  0.9408
 3490SOL     OW22102   0.758   4.086   0.310 -0.5690 -0.7903  0.4452
 3490SOL    HW122103   0.814   4.019   0.272  1.9840  2.2875 -1.2795
 3490SOL    HW222104   0.749   4.151   0.240 -0.4821  0.9748  2.0736
 3491SOL     OW22105   1.485   0.032   4.338  0.4993  0.5716 -0.1587
 3491SOL    HW122106   1.405   0.059   4.294 -0.5612 -0.5255  1.0940
 3491SOL    HW222107   1.528   0.117   4.332 -0.8784  1.1110 -2.3770
 3492SOL     OW22108   0.587   2.808   1.784 -0.1282 -0.1406  0.2605
 3492SOL    HW122109   0.544   2.731   1.822 -0.1487 -0.1233  0.2725
 3492SOL    HW222110   0.594   2.779   1.693 -0.7715  0.2622  0.0852
 3493SOL     OW22111   0.628   1.908   9.136  0.1028  0.0676 -0.8044
 3493SOL    HW122112   0.644   1.946   9.223 -2.1047 -1.2038  0.1503
 3493SOL    HW222113   0.713   1.864   9.129 -1.3425 -2.8572  0.0070
 3494SOL     OW22114   2.846   3.554  12.733 -0.4689  0.3209 -0.1286
 3494SOL    HW122115   2.941   3.568  12.735 -0.4202  0.2141 -1.3975
 3494SOL    HW222116   2.846   3.461  12.710 -0.7995  0.8522 -2.2760
 3495SOL     OW22117   1.981   3.963   7.773  0.1991 -0.1645  0.0059
 3495SOL    HW122118   1.919   4.011   7.828  0.3114  0.9852 -0.8730
 3495SOL    HW222119   2.054   4.021   7.793 -0.9691  2.0314 -2.1921
 3496SOL     OW22120   2.444   3.654  11.406  0.1742 -0.2935  0.4422
 3496SOL    HW122121   2.535   3.648  11.438  0.5068 -0.0236 -0.4598
 3496SOL    HW222122   2.410   3.575  11.449 -0.1024 -0.1489  0.4874
 3497SOL     OW22123   0.012   0.388  14.240  0.2561 -0.3171 -0.2169
 3497SOL    HW122124   4.722   0.378  14.150  0.7948 -2.2722 -0.1829
 3497SOL    HW222125   0.088   0.329  14.237  1.2798  1.0260 -0.3977
 3498SOL     OW22126   4.683   0.874  15.463  0.1491 -0.5321  0.2220
 3498SOL    HW122127   0.001   0.949  15.457 -0.8351  0.3467  1.6030
 3498SOL    HW222128   4.683   0.836  15.375  0.6517 -1.0920  0.4605
 3499SOL     OW22129   2.313   2.695   0.708  0.0988 -0.1065  0.2089
 3499SOL    HW122130   2.282   2.658   0.625  0.4196  0.0977 -0.0012
 3499SOL    HW222131   2.259   2.654   0.775 -0.8288  0.8795  0.0644
 3500SOL     OW22132   1.916   1.187   0.411 -0.0093  0.3639 -0.7592
 3500SOL    HW122133   1.927   1.117   0.347 -0.4943  0.0961 -0.5504
 3500SOL    HW222134   1.956   1.156   0.492  0.5730  0.9125 -0.8329
 3501SOL     OW22135   3.284   3.009   3.829  0.4527 -0.1474  0.2573
 3501SOL    HW122136   3.292   2.914   3.819  0.0085 -0.4293  2.5934
 3501SOL    HW222137   3.240   3.020   3.913 -0.3363  1.6604 -0.3995
 3502SOL     OW22138   4.165   0.399   7.581  0.3245  0.2525  0.1288
 3502SOL    HW122139   4.184   0.440   7.497 -1.1130 -1.0938 -0.8466
 3502SOL    HW222140   4.237   0.337   7.583  1.0011  1.0777  1.6993
 3503SOL     OW22141   1.434   1.823  11.646 -0.1896 -0.5233 -0.5543
 3503SOL    HW122142   1.379   1.887  11.691 -0.2730 -1.1006  0.1525
 3503SOL    HW222143   1.514   1.873  11.628 -0.5976  0.4546  0.3574
 3504SOL     OW22144   3.265   3.618   2.091  0.2194  0.2982  0.0944
 3504SOL    HW122145   3.243   3.668   2.012  2.2752  2.4379  0.8684
 3504SOL    HW222146   3.197   3.551   2.094  1.1767 -0.6621  0.0320
 3505SOL     OW22147   1.588   3.552   5.090  0.2454 -0.7614  0.3911
 3505SOL    HW122148   1.669   3.536   5.041  0.1958  2.2379 -0.7241
 3505SOL    HW222149   1.595   3.634   5.139 -0.7574 -0.6723  0.3861
 3506SOL     OW22150   2.322   4.415   4.983  0.3888 -0.6107 -0.3358
 3506SOL    HW122151   2.271   4.335   4.973 -0.6557  0.1205 -0.8646
 3506SOL    HW222152   2.262   4.485   4.956  0.6713  0.2712  1.3098
 3507SOL     OW22153   0.939   0.762  10.622  0.4835 -0.4739 -0.3764
 3507SOL    HW122154   0.918   0.674  10.592  1.3502 -0.1223 -1.9906
 3507SOL    HW222155   0.977   0.801  10.544  0.3631  0.7469  0.1631
 3508SOL     OW22156   3.915   2.350   4.241  0.8247  0.5061 -0.0217
 3508SOL    HW122157   3.967   2.286   4.192 -1.1676 -2.7197  2.0713
 3508SOL    HW222158   3.974   2.370   4.314  0.9694 -0.1866  0.0545
 3509SOL     OW22159   1.335   3.110  17.310 -0.0104  0.0625 -0.2544
 3509SOL    HW122160   1.266   3.044  17.321 -0.6616  0.7767  0.0058
 3509SOL    HW222161   1.351   3.079  17.221  0.1325 -1.1882  0.2009
 3510SOL     OW22162   2.632   2.387   8.420  0.1105  0.3362 -0.3790
 3510SOL    HW122163   2.725   2.399   8.439 -0.2810 -1.7521  2.8402
 3510SOL    HW222164   2.619   2.440   8.341  0.1816 -1.8033 -1.8463
 3511SOL     OW22165   1.751   2.183   6.358 -0.7898 -0.4142  0.2355
 3511SOL    HW122166   1.793   2.098   6.348 -1.1203 -0.8766  2.8318
 3511SOL    HW222167   1.728   2.194   6.450  1.5268  0.2376  0.7485
 3512SOL     OW22168   2.572   1.266   1.906  0.3012 -0.1033  0.4665
 3512SOL    HW122169   2.608   1.178   1.919 -1.5348 -1.3013 -2.5563
 3512SOL    HW222170   2.515   1.255   1.830 -0.2267  1.0785  0.6842
 3513SOL     OW22171   0.763   1.357   8.128 -0.4319  0.2352  0.5528
 3513SOL    HW122172   0.781   1.285   8.189 -1.5452 -1.3413 -0.9983
 3513SOL    HW222173   0.849   1.396   8.140  0.5109 -2.2210  1.9110
 3514SOL     OW22174   2.070   1.166  10.433  0.2277 -0.2559 -0.8160
 3514SOL    HW122175   2.097   1.143  10.344  0.7906  0.1559 -0.7559
 3514SOL    HW222176   2.021   1.248  10.430 -0.3518 -0.6307 -1.3409
 3515SOL     OW22177   4.114   3.892   8.840  0.3104 -0.1890 -0.4694
 3515SOL    HW122178   4.132   3.803   8.811  1.3014  0.6329 -2.3289
 3515SOL    HW222179   4.183   3.906   8.905  1.0107 -0.2308 -1.2151
 3516SOL     OW22180   1.672   3.786   8.325 -0.1302  0.1691  0.3692
 3516SOL    HW122181   1.655   3.696   8.353 -1.3817  0.9565  2.0825
 3516SOL    HW222182   1.588   3.831   8.328 -1.3446 -2.1299  1.0329
 3517SOL     OW22183   0.808   0.371  14.260 -0.2400 -0.3384  0.0201
 3517SOL    HW122184   0.889   0.323  14.245 -0.5822 -0.1664 -2.4114
 3517SOL    HW222185   0.832   0.446  14.314  1.5197 -1.5899  0.9847
 3518SOL     OW22186   0.894   1.442  13.097 -0.0472 -0.1084 -0.4977
 3518SOL    HW122187   0.899   1.410  13.006 -2.1650  0.8428 -0.9370
 3518SOL    HW222188   0.911   1.363  13.149 -1.8969 -0.6396 -0.6914
 3519SOL     OW22189   2.059   4.250  15.814  0.2112  0.1385 -0.0520
 3519SOL    HW122190   1.992   4.293  15.760  0.3440 -0.0001 -0.3255
 3519SOL    HW222191   2.128   4.316  15.814 -0.8339  1.2355  1.7486
 3520SOL     OW22192   1.054   0.482   7.647  0.7616 -0.1885 -0.6172
 3520SOL    HW122193   1.112   0.557   7.658 -0.4977  0.3200  2.4424
 3520SOL    HW222194   0.965   0.513   7.630  0.5539 -1.3944 -1.7481
 3521SOL     OW22195   0.354   1.201  15.435  0.2818 -0.6811 -0.3748
 3521SOL    HW122196   0.395   1.216  15.520  0.9267  0.5301 -0.9046
 3521SOL    HW222197   0.430   1.219  15.380  1.0775  2.9933  1.9416
 3522SOL     OW22198   2.270   1.542   0.310  0.8527 -0.1054 -0.4969
 3522SOL    HW122199   2.302   1.630   0.295 -0.6058  0.4419 -0.4416
 3522SOL    HW222200   2.350   1.490   0.305 -0.3563 -2.0973  0.9932
 3523SOL     OW22201   2.426   0.872   7.665 -0.1010 -0.0761  0.2869
 3523SOL    HW122202   2.490   0.879   7.594 -1.4301  1.1535 -0.8121
 3523SOL    HW222203   2.371   0.806   7.623 -0.2795 -0.5531  1.2811
 3524SOL     OW22204   4.044   2.172  12.699 -0.0410 -0.0394 -1.0210
 3524SOL    HW122205   4.111   2.132  12.754 -1.6799 -0.4124  0.7230
 3524SOL    HW222206   4.072   2.263  12.705 -1.2548  0.4318 -2.3223
 3525SOL     OW22207   3.895   4.244   2.195 -0.1635  0.1296 -0.0667
 3525SOL    HW122208   3.899   4.278   2.106 -0.8515  1.0452  0.2376
 3525SOL    HW222209   3.842   4.312   2.237  0.2613  0.0828  0.5479
 3526SOL     OW22210   3.985   3.023   6.989 -0.0799 -0.0943 -0.7214
 3526SOL    HW122211   4.040   3.040   6.912 -0.6818  2.0777 -0.7003
 3526SOL    HW222212   3.899   2.994   6.959  0.0835 -0.7337 -0.5535
 3527SOL     OW22213   0.880   0.718   5.653  0.6863 -0.6484 -0.4167
 3527SOL    HW122214   0.957   0.746   5.604  0.5280 -1.0395 -0.8929
 3527SOL    HW222215   0.906   0.640   5.702  2.0729  1.3446  2.0255
 3528SOL     OW22216   0.402   3.771   8.992  0.2684 -0.0428  0.4864
 3528SOL    HW122217   0.414   3.860   8.959 -2.1117 -0.5676 -1.8298
 3528SOL    HW222218   0.395   3.731   8.906 -1.2982  0.8122  0.2104
 3529SOL     OW22219   4.298   0.106   0.018  0.3224 -0.3348  0.1067
 3529SOL    HW122220   4.386   0.130  17.752 -0.2490  0.3167 -1.2016
 3529SOL    HW222221   4.293   0.171   0.089  0.0507  0.1036 -0.3145
 3530SOL     OW22222   0.955   0.650   4.693  0.2112  0.3415 -0.9779
 3530SOL    HW122223   0.949   0.598   4.613 -3.1608  0.4696 -0.7948
 3530SOL    HW222224   0.980   0.736   4.657 -0.6629  0.6203 -0.9141
 3531SOL     OW22225   2.107   1.443   0.581 -0.0781  0.6439 -0.1552
 3531SOL    HW122226   2.080   1.352   0.565 -0.0716  0.9294 -1.7947
 3531SOL    HW222227   2.164   1.464   0.507  0.9701  2.0923  1.0721
 3532SOL     OW22228   0.433   1.186   3.638  0.1419 -0.1274 -0.1123
 3532SOL    HW122229   0.410   1.093   3.633  0.1004 -0.0947 -0.5248
 3532SOL    HW222230   0.456   1.211   3.728  2.7118  2.0602 -1.4048
 3533SOL     OW22231   3.030   4.089   1.753  0.0659 -0.1420 -0.1924
 3533SOL    HW122232   3.088   4.099   1.828  0.3754 -0.6982 -0.3538
 3533SOL    HW222233   3.093   4.085   1.681 -0.8078  1.6983 -1.0541
 3534SOL     OW22234   3.401   0.355   5.732  0.2234  0.2364 -0.1804
 3534SOL    HW122235   3.326   0.384   5.784 -0.2422 -0.5938 -0.3825
 3534SOL    HW222236   3.357   0.281   5.689 -2.4704  1.0469  1.1276
 3535SOL     OW22237   2.605   0.280   5.246  0.4093 -0.3844 -0.2402
 3535SOL    HW122238   2.682   0.317   5.203 -1.2245 -0.2504 -3.0552
 3535SOL    HW222239   2.644   0.213   5.302 -1.2682 -1.2078 -0.0487
 3536SOL     OW22240   3.919   0.452  10.688 -0.2371  0.1826 -0.1184
 3536SOL    HW122241   4.013   0.450  10.707 -0.3907 -0.7649  0.5582
 3536SOL    HW222242   3.924   0.440  10.594 -0.3460 -0.8737  0.0073
 3537SOL     OW22243   4.228   4.399  13.160 -0.2975 -0.0050 -0.1735
 3537SOL    HW122244   4.220   4.492  13.139 -0.3444  0.0671  0.1745
 3537SOL    HW222245   4.267   4.400  13.247  0.8023  0.7420 -0.6648
 3538SOL     OW22246   3.251   4.447  15.801  0.2704  0.1019 -0.0086
 3538SOL    HW122247   3.182   4.452  15.868  1.7490  0.6149  1.4920
 3538SOL    HW222248   3.215   4.500  15.730  0.9748 -0.2496 -0.6202
 3539SOL     OW22249   4.305   3.289   4.816  0.2435 -0.7112 -0.3958
 3539SOL    HW122250   4.216   3.268   4.845 -0.3713  1.1156 -0.9386
 3539SOL    HW222251   4.301   3.249   4.729  1.8959 -1.1162 -0.2896
 3540SOL     OW22252   0.642   0.403   5.330  0.7190 -0.6427  0.3346
 3540SOL    HW122253   0.713   0.347   5.362  0.4961 -0.6794  0.7558
 3540SOL    HW222254   0.599   0.350   5.262  1.1789 -0.9273  0.2632
 3541SOL     OW22255   1.078   2.846   9.177  0.5935  0.7850 -0.0145
 3541SOL    HW122256   1.112   2.781   9.239  0.9733  0.9522 -0.0449
 3541SOL    HW222257   1.030   2.795   9.112  1.4298 -2.0067  1.5321
 3542SOL     OW22258   2.633   1.160  15.994 -0.3599 -0.0438 -0.4795
 3542SOL    HW122259   2.553   1.210  16.011 -0.5111 -0.2758 -0.5013
 3542SOL    HW222260   2.697   1.230  16.004 -1.3034  0.6584  0.6794
 3543SOL     OW22261   4.407   4.152   9.650  0.2760 -0.2423 -0.0430
 3543SOL    HW122262   4.442   4.101   9.576  0.9658 -1.2073  0.9465
 3543SOL    HW222263   4.418   4.237   9.608 -2.3415 -0.6712 -1.5807
 3544SOL     OW22264   1.679   4.286   0.689 -0.1640 -0.1034 -0.4346
 3544SOL    HW122265   1.700   4.257   0.601  0.8576 -1.2143  0.1719
 3544SOL    HW222266   1.600   4.337   0.675 -0.5751 -0.7795 -0.5628
 3545SOL     OW22267   3.480   1.497   5.470  0.3006 -0.9161 -0.2549
 3545SOL    HW122268   3.557   1.511   5.525 -1.5768 -1.8980  2.6045
 3545SOL    HW222269   3.412   1.488   5.537 -0.5535 -0.6405 -1.0796
 3546SOL     OW22270   3.042   2.328   8.091  0.0036 -0.2665 -0.4308
 3546SOL    HW122271   2.964   2.289   8.129  1.6107 -2.0129  1.0810
 3546SOL    HW222272   3.111   2.272   8.128  0.6226 -0.6808 -2.1754
 3547SOL     OW22273   3.690   0.407   7.902  0.1994  0.1022  0.2300
 3547SOL    HW122274   3.785   0.401   7.914  0.0193 -1.5194  0.7396
 3547SOL    HW222275   3.673   0.328   7.852  0.0641 -0.9737  1.9850
 3548SOL     OW22276   0.466   4.721  15.129  0.0017 -0.1474  0.5008
 3548SOL    HW122277   0.454   0.019  15.043  1.2946  0.4637  0.6000
 3548SOL    HW222278   0.543   4.666  15.120 -0.2528  0.2240 -3.8750
 3549SOL     OW22279   0.230   1.907   9.400 -0.4262  0.1403  0.1886
 3549SOL    HW122280   0.292   1.843   9.365 -3.3710 -0.8712 -3.1451
 3549SOL    HW222281   0.253   1.890   9.491  0.0549  0.8699  0.2115
 3550SOL     OW22282   0.362   0.995   2.651  0.4574 -0.4199 -0.1863
 3550SOL    HW122283   0.372   1.041   2.568  1.0491 -2.1990 -1.1168
 3550SOL    HW222284   0.357   0.904   2.620  0.8614 -1.5658  3.0856
 3551SOL     OW22285   1.643   0.479   6.565  0.4433  0.0473  0.1995
 3551SOL    HW122286   1.586   0.482   6.488  0.0110 -2.8145  0.4087
 3551SOL    HW222287   1.640   0.390   6.599 -1.9945 -1.2647 -3.4538
 3552SOL     OW22288   1.786   4.324   6.079  0.3906 -0.0577  0.1602
 3552SOL    HW122289   1.881   4.313   6.083  0.6472  2.5292  0.8334
 3552SOL    HW222290   1.757   4.363   6.161  2.9418  2.2772 -0.0377
 3553SOL     OW22291   3.272   0.242  12.430 -0.5444  0.4852  0.2266
 3553SOL    HW122292   3.298   0.328  12.464  1.2669  0.9721 -2.4406
 3553SOL    HW222293   3.287   0.199  12.514  2.2554  1.2334  0.1008
 3554SOL     OW22294   3.764   3.525   7.551  0.2088  0.9356 -0.4477
 3554SOL    HW122295   3.800   3.438   7.537  0.7188  1.1291 -0.3349
 3554SOL    HW222296   3.825   3.566   7.612  2.0813 -2.6283  0.0468
 3555SOL     OW22297   0.390   2.997  16.469 -0.6823 -0.0141 -0.0756
 3555SOL    HW122298   0.307   2.998  16.517  0.8190 -1.2745  2.5297
 3555SOL    HW222299   0.428   3.074  16.512  0.6870 -0.4303 -0.5301
 3556SOL     OW22300   2.139   0.067   8.451  0.0432  0.1266  0.0002
 3556SOL    HW122301   2.229   0.077   8.483  0.1117  0.4577 -0.2912
 3556SOL    HW222302   2.107   0.156   8.467  0.9805  0.4880 -0.1278
 3557SOL     OW22303   3.402   2.327   4.127 -0.1566 -0.1024  0.4894
 3557SOL    HW122304   3.380   2.246   4.174 -1.5370 -1.5721 -2.6408
 3557SOL    HW222305   3.497   2.326   4.133  0.1715  1.3479 -4.0743
 3558SOL     OW22306   4.445   0.599  17.142  0.4419  0.2750  0.8192
 3558SOL    HW122307   4.425   0.538  17.072 -0.1765 -0.5787  1.7399
 3558SOL    HW222308   4.529   0.633  17.111  1.3232 -2.8705 -0.1875
 3559SOL     OW22309   0.459   1.708   2.516  0.0794  0.7145  0.4211
 3559SOL    HW122310   0.536   1.718   2.459  0.6657  0.2562  1.1344
 3559SOL    HW222311   0.445   1.614   2.517  2.0900  0.4075 -0.6608
 3560SOL     OW22312   1.905   2.032   7.509  0.5059  0.8609 -0.3919
 3560SOL    HW122313   1.931   2.121   7.485  1.1496  0.8729  0.3583
 3560SOL    HW222314   1.861   2.048   7.592  1.3593 -1.5355  0.5223
 3561SOL     OW22315   1.006   1.228   6.408  0.3373 -0.2222 -0.1059
 3561SOL    HW122316   1.078   1.291   6.403  0.6995 -0.6900 -0.6411
 3561SOL    HW222317   0.941   1.285   6.450 -0.0080 -0.0279 -0.9058
 3562SOL     OW22318   3.951   2.007   7.487 -0.2416 -0.0040  0.0944
 3562SOL    HW122319   3.867   2.012   7.533 -1.3761  0.9527 -2.0612
 3562SOL    HW222320   3.933   2.038   7.398  1.1206  1.2777  0.2670
 3563SOL     OW22321   0.297   0.424   4.182  0.9281  0.1265  0.1840
 3563SOL    HW122322   0.280   0.422   4.276  0.2187 -3.2992 -0.0145
 3563SOL    HW222323   0.378   0.475   4.175 -1.0033  3.2552  0.9462
 3564SOL     OW22324   4.590   2.192   6.058  0.1416  0.1434 -0.7814
 3564SOL    HW122325   4.555   2.277   6.082 -0.0406  0.5796 -2.5926
 3564SOL    HW222326   4.628   2.159   6.140 -0.3523 -0.4895 -0.8020
 3565SOL     OW22327   4.490   1.581  17.463  0.6680  0.9114 -0.5194
 3565SOL    HW122328   4.507   1.624  17.547  3.2826 -2.4463  0.6749
 3565SOL    HW222329   4.397   1.593  17.444  0.1152 -0.1213  1.5745
 3566SOL     OW22330   2.708   3.353   9.021  0.3316  0.4198 -0.7571
 3566SOL    HW122331   2.673   3.306   9.097  1.4265  1.2980  0.2926
 3566SOL    HW222332   2.748   3.431   9.060 -0.0128  0.1116  0.2233
 3567SOL     OW22333   4.063   4.236   3.976  0.2624 -0.7937 -0.8689
 3567SOL    HW122334   4.021   4.171   4.033  1.1376  0.0269  0.6968
 3567SOL    HW222335   4.091   4.291   4.049  3.7165 -2.9708 -0.5504
 3568SOL     OW22336   1.206   4.608   8.947  0.1878 -0.3862  0.6320
 3568SOL    HW122337   1.184   4.663   9.022 -3.1195  0.4614 -0.9683
 3568SOL    HW222338   1.297   4.584   8.964  0.4377 -0.2392 -0.5463
 3569SOL     OW22339   3.545   1.266   3.843  0.5279 -0.3545 -0.2888
 3569SOL    HW122340   3.492   1.316   3.782 -0.0755 -0.9730 -0.2743
 3569SOL    HW222341   3.616   1.235   3.787  0.5432 -2.2290  0.7748
 3570SOL     OW22342   0.312   3.911  14.981  0.2625 -0.0491  0.4119
 3570SOL    HW122343   0.330   3.957  15.063 -1.4173  2.5090 -0.6465
 3570SOL    HW222344   0.263   3.841  15.022  0.7774 -0.2817  0.6190
 3571SOL     OW22345   2.814   1.530   2.224 -0.1139  0.0194  0.2473
 3571SOL    HW122346   2.856   1.448   2.250  2.9889  1.4070 -0.4639
 3571SOL    HW222347   2.737   1.490   2.182 -0.5232  0.1983  0.8334
 3572SOL     OW22348   0.759   0.899   9.559 -0.3542 -0.9856 -0.1932
 3572SOL    HW122349   0.752   0.994   9.544  0.0213 -1.0425 -0.7547
 3572SOL    HW222350   0.821   0.876   9.489 -0.9053 -0.4556 -0.8530
 3573SOL     OW22351   4.182   3.991  13.331 -0.2220 -0.0129 -0.2316
 3573SOL    HW122352   4.224   4.051  13.393 -0.0587 -1.1464  0.7610
 3573SOL    HW222353   4.188   4.026  13.242 -2.3495  0.8807 -0.0107
 3574SOL     OW22354   4.392   2.769   6.470 -0.4977  0.1625  0.2883
 3574SOL    HW122355   4.405   2.782   6.564 -1.1607 -1.0238  0.5528
 3574SOL    HW222356   4.420   2.857   6.444  0.1307 -0.8222 -2.3212
 3575SOL     OW22357   2.843   0.456  11.599  0.7618 -0.5934 -0.1538
 3575SOL    HW122358   2.812   0.382  11.651 -1.4509 -0.5857 -1.4711
 3575SOL    HW222359   2.808   0.440  11.512  1.2417  0.9249 -0.6350
 3576SOL     OW22360   1.942   1.809   9.395 -0.2177 -0.0634 -0.7067
 3576SOL    HW122361   2.016   1.790   9.338 -1.3794  1.0318 -2.5672
 3576SOL    HW222362   1.876   1.748   9.360 -1.5520  0.1964  1.3086
 3577SOL     OW22363   4.240   0.725   7.865 -0.0889  0.3623  0.3390
 3577SOL    HW122364   4.279   0.748   7.950 -2.1880 -0.2651  1.4705
 3577SOL    HW222365   4.174   0.793   7.850  0.0869  0.5926  0.6004
 3578SOL     OW22366   1.049   3.980   8.585  0.5514 -0.0748  0.6620
 3578SOL    HW122367   0.970   4.009   8.631  0.1570 -0.2543  0.1063
 3578SOL    HW222368   1.113   3.974   8.655  0.6494 -4.8572  0.1590
 3579SOL     OW22369   3.145   0.998   6.976  0.2073  0.1381 -0.2137
 3579SOL    HW122370   3.187   1.052   7.043 -0.5536 -0.5899  0.8446
 3579SOL    HW222371   3.076   1.057   6.943  1.2114  1.1596 -0.4952
 3580SOL     OW22372   2.616   1.886   4.551  0.2984 -0.2826 -0.1407
 3580SOL    HW122373   2.633   1.913   4.461 -2.5351 -1.3848 -1.0126
 3580SOL    HW222374   2.654   1.965   4.589  1.0810 -0.2791 -0.9620
 3581SOL     OW22375   3.495   2.676   3.220 -0.7118 -0.3065 -0.2999
 3581SOL    HW122376   3.461   2.590   3.195 -0.8958 -0.8520  1.7877
 3581SOL    HW222377   3.575   2.659   3.270 -0.1993 -1.1728 -1.4135
 3582SOL     OW22378   0.615   2.540   6.262  0.6429 -0.5199 -0.3819
 3582SOL    HW122379   0.572   2.594   6.328  0.5339  0.3011 -1.1307
 3582SOL    HW222380   0.702   2.542   6.301  0.4610  0.2094 -0.0293
 3583SOL     OW22381   4.262   3.979   6.401  0.0183 -0.1439  0.3525
 3583SOL    HW122382   4.244   4.067   6.367  0.0409 -0.3186 -0.1206
 3583SOL    HW222383   4.275   3.949   6.311 -0.0334 -1.7023  0.8682
 3584SOL     OW22384   1.840   2.409  14.925  0.5882 -0.0682  0.1559
 3584SOL    HW122385   1.877   2.495  14.947  2.0785 -0.5218 -0.5217
 3584SOL    HW222386   1.865   2.404  14.832 -3.0084  0.7163 -0.8271
 3585SOL     OW22387   2.532   1.009   4.968 -0.8293 -0.8189  0.3677
 3585SOL    HW122388   2.468   1.078   4.947 -0.9359 -0.8837  0.4818
 3585SOL    HW222389   2.519   0.953   4.891  0.5688 -0.5565 -0.0653
 3586SOL     OW22390   0.677   3.426  14.280  0.4570 -0.3657  0.0493
 3586SOL    HW122391   0.768   3.445  14.255  0.1319  1.7371  0.4346
 3586SOL    HW222392   0.626   3.505  14.261  2.5844  0.5854 -1.7657
 3587SOL     OW22393   1.450   4.698  13.141  0.5524  0.2800  0.7366
 3587SOL    HW122394   1.418   4.667  13.226 -1.7409 -1.6972 -0.8506
 3587SOL    HW222395   1.517   0.015  13.177 -0.0131  2.1983 -1.2683
 3588SOL     OW22396   0.031   1.905   4.058 -0.0728  0.3427  0.1880
 3588SOL    HW122397   4.700   1.968   4.064 -0.7762 -0.6433  1.9467
 3588SOL    HW222398   0.004   1.846   3.987 -3.3857  0.7957  1.0997
 3589SOL     OW22399   2.680   0.129  12.751  0.1767 -0.3870 -0.3294
 3589SOL    HW122400   2.666   0.063  12.818  3.4582 -1.4571 -0.6744
 3589SOL    HW222401   2.687   0.074  12.672 -0.9040 -0.4376 -0.3983
 3590SOL     OW22402   3.913   2.650   0.860 -0.8352  0.1227 -1.0445
 3590SOL    HW122403   3.967   2.593   0.914 -2.8973 -1.2192 -0.3556
 3590SOL    HW222404   3.939   2.624   0.772  1.1821 -1.7262  0.1083
 3591SOL     OW22405   1.078   1.062   8.164  0.7142  0.2786 -0.0868
 3591SOL    HW122406   1.105   0.970   8.174 -1.2011 -0.3992 -1.3523
 3591SOL    HW222407   1.030   1.056   8.082 -2.1515 -0.6283  1.6563
 3592SOL     OW22408   1.775   1.853  17.056  0.0330 -0.3021  0.1678
 3592SOL    HW122409   1.690   1.820  17.026 -0.7798  1.9191  0.0123
 3592SOL    HW222410   1.801   1.787  17.119 -0.5277  1.4835  2.2542
 3593SOL     OW22411   3.424   2.967  10.898 -0.1802  0.0063  0.3459
 3593SOL    HW122412   3.453   3.051  10.933  1.2848 -0.3979  0.0731
 3593SOL    HW222413   3.415   2.986  10.804 -0.5183  0.4054  0.4589
 3594SOL     OW22414   3.332   2.137   4.689 -0.0505  0.0426  0.3962
 3594SOL    HW122415   3.393   2.171   4.754 -0.8479  0.5986  0.8486
 3594SOL    HW222416   3.286   2.065   4.732 -1.8339  1.6175  1.1055
 3595SOL     OW22417   0.136   0.984   4.257 -0.0331 -0.3703  0.5397
 3595SOL    HW122418   0.068   1.047   4.234  0.6049  0.4809  0.9906
 3595SOL    HW222419   0.208   1.046   4.242  1.3716 -1.9915  0.5799
 3596SOL     OW22420   3.647   4.383   8.112 -0.9903  0.3707 -0.2944
 3596SOL    HW122421   3.678   4.307   8.063  0.8993  0.8579  0.1365
 3596SOL    HW222422   3.718   4.447   8.109 -1.2110  0.6623  0.7032
 3597SOL     OW22423   4.685   3.849  17.166  0.4677 -0.6938 -0.2465
 3597SOL    HW122424   4.737   3.784  17.119 -1.5507 -2.9678  0.6489
 3597SOL    HW222425   4.605   3.799  17.181  0.2861  0.5285  2.8914
 3598SOL     OW22426   1.643   4.110   2.969  0.6360  0.0000 -0.2860
 3598SOL    HW122427   1.707   4.165   3.015 -0.0963 -0.2567  1.0297
 3598SOL    HW222428   1.562   4.154   2.992 -0.3432 -1.3978 -1.0734
 3599SOL     OW22429   0.013   0.182   0.297  0.1483 -0.0589 -0.2076
 3599SOL    HW122430   0.027   0.175   0.392  1.1307  0.0484 -0.3455
 3599SOL    HW222431   4.660   0.201   0.300  0.1776  0.1556 -0.6927
 3600SOL     OW22432   3.749   2.866   6.585 -0.1401 -0.7512  0.7569
 3600SOL    HW122433   3.674   2.827   6.631 -0.5564  0.5476  1.1805
 3600SOL    HW222434   3.829   2.857   6.637  0.2479 -0.8117  0.1420
 3601SOL     OW22435   1.014   4.634   5.294  0.0067 -0.0492 -0.7415
 3601SOL    HW122436   1.041   4.544   5.309  0.5361 -0.1048 -2.0209
 3601SOL    HW222437   1.086   4.682   5.334  0.0971 -0.8422  0.0417
 3602SOL     OW22438   0.338   1.002   3.263  0.0179 -0.9171 -0.3819
 3602SOL    HW122439   0.397   1.020   3.190  0.2323 -1.3746 -0.3224
 3602SOL    HW222440   0.322   1.089   3.300 -0.0529 -1.6847  1.4249
 3603SOL     OW22441   2.655   3.277   9.526  0.1877  0.6209 -0.5109
 3603SOL    HW122442   2.690   3.338   9.592  0.1415 -0.4511  0.5066
 3603SOL    HW222443   2.569   3.247   9.556 -1.2561  2.1775 -3.1386
 3604SOL     OW22444   2.109   2.904   8.087  0.3951 -0.2096 -0.5254
 3604SOL    HW122445   2.018   2.909   8.117  0.8066 -0.0564  0.6886
 3604SOL    HW222446   2.143   2.990   8.109  0.3203 -0.7097  1.5835
 3605SOL     OW22447   2.785   2.213   8.005  0.3626  0.2404 -0.2515
 3605SOL    HW122448   2.695   2.180   8.009  0.3852  0.3300  1.0308
 3605SOL    HW222449   2.776   2.289   7.948  2.0186  0.5077 -0.1394
 3606SOL     OW22450   4.110   3.950   1.952  0.0728 -0.3693 -0.6880
 3606SOL    HW122451   4.030   3.924   1.907  0.2496 -0.8772 -0.7169
 3606SOL    HW222452   4.160   3.868   1.958  1.1067  0.1221 -2.3320
 3607SOL     OW22453   0.151   1.684  14.521 -0.1749  0.1763 -0.0697
 3607SOL    HW122454   0.244   1.699  14.501  0.3852 -0.5865  1.9073
 3607SOL    HW222455   0.145   1.590  14.539 -2.1232  0.1833 -0.6516
 3608SOL     OW22456   2.085   2.453   1.697 -0.2740  0.2160 -0.5486
 3608SOL    HW122457   2.165   2.402   1.712 -0.8307 -0.7662 -0.9289
 3608SOL    HW222458   2.084   2.463   1.602 -1.1688  0.4544 -0.5128
 3609SOL     OW22459   1.304   2.574   7.641  0.3565 -0.0524  0.3571
 3609SOL    HW122460   1.283   2.586   7.734 -2.1944 -2.1851  0.0501
 3609SOL    HW222461   1.400   2.580   7.641  0.4125 -1.2629  2.7523
 3610SOL     OW22462   0.040   4.178   2.858 -0.1818  0.0039 -0.1869
 3610SOL    HW122463   0.078   4.106   2.908  2.2324  1.7270  0.5051
 3610SOL    HW222464   4.698   4.181   2.905  0.3469 -0.1848  0.7707
 3611SOL     OW22465   0.334   3.618   2.413 -0.2625  0.5081  0.3011
 3611SOL    HW122466   0.383   3.700   2.415  0.2300  0.2407 -0.7848
 3611SOL    HW222467   0.345   3.598   2.320 -2.0093  0.4140  0.1215
 3612SOL     OW22468   1.383   0.062   6.502 -0.0602  0.1831 -0.3525
 3612SOL    HW122469   1.353   4.731   6.559 -0.7487  0.5168 -0.2935
 3612SOL    HW222470   1.301   0.083   6.456 -0.1199 -0.7318 -0.6731
 3613SOL     OW22471   1.846   4.303   7.490 -0.0840  0.1256 -0.4361
 3613SOL    HW122472   1.924   4.328   7.439  0.3246  0.2040  0.2350
 3613SOL    HW222473   1.804   4.247   7.425 -0.0465 -1.4650  0.9234
 3614SOL     OW22474   4.334   4.269   2.007 -0.0589  0.1984  0.1574
 3614SOL    HW122475   4.339   4.224   2.092  0.6110 -4.6132 -2.4592
 3614SOL    HW222476   4.373   4.356   2.014  0.1458  0.0346  1.0515
 3615SOL     OW22477   1.395   0.368  10.548  0.4325  0.4047  0.0406
 3615SOL    HW122478   1.416   0.323  10.467 -2.2640 -2.8198  1.1755
 3615SOL    HW222479   1.300   0.362  10.550  0.6143 -2.1212  1.6660
 3616SOL     OW22480   3.136   1.334  11.395  0.1599  0.2489 -0.6595
 3616SOL    HW122481   3.116   1.252  11.440  2.7546 -1.3784 -2.4658
 3616SOL    HW222482   3.110   1.400  11.459  3.4457  0.6321  0.2914
 3617SOL     OW22483   4.008   4.145   7.107  0.0452  0.1328  0.0292
 3617SOL    HW122484   4.041   4.103   7.027  1.4195  2.5755 -0.6998
 3617SOL    HW222485   4.022   4.234   7.074 -1.1521 -0.7473 -2.8394
 3618SOL     OW22486   0.402   0.966  12.861 -0.5132 -0.1052  0.1330
 3618SOL    HW122487   0.448   0.926  12.787  2.4039 -0.3225  2.0944
 3618SOL    HW222488   0.452   1.046  12.876  1.9408 -1.5413 -0.3948
 3619SOL     OW22489   1.044   1.593  14.818 -0.3979  0.4272 -0.5688
 3619SOL    HW122490   0.982   1.607  14.746  0.3291  0.4624 -1.1839
 3619SOL    HW222491   1.049   1.497  14.814  2.0184  0.6003 -1.4296
 3620SOL     OW22492   1.198   0.623   2.423 -0.0614  0.5386 -0.5144
 3620SOL    HW122493   1.238   0.660   2.502  0.7213 -1.4904  0.0433
 3620SOL    HW222494   1.105   0.642   2.429 -0.2631  0.0109 -1.9581
 3621SOL     OW22495   1.519   4.324   6.753 -0.2723 -0.2733  0.4788
 3621SOL    HW122496   1.447   4.330   6.690  0.5697 -2.7323 -0.7164
 3621SOL    HW222497   1.586   4.379   6.710 -0.3712 -1.6832 -1.5027
 3622SOL     OW22498   0.046   3.365  13.544  0.4353 -0.1541  0.0569
 3622SOL    HW122499   0.118   3.321  13.499 -0.1331  0.1615 -1.1518
 3622SOL    HW222500   4.724   3.294  13.531 -0.3484  0.8932 -1.9342
 3623SOL     OW22501   0.871   3.814   2.773  0.0230  0.1958  0.8471
 3623SOL    HW122502   0.781   3.849   2.775  0.1906  0.6997 -0.3862
 3623SOL    HW222503   0.929   3.881   2.809  0.1584 -0.3658  1.6640
 3624SOL     OW22504   2.611   1.856   3.890  0.1761 -0.0742  0.4147
 3624SOL    HW122505   2.700   1.889   3.890  0.0941  0.1055 -1.8789
 3624SOL    HW222506   2.570   1.936   3.923 -1.5422 -0.5152 -0.6021
 3625SOL     OW22507   1.194   4.455   8.718  0.4847 -0.0505  0.3881
 3625SOL    HW122508   1.241   4.514   8.660 -0.3174  0.0985 -0.1027
 3625SOL    HW222509   1.182   4.520   8.787 -1.6685  1.0250 -0.9925
 3626SOL     OW22510   1.331   0.693   9.814 -0.6109 -0.3248 -0.7461
 3626SOL    HW122511   1.319   0.749   9.737 -0.4643 -1.4539 -1.5823
 3626SOL    HW222512   1.402   0.640   9.777  0.0609  0.8641 -1.1539
 3627SOL     OW22513   1.899   0.484   8.299  0.3311 -0.4021 -0.1378
 3627SOL    HW122514   1.855   0.465   8.216  1.2886 -1.3818 -0.4189
 3627SOL    HW222515   1.896   0.580   8.299 -0.5717 -0.4266  2.0258
 3628SOL     OW22516   1.193   2.263   3.688  0.3695  0.7089 -0.5196
 3628SOL    HW122517   1.249   2.190   3.714  1.3136  1.8245  0.6102
 3628SOL    HW222518   1.217   2.327   3.756 -2.7793  1.8292 -0.4641
 3629SOL     OW22519   3.509   0.727   1.886 -0.0892 -0.3052 -0.0812
 3629SOL    HW122520   3.495   0.797   1.950 -0.2423 -0.4279  0.0198
 3629SOL    HW222521   3.473   0.765   1.805  2.1293  0.2444 -0.7996
 3630SOL     OW22522   1.915   3.096   4.768 -0.5424  0.3459 -0.4004
 3630SOL    HW122523   1.872   3.079   4.684 -1.8856 -1.3068  0.6114
 3630SOL    HW222524   2.008   3.075   4.757 -1.1448 -2.9133  0.5994
 3631SOL     OW22525   0.589   4.411   5.851 -0.0697  0.0263 -0.4440
 3631SOL    HW122526   0.556   4.348   5.915  1.6804  0.5212  0.9399
 3631SOL    HW222527   0.683   4.394   5.855  0.3502  2.1153 -1.5213
 3632SOL     OW22528   1.302   1.842  17.063 -0.2474  0.1903  0.0919
 3632SOL    HW122529   1.358   1.861  17.139 -1.1204  2.1701  0.2410
 3632SOL    HW222530   1.297   1.928  17.022 -0.7738 -0.2339 -0.7336
 3633SOL     OW22531   2.088   4.188  16.114  0.2150 -0.1167  0.1225
 3633SOL    HW122532   2.048   4.210  16.030 -0.0239 -2.0917 -0.2649
 3633SOL    HW222533   2.183   4.197  16.099  0.0773 -0.2501 -0.8657
 3634SOL     OW22534   0.176   1.501   0.360  0.7715  0.5504  0.0059
 3634SOL    HW122535   0.096   1.552   0.374  0.4788  0.1026 -0.0171
 3634SOL    HW222536   0.205   1.511   0.450  4.1007  0.8421 -1.1099
 3635SOL     OW22537   3.740   2.297  15.438 -0.5018 -0.9505  0.5568
 3635SOL    HW122538   3.765   2.273  15.349 -2.1311  1.2430 -0.4871
 3635SOL    HW222539   3.696   2.380  15.422  1.6092 -0.1287 -1.0448
 3636SOL     OW22540   3.519   3.759  11.011 -0.4009  0.3384  0.0723
 3636SOL    HW122541   3.591   3.737  11.070  0.6349  1.2663 -0.8425
 3636SOL    HW222542   3.569   3.751  10.931  0.1278 -1.1793  0.5617
 3637SOL     OW22543   2.465   3.077   2.017 -0.0775 -0.5702  0.1128
 3637SOL    HW122544   2.524   3.119   2.080 -1.2240  1.4678 -0.1690
 3637SOL    HW222545   2.461   3.149   1.955 -1.9002 -1.8915 -1.3115
 3638SOL     OW22546   3.722   3.598   1.499  0.6775 -0.3108 -0.6390
 3638SOL    HW122547   3.687   3.515   1.467  1.3278 -0.0146 -2.1318
 3638SOL    HW222548   3.800   3.566   1.544  0.1675  1.4539  1.4794
 3639SOL     OW22549   3.662   2.601   9.367 -0.2035 -1.0936  0.1363
 3639SOL    HW122550   3.707   2.555   9.438 -1.7592  0.3698  2.0780
 3639SOL    HW222551   3.730   2.649   9.320 -0.9980  0.2097  0.3469
 3640SOL     OW22552   3.360   0.409   7.395  0.2648 -0.3020  0.0997
 3640SOL    HW122553   3.325   0.483   7.444 -0.0101  0.6405 -1.5113
 3640SOL    HW222554   3.418   0.365   7.457 -1.4966  2.4772  3.6612
 3641SOL     OW22555   3.043   4.659   2.567  0.1019  0.0996 -0.0794
 3641SOL    HW122556   3.000   4.626   2.488  0.0151  0.1763 -0.0646
 3641SOL    HW222557   3.045   0.013   2.550  2.1124  0.8815  4.6050
 3642SOL     OW22558   4.622   0.441   2.718 -0.9854  0.0604 -0.3855
 3642SOL    HW122559   4.685   0.409   2.653 -1.6698 -0.0644 -0.9816
 3642SOL    HW222560   4.588   0.522   2.679 -0.9160  0.6568  0.7903
 3643SOL     OW22561   0.737   0.384  12.234  0.1736  0.6647  0.4947
 3643SOL    HW122562   0.752   0.290  12.235  0.3596  0.6946  0.5728
 3643SOL    HW222563   0.813   0.412  12.285 -0.5302  1.9815  0.8319
 3644SOL     OW22564   4.020   0.834   7.169 -0.2260  0.0190 -0.2137
 3644SOL    HW122565   4.016   0.794   7.082  0.3605 -2.4977  0.9105
 3644SOL    HW222566   3.928   0.862   7.163 -0.4930 -0.7069  0.4352
 3645SOL     OW22567   1.187   4.204   0.233  0.3983  0.3160 -0.8901
 3645SOL    HW122568   1.192   4.176   0.325 -3.1524  0.8767 -0.5242
 3645SOL    HW222569   1.092   4.205   0.218  0.3319  1.7071 -0.3484
 3646SOL     OW22570   0.048   4.462  16.974  0.0691  0.1302  0.1313
 3646SOL    HW122571   0.102   4.435  16.900 -0.0778  0.2515 -0.0193
 3646SOL    HW222572   0.072   4.554  16.983  1.8296 -0.1377 -1.7904
 3647SOL     OW22573   0.650   0.951   7.299  0.1796  0.1321  0.4191
 3647SOL    HW122574   0.663   0.984   7.388 -1.8282 -0.9182  1.0882
 3647SOL    HW222575   0.560   0.919   7.300 -0.6654  2.4393 -0.0994
 3648SOL     OW22576   3.571   1.071   7.045 -0.7579 -0.1102  0.1221
 3648SOL    HW122577   3.477   1.091   7.048 -0.5854  0.9152 -1.0513
 3648SOL    HW222578   3.607   1.150   7.005  0.1616 -1.7705 -2.3128
 3649SOL     OW22579   1.952   0.836   6.684  0.1568  0.6629 -0.8085
 3649SOL    HW122580   1.932   0.864   6.774  0.1588 -0.5447 -0.4331
 3649SOL    HW222581   1.884   0.771   6.670 -0.4864  0.6774  2.1189
 3650SOL     OW22582   3.269   0.326  17.066 -0.5556 -0.3959 -0.3690
 3650SOL    HW122583   3.228   0.243  17.090  1.7507 -1.2810  0.4583
 3650SOL    HW222584   3.320   0.295  16.992  4.6751  2.3359  2.0830
 3651SOL     OW22585   2.450   4.580   7.715 -0.1677 -0.0619 -0.5694
 3651SOL    HW122586   2.362   4.614   7.696  0.1840  0.9196 -0.4473
 3651SOL    HW222587   2.466   4.641   7.787 -5.4096 -0.6400  1.0824
 3652SOL     OW22588   0.568   3.683   1.930 -0.5081  0.2090  0.1449
 3652SOL    HW122589   0.536   3.725   1.850  0.8282  0.7476 -0.1112
 3652SOL    HW222590   0.658   3.716   1.930 -0.6166  0.5135  1.5942
 3653SOL     OW22591   0.758   3.338  17.145  0.2635  0.0325 -0.6216
 3653SOL    HW122592   0.694   3.405  17.168  0.0983 -0.9339  1.6576
 3653SOL    HW222593   0.828   3.395  17.112 -1.1935  2.7324  0.9331
 3654SOL     OW22594   0.738   3.831   7.521 -0.3192 -0.0912 -0.0308
 3654SOL    HW122595   0.737   3.927   7.525 -0.5168 -0.1426  1.1685
 3654SOL    HW222596   0.830   3.817   7.497 -0.5605  0.5181 -1.3346
 3655SOL     OW22597   2.457   1.341   6.154 -0.1344  0.2540 -0.3182
 3655SOL    HW122598   2.475   1.267   6.096  1.7336  0.1581  0.4005
 3655SOL    HW222599   2.514   1.408   6.118 -0.0756 -0.2748 -1.1951
 3656SOL     OW22600   3.340   4.541   3.621 -0.2687 -0.0484 -0.8284
 3656SOL    HW122601   3.313   4.462   3.574  2.1283 -0.7592 -0.9990
 3656SOL    HW222602   3.322   4.607   3.555  1.0211  0.0244 -1.1059
 3657SOL     OW22603   3.475   4.445  14.919  0.7741  0.0798  0.2919
 3657SOL    HW122604   3.510   4.471  15.004 -1.4189  0.8990  0.9155
 3657SOL    HW222605   3.532   4.502  14.867  0.6401  1.1345  1.3076
 3658SOL     OW22606   2.681   4.354   2.626 -0.1491 -0.2761 -0.1345
 3658SOL    HW122607   2.728   4.402   2.694  0.3534 -3.0641  1.5076
 3658SOL    HW222608   2.707   4.387   2.540 -1.2150 -1.1679 -0.8017
 3659SOL     OW22609   3.455   1.089   2.901  0.1232  0.1653 -0.0529
 3659SOL    HW122610   3.511   1.108   2.976 -1.4545  2.7014  0.4796
 3659SOL    HW222611   3.517   1.037   2.850  1.1622 -0.1693  1.5345
 3660SOL     OW22612   4.098   1.479  12.033 -0.2048  0.4952 -0.1281
 3660SOL    HW122613   4.010   1.508  12.055 -0.1970  1.1197 -0.8998
 3660SOL    HW222614   4.090   1.388  12.062 -1.3776  0.1420 -1.5345
 3661SOL     OW22615   1.058   2.072   9.325 -0.2826  0.2148  0.0859
 3661SOL    HW122616   1.061   1.976   9.329 -1.8558  0.1256 -0.9254
 3661SOL    HW222617   1.040   2.092   9.233  0.1466 -0.5415 -0.1672
 3662SOL     OW22618   3.945   2.622   9.280 -0.0266  0.1625 -0.0735
 3662SOL    HW122619   3.965   2.691   9.343  2.9027 -0.3654 -0.4416
 3662SOL    HW222620   4.036   2.594   9.273 -0.7323 -2.8155  2.4831
 3663SOL     OW22621   3.280   1.398   6.131  0.6597 -0.1390 -0.7990
 3663SOL    HW122622   3.219   1.325   6.128 -0.5388  0.9366 -2.2720
 3663SOL    HW222623   3.350   1.336   6.153  0.9749  0.2262 -0.7648
 3664SOL     OW22624   3.140   4.287   4.651  0.1524  0.2910 -0.2207
 3664SOL    HW122625   3.113   4.242   4.571  3.0297 -0.7609 -0.5924
 3664SOL    HW222626   3.197   4.220   4.690 -0.0744  0.8112  0.9996
 3665SOL     OW22627   3.636   3.966   6.421 -0.5013  0.0954 -0.2075
 3665SOL    HW122628   3.695   3.948   6.494  1.5116 -0.5808 -2.0152
 3665SOL    HW222629   3.606   4.054   6.445  0.1394  0.5953 -1.2794
 3666SOL     OW22630   2.074   0.282   2.333 -0.4304 -0.6494 -0.4367
 3666SOL    HW122631   2.156   0.245   2.367  1.9988  4.7867 -0.4658
 3666SOL    HW222632   2.073   0.251   2.243 -1.2650  1.2411 -1.0740
 3667SOL     OW22633   3.906   0.429   2.190  0.2601  0.0529  0.1693
 3667SOL    HW122634   3.855   0.401   2.265  1.1433 -2.0159  0.0052
 3667SOL    HW222635   3.952   0.347   2.171 -1.0827 -0.8948  1.0135
 3668SOL     OW22636   3.208   2.481   8.497 -0.2109 -0.2147 -0.3686
 3668SOL    HW122637   3.270   2.485   8.424 -1.6204 -4.0281 -1.7760
 3668SOL    HW222638   3.141   2.540   8.464 -0.6135  1.2604  3.0713
 3669SOL     OW22639   1.215   1.079   5.171 -0.4229  0.0352 -0.5121
 3669SOL    HW122640   1.125   1.074   5.204 -0.6459 -0.2084 -1.1428
 3669SOL    HW222641   1.218   1.156   5.113  0.5782 -0.1977 -0.7561
 3670SOL     OW22642   3.483   0.853   7.888 -0.2270 -0.1005  0.5356
 3670SOL    HW122643   3.487   0.762   7.918 -0.2989 -0.4877 -0.6320
 3670SOL    HW222644   3.567   0.872   7.846 -1.4645  0.2543 -1.8126
 3671SOL     OW22645   2.781   0.429   2.845 -0.0327 -0.4883  0.5403
 3671SOL    HW122646   2.875   0.423   2.830  0.0612 -2.2681  1.7993
 3671SOL    HW222647   2.783   0.487   2.921 -1.6662 -0.4568  0.5675
 3672SOL     OW22648   3.430   0.483  11.670  0.1741  0.0351 -0.0434
 3672SOL    HW122649   3.368   0.526  11.729  0.0498 -1.8556  1.2117
 3672SOL    HW222650   3.401   0.514  11.585  1.2600 -0.5634 -0.6311
 3673SOL     OW22651   3.871   4.344  10.243  0.2178 -0.3187  0.4668
 3673SOL    HW122652   3.777   4.344  10.264 -0.0495  0.1255 -0.7654
 3673SOL    HW222653   3.908   4.303  10.322  0.1097 -0.3623  0.4950
 3674SOL     OW22654   4.121   2.355  13.642  0.1839 -0.2196 -0.6798
 3674SOL    HW122655   4.041   2.372  13.692 -0.5398  2.0938 -2.6564
 3674SOL    HW222656   4.185   2.385  13.706  0.3488  0.3461 -1.1076
 3675SOL     OW22657   2.943   4.499   2.361  0.0027 -0.2702  0.6871
 3675SOL    HW122658   2.853   4.522   2.383  0.2588 -0.2495  1.7321
 3675SOL    HW222659   2.918   4.426   2.305  2.0478 -0.4022 -0.0247
 3676SOL     OW22660   0.118   0.798   5.395 -0.2619 -0.1787  0.6106
 3676SOL    HW122661   0.072   0.881   5.388  0.0473  0.0617  1.4284
 3676SOL    HW222662   0.192   0.819   5.453 -0.8671  1.3844  0.8132
 3677SOL     OW22663   1.085   3.370   6.409  0.6903 -0.4816 -0.0756
 3677SOL    HW122664   1.125   3.432   6.470 -2.4584  2.3928 -0.9142
 3677SOL    HW222665   0.993   3.389   6.430  0.4603 -1.2081 -0.4257
 3678SOL     OW22666   3.785   1.980  10.071 -0.0518 -0.2812 -0.3694
 3678SOL    HW122667   3.746   1.931  10.143  0.9374  3.3296  2.6123
 3678SOL    HW222668   3.820   2.056  10.117  0.2056 -0.4625 -0.2613
 3679SOL     OW22669   2.647   3.411   4.321 -0.0215 -0.0261 -0.0624
 3679SOL    HW122670   2.667   3.455   4.403 -0.5898  1.5235 -0.7447
 3679SOL    HW222671   2.552   3.423   4.328  0.3486  2.7778  0.1859
 3680SOL     OW22672   2.770   1.767  15.377 -0.2684 -0.7207  0.3372
 3680SOL    HW122673   2.765   1.683  15.423  1.3214 -1.4838 -0.9180
 3680SOL    HW222674   2.785   1.740  15.286 -0.6732 -0.8002  0.2916
 3681SOL     OW22675   3.249   0.820   6.788 -0.7712 -0.2872 -0.1563
 3681SOL    HW122676   3.200   0.850   6.865 -0.9464 -1.2235  0.0959
 3681SOL    HW222677   3.278   0.899   6.743  0.4594  0.3927  1.8529
 3682SOL     OW22678   3.130   4.280   0.018  0.1881  0.1164 -0.4798
 3682SOL    HW122679   3.153   4.290   0.110  1.0852 -0.8593 -0.5976
 3682SOL    HW222680   3.178   4.198   0.004 -0.8759 -0.5239 -0.3838
 3683SOL     OW22681   2.037   2.738   4.763  0.1821  0.0866 -0.2349
 3683SOL    HW122682   2.045   2.832   4.777  1.9050  0.1754 -1.8485
 3683SOL    HW222683   1.997   2.711   4.845 -1.1726  0.0417 -0.8989
 3684SOL     OW22684   3.251   2.685   4.950  0.1878 -0.4833  0.4557
 3684SOL    HW122685   3.160   2.703   4.926  1.2717  1.3797 -2.2195
 3684SOL    HW222686   3.239   2.666   5.043 -2.1635 -0.2520  0.2229
 3685SOL     OW22687   3.619   0.047   6.228  0.1830 -0.3409 -0.6817
 3685SOL    HW122688   3.643   4.723   6.161 -1.2947  1.4813 -3.0028
 3685SOL    HW222689   3.593   0.112   6.162  1.5219  2.1938  1.2956
 3686SOL     OW22690   2.000   4.321   3.913  0.2642  0.0174 -0.0591
 3686SOL    HW122691   1.972   4.230   3.904 -1.2150  0.6440 -1.9393
 3686SOL    HW222692   1.975   4.338   4.004 -0.1044 -1.4359  0.1034
 3687SOL     OW22693   2.770   3.260   2.533 -0.0057 -0.0414 -0.3056
 3687SOL    HW122694   2.712   3.185   2.548  0.0175  0.1833  0.9001
 3687SOL    HW222695   2.798   3.288   2.620 -5.1291  0.2806  1.2307
 3688SOL     OW22696   1.768   0.299   5.518  0.0844 -0.3130 -0.3837
 3688SOL    HW122697   1.739   0.390   5.521 -0.1812 -0.3897 -0.5751
 3688SOL    HW222698   1.704   0.249   5.570  0.6704 -0.0470  0.5848
 3689SOL     OW22699   4.007   3.326   7.308  0.0532  0.5389  0.3325
 3689SOL    HW122700   4.031   3.393   7.372  0.4293  1.2406 -0.5442
 3689SOL    HW222701   4.020   3.245   7.356  0.6595  0.6263  0.3130
 3690SOL     OW22702   4.260   3.657   2.403 -0.2592  0.1637 -0.5870
 3690SOL    HW122703   4.353   3.635   2.404 -0.6296 -1.3916  0.7835
 3690SOL    HW222704   4.265   3.751   2.417  3.2687  0.0970 -1.6904
 3691SOL     OW22705   4.616   1.745  17.665  0.6796 -0.2718 -0.1799
 3691SOL    HW122706   4.690   1.712  17.615  2.0066  3.4204 -0.6403
 3691SOL    HW222707   4.595   1.821  17.611  0.2000 -0.2296  0.0647
 3692SOL     OW22708   0.258   3.754   1.794 -0.4132 -0.2322  0.3942
 3692SOL    HW122709   0.249   3.716   1.707 -1.7701 -1.0048  0.8755
 3692SOL    HW222710   0.269   3.681   1.854 -0.3485 -0.1319  0.5049
 3693SOL     OW22711   2.247   2.930   9.114  0.0892 -0.1415  0.0992
 3693SOL    HW122712   2.309   2.958   9.047  1.5359  0.4678  1.6899
 3693SOL    HW222713   2.173   2.990   9.114 -1.2206 -1.7546  0.9592
 3694SOL     OW22714   3.650   4.536  13.678  0.4523 -0.6066 -0.3551
 3694SOL    HW122715   3.652   4.463  13.618 -0.9933 -1.8170  1.0687
 3694SOL    HW222716   3.743   4.541  13.703 -0.2327  0.3523  2.0715
 3695SOL     OW22717   1.182   2.011   4.188 -0.9036 -0.0307  0.2095
 3695SOL    HW122718   1.250   2.070   4.221 -0.1533 -1.3256  0.9623
 3695SOL    HW222719   1.107   2.069   4.202 -0.6930  0.3033 -0.0179
 3696SOL     OW22720   2.645   0.915  16.758  0.2191  0.1765 -0.3803
 3696SOL    HW122721   2.739   0.914  16.743  0.5738  3.4130  1.8097
 3696SOL    HW222722   2.615   0.824  16.749  1.8738 -0.5458  1.2862
 3697SOL     OW22723   4.023   0.270   9.045  0.3524  0.1362 -0.4860
 3697SOL    HW122724   4.040   0.238   9.134 -1.0860 -1.3574 -0.7402
 3697SOL    HW222725   4.110   0.290   9.011  0.0711 -0.2288 -1.4155
 3698SOL     OW22726   2.882   1.000   6.611 -0.1228 -0.1689  0.5558
 3698SOL    HW122727   2.962   0.950   6.628 -0.4403 -1.0650 -0.5711
 3698SOL    HW222728   2.840   0.944   6.546 -0.9679 -1.5734  2.3091
 3699SOL     OW22729   1.436   3.715   0.067  0.1195  0.3131 -0.6612
 3699SOL    HW122730   1.476   3.702   0.153 -1.9631  1.9183  0.5436
 3699SOL    HW222731   1.489   3.788   0.034  3.1373 -1.2757  0.6897
 3700SOL     OW22732   2.714   0.362   6.824 -0.0882 -0.4628  0.0998
 3700SOL    HW122733   2.722   0.436   6.884 -0.9617 -0.2934  0.0061
 3700SOL    HW222734   2.686   0.414   6.749  1.1470 -0.5285 -0.4090
 3701SOL     OW22735   3.445   1.851  14.686  0.1431 -0.6434 -0.2812
 3701SOL    HW122736   3.401   1.896  14.758  0.3514  0.3818 -0.7993
 3701SOL    HW222737   3.521   1.824  14.739 -0.0163  3.2645  1.8901
 3702SOL     OW22738   0.908   0.979  16.730 -0.7713  0.2804  0.3437
 3702SOL    HW122739   0.915   0.970  16.825 -2.0076  0.0984  0.4274
 3702SOL    HW222740   0.844   1.051  16.732 -2.7448 -1.4909  0.7847
 3703SOL     OW22741   1.038   2.671   7.534  0.7772  0.7934 -0.3223
 3703SOL    HW122742   0.991   2.618   7.599 -0.7055 -0.2469 -2.2655
 3703SOL    HW222743   1.128   2.679   7.567  0.5518 -0.1175  0.5192
 3704SOL     OW22744   3.035   3.739   9.246 -0.1907 -0.2053  0.1115
 3704SOL    HW122745   3.077   3.716   9.329  0.8231  2.2023  0.2814
 3704SOL    HW222746   3.017   3.831   9.267  1.6419  0.6098 -1.8463
 3705SOL     OW22747   0.048   1.952   9.701  0.8182  0.0830  0.3081
 3705SOL    HW122748   0.073   1.903   9.779  0.8262 -0.3072  0.0568
 3705SOL    HW222749   0.023   1.887   9.636 -0.5440  1.7201 -0.8071
 3706SOL     OW22750   0.461   2.925   6.954 -0.0964  0.1772  0.3370
 3706SOL    HW122751   0.373   2.894   6.931  0.1073  0.0280 -0.2449
 3706SOL    HW222752   0.498   2.933   6.866  2.2072 -0.0934  1.2900
 3707SOL     OW22753   2.878   2.960   9.692  0.2855 -0.2341  0.5179
 3707SOL    HW122754   2.947   2.971   9.627 -0.9561  0.9133 -0.6105
 3707SOL    HW222755   2.850   2.876   9.655  2.1598 -0.6749  0.1075
 3708SOL     OW22756   1.322   0.190   8.876  0.1145 -0.5537 -0.4310
 3708SOL    HW122757   1.354   0.141   8.952 -1.4759  1.1952  1.3769
 3708SOL    HW222758   1.388   0.260   8.881 -1.2804  0.9196 -2.7147
 3709SOL     OW22759   4.297   0.935   7.644  0.0360  0.2441  0.0928
 3709SOL    HW122760   4.273   0.901   7.558  0.7202 -3.5889  1.4009
 3709SOL    HW222761   4.219   0.902   7.687  1.0113  1.9005  3.1529
 3710SOL     OW22762   1.744   4.190   5.431 -0.1024  0.2576 -1.2141
 3710SOL    HW122763   1.805   4.261   5.411  1.4671 -0.8872 -0.5420
 3710SOL    HW222764   1.791   4.130   5.489 -2.9724  0.8559  1.7284
 3711SOL     OW22765   1.591   3.186   4.923  0.0505  0.5530  0.2973
 3711SOL    HW122766   1.569   3.131   4.847 -1.4469  2.1338 -0.4094
 3711SOL    HW222767   1.617   3.266   4.877 -0.4285  1.4719  1.6309
 3712SOL     OW22768   0.061   1.297   8.924 -0.0298  0.1473 -0.2312
 3712SOL    HW122769   0.086   1.390   8.930  1.9002 -0.3786 -0.0688
 3712SOL    HW222770   0.059   1.285   8.829 -0.4808  0.9764 -0.3261
 3713SOL     OW22771   2.112   2.382   3.899  0.1126 -0.1862 -0.3403
 3713SOL    HW122772   2.190   2.429   3.870 -1.1354  0.9706 -1.8008
 3713SOL    HW222773   2.052   2.456   3.909 -0.6320 -1.1331  2.2354
 3714SOL     OW22774   2.450   0.679   4.788 -0.1117 -0.6530 -0.0545
 3714SOL    HW122775   2.459   0.629   4.869  1.1625 -2.3241 -1.2134
 3714SOL    HW222776   2.539   0.687   4.754  0.3427 -2.8712  0.6268
 3715SOL     OW22777   3.312   0.237   6.683  0.7138  0.3892 -0.4230
 3715SOL    HW122778   3.331   0.290   6.606 -0.6583  2.1124  0.4174
 3715SOL    HW222779   3.234   0.287   6.707 -0.2376 -0.5967 -1.4684
 3716SOL     OW22780   1.775   1.104  13.706 -0.4312 -0.0458  0.7337
 3716SOL    HW122781   1.864   1.072  13.692 -0.3960  0.6562 -0.6550
 3716SOL    HW222782   1.735   1.019  13.727  0.5590 -0.5434  0.6456
 3717SOL     OW22783   3.997   3.865   8.145  0.4867  0.7963  0.2658
 3717SOL    HW122784   4.065   3.929   8.167 -0.0070  1.4209 -0.0227
 3717SOL    HW222785   3.970   3.826   8.228  2.7761 -2.7301 -0.6413
 3718SOL     OW22786   0.444   3.162  11.120 -0.4426 -0.1062  0.0350
 3718SOL    HW122787   0.490   3.135  11.041 -0.8400 -0.2695 -0.1395
 3718SOL    HW222788   0.475   3.253  11.122  2.5061 -1.1267  1.3309
 3719SOL     OW22789   3.881   4.492   3.775 -0.4704 -0.2864 -0.7000
 3719SOL    HW122790   3.959   4.437   3.788  0.6478  1.5318  0.3410
 3719SOL    HW222791   3.930   4.568   3.744 -1.6651  0.6051 -0.4068
 3720SOL     OW22792   1.074   2.496   4.560  0.2498 -0.3473  0.0620
 3720SOL    HW122793   1.011   2.535   4.499 -0.1147 -1.2153 -0.1268
 3720SOL    HW222794   1.006   2.466   4.621 -1.0206 -0.9784 -1.6630
 3721SOL     OW22795   4.197   2.589   7.882 -0.4377 -0.4527 -0.0317
 3721SOL    HW122796   4.250   2.530   7.828 -2.1870  0.4698 -2.7611
 3721SOL    HW222797   4.270   2.628   7.931 -0.9268  0.2031  0.1770
 3722SOL     OW22798   0.907   3.104  11.390  0.0360 -0.4482  0.3741
 3722SOL    HW122799   0.889   3.172  11.456  0.2720 -0.3947  0.3852
 3722SOL    HW222800   0.968   3.044  11.433 -0.0967 -0.7419  0.1534
 3723SOL     OW22801   1.516   0.161   8.240  0.0356 -1.3830 -0.4456
 3723SOL    HW122802   1.540   0.178   8.149  0.7123  0.7527  0.1126
 3723SOL    HW222803   1.591   0.113   8.274 -0.7158 -2.2092  0.0589
 3724SOL     OW22804   4.467   1.296  17.556  0.8044 -0.8479  0.4136
 3724SOL    HW122805   4.514   1.227  17.510 -0.3004 -0.5966 -1.0693
 3724SOL    HW222806   4.522   1.371  17.533 -0.8123  1.1228  2.9177
 3725SOL     OW22807   1.865   0.071   6.707 -0.7201 -0.2827 -0.7765
 3725SOL    HW122808   1.782   0.112   6.732  1.1921  0.9766  3.5200
 3725SOL    HW222809   1.912   0.146   6.670  2.7900 -1.0940  2.1737
 3726SOL     OW22810   0.419   4.244   6.487 -0.7027 -0.0015 -0.1408
 3726SOL    HW122811   0.485   4.292   6.437 -0.7888 -0.5916 -0.8319
 3726SOL    HW222812   0.468   4.185   6.543 -0.0507 -0.1116 -0.8146
 3727SOL     OW22813   1.489   0.254   5.125  0.3887  0.4861  0.0735
 3727SOL    HW122814   1.506   0.204   5.205 -0.4703  0.2992  0.1382
 3727SOL    HW222815   1.435   0.324   5.162  0.2063 -0.2876  1.2792
 3728SOL     OW22816   0.725   1.574   6.709  0.0325 -0.3573  0.0959
 3728SOL    HW122817   0.698   1.575   6.801 -1.9183  0.9741 -0.5001
 3728SOL    HW222818   0.663   1.628   6.660  0.8724 -0.0009 -0.5755
 3729SOL     OW22819   3.412   4.129   2.369 -0.0679  0.2431  0.0067
 3729SOL    HW122820   3.348   4.107   2.302  2.0835  1.1050 -2.3046
 3729SOL    HW222821   3.366   4.137   2.453  1.7165  1.1871  0.9087
 3730SOL     OW22822   1.544   3.397  10.332 -0.3288 -0.7884 -0.0828
 3730SOL    HW122823   1.618   3.338  10.336 -2.0988 -2.9464  1.1210
 3730SOL    HW222824   1.479   3.342  10.290 -1.0467 -1.2697  1.6348
 3731SOL     OW22825   2.545   0.940   5.841  0.0747  0.1333 -0.4953
 3731SOL    HW122826   2.633   0.929   5.804 -0.1336 -5.2673  0.6887
 3731SOL    HW222827   2.508   0.998   5.775  0.5558  1.7967  0.6737
 3732SOL     OW22828   0.768   4.354   3.522 -0.8897  0.5185  1.0210
 3732SOL    HW122829   0.833   4.390   3.582 -1.5191  2.6531  0.4349
 3732SOL    HW222830   0.803   4.265   3.514  2.3903  1.6134  3.5478
 3733SOL     OW22831   0.581   4.346   1.766  0.1054 -0.0099 -0.2408
 3733SOL    HW122832   0.559   4.421   1.711  0.6431  0.6422  0.4260
 3733SOL    HW222833   0.498   4.334   1.812 -0.1957 -0.6232 -0.9435
 3734SOL     OW22834   2.719   3.985   5.081  0.0452 -0.0441 -0.5246
 3734SOL    HW122835   2.624   3.978   5.067 -0.0817  0.3455  0.1127
 3734SOL    HW222836   2.718   3.984   5.176  1.7644 -1.0242 -0.5270
 3735SOL     OW22837   1.761   1.550   5.138  0.2902 -0.2534 -0.5913
 3735SOL    HW122838   1.835   1.528   5.195 -0.0924 -2.0642 -0.8116
 3735SOL    HW222839   1.701   1.480   5.162  3.4856 -2.4668  1.0684
 3736SOL     OW22840   1.067   0.430   7.930  0.1725  0.1090 -0.4142
 3736SOL    HW122841   1.049   0.435   7.836 -1.6345 -0.7712 -0.1330
 3736SOL    HW222842   1.144   0.373   7.931  1.1570  1.4594 -0.0525
 3737SOL     OW22843   3.479   2.931  15.183  0.3464 -0.3909  0.1244
 3737SOL    HW122844   3.401   2.953  15.234  0.2672 -0.9847  0.2530
 3737SOL    HW222845   3.507   3.022  15.175 -0.5953 -0.2551 -1.6082
 3738SOL     OW22846   3.959   4.213   1.601  0.1999  0.4246 -0.0637
 3738SOL    HW122847   3.875   4.214   1.647  0.4912  0.1586  0.4836
 3738SOL    HW222848   4.019   4.165   1.659 -0.0918  0.5191  0.3177
 3739SOL     OW22849   3.595   1.863   2.079  0.0205 -0.6550  0.0488
 3739SOL    HW122850   3.634   1.831   1.998  0.3090  0.9333 -0.4439
 3739SOL    HW222851   3.670   1.915   2.108 -0.6348  0.3663 -0.0822
 3740SOL     OW22852   0.539   2.124   7.669 -0.8366 -0.1327  0.3024
 3740SOL    HW122853   0.506   2.161   7.751 -1.4447  1.1563 -0.5299
 3740SOL    HW222854   0.577   2.041   7.699 -0.3312 -0.8265 -2.2520
 3741SOL     OW22855   0.543   4.219   2.983  0.6191  0.1305 -0.3240
 3741SOL    HW122856   0.456   4.231   3.021  1.2261  1.5269  0.6203
 3741SOL    HW222857   0.540   4.281   2.909 -1.0846  2.3052  1.5642
 3742SOL     OW22858   2.160   4.191  12.455  0.7457  0.2084  0.1896
 3742SOL    HW122859   2.211   4.201  12.535 -0.7396  0.6569  1.0660
 3742SOL    HW222860   2.232   4.217  12.398  0.3627 -0.1083 -0.4377
 3743SOL     OW22861   3.773   3.182   8.288 -0.1049  0.1506  0.2002
 3743SOL    HW122862   3.835   3.228   8.345  1.3390 -0.5434 -0.8095
 3743SOL    HW222863   3.723   3.126   8.347 -0.7078  1.1276  0.6243
 3744SOL     OW22864   1.132   4.716   4.661  0.1892  0.1097 -0.7682
 3744SOL    HW122865   1.058   0.031   4.637 -0.8782 -0.6338  0.7242
 3744SOL    HW222866   1.169   4.689   4.577 -0.2546 -2.5384 -0.1447
 3745SOL     OW22867   0.964   2.330   8.841 -0.1439 -0.1734  0.1380
 3745SOL    HW122868   0.886   2.381   8.862  1.9235  1.9853  2.4722
 3745SOL    HW222869   1.035   2.379   8.881 -1.2103 -0.0459  1.8790
 3746SOL     OW22870   0.804   0.106   8.904 -0.2275 -0.2330  0.1528
 3746SOL    HW122871   0.761   0.030   8.866  0.3017 -0.4835  0.0521
 3746SOL    HW222872   0.888   0.119   8.859 -1.5869 -0.2618 -2.3989
 3747SOL     OW22873   0.431   3.796  10.460 -0.2435 -0.2399 -0.0142
 3747SOL    HW122874   0.490   3.726  10.486  0.0380 -0.2974 -0.8120
 3747SOL    HW222875   0.373   3.802  10.537 -2.1897 -0.0723 -1.4797
 3748SOL     OW22876   1.052   3.001   1.949  0.4427 -0.2578 -0.1055
 3748SOL    HW122877   0.971   2.956   1.928 -0.5793  0.6805  1.7931
 3748SOL    HW222878   1.114   2.929   1.934  0.1078 -0.4776 -0.4092
 3749SOL     OW22879   4.254   0.925   5.364  1.0337 -0.0976  0.0497
 3749SOL    HW122880   4.267   0.844   5.413  0.0169 -0.4384 -0.2447
 3749SOL    HW222881   4.280   0.995   5.424  2.3784 -0.6352  0.0886
 3750SOL     OW22882   2.032   0.443   6.263  0.1626 -0.2350 -0.4807
 3750SOL    HW122883   2.096   0.512   6.246  1.3722 -0.9224  1.2654
 3750SOL    HW222884   1.977   0.498   6.318 -2.1306 -1.9806 -1.0329
 3751SOL     OW22885   1.192   3.671  13.577  0.2324 -0.6989 -0.1361
 3751SOL    HW122886   1.216   3.763  13.562  1.0553 -0.5533  2.0581
 3751SOL    HW222887   1.136   3.666  13.500 -0.8824 -0.2655  0.6566
 3752SOL     OW22888   0.935   2.552   5.960  0.3515 -0.0272 -0.0146
 3752SOL    HW122889   0.847   2.515   5.967  1.1739 -2.2431 -1.2643
 3752SOL    HW222890   0.982   2.482   5.915 -0.1049 -0.2639 -0.1278
 3753SOL     OW22891   2.268   1.475   1.920 -0.0133  0.0612 -0.4545
 3753SOL    HW122892   2.318   1.466   1.839  1.0927 -2.7448  0.5734
 3753SOL    HW222893   2.317   1.539   1.973  0.8341 -0.2326 -0.8859
 3754SOL     OW22894   4.400   1.681   0.710 -0.1152  0.3437  0.3646
 3754SOL    HW122895   4.331   1.630   0.668 -0.4396  0.2849  0.9561
 3754SOL    HW222896   4.462   1.611   0.732 -0.4283 -0.2641 -0.6945
 3755SOL     OW22897   3.009   3.019   1.103 -0.3760 -0.4017  0.3837
 3755SOL    HW122898   2.939   3.002   1.040  1.1013 -2.6476 -0.6615
 3755SOL    HW222899   2.996   2.935   1.146  0.4642 -0.4246  0.5961
 3756SOL     OW22900   0.255   1.582  17.312  0.2845  0.7022  0.1909
 3756SOL    HW122901   0.319   1.649  17.336  0.5509  0.3029  0.5920
 3756SOL    HW222902   0.310   1.505  17.298  0.8525  1.2271 -0.4813
 3757SOL     OW22903   1.962   0.773   4.598 -0.4789  0.0304  0.5183
 3757SOL    HW122904   1.915   0.850   4.631 -1.5561  0.9690 -3.3204
 3757SOL    HW222905   1.999   0.724   4.672 -1.5481 -0.7370  0.5412
 3758SOL     OW22906   0.455   1.122  10.630 -0.2018  0.0793  0.5025
 3758SOL    HW122907   0.528   1.061  10.617 -0.5942  0.1103 -1.8618
 3758SOL    HW222908   0.456   1.118  10.726  0.4097 -1.5889  0.4324
 3759SOL     OW22909   0.166   1.910   4.387  0.2876 -0.6528  0.2387
 3759SOL    HW122910   0.077   1.878   4.371  0.3615 -0.0131 -1.3928
 3759SOL    HW222911   0.151   1.981   4.449 -2.7091 -1.2996  0.2821
 3760SOL     OW22912   3.289   3.653  16.444 -0.1041  0.1265  0.3036
 3760SOL    HW122913   3.350   3.659  16.370 -0.2640 -0.3868  0.1324
 3760SOL    HW222914   3.299   3.564  16.478 -1.0952 -0.1653 -0.1833
 3761SOL     OW22915   4.517   3.641   8.353  0.1893  0.1531  0.6219
 3761SOL    HW122916   4.555   3.726   8.374 -2.3925  1.0424  1.7521
 3761SOL    HW222917   4.455   3.659   8.282  0.2357  1.5411  0.9202
 3762SOL     OW22918   4.661   2.371   1.530 -0.0025 -0.1086  0.5438
 3762SOL    HW122919   4.621   2.285   1.540 -0.6707  0.2649  1.1449
 3762SOL    HW222920   4.585   2.415   1.570  1.0872  2.8449 -0.6034
 3763SOL     OW22921   0.015   0.031   3.499 -0.2871 -0.0333 -0.7362
 3763SOL    HW122922   0.111   0.033   3.490 -0.2944  1.2241 -0.5857
 3763SOL    HW222923   4.740   4.684   3.533  1.7751  0.7389  2.1512
 3764SOL     OW22924   1.017   3.259  15.697  0.5174  0.0701  0.5682
 3764SOL    HW122925   1.024   3.175  15.652 -3.6703 -0.5913  1.1658
 3764SOL    HW222926   0.948   3.240  15.760  0.6507 -0.4077  0.5681
 3765SOL     OW22927   4.641   0.002   7.728 -0.7681  0.4501  0.1222
 3765SOL    HW122928   4.558   0.007   7.774 -0.4031 -2.0191  1.0253
 3765SOL    HW222929   4.695   0.031   7.801 -1.2026  1.8660 -0.1126
 3766SOL     OW22930   2.805   0.922   2.537 -0.1782 -0.5616  0.0424
 3766SOL    HW122931   2.806   0.968   2.453  1.6360 -0.7287 -0.0340
 3766SOL    HW222932   2.751   0.992   2.575  1.3094  0.9816 -0.6661
 3767SOL     OW22933   3.442   1.006  10.858  0.2471 -0.0047 -0.4886
 3767SOL    HW122934   3.433   0.987  10.952 -0.2551  1.0426 -0.3225
 3767SOL    HW222935   3.440   0.917  10.823  0.9257 -0.4618  0.6195
 3768SOL     OW22936   3.074   3.323   3.990 -0.2295  0.1435  0.7796
 3768SOL    HW122937   2.996   3.378   3.995 -1.7760 -1.8493 -1.1361
 3768SOL    HW222938   3.078   3.310   3.895 -0.9392  1.0560  0.6186
 3769SOL     OW22939   1.987   2.695  16.826  0.7053  0.2857 -0.5349
 3769SOL    HW122940   1.952   2.761  16.767 -0.3187 -0.0032 -0.2400
 3769SOL    HW222941   2.077   2.687  16.794  0.3905 -0.8042 -1.1306
 3770SOL     OW22942   4.413   0.165   5.676  0.0285 -0.3214  0.2075
 3770SOL    HW122943   4.504   0.139   5.666  0.2430  0.7316 -0.5765
 3770SOL    HW222944   4.411   0.260   5.674 -1.8649 -0.3590  0.1520
 3771SOL     OW22945   3.562   3.450   7.358  0.4384  0.6580 -0.3746
 3771SOL    HW122946   3.572   3.531   7.308 -2.6526  2.0274  1.2025
 3771SOL    HW222947   3.616   3.465   7.436  0.3784 -0.0325 -0.2059
 3772SOL     OW22948   0.055   1.597  17.520  0.3953  0.2716 -0.3512
 3772SOL    HW122949   0.052   1.501  17.523 -0.5172  0.2999 -0.2025
 3772SOL    HW222950   0.141   1.613  17.482 -0.1196  1.5211 -0.9765
 3773SOL     OW22951   0.363   1.297   6.225  0.2126  0.1887 -0.0058
 3773SOL    HW122952   0.300   1.307   6.297  0.9358 -0.6034  0.7297
 3773SOL    HW222953   0.446   1.305   6.273  1.1784 -2.9436 -1.1771
 3774SOL     OW22954   2.172   2.237   5.354  0.0590 -0.6390 -0.2196
 3774SOL    HW122955   2.116   2.307   5.321 -1.1315 -1.0971  0.8167
 3774SOL    HW222956   2.112   2.162   5.343  0.2810 -0.7991 -0.3407
 3775SOL     OW22957   3.320   3.931  10.921  0.4849  0.3257 -0.0011
 3775SOL    HW122958   3.369   4.011  10.936 -0.7758  1.0917  0.0109
 3775SOL    HW222959   3.385   3.871  10.958 -1.7540 -0.6230  2.3325
 3776SOL     OW22960   0.214   4.265  17.197 -0.0780  0.1103  0.3827
 3776SOL    HW122961   0.256   4.314  17.126 -0.4854  1.3195  0.9830
 3776SOL    HW222962   0.268   4.188  17.215  1.5568  1.0543 -0.4032
 3777SOL     OW22963   2.772   4.668   7.672  0.5687  0.1616 -0.0929
 3777SOL    HW122964   2.689   4.621   7.673  1.2596 -1.0228  1.1645
 3777SOL    HW222965   2.843   4.610   7.699  1.0266  1.4369  1.4566
 3778SOL     OW22966   1.890   2.405  14.639  0.1225  0.2048 -0.0422
 3778SOL    HW122967   1.811   2.364  14.604 -0.7753 -0.4258  2.6957
 3778SOL    HW222968   1.881   2.494  14.606  0.1518  0.1290 -0.2541
 3779SOL     OW22969   3.784   2.282  12.457 -0.2457 -0.1682 -0.5798
 3779SOL    HW122970   3.698   2.307  12.423 -1.3940 -1.4673  1.3874
 3779SOL    HW222971   3.795   2.193  12.424 -4.2080 -0.6910 -0.5163
 3780SOL     OW22972   0.607   3.519  17.276 -0.0784 -0.1320 -0.0313
 3780SOL    HW122973   0.514   3.539  17.261 -0.7426 -3.3442 -0.2151
 3780SOL    HW222974   0.607   3.470  17.358 -1.3668  2.1526  1.3445
 3781SOL     OW22975   2.732   1.686   9.820 -0.2102 -0.0651 -0.3721
 3781SOL    HW122976   2.774   1.771   9.809  1.5925 -0.6161  2.2571
 3781SOL    HW222977   2.698   1.677   9.731 -0.4435 -2.0868 -0.0812
 3782SOL     OW22978   2.467   2.890  12.116  0.5802  0.0338  0.1820
 3782SOL    HW122979   2.449   2.820  12.178 -1.7283  1.4085  1.0641
 3782SOL    HW222980   2.505   2.835  12.047  0.6135  0.3462 -0.0506
 3783SOL     OW22981   1.935   0.763   8.301 -0.1480 -0.5716 -0.0137
 3783SOL    HW122982   1.876   0.807   8.239 -0.8427 -0.3046  0.8302
 3783SOL    HW222983   1.993   0.828   8.341  1.2474 -1.8626  0.0616
 3784SOL     OW22984   1.787   4.248  12.555 -0.1256 -0.1753 -0.1255
 3784SOL    HW122985   1.854   4.253  12.624 -2.7479 -1.3447  2.4932
 3784SOL    HW222986   1.839   4.194  12.495  0.7274  0.2364  0.2345
 3785SOL     OW22987   2.628   3.218  12.661 -0.3154  0.3978  0.4967
 3785SOL    HW122988   2.650   3.284  12.596  0.5836 -0.0495  0.3557
 3785SOL    HW222989   2.611   3.275  12.736 -1.1412 -2.4211  2.4670
 3786SOL     OW22990   3.308   2.120  16.779 -0.0727 -0.5108 -0.3986
 3786SOL    HW122991   3.343   2.088  16.696 -1.1850  2.5839 -2.1034
 3786SOL    HW222992   3.384   2.170  16.808  0.4951 -2.0890  0.7823
 3787SOL     OW22993   3.435   0.648   3.989 -0.7926 -0.5051 -0.2818
 3787SOL    HW122994   3.508   0.632   4.049 -1.7533 -0.8339  0.8067
 3787SOL    HW222995   3.375   0.581   4.021  0.2127 -0.4211  1.7841
 3788SOL     OW22996   0.078   2.668   8.672  0.5135  0.5360 -0.2276
 3788SOL    HW122997   0.049   2.759   8.677  1.3876  0.7616  0.6097
 3788SOL    HW222998   0.059   2.626   8.756  1.6370  0.3672 -0.0622
 3789SOL     OW22999   2.889   0.679   3.705 -0.2632  0.4503 -0.1997
 3789SOL    HW123000   2.855   0.605   3.755  2.3654 -0.6132  0.0224
 3789SOL    HW223001   2.804   0.712   3.675 -0.3257 -0.7077 -1.2370
 3790SOL     OW23002   0.348   0.414  14.715  0.1211  0.3424 -0.0166
 3790SOL    HW123003   0.414   0.373  14.770  1.6885  3.4434  0.3621
 3790SOL    HW223004   0.378   0.408  14.624 -1.6403 -0.4361 -0.5552
 3791SOL     OW23005   4.021   0.394   8.549 -1.0470 -0.4270  0.0162
 3791SOL    HW123006   3.950   0.418   8.608 -1.5401 -1.6665 -0.0870
 3791SOL    HW223007   4.057   0.479   8.524 -2.3662  0.1147 -0.0469
 3792SOL     OW23008   4.114   1.547  13.083  0.4463 -0.4256  0.3606
 3792SOL    HW123009   4.191   1.521  13.033 -1.3298  0.7788 -2.9966
 3792SOL    HW223010   4.121   1.487  13.157  0.1421 -0.8029  0.0786
 3793SOL     OW23011   1.910   1.036   1.292  0.3283 -0.1365 -0.3510
 3793SOL    HW123012   1.843   1.104   1.295  0.5988  0.0251  2.3686
 3793SOL    HW223013   1.925   1.037   1.198 -0.3350  1.0588 -0.4393
 3794SOL     OW23014   3.272   2.775   0.262 -0.4756  0.3333  0.4752
 3794SOL    HW123015   3.203   2.788   0.328 -1.0222  2.1598 -0.4838
 3794SOL    HW223016   3.337   2.729   0.315  1.0825  0.8901 -0.9624
 3795SOL     OW23017   1.569   0.294  16.323 -0.4953 -0.1844  0.1100
 3795SOL    HW123018   1.568   0.389  16.332  4.4471 -0.2398  0.9054
 3795SOL    HW223019   1.490   0.293  16.269  1.6034  1.2612 -2.9284
 3796SOL     OW23020   3.417   4.235   6.066  0.1791 -0.1904 -0.4357
 3796SOL    HW123021   3.391   4.143   6.062  1.1610 -0.3630 -2.6000
 3796SOL    HW223022   3.506   4.229   6.102 -0.3820 -1.4519  0.7589
 3797SOL     OW23023   2.488   4.113   4.818 -0.1565 -0.3158 -0.8027
 3797SOL    HW123024   2.430   4.101   4.893 -0.6675 -2.1855 -1.4648
 3797SOL    HW223025   2.471   4.205   4.798  2.2431  0.6633  1.6570
 3798SOL     OW23026   3.231   1.358  15.628  0.1521 -0.1943  0.2245
 3798SOL    HW123027   3.168   1.429  15.643 -1.1315 -1.1620 -0.7035
 3798SOL    HW223028   3.201   1.309  15.704  0.4853  0.3233  0.6966
 3799SOL     OW23029   2.625   2.176   6.918 -0.1690 -0.0733 -0.2624
 3799SOL    HW123030   2.711   2.134   6.911 -1.3450 -2.3375 -1.0434
 3799SOL    HW223031   2.604   2.196   6.827  0.6089  0.3760 -0.3386
 3800SOL     OW23032   4.493   4.171   1.705  0.2731  0.0871 -0.7261
 3800SOL    HW123033   4.587   4.188   1.720  0.0110  0.6343  0.3325
 3800SOL    HW223034   4.484   4.079   1.730 -0.3109  0.7754  1.6106
 3801SOL     OW23035   1.743   2.347   7.743 -0.0088  0.6293  0.0171
 3801SOL    HW123036   1.812   2.400   7.782  0.4378 -0.7310  1.0567
 3801SOL    HW223037   1.793   2.285   7.690  0.0731  0.3853  0.3807
 3802SOL     OW23038   0.120   4.413   3.179 -0.1144  0.2235 -0.6285
 3802SOL    HW123039   0.093   4.325   3.205 -1.5542  0.6170 -0.7781
 3802SOL    HW223040   0.033   4.452   3.168 -0.0009  0.5298 -0.4418
 3803SOL     OW23041   1.884   0.513   1.965 -0.7905  0.0323  0.2941
 3803SOL    HW123042   1.813   0.551   1.913  0.2985  0.3309 -0.9971
 3803SOL    HW223043   1.846   0.428   1.985 -0.7156 -0.2303 -0.6871
 3804SOL     OW23044   2.624   2.938   4.890  0.7002  0.4128  0.1519
 3804SOL    HW123045   2.581   2.979   4.815  1.9829 -0.2714 -0.9449
 3804SOL    HW223046   2.541   2.912   4.929  0.1193  1.7303 -0.1948
 3805SOL     OW23047   0.715   3.825  12.053 -0.0754  0.5497  0.3570
 3805SOL    HW123048   0.709   3.850  11.961 -1.8281 -2.9476 -0.4787
 3805SOL    HW223049   0.631   3.863  12.079 -0.7197 -1.3266  1.0163
 3806SOL     OW23050   4.251   1.560   4.801  0.3336 -0.3414  0.1233
 3806SOL    HW123051   4.172   1.610   4.783 -0.4035 -1.4541  0.2160
 3806SOL    HW223052   4.306   1.600   4.734  2.0338 -1.3823  0.8931
 3807SOL     OW23053   1.706   1.797   4.471 -0.2410  0.7092  0.7227
 3807SOL    HW123054   1.796   1.817   4.445 -0.3749 -0.1718 -0.4035
 3807SOL    HW223055   1.700   1.712   4.514 -2.3083  0.3337 -0.2709
 3808SOL     OW23056   2.987   0.488  10.553 -0.5829 -0.0960 -0.5943
 3808SOL    HW123057   2.906   0.493  10.604 -0.0159  0.4761  0.2728
 3808SOL    HW223058   2.979   0.409  10.500  0.1646 -1.9090  1.9951
 3809SOL     OW23059   1.287   3.384  17.340 -0.2455 -0.1062  0.2125
 3809SOL    HW123060   1.311   3.291  17.341 -2.7659 -0.7363  1.7098
 3809SOL    HW223061   1.298   3.412  17.431 -0.7165  0.8582 -0.0380
 3810SOL     OW23062   4.681   4.432   2.748 -0.2574 -0.2247 -0.6999
 3810SOL    HW123063   4.713   4.348   2.779 -1.5917  0.5010  2.6001
 3810SOL    HW223064   0.005   4.454   2.681 -1.9602 -0.1145 -2.3012
 3811SOL     OW23065   4.540   1.097  16.887  0.7746  0.4233  0.8129
 3811SOL    HW123066   4.453   1.116  16.924  0.1204  0.3315 -0.6632
 3811SOL    HW223067   4.546   1.154  16.810 -1.1658  1.1652  1.1802
 3812SOL     OW23068   1.837   2.486  14.162  0.3809 -0.2806 -0.1271
 3812SOL    HW123069   1.750   2.523  14.176 -0.2611 -1.1585 -1.8715
 3812SOL    HW223070   1.873   2.544  14.095 -1.7078  0.4022 -0.6659
 3813SOL     OW23071   2.301   3.009   5.211 -0.0236  0.7575  0.0114
 3813SOL    HW123072   2.316   3.075   5.143 -0.7646  1.7114  0.7843
 3813SOL    HW223073   2.395   2.993   5.221 -0.1514  1.5286  2.5495
 3814SOL     OW23074   0.805   1.936  13.890 -0.1608  0.5746  0.2627
 3814SOL    HW123075   0.731   1.977  13.845 -0.9157  0.7842  1.6788
 3814SOL    HW223076   0.873   1.994  13.859  0.4974 -0.4443 -0.1879
 3815SOL     OW23077   4.680   2.708   9.667  0.4963 -0.5112  0.0804
 3815SOL    HW123078   4.714   2.767   9.735  0.3640  0.2732 -0.5319
 3815SOL    HW223079   4.736   2.735   9.594  2.6542 -2.1231  1.1587
 3816SOL     OW23080   2.713   3.507   2.733  0.5820 -0.2993 -0.0168
 3816SOL    HW123081   2.793   3.466   2.766  1.5067  1.0738 -0.5638
 3816SOL    HW223082   2.704   3.566   2.808 -1.0977  2.6627 -2.5508
 3817SOL     OW23083   2.691   2.812   8.248 -0.1253  0.0200 -0.0837
 3817SOL    HW123084   2.752   2.754   8.202 -1.7122 -1.5365 -0.2380
 3817SOL    HW223085   2.707   2.784   8.338  0.7114 -1.5295 -0.7031
 3818SOL     OW23086   1.579   4.523   8.329  0.3906  0.2010 -0.1257
 3818SOL    HW123087   1.589   4.544   8.236 -1.9554  2.6131  0.1741
 3818SOL    HW223088   1.666   4.521   8.370  1.9034 -0.8670 -3.3650
 3819SOL     OW23089   3.776   4.519  16.509 -0.8038  0.4037  0.0050
 3819SOL    HW123090   3.831   4.448  16.542  1.0324  0.6745 -2.5417
 3819SOL    HW223091   3.766   4.587  16.575 -0.3049  1.4878 -1.0439
 3820SOL     OW23092   0.894   2.155   6.453 -0.2122  0.2565  0.2849
 3820SOL    HW123093   0.851   2.070   6.446  0.4512  0.1870 -3.1805
 3820SOL    HW223094   0.970   2.125   6.502 -0.5364 -2.8262 -1.1104
 3821SOL     OW23095   3.345   2.400   5.306 -0.4138  0.2980 -0.1989
 3821SOL    HW123096   3.344   2.307   5.284  1.6852  0.5874 -1.5799
 3821SOL    HW223097   3.393   2.398   5.389 -1.2579  2.6530  0.3495
 3822SOL     OW23098   2.433   0.372   5.481  0.4572  0.0870  0.0964
 3822SOL    HW123099   2.425   0.422   5.400 -1.1254  0.9191  0.7701
 3822SOL    HW223100   2.410   0.445   5.538 -0.1688 -1.7751  2.2258
 3823SOL     OW23101   2.612   1.809  15.757  0.2963  0.0919 -0.4719
 3823SOL    HW123102   2.537   1.756  15.729  1.6867 -0.9663 -2.1929
 3823SOL    HW223103   2.576   1.852  15.834  2.7938 -0.4033  0.9485
 3824SOL     OW23104   0.178   1.694   0.040 -0.2013 -0.2728  0.2160
 3824SOL    HW123105   0.264   1.688   0.083 -0.1881 -1.0208  0.0831
 3824SOL    HW223106   0.196   1.639  17.724  1.1243  0.4494  0.0007
 3825SOL     OW23107   0.480   1.966  16.317  0.1261 -0.1401  0.5921
 3825SOL    HW123108   0.495   1.965  16.412 -0.7882 -1.9968  0.7058
 3825SOL    HW223109   0.515   2.050  16.287  1.3983  0.0071  2.4733
 3826SOL     OW23110   3.883   1.731   9.105  0.0341  0.0133 -0.5313
 3826SOL    HW123111   3.839   1.735   9.020  1.6828 -1.4875 -1.4561
 3826SOL    HW223112   3.803   1.742   9.156 -0.5569 -3.2724 -0.7525
 3827SOL     OW23113   4.088   0.313   0.549  0.3520  0.0367 -1.0773
 3827SOL    HW123114   4.010   0.295   0.497 -0.7605 -0.9591  0.9142
 3827SOL    HW223115   4.037   0.343   0.624  1.2299  0.5191 -0.6818
 3828SOL     OW23116   4.339   3.925   3.347  0.2015 -0.5602  0.3704
 3828SOL    HW123117   4.369   3.947   3.435 -1.1878  1.6043  0.2858
 3828SOL    HW223118   4.392   3.857   3.306  0.4189 -0.1011 -0.1144
 3829SOL     OW23119   1.246   3.707   3.520 -0.0378  0.0866  0.5407
 3829SOL    HW123120   1.328   3.733   3.561  0.7606  1.1540 -1.6840
 3829SOL    HW223121   1.284   3.672   3.440 -0.5790  2.0433 -0.5936
 3830SOL     OW23122   2.359   4.387   2.128 -0.3458 -0.9465 -0.3570
 3830SOL    HW123123   2.433   4.343   2.171  1.6742  0.3925 -2.5017
 3830SOL    HW223124   2.316   4.307   2.097 -1.7292  0.4174 -1.8665
 3831SOL     OW23125   1.094   4.571   7.679  0.2002 -0.0687 -0.0038
 3831SOL    HW123126   1.000   4.583   7.665  0.0484  0.4406  1.3738
 3831SOL    HW223127   1.106   4.522   7.760  0.8764  1.4504  0.8265
 3832SOL     OW23128   1.714   1.806  10.819  0.4816  0.5549 -0.4416
 3832SOL    HW123129   1.750   1.724  10.783 -0.8813  0.3578 -1.3471
 3832SOL    HW223130   1.645   1.813  10.754  2.1167  1.6688 -2.0580
 3833SOL     OW23131   0.800   1.261  10.934  0.1942  0.0135 -0.9643
 3833SOL    HW123132   0.715   1.219  10.920  0.3895 -1.1675  1.4071
 3833SOL    HW223133   0.839   1.218  11.010 -0.9961 -0.0327 -0.3867
 3834SOL     OW23134   4.386   0.290  14.781 -0.5955  0.1844 -0.2510
 3834SOL    HW123135   4.377   0.377  14.821 -1.6147  0.5221 -1.2358
 3834SOL    HW223136   4.318   0.300  14.714  0.2547 -0.0505 -1.1431
 3835SOL     OW23137   0.712   3.665  14.076 -0.0001 -0.6077 -0.7886
 3835SOL    HW123138   0.790   3.609  14.076 -1.1299 -2.1957 -1.8562
 3835SOL    HW223139   0.669   3.639  13.994  0.0605  1.1098 -1.3685
 3836SOL     OW23140   4.157   0.682   5.025  0.7375  0.6260 -0.5435
 3836SOL    HW123141   4.238   0.708   5.069  0.6072  0.8708 -0.4463
 3836SOL    HW223142   4.202   0.607   4.987  2.4248  1.2482  0.1981
 3837SOL     OW23143   1.985   0.773   5.439 -0.2925  0.0037  0.2132
 3837SOL    HW123144   1.957   0.730   5.520 -1.2324  0.7616  0.2788
 3837SOL    HW223145   2.073   0.809   5.449  1.1346 -3.5167  0.3308
 3838SOL     OW23146   2.411   3.737  11.130  0.1954  0.2240  0.5233
 3838SOL    HW123147   2.395   3.698  11.216 -0.6355  1.1817  0.8031
 3838SOL    HW223148   2.486   3.796  11.139  0.2993  0.1423  0.2177
 3839SOL     OW23149   1.573   3.557   6.545 -0.5443  0.2466 -0.2603
 3839SOL    HW123150   1.558   3.489   6.611 -0.8245  2.0495  1.4970
 3839SOL    HW223151   1.522   3.626   6.587  0.8658  0.3756  1.2258
 3840SOL     OW23152   4.482   2.694   5.064  0.5718 -0.1321 -0.2196
 3840SOL    HW123153   4.472   2.784   5.035 -1.4120 -0.4534 -0.5636
 3840SOL    HW223154   4.401   2.674   5.111 -0.7180  1.2199 -1.8563
 3841SOL     OW23155   2.675   1.528   5.212  0.7935  0.1176  0.3958
 3841SOL    HW123156   2.710   1.606   5.254 -0.3861  0.4678  0.7294
 3841SOL    HW223157   2.760   1.502   5.176  0.7222 -1.3788  1.2778
 3842SOL     OW23158   0.190   2.583   6.450  0.5265 -0.0156 -0.1658
 3842SOL    HW123159   0.259   2.557   6.511  1.2053  1.0214 -0.4802
 3842SOL    HW223160   0.245   2.646   6.404  0.1413  0.7130  0.3743
 3843SOL     OW23161   0.271   1.420   0.012 -0.5066  0.9458 -0.3010
 3843SOL    HW123162   0.348   1.459  17.732 -0.6254  2.6987  1.1719
 3843SOL    HW223163   0.222   1.385  17.698  0.3829 -1.2959  0.1748
 3844SOL     OW23164   4.551   0.764   9.207 -0.6986 -0.3183 -0.0579
 3844SOL    HW123165   4.484   0.831   9.218 -1.2977 -0.4769 -2.8675
 3844SOL    HW223166   4.584   0.794   9.123 -0.9954 -1.5821 -0.6241
 3845SOL     OW23167   4.375   1.645   8.540 -0.1951  0.5262 -0.3638
 3845SOL    HW123168   4.311   1.712   8.517 -1.5042 -0.5388  0.1321
 3845SOL    HW223169   4.447   1.674   8.484 -1.9980  2.7162 -1.5406
 3846SOL     OW23170   2.964   3.643   5.780  0.4397  0.4441 -0.4562
 3846SOL    HW123171   2.915   3.684   5.708 -0.5225 -0.7823 -0.5030
 3846SOL    HW223172   2.908   3.653   5.857  0.0366 -1.3284 -0.5157
 3847SOL     OW23173   0.503   1.813   4.737 -0.5180 -0.4063  0.2011
 3847SOL    HW123174   0.429   1.827   4.679 -0.0069 -1.0811 -0.6173
 3847SOL    HW223175   0.512   1.719   4.722  0.1479 -1.0019  4.1849
 3848SOL     OW23176   3.085   3.778   7.432 -0.2969 -0.2616  0.0254
 3848SOL    HW123177   3.121   3.798   7.518  1.6998 -2.4877 -0.2767
 3848SOL    HW223178   3.138   3.700   7.413 -0.8643 -0.5104 -0.5559
 3849SOL     OW23179   0.077   4.096   7.049 -0.4586 -0.2224  0.1790
 3849SOL    HW123180   0.087   4.023   6.988  0.1752  0.0944 -0.0831
 3849SOL    HW223181   0.116   4.165   6.995 -1.2570 -0.1629 -0.3293
 3850SOL     OW23182   1.842   3.635   1.664  0.0839  0.0950 -0.2377
 3850SOL    HW123183   1.825   3.716   1.711  0.5133  1.2319 -2.0649
 3850SOL    HW223184   1.812   3.652   1.575 -2.9412 -1.0215  0.5946
 3851SOL     OW23185   3.899   3.832   1.828  0.1969  0.3092  0.2067
 3851SOL    HW123186   3.808   3.857   1.844  0.6565  0.9832  1.7389
 3851SOL    HW223187   3.897   3.738   1.843  0.8991 -0.0016 -1.6365
 3852SOL     OW23188   3.744   3.479   5.604  0.4254 -0.1879 -0.0397
 3852SOL    HW123189   3.725   3.512   5.692 -0.8199  0.1578 -0.4446
 3852SOL    HW223190   3.780   3.554   5.556 -2.6147  1.0513 -0.3781
 3853SOL     OW23191   4.526   0.750   4.053 -0.2164 -0.0581  0.4187
 3853SOL    HW123192   4.468   0.816   4.089  1.2597  1.9603 -0.8984
 3853SOL    HW223193   4.468   0.674   4.043  1.9821 -1.7158  0.2078
 3854SOL     OW23194   3.531   1.651  12.277  0.4040  0.1663  0.2573
 3854SOL    HW123195   3.585   1.706  12.334 -1.1843  2.5911 -0.5427
 3854SOL    HW223196   3.485   1.721  12.230  1.2200 -1.0589 -2.3560
 3855SOL     OW23197   1.847   0.610   9.078  0.1786  0.5604 -0.3586
 3855SOL    HW123198   1.924   0.575   9.123  0.0778  0.8098  0.0075
 3855SOL    HW223199   1.808   0.527   9.052  0.1344  0.3842  0.2702
 3856SOL     OW23200   3.469   3.445   3.270  0.2253 -0.7608 -0.2303
 3856SOL    HW123201   3.539   3.407   3.218  1.4350  2.1845 -0.7875
 3856SOL    HW223202   3.444   3.525   3.223 -1.0681 -1.3975 -0.6187
 3857SOL     OW23203   2.355   2.239   4.408  0.3495 -0.2701  0.4888
 3857SOL    HW123204   2.338   2.271   4.320 -3.5253 -1.8129  0.7135
 3857SOL    HW223205   2.362   2.326   4.448 -2.2728  0.3345 -0.4235
 3858SOL     OW23206   4.238   0.776   0.695  0.0208 -0.4048 -0.0741
 3858SOL    HW123207   4.188   0.720   0.636  0.3261 -2.8372  1.9934
 3858SOL    HW223208   4.280   0.827   0.625  2.2134  0.7419  2.0987
 3859SOL     OW23209   4.525   4.731   3.120 -0.0811  0.4206  0.4081
 3859SOL    HW123210   4.550   0.047   3.193 -0.3456  0.0266  0.8017
 3859SOL    HW223211   4.582   0.035   3.057  0.3684  0.1061  0.5878
 3860SOL     OW23212   2.014   0.964  16.469 -0.6102 -0.2998  0.1631
 3860SOL    HW123213   2.027   1.058  16.483 -0.8147 -0.0226 -1.5110
 3860SOL    HW223214   2.087   0.924  16.517  0.9994  2.0671 -0.2704
 3861SOL     OW23215   0.931   2.773   2.729  0.0463 -0.0479  0.2626
 3861SOL    HW123216   0.943   2.848   2.670 -1.3818  0.3560  0.4655
 3861SOL    HW223217   0.910   2.822   2.809  0.0642  1.5975 -0.7455
 3862SOL     OW23218   0.254   1.850   2.872  0.3657 -0.0062  0.0016
 3862SOL    HW123219   0.234   1.763   2.838 -1.4990  0.4218 -0.0165
 3862SOL    HW223220   0.350   1.855   2.874  0.4479 -1.1911 -0.9703
 3863SOL     OW23221   4.174   2.471  13.927  0.0004  0.3845  0.6024
 3863SOL    HW123222   4.239   2.402  13.942  0.8173  1.2453  1.0581
 3863SOL    HW223223   4.213   2.536  13.986 -0.3972  2.0821 -1.0053
 3864SOL     OW23224   3.910   0.333   1.872 -0.1365  0.2916 -0.2617
 3864SOL    HW123225   3.999   0.356   1.848  0.6763  0.2689  2.8042
 3864SOL    HW223226   3.909   0.238   1.884 -2.2438  0.2839 -0.4503
 3865SOL     OW23227   4.419   1.932   5.436  0.3748 -0.0128 -0.3932
 3865SOL    HW123228   4.432   2.022   5.404  0.1771  0.0650 -0.2518
 3865SOL    HW223229   4.460   1.930   5.522 -0.0949  0.7903 -0.1514
 3866SOL     OW23230   0.181   0.062   6.103  0.2697 -0.3626 -0.6018
 3866SOL    HW123231   0.235   0.086   6.179  0.2279 -1.5903 -0.1911
 3866SOL    HW223232   0.228   0.108   6.034  1.1418 -1.0041 -0.4244
 3867SOL     OW23233   2.405   4.562   3.774  0.2309  0.1332  1.0286
 3867SOL    HW123234   2.371   4.482   3.814 -0.1525  0.3413  1.1253
 3867SOL    HW223235   2.324   4.608   3.754  1.0537  0.5667 -1.3552
 3868SOL     OW23236   4.187   1.619   2.643 -0.6804 -0.3639  0.0074
 3868SOL    HW123237   4.282   1.617   2.630 -0.5369  1.8884  0.5916
 3868SOL    HW223238   4.150   1.553   2.585  1.1853  0.8734 -2.5863
 3869SOL     OW23239   1.623   2.549   2.710  0.3535  0.0894  0.2823
 3869SOL    HW123240   1.713   2.560   2.742 -0.0696  2.6208  0.6068
 3869SOL    HW223241   1.637   2.557   2.615  0.2110 -2.4217  0.0478
 3870SOL     OW23242   2.632   0.591   8.168 -0.2698 -0.4276  0.7731
 3870SOL    HW123243   2.598   0.565   8.083 -1.5237  0.7245  0.9226
 3870SOL    HW223244   2.688   0.664   8.144 -1.3692  0.4421  0.8282
 3871SOL     OW23245   1.202   0.238  13.788  0.1197  0.8214 -0.0629
 3871SOL    HW123246   1.137   0.241  13.859 -0.1964 -0.4959 -0.2966
 3871SOL    HW223247   1.257   0.166  13.820 -2.0871  0.0071  1.9612
 3872SOL     OW23248   2.894   4.488   2.756  0.0200 -0.6663 -1.0647
 3872SOL    HW123249   2.964   4.470   2.694  0.9149 -2.2653  0.4020
 3872SOL    HW223250   2.896   4.583   2.768 -1.6439 -0.6170 -1.0467
 3873SOL     OW23251   0.833   4.652   5.736 -0.0982 -0.4864 -0.0675
 3873SOL    HW123252   0.759   4.696   5.695 -0.4523 -1.1403 -0.1265
 3873SOL    HW223253   0.834   4.703   5.817 -0.3061  1.0673 -1.0453
 3874SOL     OW23254   4.439   4.468   2.842 -0.3316 -0.1269  0.0987
 3874SOL    HW123255   4.527   4.436   2.824 -0.4355 -1.5328  2.0835
 3874SOL    HW223256   4.378   4.410   2.796  1.0577 -1.8596  0.4406
 3875SOL     OW23257   2.551   1.856   2.484 -0.2515 -0.9212 -0.6794
 3875SOL    HW123258   2.624   1.907   2.450  1.4523 -3.6290 -1.1033
 3875SOL    HW223259   2.582   1.807   2.560 -0.4649 -1.0817 -0.6927
 3876SOL     OW23260   1.341   3.857   4.947 -0.1703  0.1518 -0.1909
 3876SOL    HW123261   1.345   3.764   4.971  0.7800 -0.3893 -2.4130
 3876SOL    HW223262   1.251   3.875   4.974 -0.1931  0.1618 -0.2749
 3877SOL     OW23263   2.567   3.701   3.925 -0.0385 -0.0983 -0.2715
 3877SOL    HW123264   2.628   3.653   3.982 -1.4353  0.3407  1.5651
 3877SOL    HW223265   2.577   3.793   3.950  1.9541 -0.4134  0.0978
 3878SOL     OW23266   0.477   1.197   9.481 -0.8490  0.1564 -0.2354
 3878SOL    HW123267   0.454   1.125   9.422 -0.9123 -0.4220  0.4924
 3878SOL    HW223268   0.426   1.180   9.560 -0.3347 -0.6464 -0.0802
 3879SOL     OW23269   4.007   1.245   8.457 -0.5566  0.3168 -0.0123
 3879SOL    HW123270   3.913   1.256   8.444 -0.7926 -2.3376 -0.3902
 3879SOL    HW223271   4.010   1.186   8.532  2.6972  1.5879  0.8664
 3880SOL     OW23272   3.331   0.058  15.216  0.1197  0.1981 -0.0249
 3880SOL    HW123273   3.407   0.099  15.256  1.3703  1.5567 -3.8427
 3880SOL    HW223274   3.375   0.048  15.132  1.8786 -0.0945  0.9415
 3881SOL     OW23275   3.881   3.523   8.256 -0.5073  0.5258  0.3911
 3881SOL    HW123276   3.878   3.472   8.338 -1.3638 -0.7945 -0.4648
 3881SOL    HW223277   3.873   3.614   8.283 -2.2004 -0.1679  2.2069
 3882SOL     OW23278   2.628   1.931   2.063  0.1363 -0.7339  0.4878
 3882SOL    HW123279   2.629   1.960   2.154 -0.8283  2.1167 -0.4218
 3882SOL    HW223280   2.591   1.843   2.075 -1.1228 -0.1707  0.7691
 3883SOL     OW23281   1.061   3.905   4.686  0.0871 -0.4004 -0.4306
 3883SOL    HW123282   1.052   3.989   4.641  0.3025  1.0966  2.3137
 3883SOL    HW223283   0.995   3.909   4.755 -0.2690  0.3870 -0.8171
 3884SOL     OW23284   4.068   4.021   9.569 -0.1192 -0.2419 -0.0384
 3884SOL    HW123285   4.023   3.986   9.491  1.3539 -1.7591 -0.2010
 3884SOL    HW223286   4.144   3.963   9.572 -1.2771 -1.7498  0.2475
 3885SOL     OW23287   0.247   3.377   4.039  0.0920 -0.3368 -0.0863
 3885SOL    HW123288   0.222   3.390   3.948 -2.0881  0.3546  0.6094
 3885SOL    HW223289   0.254   3.468   4.066 -4.0913  0.1720 -0.7832
 3886SOL     OW23290   3.528   4.293  11.499  0.0875  0.0885 -0.1378
 3886SOL    HW123291   3.578   4.372  11.479  2.3256 -0.7553  2.1871
 3886SOL    HW223292   3.593   4.224  11.510 -0.9714 -0.4151  2.9331
 3887SOL     OW23293   0.968   3.801   5.995 -0.2832 -0.4370 -0.4719
 3887SOL    HW123294   0.890   3.793   5.940  0.3731  1.6775 -1.7193
 3887SOL    HW223295   1.028   3.836   5.929  2.2777  0.6925  2.4701
 3888SOL     OW23296   1.632   4.116   9.157  0.8654 -0.5697 -0.0571
 3888SOL    HW123297   1.681   4.188   9.117 -2.0473  1.6006  0.2885
 3888SOL    HW223298   1.700   4.057   9.189  2.1346  0.3508 -1.0254
 3889SOL     OW23299   2.382   2.873   0.387  0.5053 -0.3059 -0.7774
 3889SOL    HW123300   2.336   2.933   0.446 -2.3494 -2.9740 -0.2641
 3889SOL    HW223301   2.356   2.787   0.418 -0.1119  0.4335  0.7331
 3890SOL     OW23302   1.125   1.736  12.447  0.2831  0.1828 -0.0526
 3890SOL    HW123303   1.049   1.683  12.425 -0.5390  1.3845 -0.0838
 3890SOL    HW223304   1.194   1.669  12.442 -0.0588 -0.4010  2.5769
 3891SOL     OW23305   1.499   2.226   7.838 -0.3155  0.5666  0.6789
 3891SOL    HW123306   1.548   2.236   7.756 -2.6945 -0.1498 -0.8444
 3891SOL    HW223307   1.496   2.316   7.869  0.8559 -0.3309  3.4369
 3892SOL     OW23308   4.370   1.108   1.674  0.6255 -0.1037 -0.1839
 3892SOL    HW123309   4.306   1.155   1.727 -0.1433 -0.5853 -0.6855
 3892SOL    HW223310   4.320   1.033   1.642  0.2508 -0.2188  0.6902
 3893SOL     OW23311   0.455   0.131  12.129 -0.4313  0.3526 -0.3584
 3893SOL    HW123312   0.550   0.118  12.121 -0.3587  1.8267 -1.8563
 3893SOL    HW223313   0.452   0.221  12.164 -1.7008 -0.1392  0.7897
 3894SOL     OW23314   3.097   3.681   8.097  0.3846 -0.1603  0.2234
 3894SOL    HW123315   3.053   3.597   8.109 -2.3303  1.4709  1.6746
 3894SOL    HW223316   3.185   3.656   8.070 -0.3172 -2.5174  0.1446
 3895SOL     OW23317   2.822   1.974   9.329  0.2773 -0.0615 -0.5147
 3895SOL    HW123318   2.897   1.966   9.388  0.3493 -1.0495 -0.7376
 3895SOL    HW223319   2.827   1.895   9.274 -1.0506 -0.3373 -0.2253
 3896SOL     OW23320   2.256   1.377   2.490  0.3108 -0.3005 -0.2455
 3896SOL    HW123321   2.192   1.342   2.552 -0.5790 -0.3394 -1.1892
 3896SOL    HW223322   2.317   1.420   2.551 -0.4293  2.6274 -1.5533
 3897SOL     OW23323   1.766   0.427   5.043 -0.0845 -0.0942 -0.2457
 3897SOL    HW123324   1.767   0.332   5.056  0.8792 -0.2524 -1.4955
 3897SOL    HW223325   1.784   0.455   5.133  2.9345  1.5944 -1.3915
 3898SOL     OW23326   3.763   1.013   9.435  0.1096 -0.2957 -0.1281
 3898SOL    HW123327   3.714   0.966   9.502  1.3209  2.1113  2.4677
 3898SOL    HW223328   3.816   1.072   9.490  0.1870 -0.9086  0.4530
 3899SOL     OW23329   1.903   2.584   3.917  0.2662  0.0857 -0.3667
 3899SOL    HW123330   1.903   2.651   3.848  1.6631  1.2159  0.7184
 3899SOL    HW223331   1.818   2.595   3.959 -1.6417 -1.2930 -3.8642
 3900SOL     OW23332   4.508   1.945   2.165  0.3304  0.3822  0.0324
 3900SOL    HW123333   4.481   1.865   2.212 -1.6968  1.5672  0.8810
 3900SOL    HW223334   4.564   1.983   2.233 -1.8241  3.2225  0.2148
 3901SOL     OW23335   1.233   0.860   7.930 -0.3366 -0.2860  0.2084
 3901SOL    HW123336   1.221   0.839   8.022 -1.1654  0.7163  0.3288
 3901SOL    HW223337   1.144   0.839   7.903 -0.3973  1.0062 -0.5927
 3902SOL     OW23338   0.051   0.255  13.685 -0.1176  0.1307 -0.8987
 3902SOL    HW123339   4.702   0.288  13.692 -0.4766 -0.9725 -0.1117
 3902SOL    HW223340   0.090   0.314  13.622  1.0621  0.5903  0.2635
 3903SOL     OW23341   3.575   2.728   6.827  0.6569  0.0960  0.5263
 3903SOL    HW123342   3.621   2.786   6.887  1.6236  2.2294 -2.3043
 3903SOL    HW223343   3.629   2.649   6.834  0.3516 -0.0846  0.8590
 3904SOL     OW23344   4.553   3.808  16.734 -0.2755  0.3376  0.6419
 3904SOL    HW123345   4.573   3.869  16.805  0.5842  2.2865 -1.2920
 3904SOL    HW223346   4.593   3.727  16.767 -1.1410 -0.2993  0.1271
 3905SOL     OW23347   0.973   0.635   5.904  0.3110  0.0899 -0.3156
 3905SOL    HW123348   0.931   0.686   5.974  1.1026  0.2431  0.0521
 3905SOL    HW223349   1.018   0.710   5.865  3.5037 -1.9765 -0.6881
 3906SOL     OW23350   3.514   1.803   8.533  0.5118  0.3486 -0.3884
 3906SOL    HW123351   3.525   1.836   8.444  0.0345 -0.1770 -0.6341
 3906SOL    HW223352   3.605   1.781   8.553 -0.7657 -2.0438  2.7173
 3907SOL     OW23353   2.825   2.297  12.645  0.3033  0.3611  0.1634
 3907SOL    HW123354   2.770   2.259  12.576 -2.0063  0.7927  1.7829
 3907SOL    HW223355   2.775   2.288  12.726 -1.1629 -2.0360 -1.0223
 3908SOL     OW23356   0.728   0.824  16.508 -0.3399 -0.5146  0.5387
 3908SOL    HW123357   0.673   0.824  16.586 -2.1632  1.2148 -0.7295
 3908SOL    HW223358   0.808   0.849  16.554 -0.6744  1.8731 -0.1511
 3909SOL     OW23359   2.638   1.440   4.331  0.8870 -0.0384 -0.5217
 3909SOL    HW123360   2.684   1.362   4.300  2.4050  0.6223  0.0316
 3909SOL    HW223361   2.708   1.505   4.340 -0.2122  1.3345 -1.8554
 3910SOL     OW23362   3.900   0.598   4.808  0.4327  0.0423 -0.2048
 3910SOL    HW123363   3.805   0.594   4.806  0.4325 -0.2579  0.4392
 3910SOL    HW223364   3.908   0.616   4.902  0.0949  0.4584 -0.2561
 3911SOL     OW23365   3.773   0.883   5.525  0.0446 -0.0919  0.6459
 3911SOL    HW123366   3.751   0.807   5.471  2.3754  0.1391 -0.6398
 3911SOL    HW223367   3.712   0.937   5.476  0.8981  0.3303  0.0526
 3912SOL     OW23368   2.103   1.629   6.930 -0.0358 -0.5007  0.3307
 3912SOL    HW123369   2.020   1.677   6.934  1.0280  1.4225 -0.7275
 3912SOL    HW223370   2.161   1.705   6.928  0.1038 -0.6660 -1.3923
 3913SOL     OW23371   3.206   1.920   4.837 -0.0291  0.2913  0.2143
 3913SOL    HW123372   3.262   1.878   4.903  1.6182  0.6441 -0.9444
 3913SOL    HW223373   3.125   1.869   4.840 -0.2601  0.5004 -2.6193
 3914SOL     OW23374   3.975   0.499  11.911  0.3188  0.0616  0.1089
 3914SOL    HW123375   3.954   0.512  11.819  0.3160  2.5266  0.4533
 3914SOL    HW223376   3.894   0.517  11.960  0.9036  1.0023  0.7316
 3915SOL     OW23377   3.089   0.362   6.735 -0.3770 -0.3543  0.1675
 3915SOL    HW123378   3.008   0.378   6.687  0.1321 -1.2930 -0.9897
 3915SOL    HW223379   3.069   0.305   6.810  1.5708  0.9870  1.7258
 3916SOL     OW23380   4.024   0.163   4.568 -0.1235  0.3564  0.7511
 3916SOL    HW123381   4.036   0.070   4.552 -0.6967  0.6333 -1.3399
 3916SOL    HW223382   4.026   0.202   4.480 -0.8040  2.4235  1.6549
 3917SOL     OW23383   2.510   1.491   5.426 -0.0080 -0.5652 -0.4701
 3917SOL    HW123384   2.574   1.477   5.355 -0.9399  0.1745 -1.4552
 3917SOL    HW223385   2.500   1.586   5.426  0.8306 -0.4850  0.9822
 3918SOL     OW23386   3.959   0.052   1.060 -0.2416  0.0524  0.5069
 3918SOL    HW123387   3.971   0.086   1.149  2.5024 -0.4933  0.3473
 3918SOL    HW223388   3.972   4.700   1.081  1.5215 -0.4576 -2.7514
 3919SOL     OW23389   4.149   1.733   0.513  0.5625  0.4549 -0.2015
 3919SOL    HW123390   4.177   1.645   0.540 -2.7543 -0.1721  1.1907
 3919SOL    HW223391   4.064   1.723   0.470  0.4704  1.9607 -0.3527
 3920SOL     OW23392   1.750   3.706  16.174 -0.4901 -0.3735  0.6484
 3920SOL    HW123393   1.829   3.660  16.144 -0.9978 -0.5809 -0.3611
 3920SOL    HW223394   1.783   3.795  16.166 -0.2318 -0.5575 -0.3995
 3921SOL     OW23395   1.936   1.802  13.409 -0.2387 -0.0808  0.6139
 3921SOL    HW123396   1.859   1.774  13.459 -0.0364 -1.0275  0.3975
 3921SOL    HW223397   1.922   1.894  13.389  1.0455 -0.4137 -1.7935
 3922SOL     OW23398   2.615   0.226   6.332  0.3034 -0.5527 -0.2185
 3922SOL    HW123399   2.597   0.142   6.288 -0.3878 -1.9073  2.6956
 3922SOL    HW223400   2.697   0.223   6.380  0.3744 -1.9903 -0.4335
 3923SOL     OW23401   1.251   0.136  12.689 -0.4356 -0.2041  0.0696
 3923SOL    HW123402   1.323   0.114  12.747  0.3637  1.9631 -0.1059
 3923SOL    HW223403   1.204   0.198  12.745 -2.4525  1.2065 -3.1613
 3924SOL     OW23404   4.080   0.034   0.555  0.1215 -0.4823  0.6580
 3924SOL    HW123405   4.086   0.124   0.524  1.6761 -0.9007 -0.2378
 3924SOL    HW223406   4.099   0.045   0.648  1.4230 -2.0501  0.5885
 3925SOL     OW23407   2.211   4.192   1.933  0.0201 -0.5146 -0.1249
 3925SOL    HW123408   2.138   4.135   1.957  0.0568  0.3520  2.0388
 3925SOL    HW223409   2.165   4.267   1.896  0.5565  0.2817  0.8485
 3926SOL     OW23410   3.347   3.775  16.017 -0.2049 -0.0409 -0.3927
 3926SOL    HW123411   3.251   3.771  16.018 -0.2094  0.2635  0.6335
 3926SOL    HW223412   3.361   3.840  15.948 -0.5052 -0.3225 -0.7157
 3927SOL     OW23413   4.145   0.551   7.066  0.7558  0.2430 -0.2104
 3927SOL    HW123414   4.147   0.461   7.032  1.4232  0.1190  0.1602
 3927SOL    HW223415   4.082   0.594   7.007 -0.0901 -1.1306 -0.3270
 3928SOL     OW23416   1.322   3.618   6.285  0.0385  0.1167  0.3186
 3928SOL    HW123417   1.344   3.612   6.377  0.2400 -0.2087  0.2474
 3928SOL    HW223418   1.277   3.702   6.291 -1.0232 -0.2450 -2.4086
 3929SOL     OW23419   0.228   1.851   6.694 -0.0502 -0.5269 -0.5686
 3929SOL    HW123420   0.151   1.862   6.750  0.9120  1.8610  0.2741
 3929SOL    HW223421   0.279   1.928   6.717 -1.6011  0.4930 -0.4964
 3930SOL     OW23422   0.831   2.588   7.972 -0.8226  0.4674  0.0702
 3930SOL    HW123423   0.898   2.656   7.981  0.3784 -0.7749  0.4192
 3930SOL    HW223424   0.861   2.530   8.042 -0.4505 -0.5086 -0.9009
 3931SOL     OW23425   4.517   4.232  11.908 -0.4745 -0.0404 -0.1809
 3931SOL    HW123426   4.472   4.200  11.830  0.2410  0.0211 -0.6151
 3931SOL    HW223427   4.444   4.276  11.952 -0.5472 -0.1677 -0.1753
 3932SOL     OW23428   3.270   0.295   8.109  0.8889 -0.3291  0.5143
 3932SOL    HW123429   3.284   0.315   8.017  2.1931 -0.8450  0.6024
 3932SOL    HW223430   3.184   0.251   8.105 -0.0309  1.1056  4.3341
 3933SOL     OW23431   3.544   1.289   5.992 -0.2677  0.1726  0.4345
 3933SOL    HW123432   3.571   1.200   5.970 -0.5815  0.5667 -1.5552
 3933SOL    HW223433   3.553   1.296   6.087  0.5942  1.5342  0.2527
 3934SOL     OW23434   4.607   1.684   3.385  0.2244  0.8797  0.3683
 3934SOL    HW123435   4.538   1.745   3.357 -2.1300 -2.9570 -2.2011
 3934SOL    HW223436   4.678   1.722   3.334 -0.1601  0.1061 -0.7315
 3935SOL     OW23437   4.561   2.638   4.318 -0.2582  0.9088  0.4863
 3935SOL    HW123438   4.532   2.626   4.409 -0.9653  1.7097  0.3574
 3935SOL    HW223439   4.500   2.699   4.278 -0.1053  0.2756 -0.7118
 3936SOL     OW23440   1.219   3.241   1.872  0.1392 -0.5086  0.1267
 3936SOL    HW123441   1.218   3.149   1.897  1.8375 -1.4295 -3.2017
 3936SOL    HW223442   1.211   3.292   1.953 -2.7607 -2.1938  0.9212
 3937SOL     OW23443   0.052   2.879   6.135 -0.2460 -0.3366  0.5024
 3937SOL    HW123444   0.131   2.828   6.151 -0.6634 -1.5330 -1.2409
 3937SOL    HW223445   4.730   2.820   6.176 -0.4361  0.0873  0.8176
 3938SOL     OW23446   4.254   0.184  17.131  0.1134  0.0916 -0.2614
 3938SOL    HW123447   4.233   0.219  17.045 -2.0584 -1.8070 -0.5223
 3938SOL    HW223448   4.233   0.260  17.185 -0.4647 -0.4591  0.2976
 3939SOL     OW23449   1.437   4.086   1.519  0.7417  0.3400 -0.3584
 3939SOL    HW123450   1.507   4.148   1.540  1.1682 -0.5806  0.9920
 3939SOL    HW223451   1.396   4.128   1.444 -0.1452  0.0863 -0.0149
 3940SOL     OW23452   3.005   0.557   5.791  0.1892  0.2448  0.3997
 3940SOL    HW123453   2.922   0.522   5.759  1.6132 -2.1658 -0.7245
 3940SOL    HW223454   3.018   0.525   5.880 -0.1250  1.3500  0.8380
 3941SOL     OW23455   1.327   2.690   9.078  0.0477 -0.1527 -0.0484
 3941SOL    HW123456   1.262   2.651   9.021 -1.8359  2.6961  0.1809
 3941SOL    HW223457   1.379   2.749   9.025 -0.7457 -0.4125 -1.1041
 3942SOL     OW23458   2.066   2.957   7.813 -0.1813  0.5862  0.0398
 3942SOL    HW123459   2.039   2.885   7.870  0.0950  1.5693  1.4088
 3942SOL    HW223460   2.117   3.010   7.874  1.9530  0.5674 -1.6981
 3943SOL     OW23461   4.107   1.835   2.309 -0.6742  0.2675 -0.3452
 3943SOL    HW123462   4.091   1.885   2.229 -0.4204 -0.1909 -0.6842
 3943SOL    HW223463   4.110   1.753   2.259  2.3807 -0.1566  0.5318
 3944SOL     OW23464   4.393   4.425   3.689 -0.2599 -0.2268  0.1392
 3944SOL    HW123465   4.388   4.392   3.599  2.0676 -3.8799  1.3400
 3944SOL    HW223466   4.471   4.378   3.717 -1.1714 -0.4089  2.4316
 3945SOL     OW23467   2.619   3.304  14.292  0.9038 -0.1458 -0.1941
 3945SOL    HW123468   2.593   3.284  14.382  0.6353  1.7623  0.1446
 3945SOL    HW223469   2.632   3.216  14.257  1.2945 -0.2774  0.2685
 3946SOL     OW23470   1.568   2.255   2.319  0.9665 -0.7598 -0.0739
 3946SOL    HW123471   1.479   2.290   2.322  1.0868 -0.5344  0.9093
 3946SOL    HW223472   1.602   2.306   2.246 -1.7339  1.7138  0.3861
 3947SOL     OW23473   1.380   2.917   9.967  0.6530  0.4515  0.0892
 3947SOL    HW123474   1.459   2.920  10.021  0.8759  0.6350 -0.2421
 3947SOL    HW223475   1.353   2.826   9.979  0.9641  0.5514  1.5007
 3948SOL     OW23476   1.553   1.648   9.319  0.4077  0.6140  0.4314
 3948SOL    HW123477   1.567   1.738   9.349  1.1558  0.5640  0.2266
 3948SOL    HW223478   1.641   1.614   9.333 -0.4020 -1.2865  0.9019
 3949SOL     OW23479   4.551   1.239   2.952 -0.0913  0.0636 -0.4191
 3949SOL    HW123480   4.519   1.292   3.025 -0.3342 -1.8210  0.8457
 3949SOL    HW223481   4.528   1.149   2.973 -0.8925  0.7202  1.5910
 3950SOL     OW23482   0.599   0.557   5.735  0.2103  0.3492 -0.4864
 3950SOL    HW123483   0.686   0.523   5.756 -0.8025 -1.9245  0.0202
 3950SOL    HW223484   0.608   0.634   5.678  0.2772  0.2465 -0.6147
 3951SOL     OW23485   2.749   0.909   5.213 -0.1298  0.0457  0.0372
 3951SOL    HW123486   2.792   0.907   5.299 -0.0442  1.7099  0.0393
 3951SOL    HW223487   2.730   1.001   5.193  1.8155  0.2762 -0.7570
 3952SOL     OW23488   0.349   4.564  10.292  0.2595 -0.1560 -0.5042
 3952SOL    HW123489   0.344   4.487  10.349 -1.7628 -0.6599 -1.3702
 3952SOL    HW223490   0.304   4.532  10.214  1.8885 -2.8598 -0.3036
 3953SOL     OW23491   2.579   1.417   3.432  0.1254  0.2379  0.0058
 3953SOL    HW123492   2.561   1.463   3.351 -1.7977  0.8928  0.8020
 3953SOL    HW223493   2.489   1.419   3.466  0.0267  0.7721 -0.2944
 3954SOL     OW23494   4.383   3.211   2.209 -0.5459 -0.0517 -0.3546
 3954SOL    HW123495   4.297   3.251   2.219  0.9159  2.3944  2.3201
 3954SOL    HW223496   4.441   3.287   2.218 -0.5587 -0.1703  0.7810
 3955SOL     OW23497   2.372   2.068  15.322  0.3093  0.1624 -0.1909
 3955SOL    HW123498   2.401   1.999  15.381 -0.1809  0.8195  0.8152
 3955SOL    HW223499   2.304   2.030  15.266 -0.1085  1.3165 -0.4623
 3956SOL     OW23500   1.217   2.541   7.904 -0.2776 -0.1540 -0.3106
 3956SOL    HW123501   1.209   2.448   7.881 -0.9553 -0.9809  3.2617
 3956SOL    HW223502   1.300   2.539   7.950 -0.2303 -0.2210 -0.3986
 3957SOL     OW23503   3.662   4.643   3.008 -1.1399 -0.0675  0.2447
 3957SOL    HW123504   3.571   4.670   3.022 -0.6301  2.2163 -0.8190
 3957SOL    HW223505   3.703   4.686   3.083  0.5555 -0.0948 -0.6891
 3958SOL     OW23506   2.404   1.006  11.790  0.0681  0.5371  0.0727
 3958SOL    HW123507   2.345   1.010  11.715  0.3141  0.2175 -0.1388
 3958SOL    HW223508   2.468   1.076  11.775  1.8172 -1.6574 -2.7273
 3959SOL     OW23509   3.306   4.082   3.816  0.5271 -0.3784 -0.0957
 3959SOL    HW123510   3.372   4.111   3.752  1.0040 -0.7204  0.2386
 3959SOL    HW223511   3.341   3.993   3.826 -1.4113 -1.0133  0.9153
 3960SOL     OW23512   1.142   2.857   6.415  0.1932 -0.4372  0.3358
 3960SOL    HW123513   1.113   2.858   6.324 -0.8505  0.1735  0.6709
 3960SOL    HW223514   1.154   2.948   6.442  1.3779  0.0653 -1.9175
 3961SOL     OW23515   4.239   2.041   6.599  0.2256 -0.2172 -0.4112
 3961SOL    HW123516   4.218   2.073   6.687  2.6373 -0.7901  0.3726
 3961SOL    HW223517   4.332   2.020   6.609 -0.0306 -1.2647 -0.2556
 3962SOL     OW23518   0.354   1.021   7.747 -0.2401  0.3983  0.2643
 3962SOL    HW123519   0.359   1.099   7.691  2.3339 -0.0037 -0.0601
 3962SOL    HW223520   0.314   1.072   7.816 -0.9767  0.3302 -0.1130
 3963SOL     OW23521   2.441   0.266   4.221  0.1357  0.4447  0.0055
 3963SOL    HW123522   2.358   0.278   4.267 -0.2274 -2.7490  0.1573
 3963SOL    HW223523   2.447   0.172   4.234  0.9728  0.6492  1.1636
 3964SOL     OW23524   1.977   4.008  12.478  0.1591 -0.1612  0.6977
 3964SOL    HW123525   1.919   4.015  12.401  1.1057 -1.0045 -0.0943
 3964SOL    HW223526   2.038   4.080  12.463  0.6211 -1.2440 -2.6825
 3965SOL     OW23527   0.695   2.854  14.331 -0.2638 -0.2750  0.0407
 3965SOL    HW123528   0.715   2.826  14.241 -0.1831  1.1474 -0.3771
 3965SOL    HW223529   0.691   2.949  14.318  0.1806 -0.4393 -1.3000
 3966SOL     OW23530   2.350   1.061  14.845  0.1079 -0.2382  0.2117
 3966SOL    HW123531   2.288   1.046  14.917 -1.8719  0.9571 -1.2471
 3966SOL    HW223532   2.426   1.016  14.881  1.6328  0.4057 -2.2405
 3967SOL     OW23533   3.631   4.710   6.513 -0.2461 -0.5169 -0.5633
 3967SOL    HW123534   3.543   4.677   6.528 -0.6539  1.0019  0.3321
 3967SOL    HW223535   3.626   4.724   6.419  0.8407 -0.0704 -0.5563
 3968SOL     OW23536   1.384   2.036   0.433 -0.8677 -0.0464  0.2627
 3968SOL    HW123537   1.458   2.056   0.490  1.8853 -2.6896 -2.4368
 3968SOL    HW223538   1.430   2.024   0.351  3.1233  2.7802  2.1371
 3969SOL     OW23539   1.741   2.475   9.085  0.1278  0.1749  0.5585
 3969SOL    HW123540   1.810   2.409   9.082 -0.9976 -1.0294  1.1527
 3969SOL    HW223541   1.790   2.557   9.083 -0.9428  0.8014  0.0799
 3970SOL     OW23542   4.556   0.876   1.488  0.9172 -0.5141  0.4182
 3970SOL    HW123543   4.483   0.822   1.460  1.5559 -2.7650  3.1116
 3970SOL    HW223544   4.529   0.965   1.466  0.9696 -0.7274 -0.5229
 3971SOL     OW23545   1.895   0.379   3.149 -0.9575  0.2917 -0.2384
 3971SOL    HW123546   1.829   0.403   3.214 -1.9398 -1.8488 -0.4710
 3971SOL    HW223547   1.970   0.346   3.199  0.1832 -0.9191 -2.7533
 3972SOL     OW23548   2.561   0.341   2.307  0.0852 -0.3573 -0.0843
 3972SOL    HW123549   2.597   0.402   2.372  1.4186 -0.6445 -0.5573
 3972SOL    HW223550   2.470   0.349   2.336  0.2383 -1.9607  0.8393
 3973SOL     OW23551   2.490   3.837   1.691  0.0948 -0.9490 -0.3768
 3973SOL    HW123552   2.407   3.854   1.736  0.9814 -1.2303  1.3543
 3973SOL    HW223553   2.550   3.880   1.752  0.2206 -0.5222 -0.8062
 3974SOL     OW23554   1.332   4.689   0.266  0.4206  0.3573 -0.0409
 3974SOL    HW123555   1.425   4.694   0.288 -0.0958  1.7500  1.8192
 3974SOL    HW223556   1.341   4.611   0.210 -3.1696 -2.0313  2.7686
 3975SOL     OW23557   2.118   1.955   2.686 -0.3620  0.5479 -0.7243
 3975SOL    HW123558   2.072   2.039   2.676  0.7014  1.2094 -0.0381
 3975SOL    HW223559   2.122   1.957   2.782 -1.7331 -0.8405 -0.6275
 3976SOL     OW23560   0.219   2.183   8.908 -0.6094 -0.3280 -0.0322
 3976SOL    HW123561   0.296   2.127   8.919 -1.0749 -0.4531  2.6633
 3976SOL    HW223562   0.260   2.263   8.876  1.7776 -1.9146 -0.9198
 3977SOL     OW23563   0.302   0.277   2.975 -0.0778  0.2162  0.1019
 3977SOL    HW123564   0.302   0.320   2.889  0.6810  0.9958  0.4964
 3977SOL    HW223565   0.296   0.352   3.035 -4.2032  0.3289 -0.4222
 3978SOL     OW23566   3.543   0.247  16.911 -0.4002 -0.0591 -0.2172
 3978SOL    HW123567   3.466   0.195  16.886  0.6391 -0.6453 -2.2151
 3978SOL    HW223568   3.583   0.196  16.980 -1.4918 -0.2472  0.2741
 3979SOL     OW23569   1.017   2.371   2.237  0.6628  0.5982 -0.4365
 3979SOL    HW123570   1.055   2.455   2.265  1.6166  0.1829 -0.4992
 3979SOL    HW223571   0.981   2.357   2.324  0.4493  2.0288 -0.2831
 3980SOL     OW23572   1.793   1.024   3.773 -0.0372  0.5070  0.3443
 3980SOL    HW123573   1.723   0.969   3.809  0.0772  0.8464  1.0856
 3980SOL    HW223574   1.728   1.092   3.750 -2.0353 -0.7338  2.2531
 3981SOL     OW23575   4.235   2.807   8.538  0.2417 -0.2082 -0.1399
 3981SOL    HW123576   4.324   2.775   8.554  1.0281  0.9109 -2.2586
 3981SOL    HW223577   4.206   2.756   8.462  0.2395 -0.7564  0.2263
 3982SOL     OW23578   1.476   3.556   8.782 -0.2131 -0.2731 -0.3294
 3982SOL    HW123579   1.454   3.600   8.864 -0.9177  1.9725 -1.7204
 3982SOL    HW223580   1.428   3.612   8.721  2.5262  2.4165  0.0046
 3983SOL     OW23581   0.284   2.435   8.790  0.2469  0.4753 -0.3716
 3983SOL    HW123582   0.370   2.428   8.747 -0.0428  0.1278 -0.8872
 3983SOL    HW223583   0.273   2.530   8.790  0.9221  0.5539 -1.7182
 3984SOL     OW23584   1.320   1.642  15.023  0.3454 -0.2536 -0.0582
 3984SOL    HW123585   1.337   1.613  14.934  0.2744 -1.2105  0.2382
 3984SOL    HW223586   1.239   1.689  15.008 -1.2580 -2.6552  1.0374
 3985SOL     OW23587   0.756   2.546  17.503  0.3299  0.3406  0.4963
 3985SOL    HW123588   0.785   2.628  17.544 -0.3377  0.1969  1.2455
 3985SOL    HW223589   0.835   2.531  17.450 -0.7860  1.2653 -1.4373
 3986SOL     OW23590   2.901   3.484   7.174  0.2456  0.6086  0.0842
 3986SOL    HW123591   2.862   3.567   7.147  0.2300  0.2785 -0.8951
 3986SOL    HW223592   2.825   3.427   7.166  0.3054  0.2075  2.4460
 3987SOL     OW23593   2.438   2.027   5.976 -0.5762  0.5043  0.1734
 3987SOL    HW123594   2.368   1.962   5.988 -0.0615 -0.5100 -2.2715
 3987SOL    HW223595   2.380   2.088   5.930  1.9143  1.6472 -1.3974
 3988SOL     OW23596   4.339   2.537  16.166  0.2821 -0.1602 -0.1647
 3988SOL    HW123597   4.282   2.532  16.243 -0.7096 -1.5707 -0.9932
 3988SOL    HW223598   4.420   2.568  16.208  0.6322 -0.3877 -0.6681
 3989SOL     OW23599   1.632   4.465   1.853  0.1771 -0.1149  0.4227
 3989SOL    HW123600   1.577   4.446   1.777  0.0093 -0.3609  0.6049
 3989SOL    HW223601   1.663   4.550   1.822  0.1366 -0.3074 -0.1476
 3990SOL     OW23602   0.540   2.539   7.913  0.1933 -0.3125 -0.1459
 3990SOL    HW123603   0.631   2.537   7.944  0.0646  0.6880  0.3267
 3990SOL    HW223604   0.554   2.511   7.823  0.6200 -0.8155  0.0758
 3991SOL     OW23605   0.766   0.346   5.945  0.3747 -0.3280  0.0165
 3991SOL    HW123606   0.804   0.275   5.997  2.2200 -0.4158 -1.4475
 3991SOL    HW223607   0.795   0.330   5.855  2.6247  1.5712  0.3950
 3992SOL     OW23608   2.867   2.706  13.183 -0.1411 -0.0465 -0.4334
 3992SOL    HW123609   2.859   2.794  13.218  0.2181  0.2023 -0.9748
 3992SOL    HW223610   2.912   2.718  13.099  0.6597  1.0724  0.1659
 3993SOL     OW23611   4.556   1.287  13.241  1.0237  0.0790 -0.2149
 3993SOL    HW123612   4.605   1.206  13.227  1.4074  0.3674 -0.5438
 3993SOL    HW223613   4.482   1.279  13.182  1.2581  1.5799 -0.7102
 3994SOL     OW23614   0.052   3.732   5.981  0.6724  0.5496  0.5017
 3994SOL    HW123615   0.113   3.752   5.911  1.8872 -2.0478  0.8258
 3994SOL    HW223616   4.711   3.716   5.934  0.5780 -0.1869  0.9153
 3995SOL     OW23617   1.357   2.014   3.480 -0.3607 -0.4862 -0.0988
 3995SOL    HW123618   1.402   2.097   3.466  1.2833 -1.3022  0.3824
 3995SOL    HW223619   1.264   2.033   3.470 -0.1792 -1.3085 -3.1938
 3996SOL     OW23620   0.099   4.179   5.070 -0.2457 -0.0124 -0.4530
 3996SOL    HW123621   0.187   4.209   5.049  0.0676  0.1630  1.1388
 3996SOL    HW223622   0.079   4.240   5.140 -2.6652 -1.3466  0.0164
 3997SOL     OW23623   2.724   2.941   3.716 -0.2550 -0.1572  0.1421
 3997SOL    HW123624   2.739   3.031   3.686  0.6377 -1.3285 -2.8639
 3997SOL    HW223625   2.723   2.946   3.812 -0.7570  0.1311  0.1213
 3998SOL     OW23626   2.573   2.889   3.195  0.9045 -0.0422 -0.3447
 3998SOL    HW123627   2.595   2.806   3.238  0.2539  0.6085  1.2593
 3998SOL    HW223628   2.568   2.945   3.273  1.2173 -1.6230  0.8265
 3999SOL     OW23629   3.605   3.760   8.941  0.8215  0.3445 -0.1314
 3999SOL    HW123630   3.523   3.753   8.989  1.0229 -1.0140  0.0387
 3999SOL    HW223631   3.617   3.669   8.914  2.4826  0.3445  0.5342
 4000SOL     OW23632   1.472   4.463   6.222  0.0093 -1.1728  0.3485
 4000SOL    HW123633   1.507   4.490   6.136  0.9950 -0.7973  0.8639
 4000SOL    HW223634   1.551   4.462   6.276 -0.2474  0.3616  0.7627
 4001SOL     OW23635   2.512   4.067  15.540 -0.1648  0.2769 -0.5810
 4001SOL    HW123636   2.586   4.006  15.544  0.3060  0.7536 -2.2045
 4001SOL    HW223637   2.448   4.026  15.598 -0.1705  1.2699  0.1231
 4002SOL     OW23638   4.224   1.088   1.170 -0.0776  0.2187 -0.2128
 4002SOL    HW123639   4.272   1.095   1.252 -0.0318 -0.2029 -0.2001
 4002SOL    HW223640   4.194   0.997   1.180 -0.9636  0.4967 -0.3598
 4003SOL     OW23641   2.139   0.651   9.445 -0.3774 -0.4466  0.1894
 4003SOL    HW123642   2.222   0.611   9.471 -1.5816 -3.2572 -0.2933
 4003SOL    HW223643   2.081   0.603   9.505 -1.4847  0.3746 -0.2264
 4004SOL     OW23644   0.767   2.278   5.352 -0.2554 -0.2715  0.4489
 4004SOL    HW123645   0.751   2.249   5.442 -1.1869 -0.6258  0.1687
 4004SOL    HW223646   0.679   2.301   5.323  0.2831  1.1320 -0.0906
 4005SOL     OW23647   0.569   3.986  17.077 -0.0514  0.4764  0.0909
 4005SOL    HW123648   0.579   4.041  16.999  1.9996 -0.8874 -0.5912
 4005SOL    HW223649   0.637   4.030  17.127 -0.5892  0.8620  0.4865
 4006SOL     OW23650   3.828   0.421   2.857  0.2167  0.1810  0.2717
 4006SOL    HW123651   3.803   0.461   2.940 -1.5934  0.8199 -0.5611
 4006SOL    HW223652   3.745   0.420   2.809 -0.5711  1.2777  1.6243
 4007SOL     OW23653   3.930   3.892   8.563  0.7531  0.3039 -0.5014
 4007SOL    HW123654   3.913   3.983   8.539  0.5770  0.7385  1.2986
 4007SOL    HW223655   3.918   3.888   8.658  4.7184  0.2769  0.0282
 4008SOL     OW23656   4.277   0.030  14.820 -0.9584  0.3971 -0.0605
 4008SOL    HW123657   4.363   0.053  14.785  1.2006 -3.7663  2.5817
 4008SOL    HW223658   4.231   0.114  14.818 -2.3372 -0.4321 -2.9959
 4009SOL     OW23659   3.188   3.751   8.816  0.3807  0.2166 -0.6561
 4009SOL    HW123660   3.114   3.734   8.874 -0.9919  1.7361 -1.9325
 4009SOL    HW223661   3.200   3.839   8.853  2.5580 -0.7485  0.9298
 4010SOL     OW23662   1.197   1.069  14.010  0.4601  0.3643 -0.1104
 4010SOL    HW123663   1.247   1.041  13.933  3.2666  3.2281  0.6951
 4010SOL    HW223664   1.222   1.161  14.004  2.4087 -0.1944 -0.7005
 4011SOL     OW23665   2.929   1.187  11.122  0.3679  0.3316  1.3824
 4011SOL    HW123666   2.954   1.230  11.041  1.1699  1.4940  2.2612
 4011SOL    HW223667   3.004   1.136  11.152 -0.0588 -2.1212 -1.7632
 4012SOL     OW23668   3.181   3.818   7.703 -0.7732 -0.0970 -0.0760
 4012SOL    HW123669   3.240   3.768   7.760  1.1840  0.2473 -1.8111
 4012SOL    HW223670   3.118   3.834   7.773 -1.6660  0.0532 -0.9045
 4013SOL     OW23671   2.901   4.683   3.915  0.0459  0.5970  0.1386
 4013SOL    HW123672   2.924   4.614   3.977 -2.4962  0.3382  0.7837
 4013SOL    HW223673   2.822   4.640   3.883 -0.8442  1.3445  1.3510
 4014SOL     OW23674   3.924   4.532  13.694 -0.8181  0.1207 -0.5388
 4014SOL    HW123675   3.999   4.494  13.740  0.3309  0.9992 -1.6926
 4014SOL    HW223676   3.915   4.463  13.628  1.0110 -1.5714  0.9559
 4015SOL     OW23677   3.985   0.678   0.307 -0.9552 -0.2889 -0.2815
 4015SOL    HW123678   4.037   0.634   0.374  0.6158 -1.4191 -2.2571
 4015SOL    HW223679   3.996   0.770   0.332 -0.2891 -0.4364 -0.0456
 4016SOL     OW23680   0.635   2.774  15.136  0.1985  0.5569 -0.2375
 4016SOL    HW123681   0.616   2.742  15.047  2.0750 -0.1406 -0.3888
 4016SOL    HW223682   0.697   2.709  15.168  1.7292  2.1914  0.1248
 4017SOL     OW23683   4.393   2.244   5.531  0.4234  0.2573 -0.1302
 4017SOL    HW123684   4.425   2.240   5.621 -0.4330  1.8510  0.2401
 4017SOL    HW223685   4.299   2.226   5.533  0.2317  1.5538  2.4845
 4018SOL     OW23686   0.875   2.579   1.831 -0.5882 -0.7509  0.2255
 4018SOL    HW123687   0.866   2.501   1.886 -3.3274 -2.0156 -1.9995
 4018SOL    HW223688   0.876   2.539   1.744 -1.0209 -1.6181  0.6185
 4019SOL     OW23689   3.124   2.740   7.916  0.5457 -0.1746  1.0624
 4019SOL    HW123690   3.124   2.784   8.001 -2.0656 -1.0736  1.5062
 4019SOL    HW223691   3.043   2.771   7.876  1.3808  2.4670  1.3897
 4020SOL     OW23692   2.874   1.140   8.207 -0.2730 -0.7101 -0.0208
 4020SOL    HW123693   2.934   1.176   8.142 -2.3065  1.0725 -0.9218
 4020SOL    HW223694   2.907   1.191   8.281  0.0455  0.2517 -0.8300
 4021SOL     OW23695   1.175   3.704  13.033  0.0484 -0.6783 -0.3166
 4021SOL    HW123696   1.135   3.682  13.117  0.6294 -0.4369  0.0169
 4021SOL    HW223697   1.099   3.709  12.975 -0.7449  3.7085  1.0988
 4022SOL     OW23698   1.335   0.040  16.884 -0.6178 -0.4458 -0.0022
 4022SOL    HW123699   1.274   0.055  16.812  0.3634 -0.8002 -0.9037
 4022SOL    HW223700   1.331   4.689  16.910 -1.9878 -0.2771  0.3704
 4023SOL     OW23701   0.975   1.961   2.529  0.7525  0.3921 -0.0575
 4023SOL    HW123702   0.979   2.054   2.507 -0.4115  0.2612 -0.8550
 4023SOL    HW223703   0.897   1.968   2.583 -0.5232  0.3385 -1.8678
 4024SOL     OW23704   4.321   0.679   4.688  0.3537  0.1466 -0.6474
 4024SOL    HW123705   4.228   0.699   4.699  0.8661  1.3898  1.3759
 4024SOL    HW223706   4.363   0.762   4.666  0.8359  0.3960  1.1919
 4025SOL     OW23707   2.786   2.664   7.657 -0.2827  0.5577 -0.1059
 4025SOL    HW123708   2.801   2.745   7.706  2.5504  0.0113 -0.0566
 4025SOL    HW223709   2.700   2.679   7.618  0.3434  1.5278 -1.1456
 4026SOL     OW23710   2.047   4.648   7.973 -0.3863 -0.1824 -0.5358
 4026SOL    HW123711   2.036   4.693   8.057  0.2409 -0.5949 -0.2311
 4026SOL    HW223712   2.123   4.597   8.001  0.3124  0.8095 -0.6571
 4027SOL     OW23713   2.022   2.596   3.252 -0.1693 -0.0003 -0.4921
 4027SOL    HW123714   2.114   2.615   3.270 -0.8766  1.9310  0.9680
 4027SOL    HW223715   2.004   2.540   3.327  0.0139 -1.0732 -1.2420
 4028SOL     OW23716   1.714   4.309   5.085  0.5864 -0.5328 -0.4987
 4028SOL    HW123717   1.630   4.296   5.130  0.3478  1.5869 -0.3127
 4028SOL    HW223718   1.690   4.382   5.026  0.8062  0.2861  0.4321
 4029SOL     OW23719   2.299   2.538   3.355 -0.4785 -0.0575  0.1120
 4029SOL    HW123720   2.357   2.608   3.325 -0.2197 -2.0685 -4.1056
 4029SOL    HW223721   2.249   2.576   3.428 -1.5526 -1.7073  0.2282
 4030SOL     OW23722   4.036   2.251   5.220  0.7141 -0.0062  0.8812
 4030SOL    HW123723   3.991   2.335   5.214  2.8425  1.0401 -0.4579
 4030SOL    HW223724   4.125   2.285   5.206  1.8910 -2.3978  2.4583
 4031SOL     OW23725   2.406   4.657   6.624 -0.3030  0.4137  0.0759
 4031SOL    HW123726   2.336   4.629   6.684  1.2809 -1.8582  0.8474
 4031SOL    HW223727   2.481   4.676   6.680  0.6211 -0.8729 -0.7172
 4032SOL     OW23728   1.727   0.835   7.296 -1.1097  0.2121  0.0143
 4032SOL    HW123729   1.703   0.763   7.237  0.4963 -0.9529  0.7848
 4032SOL    HW223730   1.682   0.914   7.267 -1.4648 -0.4992 -1.3502
 4033SOL     OW23731   3.843   4.662  14.007  0.4885  0.3509 -0.0435
 4033SOL    HW123732   3.845   0.014  14.030  0.9724  0.2671  0.2613
 4033SOL    HW223733   3.878   4.654  13.918  1.5946  0.8391  0.3448
 4034SOL     OW23734   0.910   3.914  13.897 -0.1623  0.2695  0.0276
 4034SOL    HW123735   0.860   3.912  13.978  0.5241  2.0859  0.5028
 4034SOL    HW223736   0.913   3.819  13.884 -3.0473  0.1474  0.3386
 4035SOL     OW23737   1.803   0.138   4.799  0.0397 -0.2914 -0.3202
 4035SOL    HW123738   1.804   0.072   4.868  0.2677  3.6442  3.5031
 4035SOL    HW223739   1.709   0.160   4.800 -0.1552 -1.1468 -0.2871
 4036SOL     OW23740   0.905   2.099  10.555 -0.7856  0.1604  0.3289
 4036SOL    HW123741   0.975   2.121  10.616  0.4225  1.4794 -1.5511
 4036SOL    HW223742   0.915   2.005  10.538 -0.7361  0.8760 -3.5642
 4037SOL     OW23743   1.849   3.575   8.585  0.9493  0.2900 -0.1952
 4037SOL    HW123744   1.875   3.529   8.506  0.7330 -0.9221  0.4421
 4037SOL    HW223745   1.758   3.546   8.596  0.8689  1.0156  1.1325
 4038SOL     OW23746   3.020   1.622   6.827 -0.0910  0.2115  0.3317
 4038SOL    HW123747   2.953   1.567   6.787 -0.0570  0.3559  0.0697
 4038SOL    HW223748   3.095   1.576   6.790 -0.6824 -1.2152  0.9045
 4039SOL     OW23749   3.367   2.018   8.015  0.1660  0.0521 -0.3294
 4039SOL    HW123750   3.323   2.066   8.085 -0.6003 -0.2547 -0.6025
 4039SOL    HW223751   3.354   1.927   8.041 -2.6078  0.9798  1.4976
 4040SOL     OW23752   2.422   2.949   5.699 -0.1336 -0.5558 -0.4058
 4040SOL    HW123753   2.485   3.020   5.694 -0.1337 -0.3867  1.7838
 4040SOL    HW223754   2.338   2.993   5.687  0.6820  1.4468  1.2102
 4041SOL     OW23755   0.705   4.513   3.298  0.1029 -0.0329 -0.0568
 4041SOL    HW123756   0.774   4.537   3.236 -0.2717 -0.4391 -0.6374
 4041SOL    HW223757   0.743   4.471   3.375  2.1169  2.4752  0.3218
 4042SOL     OW23758   4.160   3.236   2.935  0.1289 -0.3179 -0.0601
 4042SOL    HW123759   4.179   3.215   2.843 -1.9124  0.6797 -0.7207
 4042SOL    HW223760   4.126   3.155   2.971 -1.3592 -0.2759 -1.3769
 4043SOL     OW23761   3.458   3.123  13.129 -0.4769 -0.4087 -0.5168
 4043SOL    HW123762   3.426   3.163  13.210 -2.6237  1.6597 -2.3859
 4043SOL    HW223763   3.459   3.030  13.153  0.7296 -0.6425 -1.4302
 4044SOL     OW23764   4.733   2.759  12.273  0.0807 -0.4813 -0.3994
 4044SOL    HW123765   4.638   2.756  12.284  0.1063  1.1618  0.2791
 4044SOL    HW223766   0.011   2.844  12.313 -1.8234 -0.9911  1.5545
 4045SOL     OW23767   3.849   3.880   6.890  0.6623 -0.1892  0.4694
 4045SOL    HW123768   3.916   3.945   6.911  0.6589 -0.6563  1.9576
 4045SOL    HW223769   3.875   3.802   6.939 -0.0196  0.2268  1.4864
 4046SOL     OW23770   1.395   1.243   9.763  0.2266  0.2160  0.2683
 4046SOL    HW123771   1.439   1.300   9.700 -0.3832  0.0458 -0.3146
 4046SOL    HW223772   1.327   1.302   9.796 -1.4650 -1.8703  0.4982
 4047SOL     OW23773   2.687   2.340   2.117 -0.0815  0.1610  0.3855
 4047SOL    HW123774   2.773   2.381   2.130 -0.4694  1.0229  0.2596
 4047SOL    HW223775   2.633   2.418   2.107 -1.8715 -1.0242  0.8054
 4048SOL     OW23776   4.141   3.557   7.004 -0.7062 -0.1897 -0.1023
 4048SOL    HW123777   4.209   3.576   7.069 -1.1816 -1.5857  0.8215
 4048SOL    HW223778   4.138   3.462   6.999  1.4077 -0.2706  0.1635
 4049SOL     OW23779   1.360   1.030  13.791 -0.2731  0.7137 -0.3544
 4049SOL    HW123780   1.432   1.093  13.790  0.3578 -0.0030 -0.8326
 4049SOL    HW223781   1.291   1.061  13.733  0.1823 -0.1770 -1.3770
 4050SOL     OW23782   3.038   1.823   6.207  0.3643  0.1326  0.0147
 4050SOL    HW123783   3.013   1.903   6.162  3.4282 -0.1056 -2.1053
 4050SOL    HW223784   2.998   1.828   6.294  0.6800  0.0782  0.1622
 4051SOL     OW23785   3.418   1.602   5.960 -0.0223 -0.5211 -0.2062
 4051SOL    HW123786   3.503   1.574   5.994 -0.2270 -0.4701  0.3583
 4051SOL    HW223787   3.353   1.549   6.007 -1.5095  1.6767  0.2381
 4052SOL     OW23788   1.245   0.312   1.792 -0.4640  0.2231 -0.8753
 4052SOL    HW123789   1.273   0.221   1.794 -0.4995  0.2159 -0.7137
 4052SOL    HW223790   1.294   0.345   1.867 -0.8830 -1.7357  0.2708
 4053SOL     OW23791   2.245   2.303   7.395  0.2955  0.1831 -0.1371
 4053SOL    HW123792   2.224   2.371   7.460  1.5925 -0.3742  0.8437
 4053SOL    HW223793   2.338   2.293   7.413 -0.0346  2.0512  2.7054
 4054SOL     OW23794   3.034   0.017   7.205  0.1063 -0.1401  0.2833
 4054SOL    HW123795   3.074   4.671   7.203  0.4650  0.0968 -2.4841
 4054SOL    HW223796   3.110   0.062   7.242  2.3049 -2.1176 -1.8221
 4055SOL     OW23797   3.701   4.502  12.999 -0.0140 -0.4325  0.1647
 4055SOL    HW123798   3.766   4.564  12.968 -1.9999  2.4535  1.7684
 4055SOL    HW223799   3.745   4.463  13.074 -0.5396 -0.5713  0.4028
 4056SOL     OW23800   0.074   2.065   2.754 -0.2783 -0.0818 -0.4868
 4056SOL    HW123801   4.726   2.073   2.790 -0.2427 -3.2238  0.3587
 4056SOL    HW223802   0.101   1.975   2.773  0.4752  0.0871 -0.7500
 4057SOL     OW23803   3.106   4.264   7.076 -0.1947  1.0744  0.0207
 4057SOL    HW123804   3.193   4.302   7.061  0.9116 -1.4805 -0.1984
 4057SOL    HW223805   3.115   4.198   7.145 -0.7373  1.0978  0.1119
 4058SOL     OW23806   1.101   0.184   3.994 -0.0291 -0.1729 -0.2580
 4058SOL    HW123807   1.085   0.240   3.917  0.1047  0.7487  0.3862
 4058SOL    HW223808   1.012   0.150   4.008  0.1517 -0.8068 -0.6614
 4059SOL     OW23809   2.544   0.518   5.013  0.0818 -0.7574 -0.2882
 4059SOL    HW123810   2.608   0.448   5.025  2.2199  0.9147 -1.9928
 4059SOL    HW223811   2.484   0.497   5.085 -0.2856 -1.2482 -0.7350
 4060SOL     OW23812   0.816   2.812   7.766 -0.1637 -0.5790  0.3508
 4060SOL    HW123813   0.829   2.761   7.847 -0.6328 -1.1044  0.0923
 4060SOL    HW223814   0.835   2.744   7.701 -0.0365  2.4959 -2.7602
 4061SOL     OW23815   2.097   1.850   6.087  0.0349  0.0868 -0.5268
 4061SOL    HW123816   2.023   1.836   6.028  1.6319 -0.9017 -2.3058
 4061SOL    HW223817   2.166   1.800   6.043 -0.5030  1.1148 -2.5292
 4062SOL     OW23818   4.529   3.747   1.988 -0.0948  0.2263 -0.5339
 4062SOL    HW123819   4.529   3.654   2.011  0.3164  0.3854  0.1141
 4062SOL    HW223820   4.574   3.736   1.904  1.8074 -4.2356  1.0901
 4063SOL     OW23821   2.495   4.626   4.116 -0.0413  0.4706  0.1086
 4063SOL    HW123822   2.427   4.682   4.154 -0.9257  1.9812 -3.6602
 4063SOL    HW223823   2.446   4.546   4.098  0.9014 -0.1322  0.2357
 4064SOL     OW23824   2.945   4.053  11.975  0.2417 -0.4970 -0.2053
 4064SOL    HW123825   2.935   4.143  12.006  1.6332 -0.0347 -1.0814
 4064SOL    HW223826   2.858   4.030  11.943 -1.2513  0.9479  2.7752
 4065SOL     OW23827   1.138   4.128   5.208  0.5146  0.3079 -0.1686
 4065SOL    HW123828   1.193   4.125   5.286 -1.5623 -0.0664  1.2688
 4065SOL    HW223829   1.063   4.080   5.243 -0.8001 -0.7380 -4.3452
 4066SOL     OW23830   3.840   2.990   4.854  0.0842  0.0836  0.2679
 4066SOL    HW123831   3.775   3.041   4.902  0.6582  1.2722 -0.2208
 4066SOL    HW223832   3.784   2.925   4.811 -0.0654  0.8182 -0.6491
 4067SOL     OW23833   4.311   3.657   8.817 -0.5125  0.0448  0.0555
 4067SOL    HW123834   4.385   3.684   8.872  0.0546 -2.0853  0.3596
 4067SOL    HW223835   4.298   3.565   8.838  1.1478  0.0951  1.3820
 4068SOL     OW23836   0.589   4.148   4.695 -0.8493 -0.0388  0.5754
 4068SOL    HW123837   0.593   4.190   4.781 -0.8370 -0.9087  1.0094
 4068SOL    HW223838   0.535   4.213   4.652 -0.3327 -1.4936 -2.2871
 4069SOL     OW23839   3.255   3.017   5.255  0.0217 -0.1451 -0.2598
 4069SOL    HW123840   3.194   2.976   5.316  0.6348  2.6137  2.2234
 4069SOL    HW223841   3.337   3.004   5.302  0.0800 -0.5217 -0.4632
 4070SOL     OW23842   0.653   2.904  13.817  0.3196 -0.1955  0.5200
 4070SOL    HW123843   0.620   2.819  13.844 -1.8554  0.3040 -0.5624
 4070SOL    HW223844   0.697   2.937  13.896 -0.4827 -1.7915  1.6139
 4071SOL     OW23845   3.844   1.943   5.530  0.8045 -0.5298 -0.7853
 4071SOL    HW123846   3.935   1.915   5.539  0.4461 -1.8895 -1.3566
 4071SOL    HW223847   3.845   1.977   5.440 -2.7569 -2.5547 -1.5650
 4072SOL     OW23848   3.820   3.446  16.189  0.6543  0.1693  0.3800
 4072SOL    HW123849   3.756   3.386  16.151  1.0913  0.9275 -1.5218
 4072SOL    HW223850   3.898   3.419  16.141 -0.0360 -0.9332 -0.1162
 4073SOL     OW23851   3.237   1.230   6.747  0.0414  0.0970 -0.0462
 4073SOL    HW123852   3.282   1.147   6.763 -1.1617 -0.1336  2.1222
 4073SOL    HW223853   3.148   1.208   6.776 -0.0423  0.4013 -0.0646
 4074SOL     OW23854   1.753   4.522  12.546 -0.8030  0.0236  0.4787
 4074SOL    HW123855   1.816   4.527  12.618 -1.2237 -0.5043  0.8853
 4074SOL    HW223856   1.759   4.429  12.526 -3.7753  0.1723 -1.0310
 4075SOL     OW23857   0.150   2.958   6.620  0.2735  0.2346 -0.4792
 4075SOL    HW123858   0.091   2.914   6.558 -2.3112  0.0264  2.1007
 4075SOL    HW223859   0.182   3.025   6.560 -0.4269  0.9183 -0.0958
 4076SOL     OW23860   4.540   0.393  12.997  0.0285  0.0726 -0.4658
 4076SOL    HW123861   4.609   0.339  13.035  0.3244 -0.0599 -1.1961
 4076SOL    HW223862   4.595   0.458  12.953 -0.7145  0.2774 -1.0960
 4077SOL     OW23863   2.940   2.328   8.933  0.2494  0.3715 -0.4066
 4077SOL    HW123864   2.899   2.375   9.006 -0.8026  1.8290 -1.9594
 4077SOL    HW223865   3.025   2.303   8.971  0.3654  2.4096  0.6662
 4078SOL     OW23866   3.630   3.168   2.277 -0.1460  0.5549 -0.7993
 4078SOL    HW123867   3.551   3.116   2.289  0.0945  0.9358  2.3650
 4078SOL    HW223868   3.674   3.106   2.218 -1.1915  2.0131 -3.0854
 4079SOL     OW23869   3.370   3.557   8.138 -1.1809 -0.6172  0.3287
 4079SOL    HW123870   3.366   3.583   8.230  1.8562 -1.5444  0.7466
 4079SOL    HW223871   3.448   3.502   8.143 -0.6348  0.0219 -1.1766
 4080SOL     OW23872   2.873   4.089   3.466 -0.2648 -0.2786 -0.0583
 4080SOL    HW123873   2.849   4.136   3.546  0.0746 -1.6278  0.8593
 4080SOL    HW223874   2.801   4.117   3.410  0.7270  0.8943 -0.7392
 4081SOL     OW23875   0.517   2.732   3.994 -0.0584  0.3149  0.8104
 4081SOL    HW123876   0.489   2.666   3.930 -0.0911  0.8841  0.2408
 4081SOL    HW223877   0.590   2.782   3.957  0.6200 -0.6765  0.8154
 4082SOL     OW23878   3.506   3.583   2.608 -0.2204 -0.4787 -0.2326
 4082SOL    HW123879   3.466   3.667   2.584 -2.7448 -1.4971  0.3821
 4082SOL    HW223880   3.515   3.534   2.526  1.1473  0.2467 -0.5203
 4083SOL     OW23881   0.785   3.368   3.716  0.0939  0.6755  0.3481
 4083SOL    HW123882   0.802   3.396   3.626 -0.2010 -1.0940 -0.2651
 4083SOL    HW223883   0.697   3.404   3.724 -0.0811 -0.0590  1.7508
 4084SOL     OW23884   4.301   3.274   5.291  0.0571  0.0951  0.1901
 4084SOL    HW123885   4.320   3.181   5.299  0.3527  0.1258 -0.1634
 4084SOL    HW223886   4.383   3.313   5.261  1.3634 -2.1996  0.8448
 4085SOL     OW23887   0.425   1.511   7.872  0.3160 -0.4993  0.3169
 4085SOL    HW123888   0.340   1.469   7.886 -1.1522  1.5973 -2.4260
 4085SOL    HW223889   0.484   1.435   7.866  0.4378 -0.5133  1.6765
 4086SOL     OW23890   1.746   2.277  11.696 -0.8102  0.3065  0.0500
 4086SOL    HW123891   1.706   2.235  11.619 -0.3092  0.1678 -0.1368
 4086SOL    HW223892   1.699   2.361  11.697  0.6910  1.1821 -2.2271
 4087SOL     OW23893   3.058   1.698  11.507  0.0963 -0.1148  0.2865
 4087SOL    HW123894   3.029   1.615  11.546 -0.0920  0.3202  1.0653
 4087SOL    HW223895   3.151   1.674  11.510  0.0710  0.0689  2.5087
 4088SOL     OW23896   1.762   1.392   2.461 -0.4231 -0.1556 -0.2183
 4088SOL    HW123897   1.773   1.420   2.370 -0.1251  1.4568  0.3225
 4088SOL    HW223898   1.854   1.373   2.482 -1.3093 -1.9515  1.9707
 4089SOL     OW23899   1.581   3.838   6.762  0.2617  0.0541 -0.3783
 4089SOL    HW123900   1.631   3.803   6.836  0.3852  0.8291 -0.0902
 4089SOL    HW223901   1.626   3.922   6.746 -0.5345  0.5681  0.1219
 4090SOL     OW23902   0.465   2.102  13.491 -0.2659 -0.5469 -0.4731
 4090SOL    HW123903   0.517   2.172  13.531 -2.7525 -0.0908  2.0040
 4090SOL    HW223904   0.486   2.114  13.399  2.2143 -0.2642  0.1175
 4091SOL     OW23905   1.826   0.466   3.967  0.8199  0.2671  0.3704
 4091SOL    HW123906   1.866   0.462   4.053 -0.9121 -1.2975  1.1106
 4091SOL    HW223907   1.847   0.558   3.953  0.4548  0.5712  1.8412
 4092SOL     OW23908   3.620   2.135  16.415 -0.3122 -0.4412 -0.1226
 4092SOL    HW123909   3.599   2.195  16.344  0.2336 -1.8799 -1.4988
 4092SOL    HW223910   3.709   2.158  16.440 -1.1421  0.8135  1.7375
 4093SOL     OW23911   4.677   1.803   4.644 -0.5975 -0.3654 -0.2809
 4093SOL    HW123912   0.016   1.854   4.657 -2.1979  1.9562  0.3916
 4093SOL    HW223913   4.654   1.816   4.552  1.2183 -1.7708 -0.9463
 4094SOL     OW23914   2.006   4.528  14.372 -0.7559  0.0923 -0.1977
 4094SOL    HW123915   2.078   4.584  14.400 -0.9940  0.5209 -0.4505
 4094SOL    HW223916   1.973   4.590  14.307  1.8884  1.6201 -0.0692
 4095SOL     OW23917   0.999   0.329   2.493 -0.4401  0.0567  0.1335
 4095SOL    HW123918   0.982   0.259   2.430  1.1128  1.3942 -1.7667
 4095SOL    HW223919   0.949   0.403   2.461 -0.3474 -0.0646 -0.2963
 4096SOL     OW23920   2.299   1.210   2.274  0.0313 -0.1902 -0.0840
 4096SOL    HW123921   2.282   1.267   2.349  0.9276 -2.0688  1.5608
 4096SOL    HW223922   2.391   1.187   2.285  0.2637  0.7964 -0.0112
 4097SOL     OW23923   3.637   3.523   1.835  0.4964 -0.0578 -0.3430
 4097SOL    HW123924   3.642   3.447   1.777  4.8491  0.2129 -0.2641
 4097SOL    HW223925   3.728   3.546   1.849  0.2349  0.8146 -0.0713
 4098SOL     OW23926   3.337   0.236   3.800 -0.3405  0.2338 -0.0169
 4098SOL    HW123927   3.295   0.207   3.881 -0.7600  2.2063  0.4949
 4098SOL    HW223928   3.288   0.318   3.792 -0.7361 -0.1132 -1.1255
 4099SOL     OW23929   1.892   0.238   8.799 -0.4316 -0.0407 -0.2901
 4099SOL    HW123930   1.980   0.201   8.797 -1.3375 -2.1950 -1.5727
 4099SOL    HW223931   1.830   0.167   8.780 -1.8957  1.4119 -1.0116
 4100SOL     OW23932   2.642   2.598   9.380  0.4070 -0.1750 -0.9164
 4100SOL    HW123933   2.598   2.515   9.395  0.1965  0.2259  0.6569
 4100SOL    HW223934   2.601   2.623   9.298 -0.2567  1.5916 -0.0421
 4101SOL     OW23935   1.040   3.968  14.816 -0.4857 -0.0399  0.5318
 4101SOL    HW123936   1.014   3.893  14.870  0.0979  0.8131  2.0135
 4101SOL    HW223937   0.979   4.030  14.856  0.2124  1.4666 -0.7516
 4102SOL     OW23938   1.870   1.808   2.949  0.3709 -0.1627 -0.5418
 4102SOL    HW123939   1.811   1.820   2.875 -0.6829 -2.0603  0.0012
 4102SOL    HW223940   1.938   1.873   2.934  0.9483 -0.8657 -0.9994
 4103SOL     OW23941   3.534   0.473  10.327  0.3717  0.2386  0.5473
 4103SOL    HW123942   3.572   0.426  10.253  2.9150  0.4303  1.7350
 4103SOL    HW223943   3.583   0.555  10.334 -0.6998  1.2785 -3.9130
 4104SOL     OW23944   3.234   3.063  12.538 -0.0465 -0.1744 -0.6804
 4104SOL    HW123945   3.304   3.021  12.588 -0.1634  1.4425  0.8239
 4104SOL    HW223946   3.248   3.036  12.447  1.0279  0.4617 -0.7045
 4105SOL     OW23947   2.480   3.111   7.689  0.0051  0.1806  0.1036
 4105SOL    HW123948   2.444   3.023   7.681  0.7064 -0.2583  1.7517
 4105SOL    HW223949   2.510   3.110   7.780  1.7030  2.8873 -0.4441
 4106SOL     OW23950   2.780   0.486   3.839  0.0096 -0.5112  0.0185
 4106SOL    HW123951   2.726   0.497   3.918 -1.2288  1.0645 -1.0469
 4106SOL    HW223952   2.718   0.461   3.770 -2.2479 -1.7002  2.4721
 4107SOL     OW23953   0.698   1.068   8.173 -0.1591  0.0676 -0.3184
 4107SOL    HW123954   0.748   0.987   8.157 -0.6783 -0.0588 -1.3406
 4107SOL    HW223955   0.656   1.074   8.087 -0.8718  0.6067  0.0720
 4108SOL     OW23956   0.136   2.679  12.626 -0.2083  0.1015  0.1960
 4108SOL    HW123957   0.199   2.639  12.686 -2.2286  2.1043  3.6400
 4108SOL    HW223958   0.149   2.638  12.541  0.8009 -1.6162  1.1751
 4109SOL     OW23959   4.440   2.445  17.085 -0.2476 -0.9672 -0.0502
 4109SOL    HW123960   4.480   2.450  16.998 -0.1706 -1.3677 -0.0397
 4109SOL    HW223961   4.357   2.491  17.074 -0.1520 -1.3018 -2.0928
 4110SOL     OW23962   3.092   1.284  12.456  0.2551 -0.1127  0.1980
 4110SOL    HW123963   3.036   1.359  12.478 -1.0045 -0.8916 -0.3483
 4110SOL    HW223964   3.022   1.219  12.460  1.3317 -1.0815  3.5517
 4111SOL     OW23965   0.462   3.923   4.590 -0.0154 -0.1580 -0.3895
 4111SOL    HW123966   0.493   3.851   4.646 -0.0071 -0.2817 -0.5542
 4111SOL    HW223967   0.519   3.995   4.617 -1.5896  1.4021 -1.2528
 4112SOL     OW23968   2.013   4.216  16.912 -0.5538  0.4342  0.0413
 4112SOL    HW123969   1.975   4.131  16.890  0.9010 -0.2711  0.2502
 4112SOL    HW223970   2.019   4.212  17.008  0.3179 -0.2077 -0.0390
 4113SOL     OW23971   2.478   0.725  16.555 -0.3557 -0.9779 -0.6161
 4113SOL    HW123972   2.489   0.804  16.503  0.9385 -0.9389 -0.2718
 4113SOL    HW223973   2.414   0.749  16.622 -0.1747 -1.0662 -0.4143
 4114SOL     OW23974   2.349   0.814   4.178 -0.4247 -0.1219 -0.3132
 4114SOL    HW123975   2.357   0.812   4.273  1.6392  2.5367 -0.4206
 4114SOL    HW223976   2.254   0.807   4.169 -0.4225 -2.1850  1.2140
 4115SOL     OW23977   3.763   0.926   9.145 -0.5986  0.1682  0.2243
 4115SOL    HW123978   3.689   0.943   9.087  0.1755  0.7734 -0.5939
 4115SOL    HW223979   3.741   0.960   9.231  3.1584 -2.2866  2.1842
 4116SOL     OW23980   0.086   4.655  12.413  0.0499 -0.1801  0.0308
 4116SOL    HW123981   0.039   4.709  12.350 -0.4724  1.0468  1.4716
 4116SOL    HW223982   0.155   4.617  12.358  2.1949  1.9601  1.2447
 4117SOL     OW23983   0.880   3.707  12.244  0.2290 -0.5111  0.1568
 4117SOL    HW123984   0.843   3.759  12.173  1.6932 -2.6170 -2.1698
 4117SOL    HW223985   0.889   3.773  12.313 -1.3067  1.1995 -1.2851
 4118SOL     OW23986   3.793   2.709   3.671  0.6361 -0.2234 -0.8137
 4118SOL    HW123987   3.848   2.720   3.749 -0.7158 -0.3603  0.1591
 4118SOL    HW223988   3.740   2.788   3.680  1.0308 -0.0800  0.3754
 4119SOL     OW23989   2.229   0.125  10.583  1.0585  0.6781 -0.3868
 4119SOL    HW123990   2.220   0.180  10.660 -3.4954  0.6568 -0.9070
 4119SOL    HW223991   2.238   0.038  10.623  4.2071  0.5865 -1.2895
 4120SOL     OW23992   1.770   2.970   0.441 -0.1869  0.0078  0.1338
 4120SOL    HW123993   1.819   3.051   0.428 -0.8877  0.2313 -1.1561
 4120SOL    HW223994   1.738   2.953   0.352 -0.7585  0.0618  0.3277
 4121SOL     OW23995   0.042   1.983   5.739  0.4146  0.1758 -0.2912
 4121SOL    HW123996   0.090   1.912   5.782 -0.3409 -1.4266 -2.1220
 4121SOL    HW223997   0.103   2.055   5.752  1.7923 -0.9396 -0.5638
 4122SOL     OW23998   4.694   2.096   2.334  0.3859  0.0721  0.0478
 4122SOL    HW123999   0.008   2.173   2.321 -1.0617  1.1416  0.2385
 4122SOL    HW224000   0.009   2.046   2.393  2.9237 -0.4600 -2.8276
 4123SOL     OW24001   3.359   2.437   3.220  0.4005 -0.2502 -0.1028
 4123SOL    HW124002   3.349   2.429   3.315 -1.1138  0.5360 -0.1971
 4123SOL    HW224003   3.361   2.347   3.187  0.0673  0.3040 -1.6005
 4124SOL     OW24004   3.846   2.074   8.261  0.1436 -1.2047 -0.3764
 4124SOL    HW124005   3.800   2.001   8.219 -0.7411 -1.7576  1.4973
 4124SOL    HW224006   3.930   2.058   8.219  0.7429 -0.7164  0.6409
 4125SOL     OW24007   4.107   4.665   4.483 -0.3280  0.1369 -0.2265
 4125SOL    HW124008   4.183   4.701   4.436  0.9901 -1.6830  0.5302
 4125SOL    HW224009   4.148   4.579   4.490  0.4158  0.3646 -1.7534
 4126SOL     OW24010   3.405   2.581  15.659 -0.0769 -0.0443  0.3311
 4126SOL    HW124011   3.411   2.587  15.564  1.8783  0.5567  0.4905
 4126SOL    HW224012   3.494   2.607  15.685 -0.5415  3.1400 -1.3655
 4127SOL     OW24013   3.874   2.503   5.184 -0.1953  0.8061 -0.3601
 4127SOL    HW124014   3.794   2.460   5.214  0.0827  0.5230 -0.0203
 4127SOL    HW224015   3.870   2.459   5.099  0.9541  1.3920 -0.7128
 4128SOL     OW24016   1.841   3.792   8.738 -0.0141  0.1395  0.6211
 4128SOL    HW124017   1.833   3.712   8.686  1.0549  0.4718 -0.0567
 4128SOL    HW224018   1.889   3.847   8.676  0.2282 -2.2705 -1.3552
 4129SOL     OW24019   3.923   3.621   6.504  0.1539 -0.3368  0.4730
 4129SOL    HW124020   3.901   3.673   6.582 -1.5966 -0.3369 -0.0147
 4129SOL    HW224021   4.017   3.615   6.517  0.2340 -0.8262 -0.3707
 4130SOL     OW24022   0.911   4.018   5.319  0.2618  0.3006 -0.1850
 4130SOL    HW124023   0.940   3.975   5.400  2.6318  3.1956  0.5192
 4130SOL    HW224024   0.822   3.984   5.305  0.2344  0.8426 -1.3001
 4131SOL     OW24025   0.822   3.310  11.567 -0.0533 -0.4527 -0.1474
 4131SOL    HW124026   0.898   3.368  11.560 -1.7954  1.4933 -3.0640
 4131SOL    HW224027   0.809   3.299  11.661 -1.0408 -0.3369 -0.2685
 4132SOL     OW24028   3.030   2.298   7.825  0.6121 -0.2981 -0.2749
 4132SOL    HW124029   3.007   2.309   7.917 -0.2720  0.6109 -0.6062
 4132SOL    HW224030   3.051   2.385   7.790  0.7587 -0.3684 -0.3630
 4133SOL     OW24031   3.087   1.846   5.440  0.6079  0.2893 -0.2528
 4133SOL    HW124032   3.081   1.902   5.517 -0.3787  0.3664 -0.3795
 4133SOL    HW224033   3.179   1.820   5.442  0.7266  0.7184 -0.1724
 4134SOL     OW24034   0.859   2.947  13.433 -0.9111  0.2976 -0.7037
 4134SOL    HW124035   0.800   2.947  13.357 -2.7184 -0.3173  0.6939
 4134SOL    HW224036   0.813   2.890  13.495 -0.2288  2.6691  1.9637
 4135SOL     OW24037   1.220   1.984  11.745 -0.2331 -0.1719  0.1774
 4135SOL    HW124038   1.208   2.031  11.828  2.4832 -0.0882  0.5275
 4135SOL    HW224039   1.142   1.931  11.728 -0.5798  0.1208  0.8368
 4136SOL     OW24040   0.845   1.207  16.263 -0.1323  0.0673 -0.2638
 4136SOL    HW124041   0.905   1.181  16.193  0.1991  1.2063 -0.4006
 4136SOL    HW224042   0.760   1.192  16.222 -0.5551 -1.9053  1.3017
 4137SOL     OW24043   0.359   0.339   8.692  0.1404  0.8144 -0.4687
 4137SOL    HW124044   0.314   0.387   8.762 -1.6139 -0.5926 -0.6349
 4137SOL    HW224045   0.439   0.315   8.739  0.5619  3.2029  0.0353
 4138SOL     OW24046   0.370   1.748   8.526 -0.1151  0.4846  0.1278
 4138SOL    HW124047   0.428   1.815   8.489  0.7634 -0.4173 -0.1139
 4138SOL    HW224048   0.292   1.774   8.476 -0.9479 -0.7408  0.8085
 4139SOL     OW24049   2.098   0.977   8.087 -0.0083 -0.2971  0.0616
 4139SOL    HW124050   2.168   0.919   8.115  0.6070  0.0486 -0.7665
 4139SOL    HW224051   2.074   1.005   8.175  1.6141 -0.4000  0.5375
 4140SOL     OW24052   1.068   1.147  16.448  0.5404 -0.2180 -0.6654
 4140SOL    HW124053   1.025   1.211  16.505 -0.9434  0.7236 -2.8334
 4140SOL    HW224054   1.024   1.168  16.366 -0.8596  0.3592  0.2449
 4141SOL     OW24055   0.297   2.449   9.380  0.2949 -0.5792 -0.0863
 4141SOL    HW124056   0.293   2.495   9.297  2.0906 -1.8954 -0.9097
 4141SOL    HW224057   0.245   2.369   9.363  0.4881 -0.6274 -0.4455
 4142SOL     OW24058   2.941   3.288  12.725 -0.5834 -0.1820  0.6025
 4142SOL    HW124059   2.934   3.196  12.698  0.4215 -0.7952  2.4440
 4142SOL    HW224060   3.026   3.293  12.768 -0.4237  0.1792  0.2326
 4143SOL     OW24061   1.013   4.131   6.406  0.0957  0.5393 -0.3716
 4143SOL    HW124062   1.048   4.150   6.319  0.2891 -1.1498 -0.6539
 4143SOL    HW224063   0.926   4.111   6.371 -0.1971 -0.6535  1.0700
 4144SOL     OW24064   1.206   1.206   5.797 -0.5675 -0.0769 -0.3874
 4144SOL    HW124065   1.262   1.256   5.737 -0.3686  0.2093  0.0390
 4144SOL    HW224066   1.150   1.267   5.844  3.0514  3.9788 -1.3100
 4145SOL     OW24067   4.457   0.913   4.605  0.3898 -0.4297  0.3647
 4145SOL    HW124068   4.450   0.980   4.672 -1.2152 -1.4166  1.1966
 4145SOL    HW224069   4.552   0.909   4.590  0.2676 -1.2274 -0.2090
 4146SOL     OW24070   2.730   3.372   8.139 -0.1338 -0.2672  0.2807
 4146SOL    HW124071   2.790   3.324   8.083  0.7663  1.0428  0.1306
 4146SOL    HW224072   2.787   3.429   8.192  0.1567  0.2112 -0.5443
 4147SOL     OW24073   3.441   1.218   4.699 -0.4225  0.1958 -0.3505
 4147SOL    HW124074   3.399   1.246   4.780 -0.5922 -0.0310 -0.3616
 4147SOL    HW224075   3.397   1.270   4.632 -0.9039  0.2060 -0.0218
 4148SOL     OW24076   0.146   0.380   6.515  0.6969  0.5008 -0.7459
 4148SOL    HW124077   0.078   0.416   6.572  0.8495  0.1994 -0.3738
 4148SOL    HW224078   0.098   0.301   6.487  2.0746 -0.4090 -0.5271
 4149SOL     OW24079   3.512   0.924   3.215  0.4313 -0.1482  0.9101
 4149SOL    HW124080   3.432   0.937   3.165  0.9979  0.9084  0.2741
 4149SOL    HW224081   3.520   1.005   3.266  0.8678 -0.6554  1.6456
 4150SOL     OW24082   0.655   0.066  13.642  0.0614 -0.3296  0.0036
 4150SOL    HW124083   0.661   4.713  13.623  1.9293  0.0033 -0.9546
 4150SOL    HW224084   0.738   0.113  13.646  1.1087 -1.9050 -3.5408
 4151SOL     OW24085   4.303   2.850   3.355  0.2030  0.7213  0.0416
 4151SOL    HW124086   4.354   2.823   3.278  0.7536  1.8395  0.0211
 4151SOL    HW224087   4.369   2.899   3.403  0.2462  0.7776 -0.0749
 4152SOL     OW24088   4.721   4.002  14.832  0.3253  0.5994 -0.5978
 4152SOL    HW124089   4.740   4.054  14.910 -0.0690  0.6790 -0.5509
 4152SOL    HW224090   4.685   3.929  14.883 -1.2920  0.7033 -1.5913
 4153SOL     OW24091   1.138   0.028  11.309 -0.7409  0.7368  0.2314
 4153SOL    HW124092   1.215   0.085  11.310 -1.9828  2.4161  0.1352
 4153SOL    HW224093   1.160   4.708  11.238  0.5547 -1.6941  2.6834
 4154SOL     OW24094   0.813   0.215   5.420  0.8678  0.1421 -0.2978
 4154SOL    HW124095   0.783   0.125   5.434  0.2478  0.3211 -0.4688
 4154SOL    HW224096   0.888   0.211   5.360 -1.0112  1.1082 -2.7628
 4155SOL     OW24097   2.851   1.642  16.766  0.0932  0.4719 -0.1429
 4155SOL    HW124098   2.815   1.621  16.852 -1.8010  1.7578 -0.6167
 4155SOL    HW224099   2.933   1.594  16.777 -0.5137 -1.0785 -2.2323
 4156SOL     OW24100   1.282   2.708   6.722  0.0366 -0.5013  0.0263
 4156SOL    HW124101   1.194   2.710   6.758  0.2465 -1.3758  0.5720
 4156SOL    HW224102   1.323   2.657   6.791 -0.1440 -1.3905 -0.5199
 4157SOL     OW24103   3.873   1.513   2.724  0.1620  0.0041 -0.4298
 4157SOL    HW124104   3.909   1.592   2.765 -1.4858  0.1439  0.7951
 4157SOL    HW224105   3.936   1.455   2.767  0.0677 -0.8012 -1.3900
 4158SOL     OW24106   2.591   2.676   3.358 -0.0305  0.3695  0.2082
 4158SOL    HW124107   2.648   2.606   3.326 -2.7305 -1.5106 -0.5039
 4158SOL    HW224108   2.612   2.694   3.450  0.5251  1.2086 -0.0827
 4159SOL     OW24109   2.898   3.417  17.489  0.1349  0.0315  0.2568
 4159SOL    HW124110   2.815   3.393  17.447  1.4142  0.0988 -2.2847
 4159SOL    HW224111   2.884   3.456  17.575 -0.1772  0.6750 -0.0851
 4160SOL     OW24112   0.698   1.436  14.861 -0.8071  0.0285  0.9992
 4160SOL    HW124113   0.715   1.528  14.845  1.0153 -0.3630  0.6728
 4160SOL    HW224114   0.768   1.393  14.812  0.0546  2.9057 -0.2765
 4161SOL     OW24115   1.339   3.561   3.261  0.1746 -0.3736  0.0966
 4161SOL    HW124116   1.361   3.550   3.168  1.9733 -1.0770  0.5952
 4161SOL    HW224117   1.331   3.656   3.257  0.8154 -0.2700  1.0575
 4162SOL     OW24118   1.741   1.928  11.052 -0.2513  0.2329  0.5545
 4162SOL    HW124119   1.723   1.894  10.964 -2.8261 -0.0579  1.1886
 4162SOL    HW224120   1.831   1.897  11.064  0.2540  1.3751 -0.3150
 4163SOL     OW24121   3.010   1.285  10.882 -0.0478 -0.3426 -0.2560
 4163SOL    HW124122   2.976   1.299  10.794  1.1411  1.1688 -0.4826
 4163SOL    HW224123   3.099   1.321  10.874  0.5757 -2.3549 -2.1887
 4164SOL     OW24124   0.001   1.615   0.752 -0.3007 -0.5193 -0.2128
 4164SOL    HW124125   0.036   1.617   0.663  0.1965 -1.1934 -0.0337
 4164SOL    HW224126   0.043   1.539   0.792  0.4110  0.8810  1.6639
 4165SOL     OW24127   4.081   1.280  13.155  0.1226 -0.3040  0.6173
 4165SOL    HW124128   4.023   1.211  13.189 -0.5069  0.1305  0.4114
 4165SOL    HW224129   4.025   1.312  13.085 -0.5899 -0.4565  1.1232
 4166SOL     OW24130   3.903   2.194   2.671  0.3947  0.1015 -0.5179
 4166SOL    HW124131   3.917   2.233   2.585  1.5987  1.0425  0.1014
 4166SOL    HW224132   3.830   2.133   2.659 -2.6357  3.8790 -1.1760
 4167SOL     OW24133   0.877   0.362   3.603 -0.1091 -0.4123 -0.1083
 4167SOL    HW124134   0.916   0.333   3.520  0.0757  0.2840 -0.2703
 4167SOL    HW224135   0.793   0.317   3.612 -0.2917 -0.2743 -1.1229
 4168SOL     OW24136   3.695   0.543   3.821  0.0188 -0.5225 -0.3277
 4168SOL    HW124137   3.729   0.619   3.774  0.5180 -1.1908 -1.0603
 4168SOL    HW224138   3.744   0.556   3.902  0.8069  1.7984 -1.1796
 4169SOL     OW24139   4.559   2.367   5.386 -0.2354  0.1504 -0.3523
 4169SOL    HW124140   4.529   2.454   5.410 -3.3050 -0.8717 -0.4543
 4169SOL    HW224141   4.503   2.323   5.450 -0.5799  0.9853 -0.0782
 4170SOL     OW24142   3.596   1.336   6.964  1.0549  0.7124 -0.2644
 4170SOL    HW124143   3.611   1.344   6.870 -2.5246 -0.9813 -0.9727
 4170SOL    HW224144   3.684   1.324   7.000  0.8690 -1.5244 -0.5482
 4171SOL     OW24145   2.219   3.652   5.331  0.2618 -0.2784  0.2599
 4171SOL    HW124146   2.168   3.596   5.389 -0.3551 -0.8219 -0.8008
 4171SOL    HW224147   2.211   3.600   5.250 -1.3632 -0.3962  0.5092
 4172SOL     OW24148   1.063   3.487  11.879 -0.0169  0.6428  0.1719
 4172SOL    HW124149   1.064   3.557  11.945  0.4466  1.1401 -0.3598
 4172SOL    HW224150   1.153   3.456  11.882  0.3511  1.7400  0.6406
 4173SOL     OW24151   2.709   3.870   8.989 -0.0384 -0.3108  0.4559
 4173SOL    HW124152   2.704   3.855   9.084 -2.8310  0.7002  0.4845
 4173SOL    HW224153   2.636   3.820   8.952  1.1889  0.4513 -3.0055
 4174SOL     OW24154   2.455   3.033  15.363 -0.0916 -0.8697 -0.7257
 4174SOL    HW124155   2.457   3.115  15.314 -1.7403 -0.6452 -0.4407
 4174SOL    HW224156   2.549   3.016  15.369 -0.2194 -0.8127  1.2475
 4175SOL     OW24157   2.137   0.291   7.145  0.2830  0.0155  0.2147
 4175SOL    HW124158   2.076   0.218   7.142  2.2564 -1.7057  2.5889
 4175SOL    HW224159   2.157   0.283   7.238 -0.4929 -1.4746  0.2470
 4176SOL     OW24160   1.615   3.947   2.761 -0.0908 -0.0980  0.1814
 4176SOL    HW124161   1.701   3.905   2.755 -0.7175 -1.5263  1.1421
 4176SOL    HW224162   1.615   3.998   2.842 -1.5990  1.7341 -0.9982
 4177SOL     OW24163   3.443   3.561   6.522  0.1932 -0.7038 -0.3774
 4177SOL    HW124164   3.522   3.547   6.470 -0.0762 -0.5040 -0.8371
 4177SOL    HW224165   3.393   3.616   6.462  0.7744 -1.2037 -1.3218
 4178SOL     OW24166   0.082   0.211   0.565  0.1150  0.1465 -0.1675
 4178SOL    HW124167   0.081   0.301   0.597  3.0004 -0.4885  1.7598
 4178SOL    HW224168   0.043   0.166   0.640 -1.7968 -0.3611 -1.4682
 4179SOL     OW24169   3.697   0.736   3.377  0.4568 -0.4064  0.2533
 4179SOL    HW124170   3.629   0.793   3.340  1.6768 -0.0098 -1.3777
 4179SOL    HW224171   3.780   0.781   3.360  0.3581 -0.5167 -0.5404
 4180SOL     OW24172   4.559   2.227  10.836 -0.4495  0.3179  0.2019
 4180SOL    HW124173   4.598   2.268  10.913  0.5991  1.2959 -0.8362
 4180SOL    HW224174   4.559   2.137  10.868  1.5392 -0.3648 -1.7407
 4181SOL     OW24175   0.127   3.609   8.951  0.1952 -1.0266  0.5895
 4181SOL    HW124176   0.044   3.578   8.989 -1.5737 -1.7090 -3.8260
 4181SOL    HW224177   0.171   3.531   8.919  0.7416  0.5064 -2.3357
 4182SOL     OW24178   4.361   4.139   2.283 -0.0423 -0.4797 -0.0091
 4182SOL    HW124179   4.407   4.084   2.220  0.1873 -0.5525  0.2228
 4182SOL    HW224180   4.397   4.105   2.365 -1.1678 -0.2582  0.5903
 4183SOL     OW24181   1.715   0.501  12.447  0.1769  0.0090  0.0427
 4183SOL    HW124182   1.790   0.468  12.398 -1.3968  0.7605 -2.8549
 4183SOL    HW224183   1.724   0.596  12.439 -1.4390  0.0236 -1.3855
 4184SOL     OW24184   0.785   0.707  13.705  0.3317  0.0569  0.1798
 4184SOL    HW124185   0.789   0.618  13.740  0.9902 -0.2699 -0.7115
 4184SOL    HW224186   0.800   0.767  13.778  0.1824  1.1148 -0.6597
 4185SOL     OW24187   2.964   1.939  16.783 -0.3354 -0.2217  0.5743
 4185SOL    HW124188   2.933   1.849  16.781 -1.5748  0.2635 -2.0268
 4185SOL    HW224189   3.050   1.937  16.741 -0.7125 -3.4915  0.0144
 4186SOL     OW24190   3.768   1.171   8.935 -0.6063  0.0403  0.1477
 4186SOL    HW124191   3.816   1.248   8.906 -1.1023  0.8993  1.6190
 4186SOL    HW224192   3.774   1.182   9.030  0.3277 -3.9378  0.5536
 4187SOL     OW24193   3.163   2.521   7.737  0.3480  0.5559 -0.7695
 4187SOL    HW124194   3.143   2.608   7.771  0.6843  0.0312  0.7285
 4187SOL    HW224195   3.196   2.553   7.653  0.0133  0.3380 -0.9843
 4188SOL     OW24196   0.169   3.142  15.195  0.4495 -0.4218 -0.5556
 4188SOL    HW124197   0.216   3.087  15.258 -1.9790 -0.4197  1.2476
 4188SOL    HW224198   0.217   3.106  15.120  2.9110  0.7504  0.4631
 4189SOL     OW24199   1.421   3.899   7.065 -0.1557  0.3683 -0.1870
 4189SOL    HW124200   1.452   3.990   7.065 -1.0079  0.6439  2.7312
 4189SOL    HW224201   1.496   3.856   7.106 -0.0180  0.7288 -0.0515
 4190SOL     OW24202   4.044   2.868   8.745  0.1276 -0.6017 -0.5089
 4190SOL    HW124203   3.971   2.917   8.708  0.2860 -0.2814 -0.3956
 4190SOL    HW224204   4.095   2.852   8.666 -1.0211  0.2332 -1.4221
 4191SOL     OW24205   1.142   0.138   9.434  0.7874 -0.3168 -0.0404
 4191SOL    HW124206   1.194   0.218   9.437 -0.2846  0.3858 -0.6716
 4191SOL    HW224207   1.131   0.126   9.529  3.7254  0.0082  0.3622
 4192SOL     OW24208   0.750   3.529   4.676  0.0647 -0.1053 -0.7620
 4192SOL    HW124209   0.825   3.575   4.639 -0.3879 -0.0918 -1.6517
 4192SOL    HW224210   0.797   3.498   4.754 -0.8445 -2.0213 -0.9945
 4193SOL     OW24211   3.983   0.069   8.835 -0.0126  0.2450  0.0632
 4193SOL    HW124212   3.975   0.130   8.908 -0.8960  2.1192 -1.5992
 4193SOL    HW224213   3.904   0.096   8.789  0.2084  0.5633 -0.1256
 4194SOL     OW24214   4.282   4.618   1.551  0.1397  0.3822  0.0386
 4194SOL    HW124215   4.284   4.536   1.601  1.7709  0.0045 -0.6655
 4194SOL    HW224216   4.322   4.586   1.470  1.8127  1.0703  0.6027
 4195SOL     OW24217   2.066   1.346   2.746 -0.2805 -0.1290  0.0980
 4195SOL    HW124218   2.079   1.312   2.834  1.2811  2.2516  0.7887
 4195SOL    HW224219   2.037   1.436   2.753 -0.6485 -0.4160  2.0689
 4196SOL     OW24220   1.986   4.307   9.080  0.4041  0.0847 -0.3045
 4196SOL    HW124221   1.995   4.212   9.089 -0.0293  0.0815  0.0876
 4196SOL    HW224222   1.997   4.323   9.174  0.2204  0.9957 -0.4397
 4197SOL     OW24223   1.830   2.112  10.149  0.1447  0.1379  0.2833
 4197SOL    HW124224   1.821   2.174  10.222  0.3103 -0.1172  0.5167
 4197SOL    HW224225   1.891   2.150  10.085 -1.3953  1.3385 -0.4713
 4198SOL     OW24226   0.117   2.814   8.320 -0.5745  0.0011 -0.3841
 4198SOL    HW124227   0.166   2.780   8.395 -0.1949  0.2285 -0.5250
 4198SOL    HW224228   0.102   2.738   8.264  1.2260 -1.1263  0.6649
 4199SOL     OW24229   1.872   1.229  12.188  0.5919 -0.1104  0.1496
 4199SOL    HW124230   1.935   1.231  12.260 -1.3292  0.9779  1.8090
 4199SOL    HW224231   1.920   1.280  12.123 -0.0502  1.2740  0.7550
 4200SOL     OW24232   3.025   1.293   8.356 -0.5852  0.1052  0.4324
 4200SOL    HW124233   3.018   1.388   8.354 -1.2378 -0.0162 -2.0159
 4200SOL    HW224234   3.117   1.283   8.380 -0.6474  3.5340  2.1049
 4201SOL     OW24235   1.612   2.393   9.325 -0.3374 -0.5300 -0.0589
 4201SOL    HW124236   1.680   2.395   9.392  0.1498 -1.5568 -0.5278
 4201SOL    HW224237   1.654   2.449   9.260 -1.1086  0.7274  0.5163
 4202SOL     OW24238   1.807   3.744   0.923 -0.2579 -0.8484 -0.0938
 4202SOL    HW124239   1.867   3.785   0.860  0.8332 -1.7085  0.3794
 4202SOL    HW224240   1.869   3.678   0.956  0.8673  0.3064  0.1006
 4203SOL     OW24241   1.523   2.288   3.763  0.1323 -0.1048 -0.9711
 4203SOL    HW124242   1.548   2.347   3.691  1.1992  0.7979  0.1257
 4203SOL    HW224243   1.463   2.349   3.806  1.1395  1.5867 -1.9245
 4204SOL     OW24244   2.486   3.912   4.577  0.0328 -0.2220  0.2943
 4204SOL    HW124245   2.440   3.990   4.609 -0.6020  0.3109 -1.9189
 4204SOL    HW224246   2.575   3.927   4.607 -0.1033  0.5314  0.3322
 4205SOL     OW24247   2.719   1.949  17.450 -0.1707 -0.0508  0.1561
 4205SOL    HW124248   2.709   2.039  17.481  1.9984 -0.1511  1.2117
 4205SOL    HW224249   2.731   1.905  17.534  0.2195  1.1819  0.7465
 4206SOL     OW24250   0.538   3.135   8.954  0.5701  0.4736 -0.0287
 4206SOL    HW124251   0.603   3.201   8.929 -0.8277  1.8330 -0.0509
 4206SOL    HW224252   0.459   3.188   8.942  2.4905  3.2922 -0.0929
 4207SOL     OW24253   1.297   2.451   4.795  0.0119  0.3656  0.5565
 4207SOL    HW124254   1.327   2.538   4.769 -2.6047  1.5881  1.5707
 4207SOL    HW224255   1.229   2.475   4.858  0.5721 -1.7878  2.0244
 4208SOL     OW24256   2.126   1.381   6.643 -0.1164 -0.4648 -0.5400
 4208SOL    HW124257   2.068   1.413   6.574 -0.2749  1.7080  0.6090
 4208SOL    HW224258   2.076   1.396   6.723 -0.4132  2.1508 -1.2282
 4209SOL     OW24259   2.179   0.009   3.376 -0.1377  0.0121 -0.3168
 4209SOL    HW124260   2.225   4.700   3.308 -0.4127 -0.4930 -0.1344
 4209SOL    HW224261   2.153   0.087   3.328 -0.4390 -0.1405 -0.4018
 4210SOL     OW24262   3.385   4.293   0.496  0.0015  0.1279 -0.4495
 4210SOL    HW124263   3.336   4.330   0.570  1.8561  1.0302  0.3430
 4210SOL    HW224264   3.348   4.207   0.518  1.3623 -0.0009  1.3443
 4211SOL     OW24265   2.625   2.669   0.692 -0.4212  0.2927  0.0719
 4211SOL    HW124266   2.651   2.679   0.784  0.0549 -1.6089  0.1469
 4211SOL    HW224267   2.530   2.660   0.699 -0.4384 -0.3607 -1.1094
 4212SOL     OW24268   4.351   1.640   3.095  0.1715 -0.0627 -0.2285
 4212SOL    HW124269   4.312   1.696   3.029 -1.2353 -2.0373 -1.0637
 4212SOL    HW224270   4.443   1.652   3.071  0.2341 -0.4369 -0.1754
 4213SOL     OW24271   4.442   2.195   7.727 -0.0257 -0.0975  0.1306
 4213SOL    HW124272   4.406   2.283   7.720 -1.0142 -0.5004  0.1546
 4213SOL    HW224273   4.384   2.145   7.785 -0.1463 -0.5605 -0.3895
 4214SOL     OW24274   2.816   1.023   3.157  0.1276 -0.6681 -0.6260
 4214SOL    HW124275   2.721   1.028   3.160  0.1668  0.1554 -0.7738
 4214SOL    HW224276   2.826   0.932   3.185  0.6868 -0.5022 -0.2736
 4215SOL     OW24277   3.937   1.050   3.055 -0.6932 -0.0309  0.1671
 4215SOL    HW124278   3.850   1.010   3.050 -0.6340 -0.0025 -1.0040
 4215SOL    HW224279   3.922   1.130   3.006  0.1382  0.9163  1.4462
 4216SOL     OW24280   4.070   3.874   1.630 -0.4069  0.0787  0.2853
 4216SOL    HW124281   4.031   3.945   1.579  1.6517  0.2921 -0.9597
 4216SOL    HW224282   3.999   3.863   1.693 -1.2854 -2.5204 -1.1651
 4217SOL     OW24283   1.693   4.525   4.085  0.0349 -0.4786  0.1950
 4217SOL    HW124284   1.662   4.582   4.156  1.1474  1.6551 -1.0577
 4217SOL    HW224285   1.718   4.586   4.016 -2.4137 -0.4784 -0.6978
 4218SOL     OW24286   0.451   3.597   4.144  0.1320 -0.4548 -0.3301
 4218SOL    HW124287   0.475   3.603   4.052  0.5312  1.0520 -0.1346
 4218SOL    HW224288   0.457   3.690   4.169  2.0278 -1.4139  2.8815
 4219SOL     OW24289   2.623   1.131  14.091  0.1994  0.5260 -0.3495
 4219SOL    HW124290   2.576   1.057  14.129  2.6728  0.4672  2.6244
 4219SOL    HW224291   2.621   1.200  14.158 -0.0984  1.4076 -1.2750
 4220SOL     OW24292   3.453   2.009   6.365 -0.0791 -0.0036  0.4631
 4220SOL    HW124293   3.387   2.069   6.400  0.1988  0.4135  0.2745
 4220SOL    HW224294   3.533   2.055   6.389  0.3558 -0.1569 -0.6818
 4221SOL     OW24295   1.039   2.493  10.053  0.6620  0.4299 -0.0077
 4221SOL    HW124296   0.979   2.547  10.000  1.5514  0.5528 -0.8922
 4221SOL    HW224297   1.046   2.413  10.000  0.7970 -0.1204  0.8558
 4222SOL     OW24298   4.154   1.593   7.713 -0.6168  0.5963  0.0270
 4222SOL    HW124299   4.150   1.688   7.705 -0.9465  0.3587 -2.5086
 4222SOL    HW224300   4.060   1.577   7.708 -0.7868  1.8120 -0.6684
 4223SOL     OW24301   4.216   0.536   8.408  0.0978  0.0994  0.4513
 4223SOL    HW124302   4.270   0.501   8.478  0.9981  1.4132  0.4047
 4223SOL    HW224303   4.272   0.598   8.362  1.8917 -1.1050  1.0248
 4224SOL     OW24304   4.536   2.364  14.273 -0.6450 -0.0477  0.0877
 4224SOL    HW124305   4.503   2.399  14.191 -1.6626  0.3740  0.6747
 4224SOL    HW224306   4.450   2.342  14.308 -0.5682 -0.5916 -0.0593
 4225SOL     OW24307   1.765   0.565  13.787 -0.0955  0.2289  0.9253
 4225SOL    HW124308   1.810   0.482  13.803  0.0402  0.1342  0.0243
 4225SOL    HW224309   1.677   0.557  13.823 -0.0600  1.0210  1.1940
 4226SOL     OW24310   1.011   1.763  13.376  0.0006 -0.0780  0.7926
 4226SOL    HW124311   0.966   1.843  13.351  0.7455  0.5463  1.4704
 4226SOL    HW224312   1.037   1.738  13.287  0.0949  1.0100  0.5181
 4227SOL     OW24313   2.618   3.808   2.405 -0.5637  0.5991 -0.0771
 4227SOL    HW124314   2.646   3.717   2.418 -1.7709  0.4380  1.5116
 4227SOL    HW224315   2.533   3.795   2.447  0.6921 -0.5986  2.1637
 4228SOL     OW24316   2.056   3.033   4.342  0.1797  0.5081  0.1286
 4228SOL    HW124317   2.093   3.089   4.274  1.3957  1.5397  1.6227
 4228SOL    HW224318   2.124   2.966   4.345 -0.6603 -0.2847  1.2674
 4229SOL     OW24319   1.408   3.119   9.474 -0.6312  0.6499 -0.1564
 4229SOL    HW124320   1.338   3.058   9.496 -0.3266 -0.3829 -2.1113
 4229SOL    HW224321   1.461   3.124   9.553 -0.9038  0.7901  0.0198
 4230SOL     OW24322   3.946   0.699   6.925  0.1283 -0.5690  0.0780
 4230SOL    HW124323   3.993   0.724   6.846 -0.2481  1.0479  0.3735
 4230SOL    HW224324   3.855   0.705   6.896  0.6295  1.9672 -0.9719
 4231SOL     OW24325   2.826   3.649  10.240 -0.3000  0.0406  0.0983
 4231SOL    HW124326   2.776   3.637  10.320 -1.2975 -1.3878 -0.7385
 4231SOL    HW224327   2.913   3.616  10.262 -0.7548 -0.5392  1.0246
 4232SOL     OW24328   3.558   2.533   2.309  0.0509  0.5847  0.1951
 4232SOL    HW124329   3.532   2.442   2.295  0.9325 -0.1796  3.3794
 4232SOL    HW224330   3.638   2.515   2.359 -0.6374 -0.7998  0.8003
 4233SOL     OW24331   3.978   2.440   8.907 -0.0517 -0.2285  0.1797
 4233SOL    HW124332   4.016   2.519   8.946  0.5911  0.4453 -1.7884
 4233SOL    HW224333   4.037   2.371   8.937  0.7737 -0.5451 -2.1657
 4234SOL     OW24334   1.154   1.900   6.310 -0.4145  0.3588 -0.3939
 4234SOL    HW124335   1.131   1.931   6.397  1.8615 -0.1199  0.3535
 4234SOL    HW224336   1.133   1.978   6.258  1.6277  0.4054 -1.1355
 4235SOL     OW24337   0.583   3.901  10.876 -0.0343  0.1209  0.0993
 4235SOL    HW124338   0.516   3.955  10.832  0.0731 -0.0489 -0.2702
 4235SOL    HW224339   0.583   3.961  10.951 -2.5045  1.4468 -0.9212
 4236SOL     OW24340   2.143   4.414   4.419  0.4822  0.3642 -0.4673
 4236SOL    HW124341   2.194   4.345   4.460 -0.1742 -0.3203 -0.7873
 4236SOL    HW224342   2.127   4.476   4.490 -1.5906 -0.2182 -0.4103
 4237SOL     OW24343   2.257   1.118   7.667 -0.0024  0.1896 -0.6775
 4237SOL    HW124344   2.165   1.092   7.670 -0.6862  2.4721 -1.7755
 4237SOL    HW224345   2.292   1.031   7.649 -0.4828  0.3739 -2.5225
 4238SOL     OW24346   1.994   1.250   6.023 -0.3099  0.2016 -0.2814
 4238SOL    HW124347   1.967   1.284   6.108  0.7078  1.1421 -0.3299
 4238SOL    HW224348   2.088   1.250   6.041 -0.0180  1.0625 -1.7793
 4239SOL     OW24349   1.953   2.711   6.160  0.4619 -0.2512 -0.3218
 4239SOL    HW124350   1.912   2.779   6.214 -0.6541  0.6675 -2.3349
 4239SOL    HW224351   1.912   2.715   6.073  1.8455  1.8240 -0.8781
 4240SOL     OW24352   1.921   3.778   5.246  0.0449  0.7311 -0.1475
 4240SOL    HW124353   1.869   3.854   5.223  0.8780  0.5108 -2.7913
 4240SOL    HW224354   1.959   3.822   5.322 -0.2838 -0.9180  0.9670
 4241SOL     OW24355   0.594   2.690   2.854 -0.3216  0.0827 -0.2608
 4241SOL    HW124356   0.643   2.731   2.783  1.9099 -0.2640  1.0699
 4241SOL    HW224357   0.663   2.662   2.915 -1.5363  0.5798  1.3405
 4242SOL     OW24358   2.631   2.167   6.065  0.5255 -0.2143 -0.2007
 4242SOL    HW124359   2.555   2.119   6.032 -0.4007  1.0269  0.1131
 4242SOL    HW224360   2.681   2.095   6.102  0.7996 -0.3338 -0.8122
 4243SOL     OW24361   1.339   0.758  13.786  0.5660  0.3309 -0.1736
 4243SOL    HW124362   1.244   0.744  13.782  0.6571 -0.1255 -0.8465
 4243SOL    HW224363   1.345   0.854  13.791  2.5933  0.1753  0.2285
 4244SOL     OW24364   3.722   0.632   8.418 -0.0000  0.4323 -0.3846
 4244SOL    HW124365   3.627   0.634   8.407  0.2463  0.2856 -2.5309
 4244SOL    HW224366   3.754   0.565   8.357 -1.2204 -0.1565 -0.3920
 4245SOL     OW24367   3.106   2.667   2.770 -0.3947  0.0545  0.0409
 4245SOL    HW124368   3.146   2.656   2.856  1.2160 -0.8787 -0.8369
 4245SOL    HW224369   3.099   2.762   2.760  1.8768  0.2071  0.0851
 4246SOL     OW24370   2.635   1.000  12.424  0.5855  0.2970 -0.1816
 4246SOL    HW124371   2.638   1.082  12.473  1.3916 -1.8730  3.3982
 4246SOL    HW224372   2.586   0.939  12.480  1.4666 -2.0818 -2.0201
 4247SOL     OW24373   0.242   3.818   7.781  0.2534  0.1182 -0.0772
 4247SOL    HW124374   0.151   3.846   7.792  0.6012  1.2072  0.0150
 4247SOL    HW224375   0.240   3.745   7.842 -0.3879 -0.4108 -0.7239
 4248SOL     OW24376   3.446   1.138  16.755 -0.1042 -0.3197  0.1162
 4248SOL    HW124377   3.519   1.188  16.793 -0.1522  0.9997 -1.4995
 4248SOL    HW224378   3.434   1.198  16.681 -1.6260 -0.6689  0.0897
 4249SOL     OW24379   1.674   0.442   5.819 -0.6585  0.1483  0.5407
 4249SOL    HW124380   1.638   0.356   5.842 -1.3772  0.4856  0.6898
 4249SOL    HW224381   1.765   0.422   5.841  0.1188  0.6886 -2.0822
 4250SOL     OW24382   4.258   0.341   2.381  0.4155 -0.5239 -0.3569
 4250SOL    HW124383   4.351   0.331   2.358  0.5925  0.6411 -0.1389
 4250SOL    HW224384   4.222   0.278   2.319  0.6086  0.3666 -1.3748
 4251SOL     OW24385   4.335   2.136   1.656  0.6065  0.2086 -0.3169
 4251SOL    HW124386   4.428   2.138   1.631  0.8916  0.9726  0.8064
 4251SOL    HW224387   4.303   2.065   1.600 -1.6647 -0.7141  2.1405
 4252SOL     OW24388   3.452   2.451   3.519  0.0350 -0.1685 -0.9623
 4252SOL    HW124389   3.512   2.519   3.489 -0.6938 -0.5832 -3.3496
 4252SOL    HW224390   3.516   2.385   3.547 -0.1863  0.8429  1.9856
 4253SOL     OW24391   0.036   0.898  10.436  0.2985 -0.2463 -0.2468
 4253SOL    HW124392   0.105   0.959  10.464  0.2152 -0.6200  0.7574
 4253SOL    HW224393   4.699   0.943  10.467  0.5928  0.9638 -1.2211
 4254SOL     OW24394   0.878   1.858  17.293  0.2779  0.6024  0.1391
 4254SOL    HW124395   0.836   1.883  17.211 -1.2667  0.5493  0.9088
 4254SOL    HW224396   0.940   1.794  17.258 -0.4511  0.1988 -0.4278
 4255SOL     OW24397   0.961   0.655  13.215 -0.0844 -0.4337  0.2441
 4255SOL    HW124398   0.870   0.638  13.193 -0.0800 -1.2292  0.8658
 4255SOL    HW224399   0.977   0.617  13.301  1.9616 -1.0438 -0.4018
 4256SOL     OW24400   3.629   3.516   9.127  0.8472 -0.1322  0.0522
 4256SOL    HW124401   3.707   3.515   9.183  0.4587  2.1487  0.6429
 4256SOL    HW224402   3.570   3.470   9.187 -0.6903  1.8840  0.0961
 4257SOL     OW24403   0.049   2.949   1.745  0.4443 -0.0093 -0.3521
 4257SOL    HW124404   0.101   2.879   1.784 -2.3010 -1.6128  0.4023
 4257SOL    HW224405   0.067   2.940   1.651 -0.5825 -1.0938 -0.4435
 4258SOL     OW24406   2.576   3.228   0.368 -0.1554 -0.3555 -0.3525
 4258SOL    HW124407   2.613   3.308   0.406 -3.0084  0.9359 -0.3072
 4258SOL    HW224408   2.616   3.161   0.424 -1.9479  1.2995  2.8844
 4259SOL     OW24409   0.866   2.654  13.219  0.4752  0.3932 -0.4879
 4259SOL    HW124410   0.864   2.577  13.162  2.5840 -0.9840  1.2786
 4259SOL    HW224411   0.806   2.714  13.175 -0.2484  1.2980  1.7450
 4260SOL     OW24412   3.096   2.952   7.351  0.0577 -0.7039  0.7244
 4260SOL    HW124413   3.182   2.965   7.392  0.0666  2.7189 -0.3146
 4260SOL    HW224414   3.132   2.970   7.264 -0.8234  3.1310  1.1272
 4261SOL     OW24415   4.305   1.912   4.932  0.2714 -0.3727  0.0884
 4261SOL    HW124416   4.358   1.838   4.961 -1.9572 -1.4950  1.3011
 4261SOL    HW224417   4.213   1.894   4.951  0.5125  0.2476  1.8176
 4262SOL     OW24418   0.017   4.148  13.643  0.7686 -0.5088 -0.5309
 4262SOL    HW124419   4.665   4.162  13.624  0.6546  4.1789  3.3829
 4262SOL    HW224420   0.056   4.149  13.556 -1.2461  1.3132 -1.4113
 4263SOL     OW24421   1.069   0.755  13.736 -0.3218  0.2834  0.3405
 4263SOL    HW124422   1.060   0.814  13.661  1.1201  1.0075  0.7575
 4263SOL    HW224423   0.994   0.780  13.790 -1.0324  1.4802 -1.2108
 4264SOL     OW24424   1.038   2.150   2.742  0.1361 -0.2308 -0.1152
 4264SOL    HW124425   0.957   2.102   2.725  1.2717 -2.1769 -0.0277
 4264SOL    HW224426   1.087   2.138   2.661  1.2778 -1.4420  0.7444
 4265SOL     OW24427   4.327   3.195   7.907  0.2166 -0.2506 -0.1276
 4265SOL    HW124428   4.417   3.213   7.880  0.6355 -1.2078  0.6330
 4265SOL    HW224429   4.317   3.273   7.962  1.4760 -0.9176  1.0503
 4266SOL     OW24430   0.359   0.475   6.642  0.3536  0.4486  0.2106
 4266SOL    HW124431   0.293   0.438   6.584  1.7033 -0.5502 -0.6676
 4266SOL    HW224432   0.339   0.568   6.640  7.1544  1.8153 -2.3377
 4267SOL     OW24433   2.866   2.973   5.292  0.0968  0.9454  0.2117
 4267SOL    HW124434   2.857   2.887   5.333  0.7966  0.4491 -0.6629
 4267SOL    HW224435   2.924   2.959   5.217 -0.4062  0.1617 -0.0276
 4268SOL     OW24436   2.004   3.558   4.157  0.0423  0.0990  0.1883
 4268SOL    HW124437   1.952   3.478   4.154  1.2213 -0.4587 -4.6429
 4268SOL    HW224438   2.078   3.546   4.098 -0.6536 -1.8598 -0.2656
 4269SOL     OW24439   4.075   2.839   6.645 -0.3739 -0.2950  0.2151
 4269SOL    HW124440   4.020   2.918   6.641 -0.5560 -0.3560  1.4626
 4269SOL    HW224441   4.101   2.822   6.555  0.6342 -0.7870  0.5983
 4270SOL     OW24442   0.860   0.288   5.040  0.8290 -0.4613 -0.1790
 4270SOL    HW124443   0.925   0.283   5.110  2.4574  0.9605 -1.5879
 4270SOL    HW224444   0.908   0.253   4.964  0.7888  1.2884 -1.0259
 4271SOL     OW24445   1.706   3.411   4.795 -0.8464  0.0859 -0.3117
 4271SOL    HW124446   1.724   3.360   4.716 -0.9575  0.9307 -0.8796
 4271SOL    HW224447   1.662   3.491   4.766 -1.2004 -1.2864 -3.4847
 4272SOL     OW24448   0.659   4.133  16.851  0.1088  0.7104 -0.0737
 4272SOL    HW124449   0.675   4.114  16.758  3.3023 -0.2709  0.6666
 4272SOL    HW224450   0.668   4.228  16.852  0.0258  0.7350 -1.1229
 4273SOL     OW24451   2.464   2.761   2.969  0.2076  0.4284 -0.1621
 4273SOL    HW124452   2.432   2.845   2.937 -0.3350  0.1039 -0.4610
 4273SOL    HW224453   2.543   2.790   3.014 -0.6013  1.9121  0.3166
 4274SOL     OW24454   3.148   4.566  16.276  0.2750 -0.2941  0.4797
 4274SOL    HW124455   3.198   4.644  16.301 -0.0577 -0.6713  2.3180
 4274SOL    HW224456   3.074   4.606  16.229 -1.0635 -1.8820  1.2534
 4275SOL     OW24457   0.480   0.860   1.969 -0.2901 -0.3686 -0.1783
 4275SOL    HW124458   0.444   0.925   1.909  0.7966 -0.3309 -0.7885
 4275SOL    HW224459   0.415   0.794   1.991 -0.3764 -0.4280 -0.6165
 4276SOL     OW24460   0.272   4.730   9.578 -0.2957  0.5310 -0.6309
 4276SOL    HW124461   0.362   4.716   9.608 -0.0129  0.3028 -1.6051
 4276SOL    HW224462   0.283   0.008   9.485  2.1815 -0.3410 -0.4968
 4277SOL     OW24463   0.684   0.367  16.327 -0.2133 -0.2497 -0.0825
 4277SOL    HW124464   0.690   0.460  16.306  2.4904 -0.0921  1.3378
 4277SOL    HW224465   0.696   0.341  16.236 -2.4323  0.6079 -0.6119
 4278SOL     OW24466   4.649   1.635   9.278  0.4895 -0.2183  0.0194
 4278SOL    HW124467   4.641   1.614   9.185  2.5940  0.4991 -0.3291
 4278SOL    HW224468   4.689   1.550   9.299  1.6799  0.3382  0.0295
 4279SOL     OW24469   0.375   1.700   0.234 -0.0912  0.0130 -0.3634
 4279SOL    HW124470   0.344   1.770   0.290 -2.8833  0.3649 -2.3152
 4279SOL    HW224471   0.328   1.623   0.267  2.5453 -1.2348  0.4370
 4280SOL     OW24472   2.117   1.237   1.975 -0.1642 -0.3277 -0.1527
 4280SOL    HW124473   2.028   1.271   1.983  0.1792  0.7251 -0.8179
 4280SOL    HW224474   2.170   1.317   1.979 -0.9442  0.1432  0.7452
 4281SOL     OW24475   3.715   0.769   3.668  0.6592  0.0777  0.0075
 4281SOL    HW124476   3.744   0.755   3.578  0.3449 -2.4418  0.3029
 4281SOL    HW224477   3.643   0.828   3.647  1.0482  0.0074 -1.5432
 4282SOL     OW24478   2.931   0.774  14.904 -0.4306 -0.0009  0.1277
 4282SOL    HW124479   2.906   0.698  14.852  1.2049 -1.0535  0.8703
 4282SOL    HW224480   2.865   0.838  14.877 -0.3342 -0.2343 -0.6802
 4283SOL     OW24481   1.754   4.413   2.376 -0.0505  0.1804 -0.4509
 4283SOL    HW124482   1.687   4.352   2.410 -0.4136  1.8009  1.7291
 4283SOL    HW224483   1.697   4.468   2.323  1.5562  0.0156 -2.3309
 4284SOL     OW24484   0.553   1.967   5.210 -0.0805 -0.0803 -0.1283
 4284SOL    HW124485   0.507   1.995   5.289  0.0440 -4.3470  1.4635
 4284SOL    HW224486   0.558   2.052   5.167 -0.4833  1.2074  2.3678
 4285SOL     OW24487   4.292   2.169   3.946  0.0427 -0.0653 -0.7303
 4285SOL    HW124488   4.237   2.226   3.893  0.5748 -0.0329 -1.2413
 4285SOL    HW224489   4.240   2.166   4.027  0.5070 -1.4571 -0.4825
 4286SOL     OW24490   2.089   2.751   7.400 -0.0884  0.0155 -0.9353
 4286SOL    HW124491   2.116   2.705   7.480  2.2761  0.3476 -1.5445
 4286SOL    HW224492   2.073   2.842   7.424  1.5881  0.0908 -0.0734
 4287SOL     OW24493   1.582   0.498   3.840 -0.0406 -0.2101 -0.0773
 4287SOL    HW124494   1.497   0.495   3.883  0.7409  1.4109  1.6294
 4287SOL    HW224495   1.642   0.494   3.915 -0.0380 -4.2345 -0.2526
 4288SOL     OW24496   1.964   2.490   6.355 -0.0898  0.2297  0.3002
 4288SOL    HW124497   1.990   2.556   6.291 -2.4259  0.4027 -0.4874
 4288SOL    HW224498   1.898   2.535   6.407  0.1531  0.5335  0.3429
 4289SOL     OW24499   2.863   2.504   5.138  0.1107  0.0767  0.4654
 4289SOL    HW124500   2.904   2.515   5.224 -0.5766  2.7152  0.4493
 4289SOL    HW224501   2.938   2.476   5.085 -0.1231 -0.1508  0.2524
 4290SOL     OW24502   0.967   1.673  16.967  0.2514 -0.2412 -0.4073
 4290SOL    HW124503   0.913   1.691  16.890  1.4627 -0.1157 -1.2289
 4290SOL    HW224504   1.040   1.621  16.934  0.5293  0.0426 -0.2387
 4291SOL     OW24505   1.988   1.774  11.984  0.5666  0.0459  0.3887
 4291SOL    HW124506   1.925   1.846  11.976  0.5938  0.0650  0.3462
 4291SOL    HW224507   2.058   1.788  11.921  0.7945  0.6160  0.7721
 4292SOL     OW24508   4.620   1.364   0.511 -0.7733  0.8290  0.3837
 4292SOL    HW124509   4.533   1.373   0.473  0.3504  0.9075 -2.1914
 4292SOL    HW224510   4.660   1.449   0.490 -0.0861 -0.0948 -2.0085
 4293SOL     OW24511   2.527   1.676   9.623 -0.1664 -0.1167  0.1011
 4293SOL    HW124512   2.528   1.594   9.574  1.2996 -0.3003  0.4386
 4293SOL    HW224513   2.460   1.653   9.687 -1.6304  1.2684 -0.9314
 4294SOL     OW24514   1.723   2.038   7.075 -0.4401  0.5464  0.0559
 4294SOL    HW124515   1.650   2.078   7.123 -0.7034 -0.5507  0.5817
 4294SOL    HW224516   1.753   1.989   7.152  1.2142  1.1075 -0.2536
 4295SOL     OW24517   0.264   4.344   2.884  0.5523  0.0961  0.8763
 4295SOL    HW124518   0.294   4.319   2.797  1.1283 -1.4307  1.4977
 4295SOL    HW224519   0.179   4.299   2.884  1.5625 -1.8321  1.1129
 4296SOL     OW24520   1.275   0.780  16.992  0.5690  0.1638 -0.1169
 4296SOL    HW124521   1.262   0.685  16.988 -1.0240  0.4519 -1.7576
 4296SOL    HW224522   1.305   0.791  16.902  1.4072 -1.4277 -0.0332
 4297SOL     OW24523   1.962   4.065   3.929 -0.0842 -1.1513  0.1341
 4297SOL    HW124524   1.976   4.023   3.844  0.8777  0.2484 -0.3959
 4297SOL    HW224525   1.984   3.991   3.984 -0.5378 -0.1398  1.6680
 4298SOL     OW24526   1.353   2.032   6.872  0.7970  0.7173  0.0758
 4298SOL    HW124527   1.375   1.987   6.954  0.0535  1.8861  0.9026
 4298SOL    HW224528   1.269   1.997   6.842  0.3741  0.4929  1.5568
 4299SOL     OW24529   1.478   1.038   3.467  0.2067 -0.2931  0.0386
 4299SOL    HW124530   1.438   1.026   3.380  0.7537 -1.8826  0.0246
 4299SOL    HW224531   1.544   0.970   3.475  2.7509  2.3742  1.6648
 4300SOL     OW24532   4.696   0.249   8.781  0.1980 -0.0451  0.3943
 4300SOL    HW124533   4.679   0.339   8.809 -1.1435  0.1857 -1.0902
 4300SOL    HW224534   0.049   0.246   8.760 -0.0667 -0.4652 -0.7355
 4301SOL     OW24535   0.643   2.526  14.722  0.5378  0.8563  0.1560
 4301SOL    HW124536   0.732   2.528  14.689  0.8674 -0.2358  0.9633
 4301SOL    HW224537   0.622   2.432  14.715  1.7917  0.6540 -0.8542
 4302SOL     OW24538   1.986   4.394   2.043  0.2816 -0.0759  0.3351
 4302SOL    HW124539   1.898   4.359   2.032  0.0171  0.8702 -0.5402
 4302SOL    HW224540   2.013   4.347   2.122  1.5663  0.8769  0.4553
 4303SOL     OW24541   0.239   4.394   5.964 -0.4487 -0.2534  0.2720
 4303SOL    HW124542   0.159   4.392   6.017 -0.8893  2.4966 -0.3028
 4303SOL    HW224543   0.297   4.332   6.008  0.5240  0.7743  0.4462
 4304SOL     OW24544   1.801   3.970   8.506 -0.0037  0.0235 -0.2143
 4304SOL    HW124545   1.833   4.028   8.437  1.4729  1.8618  2.0303
 4304SOL    HW224546   1.769   3.905   8.443  1.1450  0.6498 -1.4527
 4305SOL     OW24547   4.497   3.377  17.571 -0.1797  0.1643 -0.1680
 4305SOL    HW124548   4.511   3.340  17.659  1.4030 -1.1956 -0.9906
 4305SOL    HW224549   4.409   3.415  17.573 -0.4836 -0.5704  0.5257
 4306SOL     OW24550   2.333   0.909   6.209 -0.0348 -0.1855  0.5527
 4306SOL    HW124551   2.314   0.964   6.284  1.8107  0.8572  0.2620
 4306SOL    HW224552   2.246   0.906   6.168 -0.6537 -2.6127  2.0282
 4307SOL     OW24553   3.624   1.914   4.775  0.5986 -0.3034  0.2571
 4307SOL    HW124554   3.621   1.818   4.774  1.5255 -0.3361 -0.0562
 4307SOL    HW224555   3.629   1.927   4.680  3.1489 -1.8931  0.1770
 4308SOL     OW24556   4.261   3.377   8.130  0.1456  0.1932  0.1313
 4308SOL    HW124557   4.265   3.349   8.222  0.4439  1.1606  0.4156
 4308SOL    HW224558   4.184   3.434   8.135 -0.8207 -1.2130  1.2145
 4309SOL     OW24559   3.346   3.563   9.500  0.7119 -0.1305 -0.3417
 4309SOL    HW124560   3.268   3.612   9.471 -0.5702 -2.7689 -1.3431
 4309SOL    HW224561   3.364   3.629   9.567  2.0384 -1.3268  0.4645
 4310SOL     OW24562   3.140   2.967   9.901 -0.3273 -0.1249 -0.5858
 4310SOL    HW124563   3.131   2.901   9.969 -0.5529  1.2457  0.7182
 4310SOL    HW224564   3.054   3.010   9.896 -0.0147  0.5302 -0.3390
 4311SOL     OW24565   0.046   0.184   1.190  0.5290 -0.0931 -0.2825
 4311SOL    HW124566   0.050   0.260   1.132  0.9916  0.2921  0.2511
 4311SOL    HW224567   4.706   0.152   1.151  1.3949 -2.2636 -0.3187
 4312SOL     OW24568   2.497   3.532   3.236  0.2939  0.5663 -0.1368
 4312SOL    HW124569   2.506   3.518   3.330 -0.2421 -0.6467 -0.2662
 4312SOL    HW224570   2.483   3.627   3.232 -1.2358  0.3388 -0.1606
 4313SOL     OW24571   2.583   0.459   3.209  0.2675  0.3030 -0.2053
 4313SOL    HW124572   2.656   0.486   3.151 -0.5954 -0.1027 -1.4808
 4313SOL    HW224573   2.536   0.401   3.149  3.5212  0.6717 -3.1562
 4314SOL     OW24574   3.136   2.168   3.684 -0.8523 -0.1586 -0.3930
 4314SOL    HW124575   3.171   2.110   3.752  1.3808  2.5945  0.7695
 4314SOL    HW224576   3.075   2.216   3.739  0.5516  0.4200  0.6726
 4315SOL     OW24577   2.867   0.292   8.028 -0.3769  0.0106 -0.1134
 4315SOL    HW124578   2.883   0.386   8.039 -0.3581  0.1834 -1.6502
 4315SOL    HW224579   2.863   0.285   7.933  3.0511  0.0261 -0.2508
 4316SOL     OW24580   4.643   0.113   9.282  0.2356 -0.0384  0.2451
 4316SOL    HW124581   4.739   0.113   9.274  0.3489 -1.1300  1.8633
 4316SOL    HW224582   4.622   0.042   9.222  1.1485 -0.2123  0.1354
 4317SOL     OW24583   3.862   0.906   1.220  0.4040  0.2605 -0.6587
 4317SOL    HW124584   3.848   0.816   1.192 -0.1001  0.6344 -1.5811
 4317SOL    HW224585   3.845   0.951   1.137  1.4069 -0.5636 -1.3179
 4318SOL     OW24586   0.160   3.676   8.513 -0.0167  0.1702 -0.0409
 4318SOL    HW124587   0.149   3.582   8.502 -0.9602  0.4927 -1.7636
 4318SOL    HW224588   0.207   3.687   8.431  1.3219 -0.1066  0.6929
 4319SOL     OW24589   2.341   3.603   6.607 -0.1769  0.8548 -0.2982
 4319SOL    HW124590   2.387   3.657   6.543  0.1407  0.4763 -0.3904
 4319SOL    HW224591   2.332   3.667   6.677  0.4260  0.7671 -0.1429
 4320SOL     OW24592   2.885   0.565  14.676  0.0836 -0.0427 -0.2943
 4320SOL    HW124593   2.885   0.480  14.719  0.0519 -0.4822 -1.1638
 4320SOL    HW224594   2.927   0.542  14.593  1.3301 -0.4067  0.4342
 4321SOL     OW24595   0.234   1.265   5.953  0.4220  0.1120 -0.0458
 4321SOL    HW124596   0.271   1.249   6.040 -2.7140 -0.1271  1.2297
 4321SOL    HW224597   0.253   1.358   5.938  3.3813 -0.4330  0.3901
 4322SOL     OW24598   4.484   3.173   0.930 -0.1330  0.3067 -0.0296
 4322SOL    HW124599   4.561   3.138   0.974 -1.5845 -0.4529  1.8848
 4322SOL    HW224600   4.520   3.200   0.845 -0.2671  2.3305  0.5597
 4323SOL     OW24601   0.420   3.536   8.120 -0.2209  0.1564 -0.2659
 4323SOL    HW124602   0.422   3.455   8.171 -0.4892 -0.8200 -1.8108
 4323SOL    HW224603   0.343   3.576   8.161  0.8620  0.5752  1.3269
 4324SOL     OW24604   0.398   2.463   4.611 -0.4266 -0.0368 -0.2320
 4324SOL    HW124605   0.366   2.507   4.532 -1.8012  0.4710  0.6077
 4324SOL    HW224606   0.327   2.403   4.629 -0.0134 -0.1259  1.0811
 4325SOL     OW24607   1.887   4.627   5.247  0.3359 -0.3627  1.0909
 4325SOL    HW124608   1.970   4.579   5.252  1.4443  1.6149  1.9654
 4325SOL    HW224609   1.894   4.685   5.324 -0.3266  0.9678  0.1513
 4326SOL     OW24610   4.294   1.200   3.514  0.0464  0.2790 -0.0932
 4326SOL    HW124611   4.369   1.253   3.487  0.7080 -0.6110 -0.0236
 4326SOL    HW224612   4.313   1.164   3.600  0.7443  2.4179  0.6411
 4327SOL     OW24613   3.724   0.011   0.915 -0.2044  0.2123 -0.8576
 4327SOL    HW124614   3.730   0.078   0.846 -0.9271 -0.5963 -1.7047
 4327SOL    HW224615   3.796   0.042   0.971 -1.5370 -0.9416  1.4959
 4328SOL     OW24616   1.472   1.433   0.314  0.8070  0.2202 -0.2426
 4328SOL    HW124617   1.564   1.439   0.290  0.7195 -2.8527 -1.2892
 4328SOL    HW224618   1.433   1.503   0.261  0.2465 -1.1896 -1.7113
 4329SOL     OW24619   2.857   0.713   1.719  0.2886 -0.0412 -0.1789
 4329SOL    HW124620   2.807   0.742   1.796  0.5393 -0.1806  0.0389
 4329SOL    HW224621   2.937   0.677   1.758  0.8851  3.2780  1.6911
 4330SOL     OW24622   4.100   3.438   4.296  0.1518  0.1727  0.7928
 4330SOL    HW124623   4.085   3.474   4.383  0.2442  0.9442  0.4842
 4330SOL    HW224624   4.057   3.498   4.235  1.4217  0.8876  0.6096
 4331SOL     OW24625   1.824   1.891   3.203 -0.6624  0.3475 -0.4508
 4331SOL    HW124626   1.730   1.886   3.224 -0.6066 -1.5334 -0.6894
 4331SOL    HW224627   1.817   1.876   3.109 -0.4343  1.8193 -0.6996
 4332SOL     OW24628   0.907   2.221   3.776  0.3653  0.3958 -0.3511
 4332SOL    HW124629   1.000   2.218   3.754  0.0136  0.6991 -1.8662
 4332SOL    HW224630   0.867   2.139   3.745  1.1933  0.4931 -1.6540
 4333SOL     OW24631   1.983   0.058   3.818  0.6458  0.1071 -0.1731
 4333SOL    HW124632   1.921   4.726   3.814  1.7783 -1.0273  2.5988
 4333SOL    HW224633   2.058   0.036   3.762  1.1942  0.0894  0.5580
 4334SOL     OW24634   0.662   1.879   7.498  0.0444  0.2492 -0.4480
 4334SOL    HW124635   0.682   1.861   7.590  0.3908 -2.2921 -1.0008
 4334SOL    HW224636   0.591   1.816   7.490  0.3934 -0.2045 -0.0113
 4335SOL     OW24637   0.776   2.992   5.299 -0.6015  0.5544 -0.3092
 4335SOL    HW124638   0.743   2.927   5.361 -0.0233 -0.4297 -1.0271
 4335SOL    HW224639   0.831   3.046   5.355  0.6544 -0.0833 -0.9067
 4336SOL     OW24640   3.757   1.769   6.308 -0.3113 -0.3937 -0.0690
 4336SOL    HW124641   3.676   1.803   6.271  1.0383  1.1298 -1.5797
 4336SOL    HW224642   3.804   1.746   6.228  0.8771 -2.4414  1.2170
 4337SOL     OW24643   2.610   1.275   8.197 -0.3325 -0.3897  0.0968
 4337SOL    HW124644   2.600   1.370   8.204  0.1148 -0.3207 -0.1970
 4337SOL    HW224645   2.699   1.270   8.232  0.0790 -2.1599 -1.2015
 4338SOL     OW24646   1.719   3.807   7.947 -0.1145 -0.3228 -0.0103
 4338SOL    HW124647   1.717   3.898   7.975 -0.6072  0.0067 -1.1315
 4338SOL    HW224648   1.791   3.774   8.000 -0.1727 -1.6758 -0.7570
 4339SOL     OW24649   4.002   4.664   0.305 -0.2284 -0.1880 -0.5741
 4339SOL    HW124650   4.024   4.727   0.373  0.1474 -2.4931  1.4540
 4339SOL    HW224651   4.071   4.664   0.239  2.9661 -1.4227  2.7156
 4340SOL     OW24652   0.771   2.661  14.125 -0.1931  0.6399  0.0095
 4340SOL    HW124653   0.795   2.639  14.035 -1.9059  1.1253 -0.5531
 4340SOL    HW224654   0.681   2.631  14.135  0.1035  0.1418  1.3452
 4341SOL     OW24655   0.825   4.705   3.761 -0.3252 -0.2299 -0.0310
 4341SOL    HW124656   0.896   4.641   3.762  1.1656  1.4208  0.7819
 4341SOL    HW224657   0.878   0.043   3.746 -2.4376  1.3792  1.0056
 4342SOL     OW24658   1.990   1.345  11.967  0.1818 -0.1232  0.2064
 4342SOL    HW124659   1.964   1.421  11.916  2.3043  0.7453  0.4199
 4342SOL    HW224660   1.927   1.279  11.939 -0.6638 -0.0127  1.8924
 4343SOL     OW24661   3.527   2.262   7.989 -0.1109 -0.1519  0.2100
 4343SOL    HW124662   3.460   2.202   7.955  2.3119 -1.3236 -2.5080
 4343SOL    HW224663   3.532   2.227   8.078  1.2111 -3.4807 -1.1821
 4344SOL     OW24664   1.827   4.671   1.805  0.1833  0.2876  0.8192
 4344SOL    HW124665   1.897   4.736   1.815  1.3137 -0.6782 -0.9467
 4344SOL    HW224666   1.853   4.638   1.719  0.0851 -0.5058  1.1014
 4345SOL     OW24667   2.938   3.950   3.901  0.4621  0.0578  0.0034
 4345SOL    HW124668   2.973   3.903   3.825  1.0571  0.0928  0.2548
 4345SOL    HW224669   2.949   3.891   3.976  0.6428 -1.1330 -0.9457
 4346SOL     OW24670   3.393   2.351  12.976  0.7935  0.2759  0.0511
 4346SOL    HW124671   3.419   2.277  12.922  0.5361 -0.1347  0.4891
 4346SOL    HW224672   3.361   2.307  13.054  1.3190  2.5390  1.5584
 4347SOL     OW24673   2.756   1.546   8.995  0.1299  0.5271  0.5816
 4347SOL    HW124674   2.679   1.572   9.045 -0.3528 -0.7237  0.5028
 4347SOL    HW224675   2.713   1.475   8.946  0.0561 -1.0488  2.9495
 4348SOL     OW24676   4.105   0.785   3.691 -0.0963 -0.5282  0.2620
 4348SOL    HW124677   4.083   0.692   3.696  0.0991 -0.6114 -0.4978
 4348SOL    HW224678   4.178   0.776   3.631 -1.1310 -2.9791 -0.6433
 4349SOL     OW24679   3.754   0.689   0.596 -0.5204  0.6108 -0.2385
 4349SOL    HW124680   3.714   0.771   0.567 -0.9866  0.0871 -1.0557
 4349SOL    HW224681   3.741   0.644   0.513  2.1242  0.1962 -0.4275
 4350SOL     OW24682   0.799   4.215   2.784  0.1232  0.0849  0.0466
 4350SOL    HW124683   0.715   4.259   2.772  1.6327  3.1888  0.7389
 4350SOL    HW224684   0.821   4.208   2.691  2.6884  1.4548  0.5561
 4351SOL     OW24685   2.128   3.300   7.258 -0.3807  0.0193 -0.2742
 4351SOL    HW124686   2.050   3.307   7.203 -1.2529  1.3197  1.1205
 4351SOL    HW224687   2.082   3.310   7.341 -0.2148  0.2012 -0.2028
 4352SOL     OW24688   0.478   4.637   1.781 -0.2975  0.2415 -0.3422
 4352SOL    HW124689   0.388   4.656   1.807  0.1326 -0.2983  1.5061
 4352SOL    HW224690   0.517   4.645   1.868  3.3156  0.2977 -1.9804
 4353SOL     OW24691   1.141   3.100   3.965  0.0028  0.3019  0.1273
 4353SOL    HW124692   1.073   3.098   3.898  0.1358 -1.5746  0.0576
 4353SOL    HW224693   1.091   3.141   4.036  0.4931  0.9744  0.0867
 4354SOL     OW24694   0.599   4.096   7.786  0.3278  0.3821  0.3521
 4354SOL    HW124695   0.588   4.001   7.786 -1.0667  0.5380  1.1060
 4354SOL    HW224696   0.542   4.118   7.860  1.6428 -1.2974  1.8728
 4355SOL     OW24697   4.403   1.964   8.627 -0.1618 -0.4342 -0.1302
 4355SOL    HW124698   4.329   1.912   8.597 -0.1450 -1.0446  0.8735
 4355SOL    HW224699   4.411   1.945   8.721 -2.0631  1.1920  0.3688
 4356SOL     OW24700   2.772   3.051   6.963  0.0513  0.0340 -1.0409
 4356SOL    HW124701   2.710   3.100   6.909 -0.9466  1.6196  1.5164
 4356SOL    HW224702   2.720   3.021   7.038 -0.0526 -2.1788 -2.0014
 4357SOL     OW24703   2.595   4.693   6.842  0.1011  0.0798  0.1138
 4357SOL    HW124704   2.520   4.705   6.901  0.2275  1.3426  0.0240
 4357SOL    HW224705   2.659   0.010   6.885  2.4018 -2.8731  0.6520
 4358SOL     OW24706   0.817   1.910   6.551  0.1608 -0.3040  0.0983
 4358SOL    HW124707   0.870   1.841   6.591  0.6391  0.1231  0.1967
 4358SOL    HW224708   0.736   1.864   6.526 -1.3491  2.2615  0.2281
 4359SOL     OW24709   0.707   3.672   7.228 -0.3688 -0.2279 -0.2850
 4359SOL    HW124710   0.793   3.698   7.260 -0.5730 -0.0727  0.1267
 4359SOL    HW224711   0.685   3.740   7.163 -1.5182 -0.4267 -0.1035
 4360SOL     OW24712   0.470   0.549   8.523  0.6212  0.7158  0.6488
 4360SOL    HW124713   0.441   0.469   8.567  0.8973 -0.5548 -1.5125
 4360SOL    HW224714   0.428   0.551   8.438  0.4431 -2.4545  0.6698
 4361SOL     OW24715   3.353   3.720   9.083 -0.2994 -0.1009 -0.0735
 4361SOL    HW124716   3.295   3.647   9.063 -2.7370  1.9854 -0.7156
 4361SOL    HW224717   3.294   3.795   9.072 -0.8965  0.0298  4.0046
 4362SOL     OW24718   3.855   2.186  16.153 -0.0290 -0.7914 -0.3847
 4362SOL    HW124719   3.760   2.192  16.142  0.1040  0.5622 -0.7957
 4362SOL    HW224720   3.880   2.215  16.065  2.6633  0.0047  0.6345
 4363SOL     OW24721   1.388   3.413  16.099  0.5347 -0.0824 -0.0058
 4363SOL    HW124722   1.350   3.484  16.047  0.2725 -1.4713 -1.7126
 4363SOL    HW224723   1.428   3.465  16.168  2.7717 -0.3055 -1.1417
 4364SOL     OW24724   0.366   1.982  14.979 -0.1422 -0.0950 -0.2613
 4364SOL    HW124725   0.296   2.014  15.037  0.5220 -0.3294  0.6682
 4364SOL    HW224726   0.437   1.953  15.035 -0.8322 -1.2766 -0.0061
 4365SOL     OW24727   4.130   4.311  16.808  0.2609  0.7931  0.1633
 4365SOL    HW124728   4.224   4.322  16.799  0.0733  0.9492 -1.7270
 4365SOL    HW224729   4.118   4.352  16.894  3.6952 -1.5081  1.7362
 4366SOL     OW24730   1.762   3.576   6.156 -0.2817 -0.3848 -0.3277
 4366SOL    HW124731   1.850   3.558   6.125  0.4300  0.4597  1.1793
 4366SOL    HW224732   1.745   3.502   6.214  1.4330  0.3878  1.1769
 4367SOL     OW24733   4.226   0.422  17.266  0.2205  0.1120  0.4275
 4367SOL    HW124734   4.150   0.478  17.252 -2.2342 -2.7232  2.5851
 4367SOL    HW224735   4.299   0.479  17.239  0.4711  0.1602  1.2007
 4368SOL     OW24736   2.292   1.190  17.352 -0.7905 -0.4642  0.1391
 4368SOL    HW124737   2.222   1.172  17.289  0.2206 -1.7089 -0.6296
 4368SOL    HW224738   2.344   1.249  17.298  1.9087 -2.9584  0.0026
 4369SOL     OW24739   1.784   1.892   4.976  0.0462  0.4217 -0.0474
 4369SOL    HW124740   1.876   1.887   4.951  0.1405 -1.4525  0.6357
 4369SOL    HW224741   1.791   1.952   5.051  3.7633  1.2993 -1.1220
 4370SOL     OW24742   1.300   1.624   2.850  0.3890 -0.2240 -0.1648
 4370SOL    HW124743   1.205   1.623   2.851  0.3878 -1.4465 -1.5624
 4370SOL    HW224744   1.316   1.716   2.871  1.4207 -0.4383  0.0123
 4371SOL     OW24745   1.835   3.831   2.601  0.1291  0.2301  0.2107
 4371SOL    HW124746   1.811   3.913   2.559 -2.6474 -0.1853  0.9806
 4371SOL    HW224747   1.802   3.772   2.533  1.1624 -1.5038  1.2009
 4372SOL     OW24748   1.521   2.671  11.177  0.8291  0.3956 -0.5080
 4372SOL    HW124749   1.616   2.667  11.165  0.9364  1.4548 -0.0426
 4372SOL    HW224750   1.523   2.694  11.270  2.2443  1.5906 -0.8306
 4373SOL     OW24751   0.856   0.460   2.750  0.9232 -0.1696  0.7767
 4373SOL    HW124752   0.807   0.443   2.830  1.0921 -0.4875  0.8152
 4373SOL    HW224753   0.944   0.433   2.779  1.3117 -3.2863 -3.3255
 4374SOL     OW24754   3.400   2.562   2.636 -0.1156 -0.0745  0.3519
 4374SOL    HW124755   3.491   2.584   2.656 -0.3439 -0.4140  1.7406
 4374SOL    HW224756   3.363   2.650   2.649 -0.1454 -0.2407  1.3560
 4375SOL     OW24757   3.793   0.475   8.692 -0.4048  0.3684  0.5382
 4375SOL    HW124758   3.700   0.496   8.691 -0.8336 -1.5665 -0.7997
 4375SOL    HW224759   3.815   0.522   8.772 -0.8289  0.6299  0.5002
 4376SOL     OW24760   2.581   0.025   8.945 -0.5300 -0.3883  0.3404
 4376SOL    HW124761   2.576   4.689   8.889  3.0465 -2.0137  2.2251
 4376SOL    HW224762   2.555   4.731   9.030  0.8422  1.3071  1.4718
 4377SOL     OW24763   0.901   3.459  14.049 -0.2792 -0.3130 -0.2736
 4377SOL    HW124764   0.988   3.480  14.081  0.0778 -0.7714 -0.9451
 4377SOL    HW224765   0.902   3.368  14.079 -1.4090  0.2603  1.4831
 4378SOL     OW24766   0.962   2.110   8.687  0.8402 -0.2850  0.2146
 4378SOL    HW124767   1.029   2.142   8.627 -2.2152  0.8946 -2.5312
 4378SOL    HW224768   0.968   2.171   8.761 -0.3962 -1.1842  1.0550
 4379SOL     OW24769   0.105   4.080   7.564 -0.9619 -0.5063 -0.3798
 4379SOL    HW124770   0.103   4.003   7.507  0.2087  0.3488 -1.5693
 4379SOL    HW224771   0.103   4.050   7.655  2.6048  0.3904 -0.0176
 4380SOL     OW24772   0.483   2.688   6.440 -0.4036 -0.4811  0.1836
 4380SOL    HW124773   0.452   2.778   6.449  1.1508  0.0406  0.3121
 4380SOL    HW224774   0.513   2.676   6.530  0.5997 -2.6548 -0.4455
 4381SOL     OW24775   1.603   3.038   7.049 -0.2197 -0.2795 -0.4504
 4381SOL    HW124776   1.538   2.998   7.107  0.4175  1.5451  1.5062
 4381SOL    HW224777   1.553   3.062   6.971 -1.1904 -1.7937 -0.2931
 4382SOL     OW24778   2.470   3.686   8.933 -0.0642  0.4521 -0.3057
 4382SOL    HW124779   2.443   3.697   9.024 -4.4746  0.5816 -1.6167
 4382SOL    HW224780   2.410   3.747   8.889 -3.6759 -2.3293  0.7713
 4383SOL     OW24781   1.883   0.752   5.000 -0.4525 -0.1621 -0.4607
 4383SOL    HW124782   1.791   0.744   4.973 -0.4863  1.9349 -0.9548
 4383SOL    HW224783   1.874   0.784   5.090  0.7054  2.2566 -1.1974
 4384SOL     OW24784   4.431   2.799   7.336 -0.0137  0.0186  0.3333
 4384SOL    HW124785   4.459   2.891   7.337 -0.5965  0.2175 -1.3228
 4384SOL    HW224786   4.342   2.812   7.303 -1.0218  0.6229  3.2567
 4385SOL     OW24787   1.859   1.296  16.955 -0.5548 -0.2235 -0.0164
 4385SOL    HW124788   1.818   1.377  16.926 -0.7348 -0.7152 -1.1376
 4385SOL    HW224789   1.869   1.252  16.871 -0.7140 -0.6536  0.1897
 4386SOL     OW24790   0.766   3.894   2.284  0.1600  0.2321  0.1603
 4386SOL    HW124791   0.679   3.864   2.257 -0.9309  4.3961 -1.0262
 4386SOL    HW224792   0.785   3.839   2.360 -0.1524 -1.2300 -0.8257
 4387SOL     OW24793   0.536   2.661  13.884 -0.1972  0.1624  0.3744
 4387SOL    HW124794   0.531   2.642  13.977 -1.3171  0.9782  0.4818
 4387SOL    HW224795   0.516   2.574  13.849  0.2561 -0.0776  0.7150
 4388SOL     OW24796   0.127   3.419   1.091  0.1227  0.4016  0.1313
 4388SOL    HW124797   0.191   3.363   1.134  0.4244 -0.4366 -1.3783
 4388SOL    HW224798   0.151   3.411   0.998  0.1026 -1.4046  0.2863
 4389SOL     OW24799   4.600   2.800  11.847  0.4597  0.5784  0.1290
 4389SOL    HW124800   4.625   2.731  11.908 -1.7797  0.8278  1.3480
 4389SOL    HW224801   4.557   2.860  11.908 -1.7050  0.9092 -1.7073
 4390SOL     OW24802   0.866   3.694   3.556 -0.1566 -0.5852  0.6257
 4390SOL    HW124803   0.824   3.716   3.473 -2.6898 -0.9185  1.7960
 4390SOL    HW224804   0.880   3.599   3.548 -0.0993 -0.3934 -1.3401
 4391SOL     OW24805   1.666   2.488   2.459  0.0107  0.2051  0.3100
 4391SOL    HW124806   1.633   2.407   2.419  1.6214 -0.8427  1.1007
 4391SOL    HW224807   1.757   2.465   2.444  0.1657 -0.0820  1.7234
 4392SOL     OW24808   4.186   0.695   6.275 -0.0932  0.1686  0.1655
 4392SOL    HW124809   4.118   0.722   6.214 -0.9615 -2.1688  0.0755
 4392SOL    HW224810   4.137   0.623   6.316  0.6122 -0.6493 -0.4275
 4393SOL     OW24811   4.633   0.973  15.013 -0.7104 -0.3927 -0.4847
 4393SOL    HW124812   4.684   1.055  15.017 -1.5356  0.1556 -1.3170
 4393SOL    HW224813   4.590   0.991  14.930  1.1214 -0.0675 -1.3639
 4394SOL     OW24814   4.122   2.782   2.047 -0.3538 -0.2097  0.0381
 4394SOL    HW124815   4.129   2.713   2.113  0.1692  0.8367  1.0864
 4394SOL    HW224816   4.183   2.851   2.073 -2.8710  2.0009  0.0564
 4395SOL     OW24817   2.063   2.412   0.971 -0.0462  0.3896 -0.6270
 4395SOL    HW124818   1.983   2.444   1.013 -0.4034  0.5400 -1.4195
 4395SOL    HW224819   2.024   2.361   0.900  0.3922  2.0567 -2.0681
 4396SOL     OW24820   0.654   3.757  12.913 -0.3492  0.3929  0.0217
 4396SOL    HW124821   0.623   3.790  12.829 -0.0548  0.4219 -0.0744
 4396SOL    HW224822   0.608   3.814  12.975  0.3855  0.9304  0.0688
 4397SOL     OW24823   0.107   0.902   7.046 -0.4325  0.6964 -0.4982
 4397SOL    HW124824   0.111   0.895   7.142  1.7508 -1.4982 -0.7474
 4397SOL    HW224825   0.011   0.909   7.038 -0.6286 -1.3205  0.1872
 4398SOL     OW24826   1.480   0.571  15.465  0.0230  0.5503 -0.4036
 4398SOL    HW124827   1.466   0.588  15.558  0.0926  2.1553 -0.6813
 4398SOL    HW224828   1.556   0.514  15.474  0.4666  0.6621 -3.4921
 4399SOL     OW24829   1.219   2.201   4.716 -0.4219 -0.4097 -0.6637
 4399SOL    HW124830   1.250   2.280   4.760 -0.6098 -0.8544  0.2598
 4399SOL    HW224831   1.130   2.200   4.751  0.1889 -1.0273  0.8272
 4400SOL     OW24832   2.448   4.441   1.312 -0.1353  0.0069 -0.3336
 4400SOL    HW124833   2.443   4.507   1.243 -1.6123 -0.1696 -0.3933
 4400SOL    HW224834   2.374   4.388   1.283 -0.7213  1.2899 -1.2100
 4401SOL     OW24835   3.733   0.879   2.338  0.3509 -0.1388 -0.0774
 4401SOL    HW124836   3.659   0.819   2.328  0.0521  0.0177  1.2100
 4401SOL    HW224837   3.807   0.827   2.371 -0.9291 -1.8053  0.1620
 4402SOL     OW24838   3.819   2.791   9.456 -0.2739 -0.2288  0.6737
 4402SOL    HW124839   3.728   2.815   9.442 -0.0745 -0.2553 -0.6830
 4402SOL    HW224840   3.828   2.781   9.550 -0.0067  1.2138  0.7996
 4403SOL     OW24841   3.428   4.272   6.711  0.2154 -0.1088 -0.2634
 4403SOL    HW124842   3.363   4.328   6.752  1.1733  0.0736  0.9825
 4403SOL    HW224843   3.377   4.249   6.632  0.6329 -0.2939 -0.4788
 4404SOL     OW24844   0.893   1.373   5.709 -0.2375 -0.3727  0.4247
 4404SOL    HW124845   0.925   1.347   5.796 -0.5757  0.7981  0.8990
 4404SOL    HW224846   0.956   1.441   5.686  1.0141 -0.8836  2.3462
 4405SOL     OW24847   2.971   1.781   4.861 -0.1515  0.2090 -0.3360
 4405SOL    HW124848   2.901   1.774   4.926 -0.5142 -1.8387 -0.9449
 4405SOL    HW224849   3.031   1.707   4.873 -0.4908 -0.1330 -0.7026
 4406SOL     OW24850   2.871   3.284   5.829  0.3038  0.1105 -0.3039
 4406SOL    HW124851   2.955   3.263   5.788 -0.1682 -0.3143 -1.0400
 4406SOL    HW224852   2.880   3.247   5.917  0.0576  1.4533  0.2879
 4407SOL     OW24853   2.796   2.366   4.408  0.3257 -0.2164  0.1197
 4407SOL    HW124854   2.718   2.366   4.464 -0.6476 -0.5944 -1.2524
 4407SOL    HW224855   2.868   2.340   4.466 -1.1536 -2.8808  0.7564
 4408SOL     OW24856   4.259   0.484  13.709  0.1747  1.1256  0.2464
 4408SOL    HW124857   4.211   0.557  13.671 -1.3437 -0.0815 -0.1373
 4408SOL    HW224858   4.191   0.450  13.767  2.0272 -1.0579  1.1690
 4409SOL     OW24859   0.514   0.542   2.223  0.1526 -0.7645 -0.4837
 4409SOL    HW124860   0.448   0.596   2.179  1.0134  0.7916  0.1811
 4409SOL    HW224861   0.487   0.455   2.191 -1.6850 -0.7606  1.0456
 4410SOL     OW24862   1.360   1.294   6.774  0.3585 -0.0645 -0.3737
 4410SOL    HW124863   1.408   1.268   6.696  1.1501 -0.8485  0.3769
 4410SOL    HW224864   1.421   1.287   6.848 -2.0460  0.9933  1.7088
 4411SOL     OW24865   3.179   2.713  13.380  1.0660 -0.1905  0.5639
 4411SOL    HW124866   3.228   2.641  13.341 -2.1572 -2.6320  0.9802
 4411SOL    HW224867   3.089   2.681  13.365  1.0971 -0.0181 -0.0036
 4412SOL     OW24868   3.696   1.076   1.879 -0.0213  0.1026 -0.2677
 4412SOL    HW124869   3.708   1.070   1.974  1.6326 -0.2750 -0.5027
 4412SOL    HW224870   3.759   1.011   1.849  0.4507 -0.5341  2.0696
 4413SOL     OW24871   3.095   3.255  13.526  0.0212 -0.0045 -0.1359
 4413SOL    HW124872   3.064   3.273  13.615 -0.3557 -4.0861  0.5412
 4413SOL    HW224873   3.144   3.336  13.510  0.1288 -0.4167 -1.8518
 4414SOL     OW24874   3.987   4.340  16.582  0.0064  0.0497 -0.5828
 4414SOL    HW124875   4.033   4.349  16.665 -1.9305 -0.6073  0.5631
 4414SOL    HW224876   4.053   4.378  16.525 -0.0906 -0.6126 -1.1478
 4415SOL     OW24877   1.646   2.462   6.803 -0.0245  0.8248  0.2294
 4415SOL    HW124878   1.735   2.446   6.773 -0.1917 -1.3364  0.8884
 4415SOL    HW224879   1.594   2.387   6.775  0.1649  0.9059 -0.3402
 4416SOL     OW24880   0.054   3.675   2.465  1.0457 -0.6510  0.1765
 4416SOL    HW124881   0.043   3.666   2.560  0.8783 -0.5054  0.1697
 4416SOL    HW224882   0.149   3.675   2.453  0.7433  0.9334 -2.1373
 4417SOL     OW24883   1.984   0.341   1.393  0.1369  0.0492  0.4709
 4417SOL    HW124884   1.958   0.384   1.311 -1.6555  0.7384  1.3858
 4417SOL    HW224885   2.006   0.252   1.363  0.0482 -0.2015  1.1477
 4418SOL     OW24886   1.563   3.946   4.101 -0.0792 -0.0665  0.2332
 4418SOL    HW124887   1.476   3.907   4.097 -0.9022  1.9191 -1.2176
 4418SOL    HW224888   1.615   3.872   4.133 -0.1081  0.8408  2.3601
 4419SOL     OW24889   4.653   1.774   9.510 -0.3432 -0.2787  0.3174
 4419SOL    HW124890   4.664   1.735   9.424 -0.3898 -1.3195  0.7841
 4419SOL    HW224891   4.609   1.855   9.485 -1.0468 -0.6263  0.4363
 4420SOL     OW24892   1.842   1.265   6.938  0.6486 -0.2316 -0.0221
 4420SOL    HW124893   1.827   1.359   6.949 -1.3365 -0.4002 -1.2129
 4420SOL    HW224894   1.848   1.255   6.843 -2.8508  2.1242 -0.5312
 4421SOL     OW24895   3.385   3.418   5.439 -0.4145 -0.6535 -0.7625
 4421SOL    HW124896   3.347   3.434   5.526 -1.0568 -2.4123 -0.7191
 4421SOL    HW224897   3.466   3.373   5.462  0.2481  1.0278  0.1954
 4422SOL     OW24898   4.231   1.800  14.298 -0.2660  0.6508 -0.0924
 4422SOL    HW124899   4.281   1.842  14.228  1.0474 -0.7767 -0.0206
 4422SOL    HW224900   4.163   1.866  14.309  0.6314  1.5397  0.1076
 4423SOL     OW24901   1.053   3.173   3.589  0.4932 -0.3597  0.1929
 4423SOL    HW124902   1.144   3.143   3.592  1.0889  1.4963  0.5190
 4423SOL    HW224903   1.056   3.250   3.533 -0.0993 -0.5534 -0.1012
 4424SOL     OW24904   0.819   3.181   1.756  0.2759 -0.0471  0.3911
 4424SOL    HW124905   0.736   3.134   1.752  1.0478 -1.2093 -1.9369
 4424SOL    HW224906   0.857   3.192   1.669 -0.0850  2.6399  0.5718
 4425SOL     OW24907   2.373   4.430   2.960  0.3872  0.3757  0.0276
 4425SOL    HW124908   2.373   4.343   3.000  1.1843 -0.4497 -1.7737
 4425SOL    HW224909   2.352   4.488   3.033 -0.9637  0.3255 -0.3289
 4426SOL     OW24910   0.537   0.360   9.127  0.2304 -0.1649 -0.4614
 4426SOL    HW124911   0.544   0.349   9.221 -1.7458 -0.3927 -0.3414
 4426SOL    HW224912   0.596   0.435   9.115  1.0001 -0.6343  0.4215
 4427SOL     OW24913   1.197   4.383   4.113  0.0697  0.1668  0.2233
 4427SOL    HW124914   1.262   4.437   4.069  0.7284  0.2691  1.3264
 4427SOL    HW224915   1.243   4.303   4.087  2.3961  0.8671  2.2608
 4428SOL     OW24916   3.582   3.545   3.758 -0.8163 -0.3500 -0.1428
 4428SOL    HW124917   3.526   3.562   3.683 -0.6066 -1.9958 -0.6710
 4428SOL    HW224918   3.549   3.462   3.791 -1.2542  0.0876  0.5135
 4429SOL     OW24919   1.510   0.820   6.580 -0.2286  0.2471 -0.3400
 4429SOL    HW124920   1.512   0.787   6.669 -0.8810  1.2137  0.0355
 4429SOL    HW224921   1.422   0.858   6.581 -0.3709 -0.1051  0.2853
 4430SOL     OW24922   1.536   3.566  14.016  0.2601  0.3421 -0.8911
 4430SOL    HW124923   1.534   3.470  14.014 -0.9534  0.3115  1.2148
 4430SOL    HW224924   1.477   3.584  13.943 -0.0126  1.8838 -0.2932
 4431SOL     OW24925   0.500   3.926   7.419 -0.0055  0.1875 -0.2180
 4431SOL    HW124926   0.584   3.890   7.448 -0.5629 -0.0632  1.1188
 4431SOL    HW224927   0.482   3.971   7.502  0.8683  0.3865 -0.1370
 4432SOL     OW24928   2.220   2.351   2.754  0.1928  0.6992 -0.3083
 4432SOL    HW124929   2.272   2.304   2.820 -1.7890  0.7490  1.3028
 4432SOL    HW224930   2.281   2.364   2.682 -1.8853  1.3519 -1.9517
 4433SOL     OW24931   1.009   1.063  10.163 -0.0534  0.0147  0.4984
 4433SOL    HW124932   0.993   1.026  10.077 -0.0599 -0.7207  0.8156
 4433SOL    HW224933   0.962   1.145  10.146  1.7689  1.0668  0.5518
 4434SOL     OW24934   0.467   4.290   6.109 -0.2015 -0.3083 -0.0491
 4434SOL    HW124935   0.538   4.229   6.129 -1.5750 -2.0350 -0.5132
 4434SOL    HW224936   0.462   4.321   6.200  0.5352 -3.2627  1.0067
 4435SOL     OW24937   3.663   2.092   7.116 -0.1691  0.0295 -0.1429
 4435SOL    HW124938   3.704   2.080   7.202 -1.2215  0.7584  0.4537
 4435SOL    HW224939   3.639   2.000   7.106 -0.5156  0.2087 -0.9534
 4436SOL     OW24940   0.532   1.772   6.588 -0.9105  0.0203  0.4245
 4436SOL    HW124941   0.485   1.841   6.636 -0.6693  0.1539  0.4719
 4436SOL    HW224942   0.507   1.792   6.498 -2.2649  1.5549  1.1527
 4437SOL     OW24943   4.384   3.490   8.591  0.0139  0.7226 -0.3287
 4437SOL    HW124944   4.374   3.540   8.672 -1.3037  0.2585 -0.1951
 4437SOL    HW224945   4.422   3.556   8.533  1.5106  0.2295  0.0783
 4438SOL     OW24946   2.693   3.431   5.956  0.8419 -0.9971  0.3900
 4438SOL    HW124947   2.756   3.394   5.894 -0.9436 -0.1511 -1.9198
 4438SOL    HW224948   2.672   3.348   5.997  0.5440 -1.1980 -0.1661
 4439SOL     OW24949   2.137   3.480  15.425 -0.2383 -0.0704 -0.4752
 4439SOL    HW124950   2.168   3.567  15.449  2.6798 -1.7202  1.8442
 4439SOL    HW224951   2.211   3.424  15.450 -1.1572 -0.6059  1.0121
 4440SOL     OW24952   1.288   3.850   2.565  0.3398 -0.5270  0.0605
 4440SOL    HW124953   1.204   3.895   2.569 -0.8723 -2.6965 -1.0848
 4440SOL    HW224954   1.318   3.852   2.656 -1.5478 -0.0712  0.6754
 4441SOL     OW24955   3.952   0.955  10.739  0.4425  0.0444  0.2749
 4441SOL    HW124956   3.859   0.942  10.717  0.9920 -2.6784 -0.4780
 4441SOL    HW224957   3.988   0.998  10.662 -0.1988  1.1397  0.5797
 4442SOL     OW24958   2.701   3.829   5.691 -0.3747 -0.1257 -0.2297
 4442SOL    HW124959   2.616   3.871   5.707  1.5886  3.7227 -0.1188
 4442SOL    HW224960   2.741   3.904   5.648  1.4428 -1.9165 -1.6322
 4443SOL     OW24961   1.585   4.448   9.411  0.4061 -0.2701 -0.4442
 4443SOL    HW124962   1.528   4.400   9.471  0.9665 -0.5762 -0.1555
 4443SOL    HW224963   1.663   4.452   9.467 -1.8541 -0.1898  2.6855
 4444SOL     OW24964   2.204   3.866  14.003  0.0415 -0.1331  0.2644
 4444SOL    HW124965   2.133   3.842  14.063  1.1810 -1.2422  1.1705
 4444SOL    HW224966   2.171   3.815  13.929  2.3762  0.4803 -1.1918
 4445SOL     OW24967   3.283   0.545   3.478  0.1466 -0.1342  0.0877
 4445SOL    HW124968   3.307   0.524   3.569  0.2343  0.7022  0.2566
 4445SOL    HW224969   3.297   0.640   3.478  0.7135 -0.2063  1.8094
 4446SOL     OW24970   4.383   4.550   5.977 -0.3788  0.0203  0.9419
 4446SOL    HW124971   4.309   4.489   5.977  0.1857 -0.6855 -1.6417
 4446SOL    HW224972   4.458   4.496   6.002  1.6141  1.0824 -2.6616
 4447SOL     OW24973   3.292   3.165  13.367  0.6643 -1.1036  0.4926
 4447SOL    HW124974   3.215   3.180  13.423  1.3237  0.2579  1.0486
 4447SOL    HW224975   3.329   3.250  13.390 -0.2438 -1.3696  2.9638
 4448SOL     OW24976   0.636   1.473   5.293  0.2130 -0.2179 -0.1630
 4448SOL    HW124977   0.678   1.407   5.347  0.0027 -0.4772 -0.3169
 4448SOL    HW224978   0.617   1.538   5.361 -1.3524  0.6599 -1.4400
 4449SOL     OW24979   4.739   0.061   8.453  1.0401  0.4547  0.1669
 4449SOL    HW124980   4.681   0.086   8.524  0.2375 -0.5584 -0.1283
 4449SOL    HW224981   0.080   0.066   8.503  1.5944  0.9995 -0.7974
 4450SOL     OW24982   0.908   3.954  16.940  0.4560  0.7892 -0.5140
 4450SOL    HW124983   0.884   4.038  16.978  2.6963  0.7706  0.9668
 4450SOL    HW224984   0.908   3.977  16.847 -1.8389  1.3599 -0.3773
 4451SOL     OW24985   0.844   4.435   3.963 -0.0803 -0.4166  0.4282
 4451SOL    HW124986   0.875   4.473   3.881  0.6717 -0.6407  0.6149
 4451SOL    HW224987   0.836   4.516   4.014 -0.3851 -0.5223  0.5507
 4452SOL     OW24988   3.700   3.334   5.293  0.2237 -0.0511 -0.6568
 4452SOL    HW124989   3.703   3.423   5.329 -1.7165 -0.4587  0.4602
 4452SOL    HW224990   3.625   3.338   5.233  0.8422 -1.2428 -1.5062
 4453SOL     OW24991   2.266   3.063  10.051 -0.3922  0.5862 -0.0125
 4453SOL    HW124992   2.241   3.002  10.119 -0.8441  1.6748  0.7955
 4453SOL    HW224993   2.342   3.016  10.016 -0.3402  1.2319 -0.7737
 4454SOL     OW24994   0.325   3.980  14.704  0.1039 -0.6088 -0.4992
 4454SOL    HW124995   0.307   3.953  14.794 -1.0527 -1.7434 -1.0624
 4454SOL    HW224996   0.238   3.958  14.671  0.5718 -2.2539 -0.6503
 4455SOL     OW24997   1.146   4.712  13.578  0.2544  0.4006  0.0670
 4455SOL    HW124998   1.193   4.657  13.641 -1.3588  0.8677  1.6943
 4455SOL    HW224999   1.182   4.678  13.496  0.5247 -1.6787  1.0335
 4456SOL     OW25000   1.178   0.046   1.435  0.4652 -0.2296 -0.0109
 4456SOL    HW125001   1.138   0.122   1.476 -1.0201 -1.3696  0.6544
 4456SOL    HW225002   1.207   0.093   1.357 -0.4135 -0.6705 -0.6021
 4457SOL     OW25003   2.266   2.962   6.948 -0.4210  0.2681  0.3192
 4457SOL    HW125004   2.282   2.907   7.025  0.9519  2.4588  1.5935
 4457SOL    HW225005   2.314   2.922   6.876  1.4349  1.9299  0.6526
 4458SOL     OW25006   4.418   4.226   1.375  0.1421  0.2905 -0.2745
 4458SOL    HW125007   4.388   4.196   1.462  0.4284  1.2161  0.1446
 4458SOL    HW225008   4.513   4.224   1.367  0.2855  1.1838  1.1285
 4459SOL     OW25009   1.306   2.615   5.754  0.8167  0.2053 -0.7432
 4459SOL    HW125010   1.217   2.621   5.720 -0.0162 -0.5752  1.2919
 4459SOL    HW225011   1.347   2.545   5.702  1.1040 -1.8159  2.2516
 4460SOL     OW25012   1.835   0.669   0.003 -0.0299 -0.0033 -0.2656
 4460SOL    HW125013   1.887   0.680   0.082 -0.0640  1.0890 -0.3938
 4460SOL    HW225014   1.824   0.574   0.000 -2.4637  0.3273 -2.7772
 4461SOL     OW25015   1.690   2.662   7.906  0.1053  0.2612  0.0838
 4461SOL    HW125016   1.652   2.727   7.965  1.9759 -1.8149  3.5352
 4461SOL    HW225017   1.683   2.710   7.824 -1.1548  0.1234  0.1013
 4462SOL     OW25018   1.088   0.851  13.095  0.1732  0.1289  0.3620
 4462SOL    HW125019   1.091   0.917  13.165 -0.6995  0.7446 -0.1853
 4462SOL    HW225020   1.065   0.774  13.147 -0.8507 -0.3698 -0.8221
 4463SOL     OW25021   2.393   4.250   5.632 -0.4174  0.6878 -0.1767
 4463SOL    HW125022   2.366   4.295   5.712  3.3147 -1.5834  2.3715
 4463SOL    HW225023   2.466   4.304   5.602 -0.5525  0.4244 -0.9910
 4464SOL     OW25024   0.764   4.362   9.251  0.4516 -0.6212 -0.1564
 4464SOL    HW125025   0.799   4.303   9.317  0.2980 -0.5084  0.0259
 4464SOL    HW225026   0.839   4.361   9.192 -0.7617 -1.1213 -1.6940
 4465SOL     OW25027   3.768   4.328  14.409 -0.4492 -0.0955 -0.1687
 4465SOL    HW125028   3.771   4.407  14.353 -0.7183  0.8918  1.2121
 4465SOL    HW225029   3.681   4.342  14.448 -1.6265  1.6294 -3.3625
 4466SOL     OW25030   4.135   2.803   6.394 -0.1271 -0.5311 -0.2292
 4466SOL    HW125031   4.098   2.736   6.337  0.2469  0.8364 -2.0803
 4466SOL    HW225032   4.221   2.766   6.412 -0.4094 -0.9126  0.3634
 4467SOL     OW25033   0.097   4.446  12.664 -0.3256  0.2768  0.1908
 4467SOL    HW125034   0.153   4.395  12.606  1.9788  2.5092  0.4326
 4467SOL    HW225035   0.022   4.465  12.608  0.7139  1.0165 -0.9432
 4468SOL     OW25036   0.459   3.669   9.689  0.2720  0.4492  0.4348
 4468SOL    HW125037   0.481   3.634   9.603 -1.4204  0.5110 -0.0279
 4468SOL    HW225038   0.531   3.649   9.749 -0.0179  1.2841  1.0569
 4469SOL     OW25039   2.585   4.413   9.450  0.0798  0.2032  0.7224
 4469SOL    HW125040   2.603   4.429   9.357 -1.6446 -2.1493 -0.0003
 4469SOL    HW225041   2.663   4.456   9.485  0.6652 -0.8629  0.7237
 4470SOL     OW25042   0.084   0.290   8.306  0.4219 -0.3014 -0.0123
 4470SOL    HW125043   0.048   0.208   8.338 -0.6915 -0.0841 -0.7069
 4470SOL    HW225044   0.168   0.299   8.352  1.6501 -2.9663 -1.7358
 4471SOL     OW25045   1.763   0.868   4.059 -0.3251  0.1800 -0.4240
 4471SOL    HW125046   1.693   0.862   3.994  0.0035 -1.9451 -0.5732
 4471SOL    HW225047   1.777   0.963   4.066  3.7813 -0.3730 -0.9884
 4472SOL     OW25048   2.250   1.755  13.036  0.2232  0.2539 -0.3860
 4472SOL    HW125049   2.176   1.707  13.073 -1.7695  2.9226 -0.8888
 4472SOL    HW225050   2.316   1.686  13.040 -3.0233 -2.7249  2.0599
 4473SOL     OW25051   2.050   0.158  12.580 -0.3877 -0.0498 -0.5555
 4473SOL    HW125052   2.085   0.120  12.660  0.9963  1.6448 -0.3691
 4473SOL    HW225053   1.982   0.221  12.605 -1.4667 -1.2945 -0.3590
 4474SOL     OW25054   1.700   0.242   4.415 -1.0127  0.3701 -0.5291
 4474SOL    HW125055   1.667   0.288   4.337 -1.9737  0.7652  0.1060
 4474SOL    HW225056   1.711   0.317   4.473 -1.2279 -0.5835  0.7256
 4475SOL     OW25057   4.000   0.588   5.237  0.3316 -1.0763  0.7434
 4475SOL    HW125058   4.012   0.633   5.154  0.1696 -1.1845  0.6641
 4475SOL    HW225059   4.088   0.576   5.273  0.5455  0.6979  0.8348
 4476SOL     OW25060   0.604   1.542   6.998  0.0170 -0.0743 -0.0089
 4476SOL    HW125061   0.549   1.464   6.989  0.4433 -0.4901  1.1240
 4476SOL    HW225062   0.567   1.585   7.075 -0.6191 -0.4510 -0.1007
 4477SOL     OW25063   2.384   2.336  13.575  0.0187 -0.0102 -0.4687
 4477SOL    HW125064   2.469   2.356  13.614  0.2398  2.1991 -2.0799
 4477SOL    HW225065   2.325   2.364  13.645 -0.2456  1.4581 -1.2855
 4478SOL     OW25066   1.581   0.978  17.493 -0.1640 -0.3912  0.2389
 4478SOL    HW125067   1.661   0.931  17.470 -0.8005 -1.1338 -0.4741
 4478SOL    HW225068   1.549   1.011  17.409 -4.7379 -0.4952  1.9500
 4479SOL     OW25069   3.546   1.026  14.175  0.0512 -0.1351 -0.5544
 4479SOL    HW125070   3.619   1.018  14.113 -0.9015  0.2642 -1.7399
 4479SOL    HW225071   3.539   0.942  14.220  0.9022 -0.5736 -1.2291
 4480SOL     OW25072   2.123   0.845   9.949  0.0154  0.0600 -0.0888
 4480SOL    HW125073   2.206   0.864   9.905 -1.1905  2.6965 -1.2362
 4480SOL    HW225074   2.082   0.795   9.878  2.7093  0.0606 -1.6446
 4481SOL     OW25075   2.013   2.274   5.795  0.1015 -0.2152 -0.3562
 4481SOL    HW125076   2.066   2.340   5.751  0.6065 -0.1209  0.3850
 4481SOL    HW225077   1.976   2.329   5.864  0.9732  0.5309 -0.4843
 4482SOL     OW25078   4.275   2.210   7.315  0.1531  0.2692  0.6070
 4482SOL    HW125079   4.323   2.136   7.351  0.6611 -0.0282 -0.6842
 4482SOL    HW225080   4.277   2.194   7.220  0.1856 -0.0018  0.6519
 4483SOL     OW25081   4.737   4.675   6.305 -0.4531  0.0707 -0.4082
 4483SOL    HW125082   0.050   4.697   6.229 -0.6382 -0.3753 -0.6676
 4483SOL    HW225083   4.648   4.686   6.270  0.1059 -1.2555 -2.2567
 4484SOL     OW25084   2.691   4.441   7.890 -0.0451 -0.2256 -0.4653
 4484SOL    HW125085   2.699   4.533   7.916  2.2937 -0.3518 -0.7621
 4484SOL    HW225086   2.785   4.424   7.893 -0.0608 -0.4112 -1.0681
 4485SOL     OW25087   0.527   1.910   8.362  0.1515 -0.1041 -0.1317
 4485SOL    HW125088   0.532   1.927   8.268  0.9859  1.5217  0.1956
 4485SOL    HW225089   0.581   1.983   8.391  1.4236 -0.4911 -1.5005
 4486SOL     OW25090   2.271   4.011   6.428  0.3674  0.1077  0.1983
 4486SOL    HW125091   2.177   4.011   6.410  0.3064  0.1540  0.5222
 4486SOL    HW225092   2.302   4.099   6.406  1.2715 -0.2871 -0.1357
 4487SOL     OW25093   2.401   0.178   1.266 -0.2666 -0.5299  0.2727
 4487SOL    HW125094   2.380   0.201   1.175  0.1967  0.4214  0.4112
 4487SOL    HW225095   2.325   0.128   1.296 -0.0742 -0.1850  1.3034
 4488SOL     OW25096   0.489   3.496   8.985 -0.4382 -0.3659  0.1807
 4488SOL    HW125097   0.479   3.590   9.004 -0.0050 -0.1260 -0.7787
 4488SOL    HW225098   0.495   3.461   9.074 -0.3088 -0.7928  0.0010
 4489SOL     OW25099   3.338   3.915  10.660  0.3124 -0.2220  0.1025
 4489SOL    HW125100   3.318   3.939  10.751  0.4612 -0.3472  0.1680
 4489SOL    HW225101   3.290   3.832  10.659  0.5204 -0.3146 -1.7992
 4490SOL     OW25102   0.641   0.288   4.065  0.2985  0.2219 -0.3526
 4490SOL    HW125103   0.636   0.375   4.104 -0.5527  0.6599 -1.4486
 4490SOL    HW225104   0.555   0.280   4.025  0.5214 -2.6606 -0.2337
 4491SOL     OW25105   3.908   2.780  10.930  0.0915 -0.0641  0.1572
 4491SOL    HW125106   3.907   2.705  10.990 -0.2510  0.4872  0.8427
 4491SOL    HW225107   3.816   2.782  10.905  0.2643 -1.3093 -0.6037
 4492SOL     OW25108   4.598   2.195  10.343 -0.4821  0.3092  0.1376
 4492SOL    HW125109   4.541   2.190  10.419  0.0196 -1.8619  0.3829
 4492SOL    HW225110   4.686   2.199  10.382  0.1155  0.5668 -1.2027
 4493SOL     OW25111   3.036   1.245   5.432  0.7217 -0.5094  0.0971
 4493SOL    HW125112   3.006   1.329   5.466 -2.4816 -0.9756 -1.5690
 4493SOL    HW225113   2.986   1.238   5.350 -0.3456  1.0102  0.6238
 4494SOL     OW25114   3.826   4.356   0.008  0.4174 -0.8830  0.1860
 4494SOL    HW125115   3.830   4.335   0.101  0.3864 -0.0547  0.3760
 4494SOL    HW225116   3.911   4.326  17.739 -0.0404  0.0324 -2.0986
 4495SOL     OW25117   0.123   0.532   3.948 -0.2800  0.0758 -0.4363
 4495SOL    HW125118   0.045   0.563   3.902  0.0551  2.5968  0.7547
 4495SOL    HW225119   0.153   0.611   3.992 -0.5309 -1.3324  2.2513
 4496SOL     OW25120   0.831   3.157  16.960  0.0476 -0.0789 -0.2455
 4496SOL    HW125121   0.926   3.160  16.974 -0.1192 -0.2212  0.9826
 4496SOL    HW225122   0.793   3.204  17.035 -3.8428  0.7287 -2.7376
 4497SOL     OW25123   4.684   2.434  14.534  0.2768 -0.2053  0.2362
 4497SOL    HW125124   0.027   2.390  14.520  1.3361  1.6969  0.5103
 4497SOL    HW225125   4.631   2.410  14.459  0.3453  0.4771 -0.0383
 4498SOL     OW25126   3.157   4.386   4.341 -0.1538 -0.0465  0.1205
 4498SOL    HW125127   3.248   4.370   4.317 -0.4865  2.1225 -2.6202
 4498SOL    HW225128   3.170   4.460   4.400 -1.8597  1.6270 -1.5968
 4499SOL     OW25129   3.124   2.060   8.735 -0.0602 -0.6794 -0.0746
 4499SOL    HW125130   3.172   2.009   8.670  1.0395 -1.9274  1.7443
 4499SOL    HW225131   3.131   2.004   8.812  0.8987 -0.1773  0.1990
 4500SOL     OW25132   2.385   1.410   8.663  0.1768 -0.0276 -0.1948
 4500SOL    HW125133   2.317   1.365   8.613 -0.7575  0.0548  1.0186
 4500SOL    HW225134   2.337   1.487   8.692 -1.8831 -2.3730  2.5988
 4501SOL     OW25135   0.538   2.983  13.485 -0.3721 -0.1154  0.4216
 4501SOL    HW125136   0.516   3.073  13.463 -2.6986 -0.8039 -0.0767
 4501SOL    HW225137   0.490   2.983  13.568 -0.0352  0.4849  0.6132
 4502SOL     OW25138   2.581   3.364  12.413  0.0407 -0.0562 -0.4806
 4502SOL    HW125139   2.609   3.350  12.323  0.3504 -0.0771 -0.3799
 4502SOL    HW225140   2.570   3.458  12.431 -2.0309 -0.1152 -1.4816
 4503SOL     OW25141   0.087   4.136   8.911  0.2255 -0.1514 -0.5904
 4503SOL    HW125142   0.059   4.191   8.837 -0.3954  0.2635 -0.0485
 4503SOL    HW225143   0.181   4.136   8.893  0.3960  0.7014  0.3141
 4504SOL     OW25144   4.334   3.080  16.760  0.1335 -0.0282  0.7616
 4504SOL    HW125145   4.304   3.167  16.783  1.2828  1.1910 -2.3267
 4504SOL    HW225146   4.362   3.057  16.849 -0.6134  0.2593  1.0735
 4505SOL     OW25147   2.004   3.485   2.708 -0.1029 -0.1069 -0.3303
 4505SOL    HW125148   2.036   3.575   2.705 -1.1789  0.2523 -0.9573
 4505SOL    HW225149   2.052   3.458   2.630 -0.3370 -0.7128 -0.2657
 4506SOL     OW25150   3.279   4.508   2.643 -0.2609 -0.4241 -0.4243
 4506SOL    HW125151   3.275   4.518   2.738  2.1443 -0.4255 -0.3403
 4506SOL    HW225152   3.202   4.560   2.618 -0.3404 -1.2344 -1.8627
 4507SOL     OW25153   0.446   4.357   4.609 -0.0553  0.3270  0.1503
 4507SOL    HW125154   0.383   4.313   4.667  0.0721  1.0608  0.8448
 4507SOL    HW225155   0.398   4.381   4.530  0.3067 -0.1055 -0.2020
 4508SOL     OW25156   0.199   2.782  13.439  0.3093 -0.8977  0.3462
 4508SOL    HW125157   0.165   2.862  13.479 -1.7677 -1.8911  0.5443
 4508SOL    HW225158   0.214   2.728  13.517  1.0814 -0.1034  0.7566
 4509SOL     OW25159   0.805   2.933   5.857  0.5202 -0.2893  0.3335
 4509SOL    HW125160   0.823   2.938   5.951 -0.7166  2.1003  0.4301
 4509SOL    HW225161   0.841   3.020   5.841  0.1460 -0.0508  0.7945
 4510SOL     OW25162   4.509   1.522   3.977 -0.6126  0.0480 -0.0769
 4510SOL    HW125163   4.489   1.469   3.900 -3.2356  1.4733 -0.3643
 4510SOL    HW225164   4.476   1.465   4.047  0.6104  1.2806  1.5253
 4511SOL     OW25165   4.535   1.371   6.710 -0.1457 -0.5622 -0.1227
 4511SOL    HW125166   4.567   1.461   6.714 -0.4842 -0.4945  1.0637
 4511SOL    HW225167   4.590   1.332   6.778  0.7809 -0.8705 -1.0571
 4512SOL     OW25168   1.135   4.098   6.642  0.3037  0.2274 -0.1753
 4512SOL    HW125169   1.185   4.024   6.607 -2.2017 -2.0379  1.0847
 4512SOL    HW225170   1.097   4.119   6.557 -0.7427 -2.4491 -0.3678
 4513SOL     OW25171   1.746   3.444   3.462 -0.0149 -0.4861  0.4079
 4513SOL    HW125172   1.654   3.467   3.452 -0.2152 -0.8854  1.3674
 4513SOL    HW225173   1.758   3.418   3.370 -1.6303  0.8918 -0.1816
 4514SOL     OW25174   2.055   1.641   2.628  0.3248 -0.1084 -0.2061
 4514SOL    HW125175   2.085   1.725   2.662 -1.2767  1.0165 -1.5791
 4514SOL    HW225176   1.961   1.660   2.634  0.3825 -0.0199  0.4125
 4515SOL     OW25177   1.159   3.444   3.555 -0.2647 -0.7144  0.2424
 4515SOL    HW125178   1.098   3.438   3.628 -1.1232 -0.3357 -0.4484
 4515SOL    HW225179   1.160   3.538   3.536 -0.1080 -1.2319 -2.3137
 4516SOL     OW25180   3.622   0.125  13.805 -0.4922  0.0228 -0.3328
 4516SOL    HW125181   3.597   0.178  13.730 -0.7750  1.3607  0.7037
 4516SOL    HW225182   3.704   0.164  13.837 -0.2680 -0.9625  0.2959
 4517SOL     OW25183   2.770   0.582  16.460 -0.3484  0.0447  0.7265
 4517SOL    HW125184   2.864   0.589  16.474 -0.0674  0.0782 -1.1164
 4517SOL    HW225185   2.758   0.642  16.386 -1.3877 -0.5508  0.4118
 4518SOL     OW25186   2.641   0.501  12.076 -0.1414 -0.0647 -0.2820
 4518SOL    HW125187   2.705   0.476  12.142 -0.6802  0.4992  0.4444
 4518SOL    HW225188   2.599   0.417  12.060 -0.3621  0.1255 -0.7212
 4519SOL     OW25189   0.592   4.066   6.648 -0.1834  0.2347  0.8829
 4519SOL    HW125190   0.544   4.011   6.710 -0.9057 -0.9613 -0.7405
 4519SOL    HW225191   0.674   4.085   6.693  0.6485 -0.1065 -0.4779
 4520SOL     OW25192   0.343   0.191   7.750 -0.7503 -0.0248  0.1785
 4520SOL    HW125193   0.345   0.285   7.770  1.2789 -0.1490  0.5169
 4520SOL    HW225194   0.253   0.176   7.780 -0.2427  1.5317  2.4616
 4521SOL     OW25195   0.391   1.822   8.086  0.1355  0.0353  0.2335
 4521SOL    HW125196   0.348   1.737   8.076  1.9420 -0.3559 -4.2247
 4521SOL    HW225197   0.351   1.847   8.169 -2.3181 -1.8369 -0.3388
 4522SOL     OW25198   3.191   0.723   1.547  0.4228  0.8687  0.0255
 4522SOL    HW125199   3.129   0.713   1.620  1.0530  1.1173  0.5929
 4522SOL    HW225200   3.166   0.650   1.491 -1.0672  0.2880  1.4227
 4523SOL     OW25201   2.689   1.768   5.018  0.3681  0.2991 -0.2755
 4523SOL    HW125202   2.662   1.745   4.929  0.4695  0.4641 -0.3500
 4523SOL    HW225203   2.609   1.744   5.063  0.4137 -0.5986 -0.6834
 4524SOL     OW25204   2.674   4.197  13.980  0.0658 -0.8310 -0.6275
 4524SOL    HW125205   2.758   4.225  13.943 -0.2679 -0.0814 -0.8114
 4524SOL    HW225206   2.678   4.106  14.009  1.5798 -0.4697  0.3203
 4525SOL     OW25207   1.698   1.641   8.251 -0.1983 -0.9362  0.3037
 4525SOL    HW125208   1.645   1.691   8.188  0.4309 -1.1133 -0.3637
 4525SOL    HW225209   1.727   1.710   8.311 -0.3059 -1.4728  0.9596
 4526SOL     OW25210   4.358   3.852   6.185  0.4634 -0.7213 -0.0066
 4526SOL    HW125211   4.400   3.868   6.100  1.3963 -1.2861  0.3510
 4526SOL    HW225212   4.329   3.762   6.167 -2.1648  0.2956 -0.7821
 4527SOL     OW25213   0.057   0.675  12.608 -0.1481  0.2267 -0.0749
 4527SOL    HW125214   0.142   0.640  12.632 -0.0522  1.5995  1.6135
 4527SOL    HW225215   0.016   0.703  12.690 -0.7761 -1.5104  0.1932
 4528SOL     OW25216   0.916   1.942  14.841 -0.2231 -0.5109 -0.0506
 4528SOL    HW125217   0.836   1.960  14.891  0.0413 -0.8419  0.4815
 4528SOL    HW225218   0.905   2.019  14.784 -1.9709 -1.0688 -0.4609
 4529SOL     OW25219   2.250   3.076   3.510 -0.3255  0.1784  0.4020
 4529SOL    HW125220   2.262   3.162   3.549  1.4359  0.2737 -0.3725
 4529SOL    HW225221   2.328   3.022   3.522 -0.2472  0.0462 -0.6603
 4530SOL     OW25222   0.300   2.672   6.174  0.1559 -0.7782  0.3949
 4530SOL    HW125223   0.332   2.755   6.139  0.2088 -0.5928  0.8833
 4530SOL    HW225224   0.354   2.606   6.129  1.8482  0.7149  0.2413
 4531SOL     OW25225   0.244   1.204   7.351  0.3551  0.3359  0.2279
 4531SOL    HW125226   0.193   1.198   7.270 -0.0452  2.0801  0.3532
 4531SOL    HW225227   0.338   1.205   7.331  0.2989  0.7760 -0.0223
 4532SOL     OW25228   0.431   3.737   3.650 -0.2610 -0.1633 -0.1942
 4532SOL    HW125229   0.425   3.721   3.556 -1.5035 -1.4503  0.0926
 4532SOL    HW225230   0.337   3.746   3.669  0.5819  0.1402  3.8586
 4533SOL     OW25231   4.364   3.492   3.048  0.6260 -0.0502  0.5715
 4533SOL    HW125232   4.335   3.581   3.068 -1.5570 -1.0090  1.6555
 4533SOL    HW225233   4.387   3.498   2.956  1.9705  1.3796  0.9853
 4534SOL     OW25234   1.975   1.292   8.337 -0.1766  0.6511  0.2137
 4534SOL    HW125235   1.907   1.307   8.271 -0.6417  2.9647  1.2297
 4534SOL    HW225236   1.973   1.366   8.397  2.0999  0.6521  0.3012
 4535SOL     OW25237   1.634   3.166   2.301  1.2319 -0.1617  0.2553
 4535SOL    HW125238   1.722   3.166   2.340  0.7566  0.7193  1.3005
 4535SOL    HW225239   1.628   3.257   2.274  1.7448  0.4336  2.1223
 4536SOL     OW25240   0.522   2.116   3.760  0.3744 -0.4053  0.1420
 4536SOL    HW125241   0.537   2.051   3.691  1.2318  0.4646 -0.5007
 4536SOL    HW225242   0.446   2.081   3.805  0.8352 -1.6525 -0.0424
 4537SOL     OW25243   1.389   0.872   2.405 -0.3321  0.2632 -0.2414
 4537SOL    HW125244   1.301   0.869   2.367 -0.5781 -0.8678  0.4063
 4537SOL    HW225245   1.375   0.823   2.486  1.0866  2.2645  1.2201
 4538SOL     OW25246   1.489   3.320   4.395  0.3162 -0.3866  0.5294
 4538SOL    HW125247   1.461   3.230   4.407  0.0702 -0.5685 -1.4005
 4538SOL    HW225248   1.435   3.377   4.450 -0.4785  0.3345 -1.0016
 4539SOL     OW25249   1.328   3.729   5.449  0.0076 -0.2202 -0.3255
 4539SOL    HW125250   1.358   3.702   5.536  1.8981  0.9751 -0.6151
 4539SOL    HW225251   1.393   3.693   5.389 -0.1955  0.3833 -0.9065
 4540SOL     OW25252   2.779   0.674   2.661 -0.0523  0.2096 -0.3629
 4540SOL    HW125253   2.793   0.760   2.622 -1.2565 -0.2338 -1.7611
 4540SOL    HW225254   2.833   0.674   2.740  2.8248  0.1198 -2.3201
 4541SOL     OW25255   1.406   2.272  11.569  0.8272 -0.3162  0.0117
 4541SOL    HW125256   1.474   2.338  11.561  1.1329 -0.7896 -1.4149
 4541SOL    HW225257   1.414   2.243  11.660  0.7337 -1.3963 -0.3277
 4542SOL     OW25258   4.737   3.350   6.681 -0.2005 -0.5063  0.2116
 4542SOL    HW125259   4.706   3.310   6.600  0.0552 -1.1788  0.4431
 4542SOL    HW225260   4.650   3.378   6.710  0.4015  1.7421 -0.1394
 4543SOL     OW25261   3.957   0.842  12.076 -0.1215  0.0338  0.1400
 4543SOL    HW125262   3.986   0.910  12.136 -0.8137 -1.6387  2.3895
 4543SOL    HW225263   4.011   0.860  11.999  1.2511  0.6873  1.2796
 4544SOL     OW25264   2.463   4.508   6.408 -0.3849 -0.5426 -0.1997
 4544SOL    HW125265   2.453   4.582   6.469  0.4863 -1.0443  0.5515
 4544SOL    HW225266   2.552   4.520   6.373 -1.0121 -0.9579 -1.9140
 4545SOL     OW25267   1.277   0.439   1.013 -0.6996  0.3992 -0.2735
 4545SOL    HW125268   1.347   0.383   0.980 -1.0127  0.3630 -0.8799
 4545SOL    HW225269   1.216   0.447   0.940 -0.9756  2.3696  0.1743
 4546SOL     OW25270   4.704   0.295  13.998  0.4228 -0.8388 -0.1618
 4546SOL    HW125271   0.019   0.330  13.928  1.9985 -2.7915  0.1276
 4546SOL    HW225272   4.675   0.213  13.958  1.1914  0.0432 -2.5108
 4547SOL     OW25273   2.894   4.676   5.130 -0.1591  0.2757 -0.2335
 4547SOL    HW125274   2.866   4.657   5.219 -1.5712 -2.7325 -1.2908
 4547SOL    HW225275   2.956   4.611   5.098 -0.8854 -0.6672  0.2903
 4548SOL     OW25276   4.721   4.644  17.189 -0.2995  0.3920  0.0879
 4548SOL    HW125277   4.698   4.567  17.137  0.9676 -0.2755  0.5007
 4548SOL    HW225278   0.073   4.653  17.166  0.0355  0.1667  1.3360
 4549SOL     OW25279   3.008   1.769  12.151  0.2932 -0.0350 -0.3818
 4549SOL    HW125280   3.056   1.852  12.142 -2.0020  1.3861  0.5900
 4549SOL    HW225281   3.071   1.705  12.183 -1.8297 -1.5044  0.8189
 4550SOL     OW25282   1.133   4.365  13.694  0.8706  0.1911  0.2356
 4550SOL    HW125283   1.105   4.342  13.606  3.4781  0.5815 -0.6875
 4550SOL    HW225284   1.084   4.298  13.743  0.6607  0.8421  0.9139
 4551SOL     OW25285   3.554   1.504   7.992  0.0691  0.0806  0.9149
 4551SOL    HW125286   3.513   1.420   7.969 -1.0940  1.5082 -2.2365
 4551SOL    HW225287   3.543   1.545   7.906 -0.6538  1.5491  1.7068
 4552SOL     OW25288   1.963   1.538  11.774  0.2271 -0.0453  0.1611
 4552SOL    HW125289   1.897   1.539  11.705  0.8270  1.2619 -0.4048
 4552SOL    HW225290   2.047   1.554  11.729 -0.7506 -0.0340 -1.6613
 4553SOL     OW25291   3.759   2.054   9.401 -0.8127 -0.5051 -0.1693
 4553SOL    HW125292   3.807   2.093   9.474  0.4274 -2.6545  0.1791
 4553SOL    HW225293   3.820   1.983   9.380  3.7022  3.6701 -1.1214
 4554SOL     OW25294   1.893   2.370   3.420 -0.9368  0.0979  0.0168
 4554SOL    HW125295   1.963   2.356   3.484  0.1438 -0.2952 -1.2366
 4554SOL    HW225296   1.850   2.285   3.413  0.6838 -0.5922 -1.6630
 4555SOL     OW25297   3.136   1.900  16.571  0.1043 -0.3814  0.4403
 4555SOL    HW125298   3.130   1.936  16.483 -1.8187  1.5093  1.3483
 4555SOL    HW225299   3.229   1.909  16.591  0.0731  0.9950 -0.0469
 4556SOL     OW25300   2.317   2.901  16.832  0.0830  0.7505  0.3993
 4556SOL    HW125301   2.271   2.917  16.750 -0.1620 -0.3269  0.3290
 4556SOL    HW225302   2.375   2.977  16.826  0.3476  0.8015  3.3665
 4557SOL     OW25303   4.600   3.231  16.763  0.0025 -0.2789 -0.9620
 4557SOL    HW125304   4.591   3.312  16.715  1.8268  1.3578  1.4599
 4557SOL    HW225305   4.530   3.174  16.730 -0.0485 -0.7713 -0.0324
 4558SOL     OW25306   4.144   4.418   0.300  0.1131 -0.6086  0.1978
 4558SOL    HW125307   4.164   4.488   0.239 -0.0337 -1.5763 -0.9509
 4558SOL    HW225308   4.053   4.447   0.306 -0.2855 -1.9400  0.6586
 4559SOL     OW25309   1.493   0.479   2.419 -0.0873  0.1021  0.0876
 4559SOL    HW125310   1.558   0.410   2.408  3.0700  2.6370  2.7483
 4559SOL    HW225311   1.525   0.512   2.504 -1.5571  0.3171  0.5606
 4560SOL     OW25312   2.447   1.760   2.871  0.3688 -0.4455  0.0642
 4560SOL    HW125313   2.438   1.845   2.827  0.9235 -0.1773  0.4765
 4560SOL    HW225314   2.360   1.721   2.860  0.3649 -0.4507  0.1142
 4561SOL     OW25315   1.918   1.466   4.810 -0.1192 -0.0681 -0.1176
 4561SOL    HW125316   1.855   1.411   4.857  1.0886  0.0977  1.6657
 4561SOL    HW225317   1.965   1.506   4.883 -1.4927 -0.2858  0.8953
 4562SOL     OW25318   3.416   0.272   6.366  0.4370 -0.0413 -0.0732
 4562SOL    HW125319   3.481   0.202   6.365  0.3382 -0.1324 -0.0291
 4562SOL    HW225320   3.447   0.341   6.425 -0.5731 -0.0896  0.5099
 4563SOL     OW25321   0.833   0.648   7.480 -0.3707  0.1925 -0.3481
 4563SOL    HW125322   0.746   0.671   7.446 -0.8436 -2.1866 -0.7261
 4563SOL    HW225323   0.857   0.568   7.433 -1.9642  0.2247 -1.2275
 4564SOL     OW25324   4.057   4.675   1.396 -0.3670 -0.0991  0.2393
 4564SOL    HW125325   3.986   4.702   1.455 -1.4020 -3.8987  0.7271
 4564SOL    HW225326   4.121   4.634   1.455  2.7285  0.7292 -2.5231
 4565SOL     OW25327   3.322   0.995  16.477  0.1791  0.0719  0.0687
 4565SOL    HW125328   3.412   1.000  16.446  1.3260 -2.6821  3.0480
 4565SOL    HW225329   3.340   1.011  16.570  0.1954  1.3276 -0.1476
 4566SOL     OW25330   1.870   4.635   5.989 -0.1323  0.0613 -0.2318
 4566SOL    HW125331   1.938   4.701   5.997  1.2165 -1.4573  0.8694
 4566SOL    HW225332   1.922   4.555   5.975 -2.4118 -0.9111 -3.0150
 4567SOL     OW25333   1.726   1.589   6.623  0.1366 -0.2583 -0.4838
 4567SOL    HW125334   1.660   1.622   6.562 -0.8211 -0.8417  0.2421
 4567SOL    HW225335   1.749   1.661   6.683 -1.5650 -1.4406  1.5894
 4568SOL     OW25336   0.871   0.895   2.983  0.0526  0.1417  0.6956
 4568SOL    HW125337   0.938   0.963   2.985  1.4319 -1.1446 -1.8653
 4568SOL    HW225338   0.800   0.944   2.943 -0.3444 -0.2934  0.8669
 4569SOL     OW25339   1.943   0.097   2.525 -0.0689 -0.2502 -1.0944
 4569SOL    HW125340   1.918   0.177   2.571  1.0673  0.6961 -2.1506
 4569SOL    HW225341   1.956   0.130   2.436 -2.0832  0.7947 -1.0161
 4570SOL     OW25342   0.629   2.238  14.670 -0.4989  0.0847 -0.5760
 4570SOL    HW125343   0.573   2.167  14.700 -0.2956  0.1001 -0.1552
 4570SOL    HW225344   0.606   2.245  14.578  1.3855 -0.5102 -1.0925
 4571SOL     OW25345   2.159   2.885   6.505 -0.1672 -0.1114 -0.0967
 4571SOL    HW125346   2.217   2.833   6.559  0.1540 -0.6089 -0.9127
 4571SOL    HW225347   2.200   2.874   6.419  0.7177  0.8413  0.2089
 4572SOL     OW25348   3.770   2.276   7.610 -0.7754 -0.5954  0.3692
 4572SOL    HW125349   3.833   2.314   7.672 -1.8910  0.4948  0.8335
 4572SOL    HW225350   3.688   2.309   7.647 -1.5400  0.1543 -2.0530
 4573SOL     OW25351   0.417   0.438   5.497 -0.1663  0.7727 -0.0463
 4573SOL    HW125352   0.457   0.396   5.573  1.1429 -0.2881 -1.3038
 4573SOL    HW225353   0.490   0.426   5.436  1.3245  1.0465  1.6795
 4574SOL     OW25354   1.237   2.768   1.198  0.0731  0.2185 -0.1914
 4574SOL    HW125355   1.251   2.850   1.151  1.1072 -0.6486 -1.3974
 4574SOL    HW225356   1.299   2.774   1.270  1.5943  0.7256 -1.5585
 4575SOL     OW25357   3.201   2.207   8.498  0.5163 -0.5616 -0.1249
 4575SOL    HW125358   3.253   2.287   8.492  0.7975 -0.6733  0.8210
 4575SOL    HW225359   3.135   2.241   8.559  0.1822 -0.5708 -0.4803
 4576SOL     OW25360   4.036   2.252   6.357 -0.7696  0.6149  0.0924
 4576SOL    HW125361   4.131   2.256   6.344 -0.9106 -2.1356 -1.8016
 4576SOL    HW225362   4.004   2.311   6.289  0.1607  1.4664  0.3918
 4577SOL     OW25363   4.624   0.929   9.012 -0.3153  0.1103 -0.6326
 4577SOL    HW125364   4.575   0.997   8.966 -1.6348  0.1083  0.7988
 4577SOL    HW225365   4.705   0.940   8.961  0.6580 -0.5600  0.7432
 4578SOL     OW25366   0.108   1.133   9.144  0.0859  0.8734  0.0233
 4578SOL    HW125367   0.070   1.181   9.071  2.2122  1.2419 -0.8342
 4578SOL    HW225368   0.132   1.048   9.106  0.7869  0.6775  0.9083
 4579SOL     OW25369   3.124   2.157   7.220 -0.0407 -0.2931  0.4918
 4579SOL    HW125370   3.185   2.226   7.247 -0.4027 -0.2987  1.3184
 4579SOL    HW225371   3.181   2.081   7.214  1.0221  0.4823  0.6637
 4580SOL     OW25372   1.570   0.524   5.551  0.3241 -0.0869  0.2989
 4580SOL    HW125373   1.582   0.487   5.638 -2.4683  1.0858  1.2190
 4580SOL    HW225374   1.474   0.524   5.553  0.3377  1.1228  1.1956
 4581SOL     OW25375   2.800   3.561  12.361  0.1295 -0.1969 -0.1213
 4581SOL    HW125376   2.845   3.601  12.435  0.2902  0.8472 -0.7881
 4581SOL    HW225377   2.852   3.481  12.353 -1.8885 -1.4596 -0.6437
 4582SOL     OW25378   0.675   4.454   6.667  0.4585  0.3818 -0.2898
 4582SOL    HW125379   0.691   4.508   6.745  0.4524  0.1645 -0.1361
 4582SOL    HW225380   0.722   4.504   6.601 -1.1508 -2.0699 -3.2665
 4583SOL     OW25381   4.480   1.398   0.768 -0.1360 -0.1905 -0.2211
 4583SOL    HW125382   4.544   1.381   0.837  1.5443 -0.8097 -1.9231
 4583SOL    HW225383   4.540   1.374   0.697 -1.0884 -1.0902 -0.7222
 4584SOL     OW25384   1.385   1.918   7.114 -0.7227 -0.2017  0.2684
 4584SOL    HW125385   1.291   1.898   7.115 -0.6701 -0.6375 -3.1147
 4584SOL    HW225386   1.398   1.954   7.202 -2.2795 -3.1713  1.7307
 4585SOL     OW25387   2.579   0.318   4.791 -0.0223  0.0702  0.4411
 4585SOL    HW125388   2.620   0.265   4.860 -1.1383 -2.0002 -0.4981
 4585SOL    HW225389   2.642   0.311   4.719  1.3376  1.6996  1.4749
 4586SOL     OW25390   3.340   2.087   9.200  0.2840 -0.2093  0.1290
 4586SOL    HW125391   3.340   2.021   9.270  1.0023 -0.5536 -0.1987
 4586SOL    HW225392   3.426   2.122   9.222 -0.2567  0.3539  1.3539
 4587SOL     OW25393   2.493   4.255  17.103  0.2419  0.4270 -0.0895
 4587SOL    HW125394   2.524   4.171  17.068 -1.5301 -0.4549  0.4333
 4587SOL    HW225395   2.403   4.234  17.129  1.0199 -2.1750  0.5502
 4588SOL     OW25396   2.082   2.199   6.747  0.1779  0.0382 -0.0199
 4588SOL    HW125397   2.038   2.151   6.818  1.2665 -0.6398  0.2022
 4588SOL    HW225398   2.044   2.285   6.763 -0.0490  0.0861 -0.8087
 4589SOL     OW25399   4.210   4.595  14.370  0.0858 -0.3854  0.0495
 4589SOL    HW125400   4.190   4.582  14.463  1.1002 -2.9722 -0.0776
 4589SOL    HW225401   4.291   4.548  14.351  0.4748  0.6559 -0.8618
 4590SOL     OW25402   0.849   0.552   6.332  0.2132 -0.3814  0.6291
 4590SOL    HW125403   0.881   0.476   6.381 -0.1185 -1.6414 -1.0681
 4590SOL    HW225404   0.884   0.629   6.376 -0.3118  0.9869 -1.3470
 4591SOL     OW25405   0.638   2.354   3.699 -0.1040 -0.1101 -0.0873
 4591SOL    HW125406   0.595   2.271   3.720 -0.1299 -0.7874 -2.8413
 4591SOL    HW225407   0.732   2.336   3.703 -0.1378 -0.6282 -1.4314
 4592SOL     OW25408   0.670   0.843   5.762 -0.3526 -0.6180  0.2295
 4592SOL    HW125409   0.689   0.854   5.855 -0.5816 -0.0619  0.2084
 4592SOL    HW225410   0.758   0.819   5.732 -0.3589 -2.3954  1.6574
 4593SOL     OW25411   0.788   4.096   3.664 -0.1107 -0.1636 -0.5122
 4593SOL    HW125412   0.755   4.132   3.746  1.1011 -1.9541  0.7750
 4593SOL    HW225413   0.755   4.006   3.665  1.9672 -0.9396 -0.4095
 4594SOL     OW25414   3.279   3.305   1.998  0.6578 -0.4661  0.2289
 4594SOL    HW125415   3.249   3.348   1.918  1.2045 -2.6840 -1.1759
 4594SOL    HW225416   3.197   3.298   2.047  1.1456 -0.2021  1.0774
 4595SOL     OW25417   3.360   2.789   8.641  0.1096  0.7990 -0.4348
 4595SOL    HW125418   3.312   2.721   8.688 -0.4725  1.0696 -0.6353
 4595SOL    HW225419   3.451   2.775   8.667 -0.5493 -0.9387  0.9598
 4596SOL     OW25420   2.819   3.990   8.671 -0.4556  0.1355  0.3931
 4596SOL    HW125421   2.898   4.034   8.700  1.6100 -0.8209 -3.8053
 4596SOL    HW225422   2.831   4.003   8.577  1.9393  1.8054  0.9243
 4597SOL     OW25423   0.147   3.613   4.177 -0.0289 -0.1141  0.4323
 4597SOL    HW125424   0.114   3.640   4.092  0.2299 -1.0690  0.0344
 4597SOL    HW225425   0.113   3.692   4.219  0.4641  0.9632 -1.1973
 4598SOL     OW25426   3.406   1.563   8.352  0.1504  0.5516 -0.3935
 4598SOL    HW125427   3.434   1.480   8.391  2.1013  2.0333  1.3106
 4598SOL    HW225428   3.387   1.623   8.424 -2.6596  0.2761 -0.9137
 4599SOL     OW25429   2.883   4.241   8.968 -0.7459 -0.2916 -0.1733
 4599SOL    HW125430   2.915   4.258   9.057 -2.4651 -1.0406  0.5992
 4599SOL    HW225431   2.796   4.206   8.989 -1.3375 -0.1644 -2.4557
 4600SOL     OW25432   3.240   3.623   3.825  0.2227  0.3901  0.0767
 4600SOL    HW125433   3.197   3.705   3.801 -2.9811 -1.2573  0.1805
 4600SOL    HW225434   3.231   3.560   3.753 -0.7883 -0.6769  1.1342
 4601SOL     OW25435   1.393   1.780  17.598 -0.1941  0.2016  0.2499
 4601SOL    HW125436   1.329   1.746  17.661 -1.6451  1.5704 -0.5008
 4601SOL    HW225437   1.469   1.722  17.598 -0.9711 -0.8136 -1.8666
 4602SOL     OW25438   4.184   0.022   5.634  0.0626 -0.0695  0.1326
 4602SOL    HW125439   4.261   0.079   5.640  1.6699 -2.2154 -0.3103
 4602SOL    HW225440   4.159   0.037   5.726  0.5684  1.4541  0.0224
 4603SOL     OW25441   2.084   0.642   7.261  0.2275 -0.5858  0.5306
 4603SOL    HW125442   1.996   0.613   7.282 -0.0087  0.4614  1.0097
 4603SOL    HW225443   2.125   0.556   7.258 -0.1589 -0.7514 -0.0763
 4604SOL     OW25444   1.257   2.859   7.454  0.6449  0.3715  0.3392
 4604SOL    HW125445   1.261   2.917   7.530  1.7864  3.7914 -2.3850
 4604SOL    HW225446   1.339   2.810   7.464 -0.1366 -0.8054  1.0421
 4605SOL     OW25447   1.074   3.192   1.597 -0.0311  0.1793 -0.0520
 4605SOL    HW125448   1.118   3.214   1.678  0.0072 -0.0320 -0.0158
 4605SOL    HW225449   1.116   3.252   1.536 -0.7760 -2.1085 -2.8286
 4606SOL     OW25450   2.341   0.154   0.963  0.6959  0.7094 -0.1472
 4606SOL    HW125451   2.419   0.196   0.926  2.2489  0.4124  2.8312
 4606SOL    HW225452   2.328   0.072   0.916 -0.4213  0.0360  1.3494
 4607SOL     OW25453   2.996   0.990  10.820  0.3137  0.9387  0.0640
 4607SOL    HW125454   3.086   0.998  10.788  0.2387 -2.0637 -0.9104
 4607SOL    HW225455   2.975   1.084  10.825 -0.9796  0.7528 -1.7282
 4608SOL     OW25456   0.310   2.421   4.084 -0.2055 -0.5341 -0.4457
 4608SOL    HW125457   0.240   2.486   4.096 -0.4159 -1.1184  1.6554
 4608SOL    HW225458   0.279   2.383   4.002  0.9578 -1.2469 -0.5461
 4609SOL     OW25459   4.617   0.550   5.016  0.1195  0.8547  0.2043
 4609SOL    HW125460   4.617   0.610   4.942  0.9030  1.2779  0.5426
 4609SOL    HW225461   4.686   0.589   5.070  0.7576  1.9152 -1.3786
 4610SOL     OW25462   1.835   3.451  10.459 -0.0571  0.2411 -0.5950
 4610SOL    HW125463   1.914   3.442  10.406  1.0851  0.6812  1.0729
 4610SOL    HW225464   1.804   3.362  10.477  1.5709 -0.4929 -1.3521
 4611SOL     OW25465   0.858   4.269   7.050 -0.4308 -0.5402 -0.0637
 4611SOL    HW125466   0.826   4.359   7.052  0.7864 -0.0717 -1.7113
 4611SOL    HW225467   0.953   4.273   7.039 -0.4036  1.1000  0.7663
 4612SOL     OW25468   3.629   0.465   5.645 -0.2845  0.1442  0.4869
 4612SOL    HW125469   3.546   0.440   5.686 -1.0927  0.6238 -0.8229
 4612SOL    HW225470   3.598   0.513   5.568 -2.2726 -3.0646 -0.7473
 4613SOL     OW25471   0.175   2.332   1.658 -0.1248 -0.5029 -0.5493
 4613SOL    HW125472   0.201   2.395   1.591  0.8444  1.8147  2.0156
 4613SOL    HW225473   0.084   2.322   1.629  0.3043 -2.0164 -1.4161
 4614SOL     OW25474   4.518   3.003   6.426 -0.2569  0.4018  0.3035
 4614SOL    HW125475   4.466   3.056   6.365 -2.8028 -1.5860  0.7286
 4614SOL    HW225476   4.509   3.055   6.506 -3.2419 -0.0838  0.3124
 4615SOL     OW25477   3.293   2.185   5.080 -0.2824 -0.2115  0.1503
 4615SOL    HW125478   3.304   2.091   5.097  3.0431  0.4805  1.8090
 4615SOL    HW225479   3.343   2.197   4.999  1.5611  0.1449  1.3607
 4616SOL     OW25480   0.232   3.329   5.477 -0.6788 -0.2418 -0.0234
 4616SOL    HW125481   0.270   3.245   5.453  0.7462  0.0829  1.1251
 4616SOL    HW225482   0.143   3.328   5.440 -1.4319 -2.4047  1.8517
 4617SOL     OW25483   1.536   1.555   2.012  0.2351  0.5202  0.2473
 4617SOL    HW125484   1.568   1.493   2.078 -1.5879 -0.0845  0.5639
 4617SOL    HW225485   1.586   1.634   2.035  0.0647  0.5128  0.6432
 4618SOL     OW25486   3.255   2.614   3.562  0.3770 -0.2496  0.4393
 4618SOL    HW125487   3.272   2.652   3.648 -0.1585  1.1030 -0.0521
 4618SOL    HW225488   3.318   2.544   3.543  0.1597  0.2627 -2.0951
 4619SOL     OW25489   4.044   4.268   8.520  0.1829  0.1546  0.1158
 4619SOL    HW125490   4.105   4.194   8.524  0.0155  0.0786  1.4103
 4619SOL    HW225491   4.105   4.335   8.550  0.0096 -0.0921  1.0174
 4620SOL     OW25492   3.608   3.797   1.352 -0.7966  0.6931 -0.0025
 4620SOL    HW125493   3.637   3.718   1.396  0.2836  1.7378  1.1490
 4620SOL    HW225494   3.669   3.862   1.387  1.5292 -1.3685 -0.2567
 4621SOL     OW25495   3.983   2.069   0.408 -0.7562  0.1860  0.1837
 4621SOL    HW125496   4.071   2.088   0.376 -1.1103  1.8835  0.1794
 4621SOL    HW225497   3.971   2.107   0.495  0.8092 -1.9231  1.3217
 4622SOL     OW25498   0.143   4.480  11.572  0.6424 -0.7547 -0.4873
 4622SOL    HW125499   0.088   4.501  11.648  0.3193 -3.1640 -0.0704
 4622SOL    HW225500   0.167   4.570  11.551  2.9394 -1.7869 -2.2228
 4623SOL     OW25501   1.566   3.192   6.423  0.3629  0.4022  0.3088
 4623SOL    HW125502   1.625   3.244   6.368 -0.7175  0.0244 -1.2216
 4623SOL    HW225503   1.589   3.105   6.390 -0.1237  0.4707 -0.2206
 4624SOL     OW25504   4.409   0.340   4.358  0.5747 -0.0225  0.1789
 4624SOL    HW125505   4.384   0.429   4.382  1.2222 -0.2117  1.5801
 4624SOL    HW225506   4.502   0.354   4.377  0.5490  0.4465 -0.0395
 4625SOL     OW25507   1.144   2.892  10.794  0.2564  0.0345  0.1433
 4625SOL    HW125508   1.146   2.900  10.889  1.5433  0.2317  0.0965
 4625SOL    HW225509   1.116   2.802  10.775 -2.0131  0.4857  1.3557
 4626SOL     OW25510   2.900   0.482   6.190 -0.3906 -0.4274 -0.2968
 4626SOL    HW125511   2.812   0.490   6.153  0.0504  0.9425 -1.0239
 4626SOL    HW225512   2.936   0.402   6.152 -0.9233  1.0239 -3.7927
 4627SOL     OW25513   1.791   2.061  12.407 -0.7729 -0.1311 -0.0650
 4627SOL    HW125514   1.831   2.126  12.464  1.7856 -0.4577 -1.4908
 4627SOL    HW225515   1.807   1.988  12.467 -0.0334 -1.6504 -2.1008
 4628SOL     OW25516   0.927   4.616   9.096  0.2381 -0.4676  0.8693
 4628SOL    HW125517   0.857   4.650   9.152 -2.0780 -1.4531 -1.4175
 4628SOL    HW225518   0.887   4.609   9.010  0.6724 -1.5030  0.7546
 4629SOL     OW25519   3.553   3.161  14.557  0.0621 -0.1272  0.1545
 4629SOL    HW125520   3.534   3.171  14.463  1.3900  0.5603 -0.0481
 4629SOL    HW225521   3.465   3.157  14.594 -0.3149 -0.3894 -0.7670
 4630SOL     OW25522   1.759   1.900  13.723 -0.1867 -0.0295 -0.4243
 4630SOL    HW125523   1.836   1.849  13.748  0.7469  2.2994  1.4724
 4630SOL    HW225524   1.713   1.880  13.805  2.5482 -1.2993  0.7931
 4631SOL     OW25525   0.157   4.095   9.165  0.0871 -0.1226 -0.1112
 4631SOL    HW125526   0.119   4.106   9.078 -0.9611 -1.3946  0.1828
 4631SOL    HW225527   0.172   4.002   9.178  0.0427 -0.2952 -1.2748
 4632SOL     OW25528   2.031   1.806   7.462  0.3212  0.3595  0.0880
 4632SOL    HW125529   1.982   1.888   7.471 -2.1305 -1.0146 -0.5446
 4632SOL    HW225530   1.995   1.765   7.541 -0.6930 -1.5926 -1.3968
 4633SOL     OW25531   4.404   3.480   3.799 -0.3973 -0.2912  0.0871
 4633SOL    HW125532   4.310   3.497   3.796  0.1161  2.5196  0.1353
 4633SOL    HW225533   4.436   3.558   3.753 -1.9587 -0.6480 -1.6180
 4634SOL     OW25534   1.356   0.348   1.534  0.4645  0.5909  0.4144
 4634SOL    HW125535   1.279   0.326   1.481  0.3772  2.7269 -0.3572
 4634SOL    HW225536   1.315   0.357   1.620 -2.1473 -2.4726 -0.4927
 4635SOL     OW25537   3.532   1.708   3.871 -0.0445  0.1000 -0.8410
 4635SOL    HW125538   3.459   1.652   3.899 -0.9488  1.5720 -0.1888
 4635SOL    HW225539   3.484   1.773   3.820 -0.4664  0.8295  0.4616
 4636SOL     OW25540   4.555   0.225  10.048  0.2769  0.1503 -0.2198
 4636SOL    HW125541   4.573   0.315  10.076 -2.3192  2.0536 -4.5626
 4636SOL    HW225542   4.580   0.230   9.955 -0.4045  2.0683 -0.3104
 4637SOL     OW25543   2.587   1.738  13.326 -0.1703 -0.0199  0.6893
 4637SOL    HW125544   2.526   1.804  13.293  0.2955  0.3039  0.4820
 4637SOL    HW225545   2.644   1.791  13.382  0.9071  0.9837 -1.3720
 4638SOL     OW25546   2.709   2.870   2.095  0.1655  0.2731 -0.1950
 4638SOL    HW125547   2.659   2.906   2.022 -0.9900 -2.7975 -0.9249
 4638SOL    HW225548   2.663   2.786   2.098 -0.4121  0.6847  2.2497
 4639SOL     OW25549   0.292   2.186   5.520  0.2370  0.0934 -0.0025
 4639SOL    HW125550   0.201   2.214   5.525  0.7789  1.6132  1.2892
 4639SOL    HW225551   0.303   2.138   5.603 -0.3940 -0.0073  0.0219
 4640SOL     OW25552   4.187   3.996  17.053 -0.4929  0.5964  0.0568
 4640SOL    HW125553   4.205   4.088  17.036 -0.6693  0.6737  0.2805
 4640SOL    HW225554   4.132   3.965  16.982 -0.5975  2.2094 -0.5584
 4641SOL     OW25555   4.095   1.241   7.128 -0.2316  0.1212  0.2952
 4641SOL    HW125556   4.131   1.285   7.051  1.6941  0.1865  1.2232
 4641SOL    HW225557   4.168   1.269   7.183 -1.1611 -2.1391  2.6574
 4642SOL     OW25558   0.837   3.155   9.231 -0.0268 -0.3861 -0.0098
 4642SOL    HW125559   0.927   3.128   9.250 -0.4485 -1.0992  0.8987
 4642SOL    HW225560   0.832   3.101   9.152 -1.3364 -0.6290  0.2518
 4643SOL     OW25561   0.136   3.692  17.753 -0.2242  0.1409 -0.0408
 4643SOL    HW125562   0.179   3.731   0.069  0.8188  0.8318 -0.9613
 4643SOL    HW225563   0.107   3.604   0.014 -1.5022  0.1894 -1.5693
 4644SOL     OW25564   1.194   2.430   9.026 -0.5843  0.1543  0.2206
 4644SOL    HW125565   1.264   2.365   9.020  0.4032  1.1654  0.9574
 4644SOL    HW225566   1.205   2.444   9.120  1.9938 -1.4905  0.1586
 4645SOL     OW25567   2.479   4.558  12.289 -0.0797  0.4341  0.4968
 4645SOL    HW125568   2.500   4.466  12.275 -0.0674  0.5439 -0.2098
 4645SOL    HW225569   2.538   4.591  12.221  1.8606 -0.0599  1.9608
 4646SOL     OW25570   4.554   3.801   5.300  0.0839  0.7416  0.5324
 4646SOL    HW125571   4.508   3.882   5.318 -0.5654  0.6701 -0.8361
 4646SOL    HW225572   4.499   3.742   5.352 -1.1636  1.3766 -0.0909
 4647SOL     OW25573   4.619   1.852   6.376 -0.0409  0.1049 -0.2998
 4647SOL    HW125574   4.715   1.848   6.372  0.0764  0.4114  2.7229
 4647SOL    HW225575   4.602   1.758   6.366 -1.3871  0.0058  2.9401
 4648SOL     OW25576   0.678   2.963  10.577  0.0080  0.4440 -0.1489
 4648SOL    HW125577   0.726   3.015  10.641  2.3257 -1.9373  0.0437
 4648SOL    HW225578   0.662   3.024  10.505 -2.1712  0.6031  0.4423
 4649SOL     OW25579   3.886   1.816   3.470 -0.0952 -0.2546 -0.0464
 4649SOL    HW125580   3.935   1.744   3.431  0.1457  0.4797 -1.1008
 4649SOL    HW225581   3.867   1.789   3.560  1.6114 -1.4472 -0.0465
 4650SOL     OW25582   2.317   4.118   3.302 -0.8725  0.1420  0.1406
 4650SOL    HW125583   2.287   4.030   3.322  2.1285 -0.7983  0.5347
 4650SOL    HW225584   2.314   4.114   3.206 -1.6224  2.2727  0.0758
 4651SOL     OW25585   3.282   0.258  13.450 -0.0976 -0.0133 -0.1527
 4651SOL    HW125586   3.192   0.246  13.419 -0.1995  1.3924 -0.3874
 4651SOL    HW225587   3.329   0.316  13.390  0.2600 -1.6583 -1.4495
 4652SOL     OW25588   0.602   1.151  16.159 -0.2166  0.1609 -0.4644
 4652SOL    HW125589   0.521   1.186  16.122 -0.1772  1.5945  0.8043
 4652SOL    HW225590   0.590   1.061  16.190 -1.7053  0.2173 -0.8734
 4653SOL     OW25591   2.481   1.460  14.625 -0.2983 -0.4697 -0.3893
 4653SOL    HW125592   2.466   1.515  14.701 -1.9479 -1.0303 -0.3161
 4653SOL    HW225593   2.519   1.383  14.668  2.6875  1.8043  0.9938
 4654SOL     OW25594   1.377   3.933   8.291  0.2459 -0.3854 -0.3518
 4654SOL    HW125595   1.290   3.941   8.251 -0.0156 -0.4553  0.1972
 4654SOL    HW225596   1.431   3.961   8.217 -0.3494  0.4375 -0.4778
 4655SOL     OW25597   2.980   1.338   0.109  0.1055 -1.1343  0.5929
 4655SOL    HW125598   2.998   1.266   0.047 -1.9651 -1.3244  0.2245
 4655SOL    HW225599   3.027   1.308   0.187  1.6059 -0.3907 -0.0155
 4656SOL     OW25600   1.919   3.212   1.081  0.2502  0.6729  0.7396
 4656SOL    HW125601   1.890   3.197   1.171  1.7874  0.3371  1.1915
 4656SOL    HW225602   1.902   3.306   1.074 -0.0538  0.5629 -0.0591
 4657SOL     OW25603   0.959   3.075   6.093  0.0861  0.3630 -0.3306
 4657SOL    HW125604   0.917   3.159   6.075 -1.3786  0.4053  3.2505
 4657SOL    HW225605   1.044   3.092   6.135 -0.9046  0.6826  1.5300
 4658SOL     OW25606   2.050   2.150  12.479  0.6133  0.1097  0.0279
 4658SOL    HW125607   2.118   2.151  12.411  0.3935  0.6027 -0.1890
 4658SOL    HW225608   2.062   2.240  12.508 -2.6433  1.1687 -1.8612
 4659SOL     OW25609   0.268   4.204   4.734  0.3671 -0.5233 -0.4861
 4659SOL    HW125610   0.308   4.226   4.818 -2.2879  1.8558  0.1785
 4659SOL    HW225611   0.258   4.109   4.740  0.1860 -0.4779 -0.0072
 4660SOL     OW25612   1.340   2.054   1.944 -0.1972  0.5241  0.4841
 4660SOL    HW125613   1.429   2.030   1.919  0.8804 -0.8645  5.6087
 4660SOL    HW225614   1.291   1.972   1.948 -0.4355  0.6373 -0.1458
 4661SOL     OW25615   2.436   3.171   9.049  0.1905  0.1945 -0.2356
 4661SOL    HW125616   2.380   3.248   9.061  1.5450  1.3435 -1.2966
 4661SOL    HW225617   2.504   3.201   9.109 -1.3508  1.6239  0.8271
 4662SOL     OW25618   2.285   1.004   7.171 -0.6452  0.0264 -0.0199
 4662SOL    HW125619   2.352   0.962   7.117 -0.0645 -0.0454  0.7546
 4662SOL    HW225620   2.302   1.094   7.143  2.3765 -0.3540  0.5685
 4663SOL     OW25621   4.548   1.525  11.550  0.2767  0.2823  0.1525
 4663SOL    HW125622   4.514   1.436  11.543 -0.4418  0.3988  2.0182
 4663SOL    HW225623   4.521   1.544  11.640  2.1695  0.7395  0.6198
 4664SOL     OW25624   3.901   3.182   8.010 -0.1569 -0.1617 -0.0022
 4664SOL    HW125625   3.871   3.181   8.101  1.2170  3.1704  0.4995
 4664SOL    HW225626   3.953   3.103   8.022  0.0442 -0.0365 -0.0462
 4665SOL     OW25627   2.546   1.231  14.746 -0.2547  0.2012  0.7843
 4665SOL    HW125628   2.479   1.181  14.793 -1.5195 -1.1189 -2.4109
 4665SOL    HW225629   2.619   1.230  14.808  0.0048 -0.0530  0.4819
 4666SOL     OW25630   1.411   2.788  17.572 -0.0992 -0.1376 -0.3286
 4666SOL    HW125631   1.340   2.768  17.512 -0.6502 -1.1864  0.6707
 4666SOL    HW225632   1.477   2.745  17.517  0.1230 -0.2021 -0.0139
 4667SOL     OW25633   3.632   0.301   1.101 -0.2054  0.0636  0.5288
 4667SOL    HW125634   3.556   0.244   1.092 -0.3953  0.4928 -0.5516
 4667SOL    HW225635   3.680   0.265   1.176 -1.1725 -0.7699  0.7378
 4668SOL     OW25636   4.588   3.333   5.271 -0.5054  0.5919  0.5346
 4668SOL    HW125637   4.614   3.345   5.179  0.8258 -2.7789  0.4657
 4668SOL    HW225638   4.645   3.256   5.273 -0.3737  0.6561 -0.7389
 4669SOL     OW25639   2.641   4.409   6.019  0.2419  0.4280  0.5889
 4669SOL    HW125640   2.615   4.376   6.105 -2.1623  0.5154 -0.1064
 4669SOL    HW225641   2.686   4.491   6.041 -0.2121  0.5174  1.1762
 4670SOL     OW25642   4.737   4.294   4.246  0.2776 -0.1499  0.6531
 4670SOL    HW125643   0.001   4.379   4.204  2.6101  0.0440  1.3141
 4670SOL    HW225644   4.672   4.327   4.308 -0.3000  1.8672 -1.0399
 4671SOL     OW25645   1.591   1.065   7.223  0.3793  0.0152 -0.2455
 4671SOL    HW125646   1.670   1.113   7.200  1.3856 -1.8428 -0.7041
 4671SOL    HW225647   1.545   1.144   7.251 -2.3857 -1.3343 -0.9746
 4672SOL     OW25648   0.809   4.139  10.297 -0.2523  0.1411 -0.3831
 4672SOL    HW125649   0.742   4.177  10.241  2.0194  3.2986 -0.9263
 4672SOL    HW225650   0.854   4.219  10.323  0.8441 -0.6612  0.1993
 4673SOL     OW25651   0.553   1.435   8.455 -0.2560 -0.0514 -0.0365
 4673SOL    HW125652   0.608   1.358   8.439 -0.8439 -0.3724 -0.5407
 4673SOL    HW225653   0.576   1.493   8.383 -0.3099  0.0214  0.0056
 4674SOL     OW25654   2.286   0.540   1.263 -0.3201  0.1771  0.7028
 4674SOL    HW125655   2.315   0.536   1.172 -1.8294 -0.2603  0.2429
 4674SOL    HW225656   2.288   0.447   1.286  0.9964  0.3057  1.0919
 4675SOL     OW25657   1.554   0.930  16.822 -0.4449  0.0412  0.8540
 4675SOL    HW125658   1.537   1.017  16.785  0.8123 -0.5681 -1.1291
 4675SOL    HW225659   1.498   0.885  16.758  1.7313 -1.8423  0.2921
 4676SOL     OW25660   3.115   1.115   6.344 -0.1242 -0.1904 -0.0991
 4676SOL    HW125661   3.038   1.167   6.366  0.5567  1.4251 -1.4938
 4676SOL    HW225662   3.102   1.133   6.251  0.4692  0.1641 -0.1134
 4677SOL     OW25663   2.428   2.890   7.369 -0.4359 -0.7753  0.2777
 4677SOL    HW125664   2.374   2.864   7.294 -0.1007 -1.1402  0.1668
 4677SOL    HW225665   2.407   2.981   7.391 -1.2604 -1.0251  0.5407
 4678SOL     OW25666   0.821   1.209   7.235 -0.2537 -0.4296  0.3054
 4678SOL    HW125667   0.797   1.142   7.171  0.1651 -0.3875  0.1063
 4678SOL    HW225668   0.853   1.275   7.173  1.3899  0.2154  1.8506
 4679SOL     OW25669   4.647   4.103   2.376  0.1609  0.3225  0.2173
 4679SOL    HW125670   4.726   4.088   2.428  0.3453  0.3605 -0.0497
 4679SOL    HW225671   4.599   4.020   2.387 -1.3565  1.0519 -0.9078
 4680SOL     OW25672   2.365   3.662   4.708  0.7167 -0.4396 -0.2560
 4680SOL    HW125673   2.319   3.709   4.777  0.3436 -0.7825 -0.2679
 4680SOL    HW225674   2.397   3.725   4.643  0.2118 -1.2721 -1.3212
 4681SOL     OW25675   2.234   1.586   2.822  0.2122  0.5449  0.0353
 4681SOL    HW125676   2.176   1.579   2.898 -1.7535  0.9423 -1.4269
 4681SOL    HW225677   2.170   1.596   2.752  0.3024  2.3444  0.2304
 4682SOL     OW25678   0.443   2.069  14.752  0.1609  0.1218  0.4156
 4682SOL    HW125679   0.361   2.055  14.706  0.1627 -1.2886  0.8358
 4682SOL    HW225680   0.426   2.016  14.830  0.1416 -0.8894 -0.2629
 4683SOL     OW25681   1.170   3.492   4.775  0.6267 -0.1789  0.1990
 4683SOL    HW125682   1.221   3.415   4.749  0.7070  0.3700 -1.2344
 4683SOL    HW225683   1.231   3.542   4.830  0.1129  0.0771  0.5363
 4684SOL     OW25684   0.797   2.268   9.152  1.1864  0.0375 -0.4857
 4684SOL    HW125685   0.803   2.282   9.247 -0.8744  1.8774 -0.6133
 4684SOL    HW225686   0.707   2.237   9.141  0.4611  0.9534  2.8370
 4685SOL     OW25687   3.044   0.340  13.284 -0.0643 -0.1258 -0.1277
 4685SOL    HW125688   3.053   0.415  13.342  0.4043  0.0638 -0.4484
 4685SOL    HW225689   3.007   0.270  13.339 -1.5423  0.7861  0.0427
 4686SOL     OW25690   0.603   3.808   2.541 -0.7358  0.4117  0.0927
 4686SOL    HW125691   0.538   3.760   2.594 -0.0435 -2.4930 -1.6758
 4686SOL    HW225692   0.660   3.736   2.515 -0.3893  0.9975 -0.7689
 4687SOL     OW25693   4.272   4.453   4.555 -0.3361  0.5598 -0.4296
 4687SOL    HW125694   4.276   4.494   4.642 -1.1646 -1.8575  0.7627
 4687SOL    HW225695   4.299   4.363   4.575 -1.1589  0.1526 -1.1891
 4688SOL     OW25696   0.719   0.309  16.044  0.4672 -0.5565 -0.5725
 4688SOL    HW125697   0.803   0.329  16.085 -0.3678  0.9968  0.3596
 4688SOL    HW225698   0.698   0.392  16.002  1.7615 -0.2267 -0.5783
 4689SOL     OW25699   4.717   2.224   4.527 -0.1028 -0.0148 -0.0878
 4689SOL    HW125700   4.648   2.200   4.465 -1.1814  0.6503  0.8670
 4689SOL    HW225701   0.020   2.283   4.466 -0.2816 -0.2197 -0.4147
 4690SOL     OW25702   0.592   2.030  13.752  0.1553 -0.0418 -0.3044
 4690SOL    HW125703   0.501   2.005  13.771 -0.3199  2.4355  0.6615
 4690SOL    HW225704   0.576   2.071  13.667 -0.4542 -1.7365 -1.0222
 4691SOL     OW25705   3.838   2.926   8.547 -0.2624 -0.0189 -0.2686
 4691SOL    HW125706   3.803   2.837   8.549 -0.7930  0.2726  4.4888
 4691SOL    HW225707   3.767   2.972   8.503  0.6377  1.1173 -0.5265
 4692SOL     OW25708   3.965   0.280   5.261  0.7033  0.6244 -0.7171
 4692SOL    HW125709   4.024   0.273   5.336  0.2473 -1.4570 -0.5592
 4692SOL    HW225710   3.979   0.367   5.223  0.1179  1.2765  0.5636
 4693SOL     OW25711   1.168   1.044   4.542 -0.2854  0.1046  0.4320
 4693SOL    HW125712   1.143   1.136   4.555  0.4675  0.5511 -1.3107
 4693SOL    HW225713   1.211   1.029   4.626  1.3042  0.8103 -0.2685
 4694SOL     OW25714   4.582   3.031  14.706 -0.0434 -0.3549 -0.1232
 4694SOL    HW125715   4.558   3.119  14.675  0.1132  0.3671  1.7755
 4694SOL    HW225716   4.667   3.019  14.664 -0.2531 -3.4546  0.3971
 4695SOL     OW25717   1.091   0.654   0.192 -0.0955  0.1975  0.2019
 4695SOL    HW125718   1.100   0.655   0.287  1.3327  1.4931  0.0483
 4695SOL    HW225719   1.091   0.747   0.171 -0.1785 -0.4760 -2.8544
 4696SOL     OW25720   0.864   3.760   5.085 -0.0740  0.1388  0.1492
 4696SOL    HW125721   0.944   3.772   5.137  0.0982 -1.6655  0.2859
 4696SOL    HW225722   0.799   3.778   5.154  0.9648 -0.3758  1.2640
 4697SOL     OW25723   3.570   3.370   8.371 -0.1933 -0.0737  0.1919
 4697SOL    HW125724   3.517   3.306   8.324  2.7794 -0.7226 -2.2380
 4697SOL    HW225725   3.659   3.350   8.344 -1.1858  0.8712 -3.7962
 4698SOL     OW25726   1.201   0.002   9.208  0.7543 -0.3888 -0.4781
 4698SOL    HW125727   1.164   0.019   9.294 -1.5272  4.0379 -2.3350
 4698SOL    HW225728   1.272   4.680   9.220 -0.2059 -1.5464 -0.7853
 4699SOL     OW25729   3.299   1.688   2.446 -0.1145 -0.0967  0.3349
 4699SOL    HW125730   3.297   1.775   2.485  1.1943  0.2377 -0.3590
 4699SOL    HW225731   3.388   1.686   2.411 -0.2273 -1.0225  0.1016
 4700SOL     OW25732   3.381   4.029   8.754  0.6426 -0.4845 -0.1379
 4700SOL    HW125733   3.408   4.070   8.837 -2.0800  1.6209 -0.2938
 4700SOL    HW225734   3.468   4.007   8.720 -0.5190 -0.4633 -3.0987
 4701SOL     OW25735   0.961   2.398   8.129 -0.2509 -0.4341 -0.1966
 4701SOL    HW125736   0.991   2.486   8.152 -3.1762  0.6567 -0.5182
 4701SOL    HW225737   1.043   2.351   8.143  1.6794  2.9680 -0.2541
 4702SOL     OW25738   3.802   0.325   3.672  0.4288 -0.2525  0.5176
 4702SOL    HW125739   3.792   0.392   3.603 -1.2343 -1.4809 -0.4304
 4702SOL    HW225740   3.743   0.370   3.732  1.4323  2.5777 -0.5958
 4703SOL     OW25741   4.559   0.064   8.660 -0.0834  0.1323  0.4431
 4703SOL    HW125742   4.475   0.088   8.699 -0.6805  1.6199 -1.7441
 4703SOL    HW225743   4.613   0.127   8.709 -0.8219  0.7505  0.4686
 4704SOL     OW25744   1.366   1.927   1.241 -0.0501  0.4640 -0.6582
 4704SOL    HW125745   1.340   1.843   1.205  0.4553 -0.5469  1.3155
 4704SOL    HW225746   1.390   1.903   1.331  1.1737  1.0222 -0.8298
 4705SOL     OW25747   2.888   2.951   3.487 -0.0814  0.5178  0.5751
 4705SOL    HW125748   2.982   2.969   3.480 -0.3670  1.5510 -0.5225
 4705SOL    HW225749   2.867   2.988   3.573  1.2358  1.5266  0.4508
 4706SOL     OW25750   2.331   2.422   0.997 -0.0759  0.1257 -0.1914
 4706SOL    HW125751   2.237   2.410   0.983 -0.1368  0.9008 -0.4660
 4706SOL    HW225752   2.357   2.330   1.001  0.1241  0.0997 -1.7530
 4707SOL     OW25753   3.970   3.352   5.438  0.0920  0.5332  0.5295
 4707SOL    HW125754   3.892   3.349   5.493  2.3426 -0.1000  3.6424
 4707SOL    HW225755   3.933   3.362   5.350 -2.1130  1.1169  1.5307
 4708SOL     OW25756   4.062   3.829   0.118 -0.4319 -0.2006  0.2747
 4708SOL    HW125757   4.102   3.894   0.060 -0.0547 -0.4763  0.2292
 4708SOL    HW225758   4.094   3.856   0.205 -0.9234 -0.2082  0.4562
 4709SOL     OW25759   1.126   3.621  12.111  0.0484  0.2575  0.1075
 4709SOL    HW125760   1.046   3.644  12.158 -0.3146 -1.4963  0.3218
 4709SOL    HW225761   1.145   3.703  12.065 -0.5749  1.1332  1.4144
 4710SOL     OW25762   0.643   1.776   0.798  0.1793  0.5383  0.2132
 4710SOL    HW125763   0.576   1.728   0.847  1.1704 -0.0881  0.9577
 4710SOL    HW225764   0.622   1.861   0.837 -0.5854  0.2974  0.3228
 4711SOL     OW25765   1.676   4.291  13.969 -0.2938  0.4947  0.7476
 4711SOL    HW125766   1.630   4.370  13.941  0.1557  0.2892 -0.6197
 4711SOL    HW225767   1.769   4.308  13.952  0.0620 -0.8990  1.3137
 4712SOL     OW25768   0.651   0.755   4.779 -0.2301 -0.3163 -0.1481
 4712SOL    HW125769   0.678   0.838   4.817  1.2561 -0.8049 -0.1331
 4712SOL    HW225770   0.684   0.690   4.842 -2.5653 -2.0830 -0.7328
 4713SOL     OW25771   1.963   4.498   6.422  0.1001  0.1262 -0.4020
 4713SOL    HW125772   1.980   4.423   6.365  0.1967  0.2017 -0.4732
 4713SOL    HW225773   2.023   4.562   6.383  2.3609 -2.2772 -0.8749
 4714SOL     OW25774   3.149   1.771  14.783 -0.1794  0.2386 -0.6513
 4714SOL    HW125775   3.232   1.735  14.813 -0.6375  1.4996  2.1792
 4714SOL    HW225776   3.159   1.861  14.815  0.0055  0.0954 -0.3095
 4715SOL     OW25777   0.931   1.291  11.507 -0.6241 -0.9194 -0.2203
 4715SOL    HW125778   0.934   1.245  11.591  0.2840  1.2020  0.9163
 4715SOL    HW225779   1.015   1.336  11.493 -0.9517  0.0118  0.7867
 4716SOL     OW25780   4.101   2.239   8.424  0.1742 -0.5803 -0.0417
 4716SOL    HW125781   4.150   2.297   8.365  0.0147  2.0073  2.3918
 4716SOL    HW225782   4.154   2.249   8.504 -0.9875 -0.7204  0.7350
 4717SOL     OW25783   1.680   1.969   2.768  0.6164  0.2116 -0.0779
 4717SOL    HW125784   1.593   2.009   2.756  0.8446  0.1014 -2.1942
 4717SOL    HW225785   1.723   2.042   2.812 -0.9973  1.9120 -1.2908
 4718SOL     OW25786   3.927   1.973   8.549 -0.1568 -0.2045  0.1594
 4718SOL    HW125787   3.868   1.988   8.622 -1.4138 -0.3216 -0.8383
 4718SOL    HW225788   3.886   2.023   8.479  0.8087  0.6901  0.2345
 4719SOL     OW25789   2.618   2.033   3.383  0.0407 -0.2999 -0.1901
 4719SOL    HW125790   2.657   2.008   3.299 -1.1239 -0.0015 -0.8171
 4719SOL    HW225791   2.676   1.996   3.449  0.9276 -0.9138 -1.3189
 4720SOL     OW25792   1.910   2.357   7.070  0.3854 -0.7850  0.4405
 4720SOL    HW125793   1.875   2.269   7.058  1.6460 -0.9993 -1.7527
 4720SOL    HW225794   1.827   2.398   7.094  0.8796  1.3540 -1.5996
 4721SOL     OW25795   0.270   2.463   3.102  0.6784 -0.0445  0.0107
 4721SOL    HW125796   0.198   2.426   3.152  1.7599  0.2933  1.8049
 4721SOL    HW225797   0.346   2.435   3.152  0.3690 -1.2990 -0.2227
 4722SOL     OW25798   4.513   1.323  13.525  0.1720  0.1577  0.0283
 4722SOL    HW125799   4.489   1.275  13.445  1.5596  0.7133 -0.7199
 4722SOL    HW225800   4.457   1.399  13.512  1.4646  0.7173 -2.3001
 4723SOL     OW25801   3.514   0.611   2.302 -0.2082  0.7540  0.4146
 4723SOL    HW125802   3.442   0.552   2.325 -0.4023  0.5847 -0.6462
 4723SOL    HW225803   3.514   0.598   2.207 -0.4937 -0.3578  0.5636
 4724SOL     OW25804   4.251   1.321   8.978  0.0728 -0.5258  0.0760
 4724SOL    HW125805   4.248   1.302   8.884  1.9863 -2.9381  0.4983
 4724SOL    HW225806   4.262   1.415   8.993  1.2102 -1.1284  3.0653
 4725SOL     OW25807   3.167   0.797   5.414  0.4619  0.1469  0.2614
 4725SOL    HW125808   3.223   0.767   5.342  0.9150 -0.9295  1.0683
 4725SOL    HW225809   3.156   0.713   5.458  0.6995  0.2131  0.4464
 4726SOL     OW25810   3.681   4.073   5.173 -0.5746 -0.4672  0.4856
 4726SOL    HW125811   3.634   4.037   5.098  1.2049 -0.1476 -0.7976
 4726SOL    HW225812   3.765   4.033   5.147  0.7185  2.4377  0.2429
 4727SOL     OW25813   2.289   4.059   4.049 -0.1986  0.1264  0.0246
 4727SOL    HW125814   2.326   4.123   4.110 -0.7177  0.4713 -0.0302
 4727SOL    HW225815   2.199   4.054   4.080 -0.8040 -0.3936 -1.8343
 4728SOL     OW25816   4.230   0.259   0.246  0.3155  0.3000  0.0746
 4728SOL    HW125817   4.144   0.220   0.260 -0.0554  1.0126 -0.2023
 4728SOL    HW225818   4.212   0.353   0.238  2.8666  0.7693 -0.2442
 4729SOL     OW25819   3.264   3.872  10.357 -0.1862 -0.2783 -0.2556
 4729SOL    HW125820   3.220   3.937  10.411 -1.4539 -2.0869  0.8468
 4729SOL    HW225821   3.344   3.921  10.337  0.2110 -0.9253 -0.2455
 4730SOL     OW25822   1.086   0.039   5.074  0.2558 -0.0599 -0.3030
 4730SOL    HW125823   1.025   4.735   5.133 -0.3969  0.5702 -0.4955
 4730SOL    HW225824   1.134   4.706   5.036 -0.4365  0.2840 -1.8426
 4731SOL     OW25825   2.657   3.332   7.125 -0.2070 -0.0070  0.3753
 4731SOL    HW125826   2.621   3.326   7.037  1.6048  2.9131 -0.5618
 4731SOL    HW225827   2.626   3.250   7.162 -0.7489  0.2107  0.4098
 4732SOL     OW25828   4.310   1.828   7.047  0.5668  0.2061  0.1615
 4732SOL    HW125829   4.220   1.842   7.077  0.7049  0.2933  0.5296
 4732SOL    HW225830   4.328   1.742   7.085  2.2979  1.1361  1.4393
 4733SOL     OW25831   0.376   1.893   3.881 -0.3878 -0.1766 -0.4484
 4733SOL    HW125832   0.397   1.810   3.839  0.0910  0.6497 -1.8379
 4733SOL    HW225833   0.363   1.868   3.973  3.2568  1.6313  0.5569
 4734SOL     OW25834   1.100   4.239   8.462  0.3947  0.5608  0.0975
 4734SOL    HW125835   1.194   4.231   8.445  0.5115  3.3300 -0.5067
 4734SOL    HW225836   1.074   4.158   8.507 -2.1435 -0.7568 -3.7811
 4735SOL     OW25837   2.081   1.868   7.970  0.2938 -0.5061 -0.2141
 4735SOL    HW125838   2.063   1.888   8.062  1.8194 -1.8530  0.3708
 4735SOL    HW225839   2.156   1.809   7.963 -0.4835 -1.2798 -1.8704
 4736SOL     OW25840   2.811   3.175   3.632 -0.3540 -0.2670  0.1033
 4736SOL    HW125841   2.802   3.256   3.582  0.5606  0.2667  0.7927
 4736SOL    HW225842   2.898   3.189   3.670 -0.3867 -0.3854  0.2227
 4737SOL     OW25843   3.190   1.184   5.080 -0.0572 -0.0583 -0.0700
 4737SOL    HW125844   3.240   1.106   5.101 -0.7389 -0.2109  0.9919
 4737SOL    HW225845   3.255   1.254   5.086  0.5093 -0.8117  2.7281
 4738SOL     OW25846   1.452   1.146   2.435  0.3750 -0.1515  0.1487
 4738SOL    HW125847   1.544   1.120   2.430 -0.1272 -1.7194 -1.0685
 4738SOL    HW225848   1.409   1.064   2.412  0.6542 -0.6953  1.5751
 4739SOL     OW25849   4.162   2.858   9.459  0.0114  0.5189  0.8166
 4739SOL    HW125850   4.201   2.916   9.393  0.7913 -0.5016  0.3869
 4739SOL    HW225851   4.114   2.916   9.518  0.9400 -0.7035  2.7688
 4740SOL     OW25852   3.415   0.409  11.991 -0.3194  0.4838 -0.3853
 4740SOL    HW125853   3.374   0.474  12.049 -0.1509 -1.2805  1.6861
 4740SOL    HW225854   3.348   0.402  11.923  0.4463 -3.0746 -0.7347
 4741SOL     OW25855   2.186   1.067   0.527 -0.4069 -0.3883  0.1512
 4741SOL    HW125856   2.277   1.059   0.497 -0.8235 -0.0000 -1.1849
 4741SOL    HW225857   2.165   0.979   0.559 -0.1025 -0.1809  0.9453
 4742SOL     OW25858   2.565   2.847  17.270 -0.4018  0.4875 -0.4032
 4742SOL    HW125859   2.470   2.836  17.269 -0.3648  0.1320 -0.1996
 4742SOL    HW225860   2.580   2.911  17.339  1.4417  0.6816 -0.9745
 4743SOL     OW25861   0.646   0.904  10.654  0.5297  0.0192 -1.0549
 4743SOL    HW125862   0.722   0.952  10.687  0.0531 -0.0450  0.1282
 4743SOL    HW225863   0.640   0.837  10.721 -0.2342  0.0294 -1.1169
 4744SOL     OW25864   3.556   0.908  11.099 -0.3640 -0.4656  0.5335
 4744SOL    HW125865   3.634   0.934  11.049 -1.0519 -2.3926 -1.5395
 4744SOL    HW225866   3.592   0.913  11.188  2.7771  0.5471 -0.7662
 4745SOL     OW25867   4.565   3.121   9.195  0.3397 -0.1803  0.2946
 4745SOL    HW125868   4.635   3.183   9.172 -0.0201 -0.0792 -0.5406
 4745SOL    HW225869   4.606   3.074   9.267 -0.2861 -0.3164  0.5595
 4746SOL     OW25870   0.492   3.262  12.883 -0.2045  0.1467 -0.3652
 4746SOL    HW125871   0.433   3.296  12.950 -0.1382  3.5598 -2.0587
 4746SOL    HW225872   0.515   3.340  12.833  0.6369 -0.9215 -1.6468
 4747SOL     OW25873   4.315   4.452   2.533 -0.2828  0.3953  0.0428
 4747SOL    HW125874   4.281   4.436   2.445  2.4616  0.5357 -1.0432
 4747SOL    HW225875   4.398   4.404   2.525  0.9464  2.5147  0.1427
 4748SOL     OW25876   4.460   2.915  12.057 -0.6670 -0.4147 -0.0922
 4748SOL    HW125877   4.407   2.990  12.084 -0.1886 -0.3320  0.6200
 4748SOL    HW225878   4.497   2.892  12.142  0.6641 -0.6650 -0.7406
 4749SOL     OW25879   0.494   3.440   0.816 -0.2933 -0.0314 -0.1511
 4749SOL    HW125880   0.509   3.434   0.722 -1.3751  4.3905 -0.5670
 4749SOL    HW225881   0.407   3.400   0.822  0.3933 -1.4757  0.3303
 4750SOL     OW25882   4.650   1.546   5.487 -0.1408  0.2228  0.4030
 4750SOL    HW125883   4.593   1.531   5.562 -0.3889 -0.4958  0.0735
 4750SOL    HW225884   4.736   1.514   5.516 -1.6288 -1.7242  2.6335
 4751SOL     OW25885   4.705   4.374   9.511 -0.1316  0.3360  0.1746
 4751SOL    HW125886   4.612   4.377   9.487 -0.1672 -0.9068  0.1854
 4751SOL    HW225887   4.740   4.417   9.432  1.8414 -0.4094  0.6492
 4752SOL     OW25888   2.117   1.047   6.628  0.2839 -0.1525  0.1552
 4752SOL    HW125889   2.057   1.114   6.594  1.1657  0.4484 -0.1980
 4752SOL    HW225890   2.068   0.965   6.629 -0.6536  0.4127  1.8164
 4753SOL     OW25891   0.299   0.253  13.178  0.5127 -0.2780  0.5505
 4753SOL    HW125892   0.261   0.293  13.256 -0.0708  2.2251 -0.9954
 4753SOL    HW225893   0.346   0.179  13.214  0.8444  0.6339  1.9741
 4754SOL     OW25894   1.302   0.167   3.594 -0.4097  0.5678  0.3633
 4754SOL    HW125895   1.332   0.250   3.558 -1.3251  0.4545 -0.6436
 4754SOL    HW225896   1.348   0.109   3.533 -1.5723  1.3414 -1.2658
 4755SOL     OW25897   4.306   1.730   6.395  0.5089  0.2933  0.1460
 4755SOL    HW125898   4.342   1.641   6.388 -1.7208 -0.7431  1.8820
 4755SOL    HW225899   4.292   1.733   6.490  0.9450 -0.1563  0.2236
 4756SOL     OW25900   1.617   1.135  16.165  0.9783  0.1869  0.0844
 4756SOL    HW125901   1.673   1.092  16.229  0.0412 -0.9056  0.1797
 4756SOL    HW225902   1.543   1.139  16.226 -0.2266  1.9716 -1.4426
 4757SOL     OW25903   1.850   2.726  12.620  0.1046 -0.6652 -0.2520
 4757SOL    HW125904   1.836   2.820  12.605  1.1474 -0.1524  2.0360
 4757SOL    HW225905   1.940   2.733  12.651  0.0449  1.0973 -0.4565
 4758SOL     OW25906   3.984   3.431   7.997 -0.8283 -0.0896 -0.1590
 4758SOL    HW125907   3.923   3.358   8.007  0.5141 -1.2086 -0.0368
 4758SOL    HW225908   3.981   3.457   8.089 -1.0096 -3.2348  0.7115
 4759SOL     OW25909   1.376   0.498   8.900 -0.0154  0.3439 -0.5417
 4759SOL    HW125910   1.411   0.584   8.875 -0.2870  1.1831  1.9594
 4759SOL    HW225911   1.313   0.521   8.968  0.3657 -0.2704  0.0158
 4760SOL     OW25912   4.273   2.061   9.254  0.0187 -0.2736  0.4827
 4760SOL    HW125913   4.274   2.148   9.294  2.9084  0.0383 -0.2772
 4760SOL    HW225914   4.244   2.067   9.163  3.2963 -1.5865 -0.6472
 4761SOL     OW25915   0.495   0.514   2.905  0.3324  0.1015 -0.4315
 4761SOL    HW125916   0.484   0.532   2.998  1.3606  0.8714 -0.4609
 4761SOL    HW225917   0.568   0.573   2.889 -0.2537  1.3199  1.4206
 4762SOL     OW25918   1.307   3.138  16.366 -0.4655  0.7348 -0.5822
 4762SOL    HW125919   1.240   3.070  16.359 -0.1664  0.3066  0.6770
 4762SOL    HW225920   1.297   3.180  16.281  1.1973  1.4282 -0.4412
 4763SOL     OW25921   1.804   0.215  17.333  0.1435  0.1796  0.4246
 4763SOL    HW125922   1.801   0.123  17.308 -0.1708 -0.1558  1.7072
 4763SOL    HW225923   1.712   0.237  17.322  0.3247  0.8001  0.1079
 4764SOL     OW25924   1.740   3.715   3.202 -0.1166  0.6686 -0.2153
 4764SOL    HW125925   1.795   3.777   3.154 -2.6637  1.8181 -1.6182
 4764SOL    HW225926   1.671   3.772   3.235  0.0846  0.2414  0.9462
 4765SOL     OW25927   3.291   2.459   1.398 -0.1738  0.0413  0.1337
 4765SOL    HW125928   3.340   2.394   1.347  0.1005 -0.9585  1.6766
 4765SOL    HW225929   3.365   2.488   1.451  2.2008 -0.9380 -2.6104
 4766SOL     OW25930   1.357   4.441   5.298  0.2312 -0.2060 -0.2079
 4766SOL    HW125931   1.374   4.413   5.209  0.6407  2.2648 -0.9152
 4766SOL    HW225932   1.274   4.394   5.309  0.5951 -1.4141 -2.6298
 4767SOL     OW25933   3.803   3.899   8.824  0.0797 -0.5087  0.4742
 4767SOL    HW125934   3.742   3.842   8.870 -2.1342  1.5095  0.0595
 4767SOL    HW225935   3.734   3.922   8.761 -0.3250 -1.2024  0.6598
 4768SOL     OW25936   1.173   1.724   8.793  0.2001 -0.2601 -0.1104
 4768SOL    HW125937   1.123   1.794   8.835 -3.4134 -0.2315 -4.4151
 4768SOL    HW225938   1.112   1.650   8.799 -1.8605  1.4433  0.2485
 4769SOL     OW25939   3.584   4.550   7.847  0.0880  0.1355 -0.6254
 4769SOL    HW125940   3.619   4.563   7.935 -0.5610  3.2144 -0.8046
 4769SOL    HW225941   3.638   4.476   7.819  1.3671  0.6611  0.4460
 4770SOL     OW25942   4.122   2.242   5.567 -0.2349  0.0026  0.1356
 4770SOL    HW125943   4.068   2.187   5.510  1.2695  0.8168 -2.0447
 4770SOL    HW225944   4.084   2.216   5.651 -1.4103 -0.5813 -0.5859
 4771SOL     OW25945   2.734   1.858  14.549  0.4238 -0.3932  0.8202
 4771SOL    HW125946   2.743   1.772  14.507  1.0842  0.1956 -0.2452
 4771SOL    HW225947   2.754   1.906  14.469 -0.7874  0.7465  1.1992
 4772SOL     OW25948   0.235   3.995   8.209 -0.4139 -0.3224  0.0055
 4772SOL    HW125949   0.184   4.028   8.282 -2.8048 -1.8505 -0.9865
 4772SOL    HW225950   0.164   3.949   8.165 -0.5016 -0.7005  0.5603
 4773SOL     OW25951   4.628   0.417  16.803  0.4531 -0.7495  0.0591
 4773SOL    HW125952   4.588   0.423  16.890  3.6370 -1.4034  1.5686
 4773SOL    HW225953   4.577   0.352  16.755  0.3074 -1.5454  1.3146
 4774SOL     OW25954   2.525   2.076   5.080  0.0041  0.5283 -0.1458
 4774SOL    HW125955   2.441   2.071   5.034  1.0084 -1.7502 -1.7212
 4774SOL    HW225956   2.491   2.045   5.164  1.7190  1.0103  0.7262
 4775SOL     OW25957   3.273   3.323   9.595 -0.0735 -0.1206 -0.0095
 4775SOL    HW125958   3.248   3.332   9.687 -3.7948 -0.7211 -0.9554
 4775SOL    HW225959   3.295   3.412   9.566  2.0155 -0.2626  1.1573
 4776SOL     OW25960   1.390   0.335   9.351  0.0551  0.2167 -0.1438
 4776SOL    HW125961   1.472   0.382   9.337  0.5547 -0.0237  1.9970
 4776SOL    HW225962   1.382   0.350   9.445  1.6296 -2.8986  0.4777
 4777SOL     OW25963   3.909   1.547   8.344  0.3483  0.5962  0.2722
 4777SOL    HW125964   3.828   1.569   8.298  0.1986  0.8757  0.6678
 4777SOL    HW225965   3.949   1.495   8.275  3.0498  3.0808 -0.0073
 4778SOL     OW25966   1.503   0.031   2.654 -0.2097 -0.1252 -0.0398
 4778SOL    HW125967   1.571   0.082   2.698 -0.3892 -0.1199  0.2324
 4778SOL    HW225968   1.549   0.029   2.570 -0.7982 -1.6774 -0.3331
 4779SOL     OW25969   0.322   4.305   4.979 -0.1546  0.1163 -0.6155
 4779SOL    HW125970   0.382   4.340   5.045 -0.3153 -1.6189  0.4761
 4779SOL    HW225971   0.291   4.388   4.944 -1.1580 -0.2764 -0.6579
 4780SOL     OW25972   0.537   1.850  14.256 -0.2582 -0.0590 -0.6059
 4780SOL    HW125973   0.455   1.859  14.207 -1.5644 -1.8205  1.2474
 4780SOL    HW225974   0.591   1.805  14.191 -0.9308 -1.2847 -0.3281
 4781SOL     OW25975   3.052   4.451   5.971 -0.2765  0.2526  0.0394
 4781SOL    HW125976   3.095   4.415   5.894 -0.5428  1.2922 -0.5912
 4781SOL    HW225977   2.990   4.380   5.988 -2.4883  2.0656 -0.3332
 4782SOL     OW25978   2.087   0.122   4.834  0.4801  0.0394 -0.3724
 4782SOL    HW125979   2.002   0.160   4.810 -1.3911 -2.3610  2.4380
 4782SOL    HW225980   2.154   0.188   4.849 -0.3382  0.5970  0.7690
 4783SOL     OW25981   3.825   4.278   0.274  0.6233  0.3298 -0.2512
 4783SOL    HW125982   3.754   4.341   0.263 -0.7384 -1.0920  0.4867
 4783SOL    HW225983   3.778   4.199   0.300 -0.3486  0.9192 -0.2025
 4784SOL     OW25984   4.335   0.188   7.263  0.2042  0.1504  0.4437
 4784SOL    HW125985   4.344   0.094   7.279  0.2411  0.3546  1.6492
 4784SOL    HW225986   4.276   0.215   7.333 -0.2745  0.2921 -0.0107
 4785SOL     OW25987   0.051   4.719   6.895  0.0352 -0.1194 -0.8003
 4785SOL    HW125988   0.007   4.669   6.825 -1.3075  2.2257 -1.6330
 4785SOL    HW225989   0.112   4.656   6.933 -0.4612 -0.7046 -0.9694
 4786SOL     OW25990   1.269   1.783  11.422 -0.3172 -0.3861  0.0374
 4786SOL    HW125991   1.348   1.785  11.475 -0.0702  0.2025 -0.3547
 4786SOL    HW225992   1.206   1.762  11.491 -0.3682  3.0793  1.0336
 4787SOL     OW25993   2.194   1.304  11.780  0.5825  0.0818  0.3401
 4787SOL    HW125994   2.269   1.363  11.780  0.4011  0.3573 -2.7843
 4787SOL    HW225995   2.143   1.334  11.855 -0.7413 -0.3333 -0.3834
 4788SOL     OW25996   2.132   3.856   8.669  0.0471 -0.2577  0.6149
 4788SOL    HW125997   2.126   3.834   8.576  2.9463  1.4943  0.0119
 4788SOL    HW225998   2.225   3.840   8.688  0.2722  0.4750  0.1448
 4789SOL     OW25999   3.498   0.071   5.093 -0.0492 -0.1582  0.1446
 4789SOL    HW126000   3.489   0.003   5.159 -0.2288 -0.0692  0.2097
 4789SOL    HW226001   3.591   0.091   5.101 -0.3132  0.7711  0.7596
 4790SOL     OW26002   1.476   4.727   7.528 -0.2348  0.6942 -0.2730
 4790SOL    HW126003   1.460   0.076   7.557  0.3017  0.7959 -0.2894
 4790SOL    HW226004   1.449   4.672   7.601  0.9922  1.8757  1.0548
 4791SOL     OW26005   1.958   0.992   0.904 -0.1059  0.0577 -0.0057
 4791SOL    HW126006   1.927   0.904   0.926  1.5048 -1.0354 -2.0999
 4791SOL    HW226007   2.033   0.999   0.962 -0.7875  3.0400  0.5519
 4792SOL     OW26008   0.306   1.186   8.601  0.0249  0.4246  0.2240
 4792SOL    HW126009   0.308   1.279   8.579 -0.6685  0.6061  0.9243
 4792SOL    HW226010   0.337   1.188   8.692  3.4877 -2.4654 -0.8798
 4793SOL     OW26011   0.189   1.363   8.227 -0.4513 -0.6337  0.5429
 4793SOL    HW126012   0.160   1.349   8.317 -1.1828  0.4043  0.4694
 4793SOL    HW226013   0.229   1.278   8.209 -0.6033 -0.6492  0.2765
 4794SOL     OW26014   2.936   3.181   6.374  0.0179 -0.2997  0.6711
 4794SOL    HW126015   2.994   3.256   6.360 -1.8233  0.8084 -1.0237
 4794SOL    HW226016   2.999   3.123   6.417 -0.1706 -0.0042  1.3322
 4795SOL     OW26017   3.946   0.584   6.581 -0.2420  0.3041 -0.2293
 4795SOL    HW126018   3.961   0.532   6.659 -2.0832 -0.6645 -0.5312
 4795SOL    HW226019   3.995   0.659   6.615  0.6353 -1.2126  1.8394
 4796SOL     OW26020   0.355   2.366   1.367  0.2655  0.0554  0.1277
 4796SOL    HW126021   0.342   2.339   1.276 -1.9451  0.2989  0.3619
 4796SOL    HW226022   0.287   2.433   1.363 -0.6568 -1.0348 -2.4834
 4797SOL     OW26023   3.033   3.812  14.953 -0.4173  0.4689  0.5364
 4797SOL    HW126024   2.972   3.843  14.886 -0.9624  1.6005  1.5462
 4797SOL    HW226025   3.030   3.899  14.993 -2.1405  0.0390  1.3622
 4798SOL     OW26026   0.876   4.086   6.814  0.2086  0.5679 -0.4143
 4798SOL    HW126027   0.862   4.121   6.902 -0.3897 -2.3058  0.6335
 4798SOL    HW226028   0.963   4.118   6.788 -0.0060  0.1754 -1.6241
 4799SOL     OW26029   1.807   2.786   5.951 -0.5802  0.1214 -0.3802
 4799SOL    HW126030   1.756   2.867   5.942 -1.4184 -0.1538  2.0204
 4799SOL    HW226031   1.752   2.714   5.921 -0.0585  1.3012 -4.1607
 4800SOL     OW26032   3.714   0.377   6.279 -0.0820 -0.4082 -0.6155
 4800SOL    HW126033   3.734   0.445   6.214  1.4815 -0.1054  0.1876
 4800SOL    HW226034   3.798   0.332   6.271  1.3406  2.4798 -2.3635
 4801SOL     OW26035   0.417   2.078   5.743  0.5774 -0.3209 -0.4954
 4801SOL    HW126036   0.461   2.117   5.818  2.0251 -2.4346 -0.2410
 4801SOL    HW226037   0.398   1.992   5.779  2.0104  0.6186  2.4739
 4802SOL     OW26038   2.133   4.575  15.616  0.0896 -0.3931 -0.3083
 4802SOL    HW126039   2.187   4.522  15.675  0.0918  1.7998  1.6092
 4802SOL    HW226040   2.142   4.665  15.645 -0.6852 -0.9257  1.5742
 4803SOL     OW26041   3.588   2.980   7.986 -0.1671 -0.2328  0.0645
 4803SOL    HW126042   3.664   2.978   8.044 -1.0567 -0.7946  1.2020
 4803SOL    HW226043   3.538   2.909   8.026 -0.0694 -0.0075  0.5813
 4804SOL     OW26044   2.281   4.315  15.152  0.1030 -0.3657  0.1411
 4804SOL    HW126045   2.269   4.319  15.247 -2.0028 -0.0924 -0.1295
 4804SOL    HW226046   2.338   4.390  15.132 -0.9663  0.8233  1.5366
 4805SOL     OW26047   3.724   3.863   7.997  0.0617  0.2860 -0.2649
 4805SOL    HW126048   3.803   3.865   8.051 -1.8756  0.4362  2.5619
 4805SOL    HW226049   3.669   3.819   8.061 -0.0015 -0.8618 -1.1145
 4806SOL     OW26050   1.022   0.666  10.149 -0.6151  0.3962  0.7798
 4806SOL    HW126051   1.106   0.692  10.110 -0.9605 -1.2875 -1.0553
 4806SOL    HW226052   0.969   0.690  10.073 -1.3463 -0.0966  1.1405
 4807SOL     OW26053   0.930   0.570   2.170 -0.6945 -0.2965 -0.4343
 4807SOL    HW126054   0.887   0.619   2.100  0.9907  0.0403 -1.2417
 4807SOL    HW226055   0.924   0.622   2.250  1.1659  0.1551 -0.5837
 4808SOL     OW26056   0.203   1.129  17.079 -0.4982 -0.3712 -0.1997
 4808SOL    HW126057   0.261   1.055  17.091  0.3686  0.0433 -1.9800
 4808SOL    HW226058   0.223   1.159  16.991  0.3235  0.3632  0.2319
 4809SOL     OW26059   0.652   1.865  16.112 -0.0638  0.2995 -0.2021
 4809SOL    HW126060   0.696   1.946  16.085  0.5721  0.2437  0.6840
 4809SOL    HW226061   0.599   1.906  16.180  0.9801 -1.9776  1.9713
 4810SOL     OW26062   3.613   2.697   4.158  0.6903 -0.4306 -0.3160
 4810SOL    HW126063   3.545   2.660   4.102 -0.1149  1.2694 -0.4833
 4810SOL    HW226064   3.599   2.659   4.245 -1.8185 -1.2840 -1.1024
 4811SOL     OW26065   2.032   4.340   1.758 -0.2357  0.4396 -0.0223
 4811SOL    HW126066   2.017   4.386   1.840  0.2231 -0.1998  0.4225
 4811SOL    HW226067   2.090   4.404   1.718 -0.1476  0.0606 -0.5075
 4812SOL     OW26068   4.551   3.286  14.531 -0.7188 -0.1933 -0.3317
 4812SOL    HW126069   4.481   3.335  14.575  0.4977  2.2988 -1.1709
 4812SOL    HW226070   4.493   3.257  14.460 -0.6223  0.8212 -0.8296
 4813SOL     OW26071   4.345   0.104   5.277  0.2364 -0.4469  0.3080
 4813SOL    HW126072   4.424   0.058   5.307 -0.6012 -0.5561  2.3172
 4813SOL    HW226073   4.329   0.055   5.196  1.5822 -0.2453 -0.0832
 4814SOL     OW26074   2.957   3.621   5.121 -0.2668 -0.5469  0.5505
 4814SOL    HW126075   2.885   3.628   5.058  1.0828 -3.1599 -1.2968
 4814SOL    HW226076   2.989   3.711   5.113  2.6511 -1.7865 -2.0887
 4815SOL     OW26077   1.010   1.312   7.855 -0.3328  0.1001 -0.4972
 4815SOL    HW126078   0.921   1.285   7.834 -0.4203 -0.5901  0.7238
 4815SOL    HW226079   1.053   1.310   7.770 -0.8807  1.9020 -0.8321
 4816SOL     OW26080   2.382   3.653   4.372  0.6061 -0.1721 -0.1550
 4816SOL    HW126081   2.377   3.690   4.283 -1.1565  1.5594  0.6695
 4816SOL    HW226082   2.328   3.574   4.367  2.4805 -1.4467 -0.2926
 4817SOL     OW26083   3.202   2.321   5.578 -0.4760 -0.8132  0.2871
 4817SOL    HW126084   3.181   2.269   5.500  0.3011 -2.5323  1.2319
 4817SOL    HW226085   3.256   2.263   5.632 -3.7768 -1.8732  2.5137
 4818SOL     OW26086   2.858   0.152  11.701  0.5854 -0.0873 -0.5521
 4818SOL    HW126087   2.841   0.073  11.752 -1.5341  0.2385 -0.7344
 4818SOL    HW226088   2.826   0.131  11.614 -2.9455 -0.9665  0.9514
 4819SOL     OW26089   3.188   0.537   4.923 -0.2477  0.1174  0.1845
 4819SOL    HW126090   3.150   0.622   4.902 -2.8433 -1.6216 -2.1452
 4819SOL    HW226091   3.133   0.509   4.997  0.0302  0.4872  0.5300
 4820SOL     OW26092   0.602   2.303  13.581 -0.2602 -0.1291  0.6131
 4820SOL    HW126093   0.539   2.347  13.638  0.6685 -0.4586  1.9098
 4820SOL    HW226094   0.655   2.376  13.546 -0.8062  0.0600  0.1909
 4821SOL     OW26095   2.995   0.727   3.980 -0.2706  0.1294  0.0566
 4821SOL    HW126096   2.907   0.732   3.942 -0.5157  1.5301  0.8180
 4821SOL    HW226097   3.050   0.744   3.903  1.2844  2.4842  1.6688
 4822SOL     OW26098   0.685   2.768  13.542  0.5341  0.0140 -0.2197
 4822SOL    HW126099   0.618   2.818  13.496  0.6253  1.1843  0.9031
 4822SOL    HW226100   0.667   2.805  13.628  1.9169 -2.2214  1.0287
 4823SOL     OW26101   2.895   3.266   2.763 -0.7367  0.1009  0.2839
 4823SOL    HW126102   2.968   3.310   2.720  0.9974 -1.5008  1.5923
 4823SOL    HW226103   2.939   3.223   2.836 -1.3837 -0.6721  0.2155
 4824SOL     OW26104   0.625   2.104   5.576  0.2194  0.0204  0.1447
 4824SOL    HW126105   0.674   2.178   5.613 -0.8824  1.4890 -1.3701
 4824SOL    HW226106   0.546   2.093   5.628  0.9073  0.1014  1.2160
 4825SOL     OW26107   4.682   0.457   6.675 -0.0674 -0.6323 -0.2131
 4825SOL    HW126108   4.724   0.540   6.696 -1.5440  0.3583 -1.2125
 4825SOL    HW226109   4.633   0.441   6.756 -0.1615 -0.2246 -0.1922
 4826SOL     OW26110   4.325   4.144   4.466  0.8561 -0.3647 -0.4741
 4826SOL    HW126111   4.395   4.162   4.528  0.9795 -1.5894 -0.2603
 4826SOL    HW226112   4.280   4.071   4.509  0.9013  0.0727  0.3195
 4827SOL     OW26113   2.798   4.132  14.959 -0.6687 -0.0143  0.3889
 4827SOL    HW126114   2.793   4.061  14.895 -0.5658  0.3524 -0.0288
 4827SOL    HW226115   2.880   4.113  15.004  0.4452  0.9297 -1.2337
 4828SOL     OW26116   4.548   2.739   2.454 -0.0719 -0.0148 -0.4138
 4828SOL    HW126117   4.588   2.658   2.421  1.1240  0.4849 -0.2005
 4828SOL    HW226118   4.457   2.731   2.426  0.0190 -0.7853 -0.5013
 4829SOL     OW26119   0.183   1.561   8.957 -0.2052  0.4421 -0.0777
 4829SOL    HW126120   0.255   1.616   8.986 -0.3828  1.2305 -1.1297
 4829SOL    HW226121   0.130   1.637   8.935  0.5037  0.8089 -0.4923
 4830SOL     OW26122   3.390   2.548  16.892 -0.3845 -0.2065  0.1793
 4830SOL    HW126123   3.433   2.463  16.890 -1.1844 -0.5562 -2.3785
 4830SOL    HW226124   3.359   2.559  16.802  2.6503  2.0901 -0.5726
 4831SOL     OW26125   1.341   2.556   8.345 -0.0185  0.3771 -0.4808
 4831SOL    HW126126   1.291   2.554   8.426 -2.0495 -0.3435 -1.7326
 4831SOL    HW226127   1.392   2.636   8.357  0.0919  0.1286  0.7006
 4832SOL     OW26128   2.453   0.855   2.081 -0.4311 -0.3065 -0.0871
 4832SOL    HW126129   2.418   0.936   2.117 -0.1211 -0.6495  0.9807
 4832SOL    HW226130   2.462   0.886   1.991  0.6189 -0.2648  0.0288
 4833SOL     OW26131   4.011   3.224   2.460 -0.5759  0.2621  0.3730
 4833SOL    HW126132   3.953   3.286   2.504  0.5879 -0.4183  2.8537
 4833SOL    HW226133   4.059   3.192   2.536  1.0623 -1.2189 -1.2777
 4834SOL     OW26134   3.896   0.763  17.372 -0.7222  0.5802  0.0782
 4834SOL    HW126135   3.900   0.852  17.335 -1.2750  0.6527  0.1925
 4834SOL    HW226136   3.970   0.715  17.336 -2.9657 -1.8781 -1.2306
 4835SOL     OW26137   4.624   3.267   7.843  0.0728  0.3969 -0.3281
 4835SOL    HW126138   4.625   3.343   7.902 -0.5161  0.4671 -0.4050
 4835SOL    HW226139   4.715   3.275   7.814 -0.3188  1.7167 -1.2226
 4836SOL     OW26140   2.788   0.380  12.260  0.1857  0.5749 -0.0495
 4836SOL    HW126141   2.873   0.367  12.218  0.0664  1.6055 -0.6068
 4836SOL    HW226142   2.804   0.396  12.353  1.0613 -0.8413  0.0430
 4837SOL     OW26143   4.375   1.783  14.750  0.3801 -0.0283  0.6901
 4837SOL    HW126144   4.323   1.719  14.702  0.1221  0.5654  0.1749
 4837SOL    HW226145   4.413   1.820  14.670 -2.5631  1.2469 -0.1345
 4838SOL     OW26146   3.538   4.557   0.819 -1.1723  0.2408 -0.0699
 4838SOL    HW126147   3.597   4.489   0.787  0.5142  3.1965 -3.1666
 4838SOL    HW226148   3.598   4.624   0.850 -1.1814  0.6821 -0.9960
 4839SOL     OW26149   2.801   0.254   1.888  0.0213  0.1264  0.7005
 4839SOL    HW126150   2.735   0.209   1.941  0.8230 -0.6330  1.0458
 4839SOL    HW226151   2.766   0.342   1.878  1.3615  0.5594 -0.2319
 4840SOL     OW26152   3.085   4.598   3.553  0.0977 -0.7898 -0.0966
 4840SOL    HW126153   3.057   4.558   3.635  1.0965  1.5596  1.3988
 4840SOL    HW226154   3.000   4.600   3.508 -0.4680  2.2126  1.0565
 4841SOL     OW26155   4.667   0.218   4.749 -0.2619  0.1199 -0.1382
 4841SOL    HW126156   4.637   0.220   4.658  0.0063 -0.0113 -0.2297
 4841SOL    HW226157   4.591   0.249   4.798  1.2055  2.5049  0.6008
 4842SOL     OW26158   4.718   4.389  11.947  0.5104  0.3789  0.3029
 4842SOL    HW126159   4.700   4.460  11.884  0.5194  1.2289  1.2564
 4842SOL    HW226160   4.652   4.323  11.928  0.9272 -0.0704  0.4096
 4843SOL     OW26161   4.691   3.694   6.776 -0.5255 -0.6125 -0.0149
 4843SOL    HW126162   4.712   3.648   6.695 -1.8628  2.0773 -1.8966
 4843SOL    HW226163   4.634   3.624   6.808 -0.7638 -0.8511 -0.9631
 4844SOL     OW26164   3.631   1.976   7.406 -0.3199  0.3994  0.3515
 4844SOL    HW126165   3.662   1.975   7.496  1.7734 -0.2428 -0.3703
 4844SOL    HW226166   3.547   1.930   7.415 -1.1938  1.9706  0.0737
 4845SOL     OW26167   2.786   1.933   3.185  0.4927 -0.5929 -0.6655
 4845SOL    HW126168   2.835   1.886   3.252  1.7585  2.1481  0.3202
 4845SOL    HW226169   2.825   1.906   3.102 -1.4548  2.0375 -2.4560
 4846SOL     OW26170   3.914   2.968   4.241  0.2761 -0.4285  0.0550
 4846SOL    HW126171   3.891   2.969   4.334 -1.5329 -0.4793 -0.3903
 4846SOL    HW226172   3.995   2.919   4.259  0.2316 -0.4534  0.1928
 4847SOL     OW26173   4.634   1.602  17.243 -0.6110  0.2214 -0.9195
 4847SOL    HW126174   4.566   1.590  17.308  3.0471 -0.9907  2.7036
 4847SOL    HW226175   4.702   1.636  17.302 -1.7506  0.7382  0.0901
 4848SOL     OW26176   4.560   3.708   3.716 -0.6747  0.3481  0.1864
 4848SOL    HW126177   4.546   3.698   3.622 -0.8442 -1.4629  0.4211
 4848SOL    HW226178   4.573   3.803   3.718 -1.6262  0.4364  2.3355
 4849SOL     OW26179   2.281   0.613   2.304  0.3480  0.0011 -0.1636
 4849SOL    HW126180   2.336   0.621   2.226  0.6883 -0.0972  0.0642
 4849SOL    HW226181   2.199   0.601   2.256  0.0577  1.6140 -0.0635
 4850SOL     OW26182   2.995   0.732   4.843  0.6148  0.0972  0.0054
 4850SOL    HW126183   2.906   0.700   4.833  0.6990  0.0046 -0.4581
 4850SOL    HW226184   3.004   0.798   4.774  3.4596  2.0802  2.2624
 4851SOL     OW26185   2.764   1.577  11.854 -0.0075  0.3756  0.1899
 4851SOL    HW126186   2.853   1.594  11.825  0.3502  0.5659  1.3957
 4851SOL    HW226187   2.758   1.639  11.927 -1.4135 -1.1696  1.4046
 4852SOL     OW26188   0.375   2.773   4.233  0.0510  0.0590 -0.7810
 4852SOL    HW126189   0.297   2.825   4.214 -0.0165 -0.3311 -1.5945
 4852SOL    HW226190   0.413   2.759   4.146 -0.8005 -0.8864 -0.9993
 4853SOL     OW26191   2.151   0.174   5.722 -0.4308 -0.1881  0.4859
 4853SOL    HW126192   2.142   0.217   5.637  1.8506  0.9223  0.7836
 4853SOL    HW226193   2.233   0.127   5.705 -0.0084  0.3226  1.1096
 4854SOL     OW26194   2.675   2.627   2.794 -0.5391  0.1177 -0.4374
 4854SOL    HW126195   2.608   2.606   2.860  0.1977  1.4012  0.7170
 4854SOL    HW226196   2.744   2.650   2.857 -1.4312  2.2160 -0.2457
 4855SOL     OW26197   4.165   4.095   3.214  0.6803 -0.1474  0.3443
 4855SOL    HW126198   4.086   4.087   3.267 -0.8044  0.6474 -1.7224
 4855SOL    HW226199   4.230   4.041   3.258 -0.6471 -0.1769  2.2665
 4856SOL     OW26200   2.384   3.845   7.505  0.0963  0.4986  0.3719
 4856SOL    HW126201   2.422   3.903   7.571  1.9115 -0.1688 -0.0847
 4856SOL    HW226202   2.313   3.901   7.473 -0.4646 -0.3970  0.0452
 4857SOL     OW26203   3.903   1.307   7.671 -0.3487 -0.0834  0.3120
 4857SOL    HW126204   3.924   1.232   7.616  1.5408  1.4319 -1.0305
 4857SOL    HW226205   3.904   1.384   7.614  1.8198 -0.3050  0.0398
 4858SOL     OW26206   0.585   2.791   5.197  0.0243  0.4815 -0.3008
 4858SOL    HW126207   0.604   2.738   5.275  1.4786  0.1146 -0.9089
 4858SOL    HW226208   0.492   2.771   5.191  0.3795 -1.5833  0.8033
 4859SOL     OW26209   2.921   1.208   4.758 -0.0421  0.1929  0.0845
 4859SOL    HW126210   2.881   1.211   4.671  3.0303  2.7367 -1.2605
 4859SOL    HW226211   2.870   1.280   4.796  0.9345  0.7678  0.3105
 4860SOL     OW26212   0.931   3.951  11.409  0.3549  0.0635 -0.6607
 4860SOL    HW126213   1.022   3.978  11.397  0.3626  0.8419  1.2244
 4860SOL    HW226214   0.887   3.977  11.328  0.9603  0.3123 -0.9140
 4861SOL     OW26215   4.364   0.858   2.746 -0.1036  0.4729  0.2204
 4861SOL    HW126216   4.327   0.918   2.811 -0.9557 -0.3296  0.4861
 4861SOL    HW226217   4.344   0.778   2.794 -1.8719  1.3196  0.9080
 4862SOL     OW26218   3.963   3.588   2.423  0.0541 -0.3565 -0.2737
 4862SOL    HW126219   4.058   3.578   2.426  0.0256 -1.3290 -2.4438
 4862SOL    HW226220   3.952   3.637   2.341 -0.8634 -2.1586 -1.2426
 4863SOL     OW26221   4.551   3.924   0.778  0.1130 -0.2972 -0.3994
 4863SOL    HW126222   4.620   3.990   0.783  0.6919 -0.8588 -0.7998
 4863SOL    HW226223   4.480   3.974   0.817  0.1055 -1.8731  1.6275
 4864SOL     OW26224   2.635   1.061  12.118  0.3403  0.3328 -0.1955
 4864SOL    HW126225   2.658   1.034  12.207 -2.9047  0.7150  0.7367
 4864SOL    HW226226   2.667   1.151  12.112  0.1005  0.3117 -1.8189
 4865SOL     OW26227   0.996   3.411   6.055 -0.6881  0.2813  0.0741
 4865SOL    HW126228   1.066   3.419   6.119  0.1479  3.4149 -1.2438
 4865SOL    HW226229   0.919   3.432   6.108  0.7878  2.8966  1.1633
 4866SOL     OW26230   4.194   1.174  13.470  0.3304  0.3485 -0.8470
 4866SOL    HW126231   4.105   1.195  13.499  0.4845  0.1439 -0.2387
 4866SOL    HW226232   4.204   1.246  13.408 -0.0925  0.9298 -0.2394
 4867SOL     OW26233   0.987   2.495  13.407 -0.0213  1.0904 -0.0518
 4867SOL    HW126234   0.914   2.484  13.467  0.0536 -0.5051 -0.2412
 4867SOL    HW226235   0.951   2.553  13.340  0.2855  0.8422 -0.4308
 4868SOL     OW26236   1.101   0.929   2.303  0.1704  0.0392  0.5759
 4868SOL    HW126237   1.097   0.896   2.213 -1.2472  4.1384 -0.8544
 4868SOL    HW226238   1.007   0.925   2.321 -0.5278  2.1760 -2.5526
 4869SOL     OW26239   3.349   3.661  14.155  0.4975  0.1154 -0.0155
 4869SOL    HW126240   3.322   3.691  14.243 -0.4608  0.9098 -0.5757
 4869SOL    HW226241   3.292   3.719  14.105 -1.5785 -0.8109  1.2302
 4870SOL     OW26242   1.607   4.356   3.880 -0.1317  0.1048 -0.3453
 4870SOL    HW126243   1.630   4.263   3.880  2.4039  0.7380 -0.2950
 4870SOL    HW226244   1.643   4.397   3.959 -0.2594 -2.1616  0.8981
 4871SOL     OW26245   1.102   0.891  16.575  0.6349  0.1239  0.2286
 4871SOL    HW126246   1.037   0.925  16.635  0.2209 -0.4311  0.0977
 4871SOL    HW226247   1.111   0.972  16.526  2.0644 -1.0867 -1.5415
 4872SOL     OW26248   0.810   3.689   7.841  0.2923 -0.4414 -0.4489
 4872SOL    HW126249   0.737   3.718   7.786 -0.9638 -1.7907  0.5330
 4872SOL    HW226250   0.877   3.755   7.820  0.1458 -0.4067 -0.8224
 4873SOL     OW26251   3.032   0.574   9.688  0.2783 -0.2874  0.0227
 4873SOL    HW126252   3.081   0.597   9.767  0.0613 -0.0072  0.0759
 4873SOL    HW226253   3.082   0.505   9.644 -0.5536 -1.0755  0.3138
 4874SOL     OW26254   0.139   3.972  13.802  0.2759 -0.3769 -0.6230
 4874SOL    HW126255   0.104   4.048  13.756  0.1823 -1.0243 -1.6141
 4874SOL    HW226256   0.064   3.940  13.852  0.7191  0.7861  0.8009
 4875SOL     OW26257   1.991   3.851  13.832 -0.0732  0.1642  0.2762
 4875SOL    HW126258   2.002   3.946  13.834  0.0228  0.1916 -2.0234
 4875SOL    HW226259   1.898   3.832  13.845  0.2914 -0.4393  2.0742
 4876SOL     OW26260   3.103   2.162   3.977 -0.0258  0.1663  0.2430
 4876SOL    HW126261   3.192   2.126   3.970  0.0729  0.5389 -0.3672
 4876SOL    HW226262   3.096   2.140   4.070 -0.0887 -0.1290  0.1692
 4877SOL     OW26263   0.567   0.922   1.655  0.3816  0.7015 -0.2086
 4877SOL    HW126264   0.553   0.968   1.572  0.7948  0.1869 -0.5649
 4877SOL    HW226265   0.499   0.964   1.708  0.6474 -1.6305  1.9787
 4878SOL     OW26266   2.180   4.465  13.983  0.1594 -0.5612 -0.5063
 4878SOL    HW126267   2.189   4.554  14.015 -2.1886  0.3718 -2.4902
 4878SOL    HW226268   2.271   4.435  13.991 -0.1053 -0.9437  1.2865
 4879SOL     OW26269   0.496   0.563   4.344 -0.5994 -0.5664 -0.5114
 4879SOL    HW126270   0.435   0.534   4.413 -0.8733 -0.3185 -0.6454
 4879SOL    HW226271   0.547   0.619   4.402 -4.0302  1.1182  0.9037
 4880SOL     OW26272   4.160   2.302   2.719  0.5253  0.7859 -0.1370
 4880SOL    HW126273   4.065   2.307   2.706  0.2872  0.7029  1.5121
 4880SOL    HW226274   4.179   2.383   2.673 -1.6837  0.9650 -0.7474
 4881SOL     OW26275   4.285   2.374  12.730 -0.2955  0.2044 -0.1554
 4881SOL    HW126276   4.240   2.443  12.682 -2.8148 -1.0689  0.3940
 4881SOL    HW226277   4.240   2.373  12.814  0.6168  1.2072  0.3493
 4882SOL     OW26278   3.555   2.370   7.742  0.6954  0.7526 -0.3038
 4882SOL    HW126279   3.551   2.349   7.835  0.2099 -3.5145 -1.2753
 4882SOL    HW226280   3.461   2.383   7.729  0.0779 -2.6901  0.6490
 4883SOL     OW26281   4.237   0.456   0.908 -0.2664  0.4831  0.1287
 4883SOL    HW126282   4.169   0.425   0.849  1.9818 -0.4148 -1.9405
 4883SOL    HW226283   4.308   0.482   0.850  0.7459 -1.6169  0.4543
 4884SOL     OW26284   3.373   2.846   6.401 -0.2720  0.1575  0.0395
 4884SOL    HW126285   3.369   2.901   6.480  0.4104 -0.5478  0.5720
 4884SOL    HW226286   3.366   2.905   6.327  0.4129  1.4556  1.0190
 4885SOL     OW26287   2.617   2.019   9.126  0.3974 -0.7195 -0.3258
 4885SOL    HW126288   2.673   2.034   9.050 -0.5092 -2.3093 -1.3117
 4885SOL    HW226289   2.677   2.006   9.199  0.7489  1.9534 -0.1346
 4886SOL     OW26290   2.534   4.624   7.232 -0.9939 -0.1296  0.0185
 4886SOL    HW126291   2.624   4.645   7.258 -0.6618  1.2568 -2.2034
 4886SOL    HW226292   2.485   4.703   7.252 -1.4931 -0.3680 -0.2654
 4887SOL     OW26293   1.976   4.342  14.756  0.0853  0.3804 -0.1241
 4887SOL    HW126294   1.954   4.435  14.760  1.9841  0.7896  0.3857
 4887SOL    HW226295   2.071   4.349  14.748 -0.0878  2.1072 -0.6988
 4888SOL     OW26296   3.336   4.392   6.290  0.7000 -0.4602  0.2251
 4888SOL    HW126297   3.262   4.384   6.229  0.3578 -0.1562  0.6021
 4888SOL    HW226298   3.408   4.361   6.235 -0.1962 -1.9867 -0.0763
 4889SOL     OW26299   4.283   0.185   3.618 -0.0940 -0.6321  0.1692
 4889SOL    HW126300   4.199   0.202   3.662 -0.0767  0.1130 -0.0880
 4889SOL    HW226301   4.269   0.095   3.589  2.0876 -1.5042  1.8377
 4890SOL     OW26302   0.562   0.148  13.933  0.0506  0.4030 -0.1717
 4890SOL    HW126303   0.588   0.071  13.882 -0.1806  2.1624 -2.9346
 4890SOL    HW226304   0.477   0.176  13.897 -1.2130 -2.1766  0.8105
 4891SOL     OW26305   0.982   2.109   5.880 -0.2764  0.4529 -1.1809
 4891SOL    HW126306   0.920   2.156   5.935 -1.1446 -0.9463 -0.9518
 4891SOL    HW226307   0.978   2.021   5.917  0.1003 -0.0539 -2.3484
 4892SOL     OW26308   0.983   0.401   3.851  0.0432  0.2494 -0.6618
 4892SOL    HW126309   0.972   0.496   3.854 -2.6840 -0.0129 -2.7769
 4892SOL    HW226310   0.918   0.383   3.783  1.9483 -0.3949 -2.3096
 4893SOL     OW26311   1.769   2.663  11.889 -0.3248 -0.3129 -0.0610
 4893SOL    HW126312   1.829   2.596  11.858 -0.3278 -0.0409 -0.6557
 4893SOL    HW226313   1.830   2.724  11.930 -0.4853  0.0511 -0.3591
 4894SOL     OW26314   1.365   2.401   7.298  0.0996 -0.0440  0.1076
 4894SOL    HW126315   1.348   2.325   7.354  1.1049  0.9383  1.7431
 4894SOL    HW226316   1.285   2.419   7.250  1.6237  0.6118 -2.1922
 4895SOL     OW26317   0.950   3.404  12.303  0.4585 -0.0327 -0.2375
 4895SOL    HW126318   0.911   3.359  12.228 -0.4825 -0.6035  0.5912
 4895SOL    HW226319   0.921   3.495  12.294  0.1388  0.0096  1.1885
 4896SOL     OW26320   1.588   1.215   8.430 -0.2033  0.5364  0.3135
 4896SOL    HW126321   1.602   1.285   8.494  0.6168 -0.0026  0.7148
 4896SOL    HW226322   1.606   1.266   8.352 -0.6683 -0.5547 -0.5103
 4897SOL     OW26323   3.774   2.295  13.881 -0.5899 -0.4096  0.5964
 4897SOL    HW126324   3.831   2.368  13.905 -0.4639 -0.1269 -0.5386
 4897SOL    HW226325   3.720   2.340  13.816  1.7933  0.7235 -0.6031
 4898SOL     OW26326   3.521   1.836   8.938 -0.2692  0.4213 -0.1623
 4898SOL    HW126327   3.489   1.925   8.925  1.2121  0.9231 -0.4444
 4898SOL    HW226328   3.586   1.870   8.999 -0.4979  2.1224 -0.8726
 4899SOL     OW26329   2.317   3.655  14.745 -0.3014  0.0225 -0.4949
 4899SOL    HW126330   2.338   3.731  14.799 -1.5119 -0.4938  0.7013
 4899SOL    HW226331   2.222   3.665  14.747 -0.1059  2.0740 -1.1486
 4900SOL     OW26332   3.521   2.962   3.163 -0.0285  0.0549  0.3361
 4900SOL    HW126333   3.522   2.866   3.170  1.7977 -0.0422 -1.0926
 4900SOL    HW226334   3.611   2.980   3.192 -0.0711  1.5564 -0.4958
 4901SOL     OW26335   0.149   1.428   7.857 -0.2861  0.0342  0.3916
 4901SOL    HW126336   0.156   1.490   7.784 -0.4929 -0.7367 -0.2875
 4901SOL    HW226337   0.054   1.419   7.868 -0.4660 -0.2887 -1.4528
 4902SOL     OW26338   3.036   1.210  17.568  0.4369 -0.4375 -0.2527
 4902SOL    HW126339   3.041   1.220  17.473  2.0491 -2.5444 -0.3806
 4902SOL    HW226340   3.072   1.122  17.577  0.6380 -0.3544 -0.2455
 4903SOL     OW26341   2.060   0.526   9.217  0.3969  0.0271 -0.3032
 4903SOL    HW126342   2.113   0.572   9.282  1.5137 -3.0504  0.9739
 4903SOL    HW226343   2.077   0.436   9.245 -1.5694  0.3955  2.0355
 4904SOL     OW26344   1.657   3.581   3.897 -0.4818  0.2716 -0.2020
 4904SOL    HW126345   1.687   3.543   3.979 -2.9695  3.4239  2.2082
 4904SOL    HW226346   1.574   3.611   3.934  0.0756  1.1085  0.3610
 4905SOL     OW26347   3.098   0.108   2.211  0.3535 -0.1571 -0.2542
 4905SOL    HW126348   3.156   0.093   2.286 -3.0117 -1.2999  2.1509
 4905SOL    HW226349   3.118   0.037   2.151 -1.8586  0.5396 -1.8004
 4906SOL     OW26350   4.477   4.356   0.756 -0.2741 -0.1927 -0.1627
 4906SOL    HW126351   4.439   4.288   0.812 -1.1072  0.0975 -0.3777
 4906SOL    HW226352   4.462   4.322   0.668  2.6019  0.0967 -0.7647
 4907SOL     OW26353   0.875   3.825   6.411 -0.4075 -0.1045 -0.4076
 4907SOL    HW126354   0.879   3.814   6.506  4.0029  0.2697 -0.5494
 4907SOL    HW226355   0.868   3.918   6.389 -0.4562  0.2859  1.2564
 4908SOL     OW26356   2.588   1.514   1.520 -0.3594  0.2753  0.9092
 4908SOL    HW126357   2.567   1.521   1.613 -1.4320 -1.1480  0.7561
 4908SOL    HW226358   2.650   1.587   1.514  0.1628 -0.3753 -1.6832
 4909SOL     OW26359   0.728   0.684   7.146  0.5125  0.2162 -0.5380
 4909SOL    HW126360   0.654   0.625   7.163 -1.6543  3.8716  2.8510
 4909SOL    HW226361   0.704   0.752   7.210  1.2105  0.4928 -0.5761
 4910SOL     OW26362   1.957   1.727  13.828 -0.1433 -0.8965 -0.7517
 4910SOL    HW126363   1.986   1.734  13.919 -2.8754  1.0210 -0.0228
 4910SOL    HW226364   2.021   1.664  13.795  0.9189  0.3716 -1.0763
 4911SOL     OW26365   0.669   0.939   7.901 -0.1090 -0.2266  0.3125
 4911SOL    HW126366   0.643   0.849   7.921 -1.9388 -0.0043 -1.1224
 4911SOL    HW226367   0.605   0.957   7.832  0.1475 -3.0801 -0.6611
 4912SOL     OW26368   1.251   3.805   7.742 -0.0471  0.0015  0.1179
 4912SOL    HW126369   1.242   3.759   7.659 -0.1719  1.3925 -0.6366
 4912SOL    HW226370   1.298   3.741   7.795  0.0388 -0.6477 -0.7424
 4913SOL     OW26371   2.764   2.345   0.713 -0.1327  0.7300  0.3284
 4913SOL    HW126372   2.784   2.252   0.720  1.5431  1.0847  0.3025
 4913SOL    HW226373   2.798   2.389   0.791 -0.6115 -0.1421  1.0200
 4914SOL     OW26374   2.853   2.010   0.863  0.5520 -0.6511  0.5945
 4914SOL    HW126375   2.937   1.965   0.871  0.9811 -0.0894 -0.6712
 4914SOL    HW226376   2.864   2.058   0.781 -0.8313 -2.5216 -0.6834
 4915SOL     OW26377   3.228   2.869   2.984  0.5504  0.1819  0.0740
 4915SOL    HW126378   3.188   2.952   2.962 -3.1709 -1.7396 -0.3587
 4915SOL    HW226379   3.192   2.851   3.071  1.6249  2.6807  1.0340
 4916SOL     OW26380   4.416   2.640  16.739 -0.4912 -0.1183  0.4030
 4916SOL    HW126381   4.501   2.684  16.740  0.2691 -1.5583 -0.6457
 4916SOL    HW226382   4.445   2.569  16.795  0.0343 -1.0022 -0.9732
 4917SOL     OW26383   0.869   2.683   3.979  0.1165 -0.0996  0.2887
 4917SOL    HW126384   0.920   2.680   3.898  1.1290  1.1070  0.8784
 4917SOL    HW226385   0.800   2.744   3.954 -1.1168 -0.2588  3.2774
 4918SOL     OW26386   4.593   1.070   7.991  0.5189  0.3990  0.0023
 4918SOL    HW126387   4.518   1.116   7.953 -0.9046  0.5326  3.0002
 4918SOL    HW226388   4.613   1.010   7.918 -2.3788 -0.6549  0.0907
 4919SOL     OW26389   2.745   2.651  11.655 -0.3088 -0.3750  0.0996
 4919SOL    HW126390   2.804   2.654  11.731 -0.8709  1.4863  0.4727
 4919SOL    HW226391   2.716   2.560  11.654 -1.5925  0.0369  0.0708
 4920SOL     OW26392   2.949   4.486   7.165  0.0305 -0.2519 -0.1953
 4920SOL    HW126393   3.005   4.408   7.159 -0.6834 -0.7816 -0.0200
 4920SOL    HW226394   2.912   4.492   7.077 -0.9302 -0.8182  0.1696
 4921SOL     OW26395   0.445   1.807   2.127 -0.2073 -0.0883 -0.3476
 4921SOL    HW126396   0.450   1.831   2.034  2.2641  0.1594 -0.1680
 4921SOL    HW226397   0.388   1.876   2.160  1.5684  0.8718  0.7097
 4922SOL     OW26398   0.610   0.014   5.225 -0.0811 -0.2866 -0.6475
 4922SOL    HW126399   0.654   4.723   5.146 -1.7372  0.7887 -1.9993
 4922SOL    HW226400   0.639   4.691   5.290  0.3860 -0.7995 -1.3510
 4923SOL     OW26401   0.050   2.231   9.621  0.2609  0.3060  0.2769
 4923SOL    HW126402   0.026   2.139   9.635  0.6324 -0.0176 -1.1966
 4923SOL    HW226403   0.122   2.243   9.684 -0.1275  2.2406  0.3430
 4924SOL     OW26404   2.017   1.108   2.307  0.1721 -0.7270  0.5175
 4924SOL    HW126405   2.105   1.145   2.303  1.3213 -3.5111 -0.2666
 4924SOL    HW226406   2.008   1.092   2.401 -0.3765 -1.7417  0.2950
 4925SOL     OW26407   2.242   4.503   4.145  0.0550 -0.1131 -0.2407
 4925SOL    HW126408   2.155   4.529   4.114  0.4636 -0.3826 -1.6246
 4925SOL    HW226409   2.215   4.500   4.237  1.3096 -0.8600  0.1027
 4926SOL     OW26410   3.761   2.788  11.249  0.0324 -0.5117 -0.3164
 4926SOL    HW126411   3.784   2.718  11.189  0.8789  1.3964 -2.2127
 4926SOL    HW226412   3.845   2.816  11.286  0.0793  0.9860 -1.5489
 4927SOL     OW26413   3.411   2.013  17.007  0.4201  0.7056 -0.0116
 4927SOL    HW126414   3.350   2.018  16.933 -0.2464 -1.5284  0.3586
 4927SOL    HW226415   3.415   2.102  17.042  1.3292  0.4028  0.6558
 4928SOL     OW26416   0.849   4.464   6.174  0.7912  0.7552  0.4571
 4928SOL    HW126417   0.902   4.532   6.216  2.8390 -1.3612  1.2854
 4928SOL    HW226418   0.919   4.413   6.133  0.7441  0.2677  0.9682
 4929SOL     OW26419   0.207   3.767   6.485 -0.1129  0.0899 -0.6746
 4929SOL    HW126420   0.117   3.742   6.506 -0.6078  2.5430  0.0707
 4929SOL    HW226421   0.252   3.704   6.541 -3.1863  0.4809  2.1808
 4930SOL     OW26422   2.646   0.089   0.090 -0.4045  0.4922 -0.6320
 4930SOL    HW126423   2.565   0.079   0.039  1.2563  2.4256 -3.6797
 4930SOL    HW226424   2.694   0.015   0.052  0.9754  0.5551  0.9921
 4931SOL     OW26425   4.582   2.544  17.271 -0.5108 -0.4796  0.0320
 4931SOL    HW126426   4.633   2.613  17.229 -0.3387 -0.3612  0.4397
 4931SOL    HW226427   4.525   2.511  17.201 -0.3991 -0.9031  0.1425
 4932SOL     OW26428   1.421   2.033   2.653 -0.1757  0.3491  0.1354
 4932SOL    HW126429   1.381   2.005   2.735  0.7785 -0.0786  0.4515
 4932SOL    HW226430   1.345   2.047   2.596 -0.0967 -1.4223 -0.4055
 4933SOL     OW26431   0.973   4.588  12.886 -0.1757 -0.1991  0.0791
 4933SOL    HW126432   0.950   4.559  12.974 -1.5269  0.8462  0.0700
 4933SOL    HW226433   1.018   4.668  12.915  1.8107 -0.9244 -1.0268
 4934SOL     OW26434   4.544   0.175  17.693  0.7086 -0.3004 -0.0878
 4934SOL    HW126435   4.602   0.100  17.678  0.2903 -0.6783  0.2026
 4934SOL    HW226436   4.582   0.237  17.630 -0.4649  2.4864  1.9539
 4935SOL     OW26437   3.007   2.420  10.017 -0.3064 -0.1173  0.0356
 4935SOL    HW126438   3.014   2.492   9.955 -0.9026  2.2988  2.8072
 4935SOL    HW226439   3.030   2.465  10.098 -0.9860 -2.4244  1.5305
 4936SOL     OW26440   3.442   0.960   2.004  0.1431 -0.2532  0.9676
 4936SOL    HW126441   3.474   1.004   2.083  0.6607 -2.8619  2.1880
 4936SOL    HW226442   3.494   1.008   1.940  0.1235  0.3834  1.4231
 4937SOL     OW26443   1.459   4.362   4.512 -0.3163  0.0535 -0.1198
 4937SOL    HW126444   1.551   4.388   4.504  0.1990 -1.1239  2.0638
 4937SOL    HW226445   1.412   4.445   4.505  0.7805  0.7762  0.9980
 4938SOL     OW26446   2.823   2.656   3.033  0.5885  0.7142 -0.7802
 4938SOL    HW126447   2.863   2.704   3.106 -0.5285 -0.7467  0.8072
 4938SOL    HW226448   2.802   2.581   3.089 -2.7325  1.7409 -0.6452
 4939SOL     OW26449   0.983   2.668   5.712  0.3675 -0.3099  0.8974
 4939SOL    HW126450   0.947   2.627   5.791 -0.8644  0.8075  0.9094
 4939SOL    HW226451   0.941   2.753   5.721 -1.2437 -1.0303  0.1825
 4940SOL     OW26452   3.724   0.098   3.565  0.8365  0.0997 -0.0452
 4940SOL    HW126453   3.782   0.160   3.609  2.2093 -2.5250  1.8292
 4940SOL    HW226454   3.684   0.041   3.631  0.4210 -0.7820 -1.0627
 4941SOL     OW26455   2.135   0.841  15.668 -0.1214 -0.0041  0.3779
 4941SOL    HW126456   2.055   0.893  15.670  1.7835  3.0548 -2.5039
 4941SOL    HW226457   2.127   0.792  15.749  1.0917 -3.7507 -1.7823
 4942SOL     OW26458   0.512   0.175  17.144 -0.4103  0.1709  0.7075
 4942SOL    HW126459   0.446   0.153  17.209 -1.9165  0.6594 -0.6427
 4942SOL    HW226460   0.536   0.266  17.159 -0.1870  0.5694 -1.9688
 4943SOL     OW26461   2.693   4.572   2.436 -0.1318  0.0610  0.0683
 4943SOL    HW126462   2.626   4.599   2.373  2.6956  0.8930 -2.5751
 4943SOL    HW226463   2.666   4.625   2.510  1.2236  1.8357 -0.7106
 4944SOL     OW26464   3.599   0.147   7.813  0.4267  0.1884  0.5152
 4944SOL    HW126465   3.606   0.053   7.798  1.3950  0.2566  0.5018
 4944SOL    HW226466   3.556   0.158   7.897 -3.5894 -2.1898 -1.2464
 4945SOL     OW26467   2.778   3.656   4.926 -0.2414 -0.1794  0.4173
 4945SOL    HW126468   2.689   3.624   4.938  0.3451 -1.3406  1.6482
 4945SOL    HW226469   2.772   3.697   4.839 -1.3061 -0.6042  0.2879
 4946SOL     OW26470   2.001   2.811   9.424  0.3973 -0.4423 -0.5553
 4946SOL    HW126471   2.018   2.724   9.391 -2.1150 -0.0482 -2.9293
 4946SOL    HW226472   1.913   2.834   9.394 -0.7569 -1.2046  2.2305
 4947SOL     OW26473   0.202   4.050   1.361  0.0477  0.0422  0.0696
 4947SOL    HW126474   0.298   4.045   1.368  0.1893 -0.2961 -2.0865
 4947SOL    HW226475   0.167   3.962   1.376 -0.6728  0.0125 -1.8563
 4948SOL     OW26476   3.913   4.597  17.224 -0.4149 -0.2987 -0.0426
 4948SOL    HW126477   3.940   4.525  17.280 -0.3807  0.4255  0.8566
 4948SOL    HW226478   3.995   4.644  17.209 -0.8112 -0.4600 -2.7447
 4949SOL     OW26479   3.705   3.342   6.841  0.2413 -0.3200  0.1031
 4949SOL    HW126480   3.715   3.359   6.934 -1.0544 -1.1600  0.3976
 4949SOL    HW226481   3.667   3.423   6.807 -0.8464 -0.5870  0.7037
 4950SOL     OW26482   3.927   2.631   8.425  0.2564 -0.2725 -0.2445
 4950SOL    HW126483   3.900   2.549   8.382  1.6223 -1.1298  0.5557
 4950SOL    HW226484   3.940   2.614   8.518 -3.6491  3.4838  0.9798
 4951SOL     OW26485   1.562   2.847  15.573 -0.2705 -0.2155  0.0269
 4951SOL    HW126486   1.652   2.825  15.550 -0.3193  0.5685 -0.9340
 4951SOL    HW226487   1.582   2.899  15.651 -0.8467  0.5406 -0.3333
 4952SOL     OW26488   0.461   3.958   1.358  0.1545 -0.0946  0.0394
 4952SOL    HW126489   0.490   3.876   1.319  1.7644  0.4386  0.1250
 4952SOL    HW226490   0.522   4.015   1.310  0.4531 -0.5244 -0.0884
 4953SOL     OW26491   3.796   3.117  16.610  0.1750  0.0258  0.7288
 4953SOL    HW126492   3.801   3.051  16.542  1.9486  0.3367  0.5735
 4953SOL    HW226493   3.748   3.185  16.562  0.3695 -0.7960 -0.6074
 4954SOL     OW26494   3.610   2.281   3.869 -0.1294 -0.3037 -0.0039
 4954SOL    HW126495   3.644   2.201   3.910 -1.6185 -0.8821  0.1013
 4954SOL    HW226496   3.516   2.266   3.879 -0.5038  2.0344 -0.1806
 4955SOL     OW26497   3.848   0.330  10.442  0.6306  0.0409 -0.0037
 4955SOL    HW126498   3.783   0.260  10.449 -1.0900  1.5437 -1.1321
 4955SOL    HW226499   3.897   0.299  10.366 -1.0591  1.6734 -1.7229
 4956SOL     OW26500   0.827   3.804   9.080 -0.2329 -0.3265  0.4236
 4956SOL    HW126501   0.819   3.868   9.151  0.3855  0.7636 -0.4905
 4956SOL    HW226502   0.808   3.720   9.122 -0.9790  0.3745  1.4722
 4957SOL     OW26503   0.236   1.050  10.491 -0.1984 -0.3981 -0.1019
 4957SOL    HW126504   0.281   1.114  10.436 -0.5076  0.3746  0.5574
 4957SOL    HW226505   0.282   1.045  10.575  1.7579  0.0057 -1.1387
 4958SOL     OW26506   0.653   3.916   5.215  0.1338 -0.1759  0.2636
 4958SOL    HW126507   0.599   3.846   5.249  0.0878 -0.3284 -0.1270
 4958SOL    HW226508   0.628   3.923   5.123  2.0797 -2.5690 -0.4363
 4959SOL     OW26509   3.337   3.662   7.454  0.1227 -0.3976 -0.3010
 4959SOL    HW126510   3.403   3.656   7.523  0.8205  1.7535 -0.7702
 4959SOL    HW226511   3.327   3.569   7.435  1.3099 -0.9839  1.9029
 4960SOL     OW26512   4.202   4.648   2.706  0.4675  0.1908  0.4193
 4960SOL    HW126513   4.271   4.583   2.690 -0.8131 -1.2868  0.8706
 4960SOL    HW226514   4.186   4.682   2.618  0.8014 -1.9386 -0.4702
 4961SOL     OW26515   2.392   3.885   5.377 -0.9489 -0.1244  0.5245
 4961SOL    HW126516   2.367   3.793   5.388  0.8832 -0.6425  0.4939
 4961SOL    HW226517   2.324   3.925   5.431 -1.2678  0.3128 -0.2132
 4962SOL     OW26518   1.009   2.488  15.826  0.1328 -0.1519 -0.1932
 4962SOL    HW126519   1.081   2.426  15.826  0.6220  0.4239  0.9341
 4962SOL    HW226520   1.056   2.569  15.804  0.7607 -0.3806  0.3370
 4963SOL     OW26521   0.973   3.411   9.128 -0.4440  0.5374 -0.3811
 4963SOL    HW126522   0.967   3.481   9.193 -0.6732 -0.5012  0.7192
 4963SOL    HW226523   1.054   3.368   9.153 -0.8224  0.1787  0.2243
 4964SOL     OW26524   1.492   4.151   3.326 -0.4665  0.0746 -0.0279
 4964SOL    HW126525   1.398   4.172   3.329 -0.6156 -0.4760 -0.9602
 4964SOL    HW226526   1.507   4.152   3.420 -0.3760 -0.6729 -0.0304
 4965SOL     OW26527   3.306   3.085   3.295 -0.1918 -0.0993  0.4567
 4965SOL    HW126528   3.282   3.004   3.339  0.0191 -1.4836 -1.9767
 4965SOL    HW226529   3.376   3.044   3.244 -1.0908 -0.0299 -0.8346
 4966SOL     OW26530   0.458   0.380  12.220  0.0913  0.3172 -0.3604
 4966SOL    HW126531   0.419   0.415  12.300  0.1112  0.6438 -0.4911
 4966SOL    HW226532   0.551   0.370  12.244  0.1295  1.0100 -0.2158
 4967SOL     OW26533   4.017   2.756   2.345  0.0847  0.1263  0.2959
 4967SOL    HW126534   3.940   2.727   2.296 -0.7467  0.8863  1.1599
 4967SOL    HW226535   4.019   2.851   2.343 -0.4874  0.1132 -0.9545
 4968SOL     OW26536   4.641   0.606   8.000 -0.4098 -0.1034  0.0940
 4968SOL    HW126537   4.573   0.565   8.053  0.4861  0.2820  1.5371
 4968SOL    HW226538   4.630   0.549   7.924 -3.5111  1.2972 -0.5405
 4969SOL     OW26539   4.159   0.008   2.411  0.5715  0.2281  0.1314
 4969SOL    HW126540   4.109   0.046   2.339 -2.1546 -0.4730  1.6704
 4969SOL    HW226541   4.100   4.676   2.432  0.5017  0.5314  0.9705
 4970SOL     OW26542   1.043   3.491  11.586 -0.7104 -0.0440 -0.2336
 4970SOL    HW126543   1.043   3.504  11.681 -0.3913  0.8699 -0.3593
 4970SOL    HW226544   0.992   3.567  11.559 -1.2070  0.2977  1.6713
 4971SOL     OW26545   3.500   3.792  12.622 -0.5747  0.4372 -0.1786
 4971SOL    HW126546   3.567   3.791  12.554 -0.8922  3.6997 -0.5108
 4971SOL    HW226547   3.501   3.887  12.631 -0.2520  0.6639 -2.6938
 4972SOL     OW26548   2.443   4.008   5.128  0.3795 -0.2066  0.5397
 4972SOL    HW126549   2.431   3.966   5.213  0.6888 -3.6134 -1.1017
 4972SOL    HW226550   2.445   4.095   5.169 -0.3573 -1.4385  3.1622
 4973SOL     OW26551   3.207   2.034  15.753 -0.0614 -0.2115 -0.0220
 4973SOL    HW126552   3.294   2.049  15.789  0.7415 -0.7389 -1.7142
 4973SOL    HW226553   3.169   2.120  15.770  2.2579  0.9866 -0.8742
 4974SOL     OW26554   0.642   1.539   2.768 -0.2158 -0.1848  0.0925
 4974SOL    HW126555   0.718   1.504   2.722 -0.4770  1.9790 -1.9903
 4974SOL    HW226556   0.687   1.609   2.815 -1.1251  0.7544 -0.4260
 4975SOL     OW26557   2.446   1.668   3.994  0.0425 -0.1252 -0.0284
 4975SOL    HW126558   2.502   1.727   3.944  2.3043 -2.7609 -0.6205
 4975SOL    HW226559   2.500   1.588   3.995 -1.1446 -0.9082  2.6422
 4976SOL     OW26560   1.899   4.375   0.425  0.0397 -0.1129  0.1859
 4976SOL    HW126561   1.922   4.371   0.332  0.1207  0.5186  0.1782
 4976SOL    HW226562   1.818   4.425   0.424 -2.0211 -3.3853  1.2046
 4977SOL     OW26563   1.188   2.147   7.701 -0.0478  0.6451 -0.0406
 4977SOL    HW126564   1.106   2.154   7.749  1.0502  2.1004  1.6273
 4977SOL    HW226565   1.179   2.222   7.642 -1.1284  0.8109  0.3258
 4978SOL     OW26566   2.319   2.537   6.802  0.0465  0.2584 -0.2009
 4978SOL    HW126567   2.234   2.556   6.841 -0.3748 -1.0249 -0.4905
 4978SOL    HW226568   2.354   2.481   6.871  0.4462 -0.4511 -0.9895
 4979SOL     OW26569   1.029   0.169   9.076  0.6578 -0.1638  0.5627
 4979SOL    HW126570   0.935   0.163   9.092  0.5897  1.2134  0.6973
 4979SOL    HW226571   1.063   0.100   9.132  2.1680 -0.4320 -0.6541
 4980SOL     OW26572   2.413   1.470  11.482 -0.3164 -0.1451 -0.1130
 4980SOL    HW126573   2.356   1.393  11.492  0.5304 -0.4275  2.7000
 4980SOL    HW226574   2.473   1.448  11.553 -0.0036 -0.0331 -0.3425
 4981SOL     OW26575   4.381   3.842   7.047 -0.2389 -0.3950 -0.0763
 4981SOL    HW126576   4.398   3.814   6.957 -2.1324  0.1851 -0.6120
 4981SOL    HW226577   4.435   3.921   7.045 -0.5704 -0.1806 -0.4723
 4982SOL     OW26578   3.885   0.193  16.292  0.5002 -0.2876  1.0924
 4982SOL    HW126579   3.831   0.271  16.281 -0.0830 -1.1147 -1.9378
 4982SOL    HW226580   3.843   0.121  16.245  0.1766  1.0662 -0.7058
 4983SOL     OW26581   1.280   1.444   2.169  0.2726  0.3602  0.0833
 4983SOL    HW126582   1.264   1.412   2.258  0.3757 -2.6515 -0.9991
 4983SOL    HW226583   1.224   1.522   2.163 -1.6146 -1.0056  0.0548
 4984SOL     OW26584   0.220   4.629   8.334 -0.1015 -0.0431  0.4497
 4984SOL    HW126585   0.281   4.566   8.294 -0.5936 -0.2466  0.0225
 4984SOL    HW226586   0.139   4.581   8.323  0.2913 -0.7135  0.4754
 4985SOL     OW26587   2.464   0.264   3.468 -0.1638 -0.1843  0.2379
 4985SOL    HW126588   2.559   0.256   3.459 -0.1982 -1.3074  0.8581
 4985SOL    HW226589   2.431   0.176   3.482 -1.1877  0.1637 -0.0482
 4986SOL     OW26590   2.815   0.695   8.930  0.6563 -0.1714 -0.7761
 4986SOL    HW126591   2.744   0.700   8.865  0.3299 -1.6479 -0.5368
 4986SOL    HW226592   2.780   0.633   8.994  1.0073  1.7463  1.2331
 4987SOL     OW26593   0.873   4.553   2.898  0.0558 -0.0191 -0.1456
 4987SOL    HW126594   0.938   4.538   2.830 -0.0994 -0.1839 -0.2552
 4987SOL    HW226595   0.865   4.466   2.937 -0.3375  0.2135  0.3002
 4988SOL     OW26596   1.744   2.961   2.842 -0.1225  0.0196 -0.0270
 4988SOL    HW126597   1.722   2.988   2.753 -0.1724  1.4349  0.4131
 4988SOL    HW226598   1.692   2.883   2.860 -2.0394  1.4916  0.8845
 4989SOL     OW26599   1.271   4.637  12.550  0.7593  0.0826  0.2010
 4989SOL    HW126600   1.340   4.672  12.495  0.6218  0.7439  0.4454
 4989SOL    HW226601   1.247   4.718  12.595  0.4867 -0.6401  1.3591
 4990SOL     OW26602   3.868   2.060   4.859 -0.2063  0.2451  0.0687
 4990SOL    HW126603   3.782   2.040   4.823  0.4436  4.3654 -3.6830
 4990SOL    HW226604   3.908   2.080   4.774  0.0754 -1.5631 -0.2152
 4991SOL     OW26605   4.520   0.320   1.871  0.5103 -0.3445  0.1986
 4991SOL    HW126606   4.484   0.288   1.954 -0.3957 -1.8553 -0.7808
 4991SOL    HW226607   4.590   0.383   1.889 -0.0007  0.3041 -0.1242
 4992SOL     OW26608   3.088   0.274  15.345 -0.4420  0.1011 -0.3674
 4992SOL    HW126609   3.149   0.212  15.305 -0.7683 -0.9132  0.7067
 4992SOL    HW226610   3.007   0.228  15.323 -1.1457  1.4132 -0.5459
 4993SOL     OW26611   2.911   4.078   4.252 -0.0466 -0.5426 -0.2817
 4993SOL    HW126612   2.889   4.128   4.173  1.8284  2.7250  1.2666
 4993SOL    HW226613   2.843   4.115   4.308  2.7576  0.9450  2.1394
 4994SOL     OW26614   3.431   0.722   6.972  0.4467 -0.4864  0.3346
 4994SOL    HW126615   3.382   0.649   7.009 -0.5667  0.0847  0.1181
 4994SOL    HW226616   3.365   0.756   6.911  1.9709 -1.3503 -1.8121
 4995SOL     OW26617   0.547   1.448   9.394 -0.1690 -0.9754 -0.2730
 4995SOL    HW126618   0.520   1.418   9.307  0.4430  0.4134 -0.9439
 4995SOL    HW226619   0.523   1.370   9.444  1.0385 -0.8697  0.4785
 4996SOL     OW26620   1.923   0.099   7.485  0.3224 -0.6863 -0.0858
 4996SOL    HW126621   1.845   0.143   7.451  0.5742  0.3519  0.6701
 4996SOL    HW226622   1.934   0.149   7.566  0.2945  0.6495 -0.8946
 4997SOL     OW26623   1.140   1.974  11.289  0.2024 -0.2296  1.0277
 4997SOL    HW126624   1.151   2.036  11.361  1.9807  0.4103  0.2034
 4997SOL    HW226625   1.169   1.899  11.340  0.6276 -1.1133 -0.4974
 4998SOL     OW26626   3.910   1.414   1.175  0.3079  0.0497  0.1082
 4998SOL    HW126627   3.939   1.350   1.111  2.3057  1.9444 -0.9060
 4998SOL    HW226628   3.895   1.489   1.117  0.1370 -0.6985 -0.7913
 4999SOL     OW26629   3.499   1.142  17.180  0.6832  0.3917 -0.2045
 4999SOL    HW126630   3.432   1.208  17.162  0.3201  0.8946  2.9815
 4999SOL    HW226631   3.440   1.070  17.204  0.4849  0.6134 -0.0273
 5000SOL     OW26632   0.989   1.475   1.825  0.0217 -0.0334  0.5478
 5000SOL    HW126633   1.013   1.493   1.734  1.2927 -4.2513  0.0541
 5000SOL    HW226634   1.078   1.475   1.860  0.1174  0.8023  0.3165
 5001SOL     OW26635   2.218   1.236   6.218 -0.1604 -0.0037 -0.0430
 5001SOL    HW126636   2.283   1.288   6.171  1.7044 -1.5910  0.7494
 5001SOL    HW226637   2.268   1.190   6.286 -0.4155  1.5945  1.2304
 5002SOL     OW26638   2.313   1.282   5.210 -0.2912  0.3536 -0.0574
 5002SOL    HW126639   2.331   1.374   5.190  2.2056  0.3218  2.0985
 5002SOL    HW226640   2.335   1.244   5.126  2.3472  2.1860 -0.1872
 5003SOL     OW26641   2.749   3.739   6.472 -0.7028 -0.1478 -0.5300
 5003SOL    HW126642   2.748   3.660   6.527 -1.3243 -0.0993 -0.4735
 5003SOL    HW226643   2.657   3.759   6.458 -0.4439  0.7075 -0.9748
 5004SOL     OW26644   0.767   4.349   1.950 -0.0578  0.0970  0.0736
 5004SOL    HW126645   0.703   4.278   1.960 -1.1842  0.8523 -1.7253
 5004SOL    HW226646   0.719   4.392   1.878  1.9676  0.2758 -1.1684
 5005SOL     OW26647   3.611   0.635   4.179  0.3155 -0.1128  0.3637
 5005SOL    HW126648   3.706   0.632   4.170  0.2676  1.6781 -0.7820
 5005SOL    HW226649   3.605   0.693   4.254  0.5358  1.8621 -1.1381
 5006SOL     OW26650   2.761   2.123   4.052 -0.2463  0.3286 -0.0535
 5006SOL    HW126651   2.769   2.096   4.144  2.0901  2.1750  0.2725
 5006SOL    HW226652   2.666   2.124   4.043 -0.3930 -0.3671  1.3962
 5007SOL     OW26653   0.800   2.694   8.296  0.0638  1.2672  0.3638
 5007SOL    HW126654   0.895   2.686   8.289 -0.2858 -2.5665  0.2756
 5007SOL    HW226655   0.783   2.610   8.255 -0.4242  0.8222  1.4855
 5008SOL     OW26656   1.369   0.898   1.528 -0.4017 -0.2796 -0.0437
 5008SOL    HW126657   1.447   0.927   1.575  0.1397  0.8616 -1.6628
 5008SOL    HW226658   1.313   0.972   1.549  1.0572  1.0248 -0.7809
 5009SOL     OW26659   3.071   1.683   4.145  0.3453  0.0640  0.6136
 5009SOL    HW126660   3.112   1.754   4.096 -0.6099  0.7697  0.8464
 5009SOL    HW226661   3.124   1.680   4.225 -0.7663 -0.5385  1.3365
 5010SOL     OW26662   3.608   0.408   4.342  0.2883 -0.0215 -0.5157
 5010SOL    HW126663   3.648   0.341   4.286 -2.6942 -0.8391 -1.6806
 5010SOL    HW226664   3.567   0.456   4.270  0.6650  0.9132 -0.1002
 5011SOL     OW26665   1.877   1.529   5.850 -0.0820  0.5498  0.3400
 5011SOL    HW126666   1.793   1.482   5.854  1.1122 -1.5410  0.5856
 5011SOL    HW226667   1.910   1.485   5.772 -0.5062 -2.1061  1.6639
 5012SOL     OW26668   4.533   4.149   5.819 -0.1957  0.3159 -0.1952
 5012SOL    HW126669   4.473   4.078   5.797  1.1510 -0.4930 -1.3056
 5012SOL    HW226670   4.549   4.136   5.913 -0.6319 -0.2608 -0.2022
 5013SOL     OW26671   3.813   1.442   1.743 -0.8075 -0.4030 -0.3898
 5013SOL    HW126672   3.866   1.417   1.819 -1.3697  0.4152  0.2808
 5013SOL    HW226673   3.848   1.387   1.673 -0.7355 -1.0026  0.1149
 5014SOL     OW26674   3.816   2.951  15.453 -0.1273  0.2520 -0.0581
 5014SOL    HW126675   3.751   3.011  15.416 -0.1161  0.7011  0.6677
 5014SOL    HW226676   3.898   2.995  15.433  0.9629 -0.5030  2.8815
 5015SOL     OW26677   1.285   4.361   2.366 -0.4304  0.2130 -0.0193
 5015SOL    HW126678   1.239   4.392   2.288 -0.5266 -0.2781 -0.1541
 5015SOL    HW226679   1.217   4.301   2.394 -0.6570  0.2413 -0.5103
 5016SOL     OW26680   2.918   2.342  17.030  0.4744  0.2999  0.3000
 5016SOL    HW126681   2.965   2.316  17.109  0.1164  1.1183  0.7817
 5016SOL    HW226682   2.986   2.333  16.963 -0.0775  0.3680 -0.2666
 5017SOL     OW26683   3.622   4.463   2.193 -0.1509  0.0887 -0.2877
 5017SOL    HW126684   3.529   4.488   2.189  0.0576  0.7835 -0.7795
 5017SOL    HW226685   3.673   4.542   2.175  3.2080 -1.5293  2.1457
 5018SOL     OW26686   0.255   3.427   5.732  0.0375 -0.2897 -0.4928
 5018SOL    HW126687   0.254   3.360   5.801 -0.7285 -0.8002 -0.9998
 5018SOL    HW226688   0.247   3.381   5.649 -0.7091  2.2069 -1.7969
 5019SOL     OW26689   2.663   2.168   4.866 -0.3770  0.3808  0.4846
 5019SOL    HW126690   2.633   2.112   4.937 -0.1310  0.9465  1.0252
 5019SOL    HW226691   2.650   2.256   4.901 -2.3708 -0.3065  1.4661
 5020SOL     OW26692   1.375   1.419   7.623 -0.2149  0.2886  0.2571
 5020SOL    HW126693   1.301   1.371   7.585  0.2530 -2.6972  3.1116
 5020SOL    HW226694   1.335   1.455   7.702  2.8485 -0.0229  1.9295
 5021SOL     OW26695   4.600   4.259   3.807 -0.4688 -0.4140 -0.3252
 5021SOL    HW126696   4.652   4.333   3.840 -0.4115 -1.0762  1.0832
 5021SOL    HW226697   4.563   4.225   3.888  0.5417  0.2569  0.4129
 5022SOL     OW26698   0.360   3.696  15.595  0.1100  0.0908  0.7306
 5022SOL    HW126699   0.366   3.739  15.509 -0.8005  2.2124  1.7313
 5022SOL    HW226700   0.434   3.741  15.637 -0.0526  1.9556 -0.9607
 5023SOL     OW26701   0.653   2.731   8.850 -0.2319 -0.9537  0.0657
 5023SOL    HW126702   0.695   2.803   8.802 -0.2630 -0.5941  0.5825
 5023SOL    HW226703   0.564   2.738   8.816 -0.2281  0.8535  0.4180
 5024SOL     OW26704   0.907   4.470   8.497  0.0704  0.0621  0.6271
 5024SOL    HW126705   0.976   4.415   8.461 -0.3780 -0.2330  0.2184
 5024SOL    HW226706   0.854   4.478   8.417  0.5966 -3.5535 -0.0767
 5025SOL     OW26707   2.904   0.538   2.321  0.1677 -0.2651 -0.0742
 5025SOL    HW126708   2.915   0.631   2.306  1.7792 -0.7846 -2.0242
 5025SOL    HW226709   2.981   0.499   2.280  0.6683  1.0272 -0.3380
 5026SOL     OW26710   4.025   0.998   0.833 -0.1783  0.6525 -0.0201
 5026SOL    HW126711   4.086   1.066   0.860 -0.6691  1.3154 -0.5823
 5026SOL    HW226712   4.086   0.947   0.779  1.8311  0.3468  2.5176
 5027SOL     OW26713   1.401   2.910   8.245  0.5839 -0.0678  0.4992
 5027SOL    HW126714   1.308   2.909   8.223  0.7387  0.7246 -0.2131
 5027SOL    HW226715   1.385   2.903   8.339 -1.2158 -3.0293 -0.0257
 5028SOL     OW26716   0.728   0.007   0.575 -0.4926 -0.4254  0.6401
 5028SOL    HW126717   0.634   4.729   0.576 -0.5398 -0.2134 -0.5146
 5028SOL    HW226718   0.772   4.674   0.618  3.5605  1.5325 -0.1260
 5029SOL     OW26719   3.804   1.747   2.424  0.4494  0.3338 -0.8540
 5029SOL    HW126720   3.835   1.674   2.369  0.2272  0.6094 -1.3503
 5029SOL    HW226721   3.833   1.819   2.367 -0.1673  3.1343  2.4223
 5030SOL     OW26722   4.718   2.593   6.746 -0.3752 -0.2433 -0.3117
 5030SOL    HW126723   0.072   2.580   6.744 -0.1164  1.7569 -0.9703
 5030SOL    HW226724   4.692   2.623   6.659  1.5123 -0.3085 -0.8772
 5031SOL     OW26725   3.973   3.622   5.003  0.1300  0.0955  0.1841
 5031SOL    HW126726   4.018   3.572   5.070  1.7448 -0.1297 -1.0654
 5031SOL    HW226727   3.910   3.560   4.968  1.4103 -1.0739 -0.0392
 5032SOL     OW26728   0.158   0.131   9.106  0.3161 -0.4654 -0.2762
 5032SOL    HW126729   0.238   0.119   9.055 -0.3800 -0.0667 -1.4576
 5032SOL    HW226730   0.089   0.122   9.041 -0.0351 -0.4411  0.0914
 5033SOL     OW26731   3.620   2.351   1.090 -0.7950  0.3844  0.0353
 5033SOL    HW126732   3.546   2.336   1.150  0.3074 -3.5406  0.4256
 5033SOL    HW226733   3.647   2.439   1.114  0.0794 -0.0825  0.8047
 5034SOL     OW26734   2.763   4.556   9.588  0.1146 -0.0095 -0.3098
 5034SOL    HW126735   2.718   4.515   9.661  0.7954 -3.3706 -1.7835
 5034SOL    HW226736   2.721   4.642   9.590 -0.6118 -0.3523 -0.7378
 5035SOL     OW26737   1.661   3.414   1.733  0.3971 -0.5362 -0.3123
 5035SOL    HW126738   1.707   3.354   1.791 -0.5117  0.6834  1.6775
 5035SOL    HW226739   1.715   3.493   1.737 -0.5869  0.2630 -2.4465
 5036SOL     OW26740   4.327   2.174   4.759  0.1995  0.6166  0.3218
 5036SOL    HW126741   4.382   2.220   4.823  0.6168 -0.2364  0.5732
 5036SOL    HW226742   4.318   2.088   4.799  2.3971  0.2642  0.0572
 5037SOL     OW26743   3.520   3.664   7.179 -0.3146  0.4154  0.0895
 5037SOL    HW126744   3.468   3.604   7.125  0.6965  1.2891 -1.8407
 5037SOL    HW226745   3.447   3.720   7.205  0.5444  1.2311  0.6852
 5038SOL     OW26746   3.723   0.735   6.453  0.0445 -0.1605  0.1634
 5038SOL    HW126747   3.794   0.685   6.492  0.0741 -1.4602 -1.5568
 5038SOL    HW226748   3.652   0.697   6.505  1.4538  0.5061  2.5888
 5039SOL     OW26749   0.844   0.240   6.433 -0.7648 -0.4617 -0.1960
 5039SOL    HW126750   0.856   0.297   6.509 -1.3593  0.3499 -0.7071
 5039SOL    HW226751   0.772   0.183   6.459 -1.2042  0.5975  0.9233
 5040SOL     OW26752   1.963   3.678   4.990 -0.2151  0.1004 -0.2011
 5040SOL    HW126753   1.897   3.718   4.934 -0.8222  0.5164  0.8076
 5040SOL    HW226754   1.953   3.709   5.080  0.7005  1.9784 -0.7558
 5041SOL     OW26755   0.311   2.199  15.932  0.0899 -0.7441 -0.4025
 5041SOL    HW126756   0.293   2.204  15.838  0.1486  0.5999 -0.3383
 5041SOL    HW226757   0.257   2.122  15.952 -1.9666  0.0277 -2.8776
 5042SOL     OW26758   3.755   1.855   8.136  0.1934  0.1277  0.4301
 5042SOL    HW126759   3.687   1.788   8.132 -0.6382  0.9890 -0.0695
 5042SOL    HW226760   3.831   1.809   8.100 -0.8669 -0.9558 -0.3949
 5043SOL     OW26761   1.354   2.071   7.338  0.2761  0.1686 -0.2368
 5043SOL    HW126762   1.262   2.049   7.347  0.1547  0.7782  0.0039
 5043SOL    HW226763   1.384   2.038   7.423  0.3652  2.2752  0.5314
 5044SOL     OW26764   0.003   0.373   1.017 -0.1168  0.6915 -0.3952
 5044SOL    HW126765   4.705   0.360   0.931  0.3965  0.8803 -0.6612
 5044SOL    HW226766   0.024   0.467   1.020  2.0249  0.2926 -2.4196
 5045SOL     OW26767   1.724   3.403   6.360  0.2646 -0.6733 -0.4493
 5045SOL    HW126768   1.673   3.454   6.423 -2.7964 -1.7124 -2.1044
 5045SOL    HW226769   1.796   3.377   6.418 -0.5826 -0.7694  0.5723
 5046SOL     OW26770   0.356   2.883   5.880 -0.2005 -0.1854  0.0110
 5046SOL    HW126771   0.358   2.968   5.835  2.0855 -0.2927 -0.1211
 5046SOL    HW226772   0.268   2.849   5.869  0.3908 -0.5333 -3.5789
 5047SOL     OW26773   2.139   0.312   1.035 -0.5287  0.1453 -0.2261
 5047SOL    HW126774   2.062   0.257   1.050 -0.1371 -1.3495 -3.7189
 5047SOL    HW226775   2.204   0.253   0.996 -0.1912 -0.9506  2.0108
 5048SOL     OW26776   3.392   3.149   8.298 -0.2058  0.4963 -0.8184
 5048SOL    HW126777   3.366   3.132   8.207  2.4775 -0.3992 -1.4041
 5048SOL    HW226778   3.315   3.109   8.339  0.5067  1.1382  1.1263
 5049SOL     OW26779   2.023   4.710   3.037 -0.0460  0.0302  0.1085
 5049SOL    HW126780   2.001   4.657   2.961  0.6414  0.3078 -0.2801
 5049SOL    HW226781   2.087   0.028   2.996 -0.6722  0.9777  0.4696
 5050SOL     OW26782   4.680   2.669   2.748  0.6974 -0.0534  0.3919
 5050SOL    HW126783   4.641   2.684   2.662  0.3473 -0.9489  0.3977
 5050SOL    HW226784   4.699   2.760   2.772 -1.5062  0.4226  0.2941
 5051SOL     OW26785   4.388   1.099  13.682 -0.3731  0.1759 -0.3033
 5051SOL    HW126786   4.332   1.137  13.615 -3.8764 -0.9273  1.9639
 5051SOL    HW226787   4.462   1.070  13.629 -1.0658  0.8573 -1.6161
 5052SOL     OW26788   4.417   1.517  11.808  0.4588 -0.2371  0.3132
 5052SOL    HW126789   4.391   1.584  11.871 -0.2527 -0.3371  0.1319
 5052SOL    HW226790   4.335   1.472  11.788 -0.4403  0.4614  2.4700
 5053SOL     OW26791   3.799   0.987   3.883  0.3835  0.0161 -0.4437
 5053SOL    HW126792   3.763   0.914   3.831 -0.4570 -1.3679  2.0657
 5053SOL    HW226793   3.870   1.015   3.825  0.5358 -0.9753 -0.7327
 5054SOL     OW26794   2.715   3.305  12.934  0.3884  0.0619  0.0699
 5054SOL    HW126795   2.738   3.231  12.990  0.8650  2.2067  2.7723
 5054SOL    HW226796   2.793   3.305  12.880 -0.8288 -0.0200 -1.6963
 5055SOL     OW26797   3.821   1.657   3.182  0.1195 -0.2616 -0.3145
 5055SOL    HW126798   3.861   1.681   3.265 -0.0048 -0.8699 -0.0818
 5055SOL    HW226799   3.840   1.736   3.130  0.0232 -0.2834 -0.3822
 5056SOL     OW26800   1.830   3.187  15.688 -0.2821  0.4389  0.0985
 5056SOL    HW126801   1.801   3.175  15.597 -3.3969 -3.2024  1.5360
 5056SOL    HW226802   1.763   3.140  15.738 -1.5049  2.2215  0.1189
 5057SOL     OW26803   1.701   3.998   6.566  0.0933  0.9258 -0.6137
 5057SOL    HW126804   1.724   3.905   6.562  0.2659  0.9756 -0.7306
 5057SOL    HW226805   1.620   4.008   6.516 -0.2740  0.8582 -0.0386
 5058SOL     OW26806   1.680   0.959   2.849 -0.2675  0.4828 -0.6639
 5058SOL    HW126807   1.727   0.886   2.808 -3.3054 -1.2265 -1.0369
 5058SOL    HW226808   1.611   0.975   2.785  0.1937  0.7762 -1.0906
 5059SOL     OW26809   0.382   4.616   7.296 -0.3173 -0.6015  0.3095
 5059SOL    HW126810   0.371   4.565   7.215 -0.9969  2.2416 -1.3725
 5059SOL    HW226811   0.389   4.704   7.260 -2.6857 -0.1873  0.8301
 5060SOL     OW26812   4.156   2.589   4.180 -0.0899 -0.0555  0.2902
 5060SOL    HW126813   4.195   2.650   4.243  2.1692 -0.2050 -1.0005
 5060SOL    HW226814   4.070   2.632   4.182 -0.0240  0.0398  1.0288
 5061SOL     OW26815   3.491   2.119  12.834  0.2803  0.2614  0.4360
 5061SOL    HW126816   3.534   2.062  12.897  0.1562 -1.1482 -0.7482
 5061SOL    HW226817   3.540   2.109  12.752 -1.1337 -1.2884 -0.2247
 5062SOL     OW26818   4.554   1.344  17.088  0.0394  0.0651 -0.5946
 5062SOL    HW126819   4.602   1.416  17.130  1.3493 -1.2476  0.1615
 5062SOL    HW226820   4.617   1.310  17.025 -0.0343 -0.6298 -0.2919
 5063SOL     OW26821   0.476   2.393   5.529  0.0733  0.1964 -0.4160
 5063SOL    HW126822   0.504   2.425   5.443  1.6012  0.4618  0.1779
 5063SOL    HW226823   0.431   2.310   5.511 -0.9441  0.6088  0.2947
 5064SOL     OW26824   3.432   2.226  15.357 -0.3857 -0.2699  0.0476
 5064SOL    HW126825   3.481   2.218  15.439 -0.0661  2.1000  0.0964
 5064SOL    HW226826   3.460   2.314  15.331 -0.5330 -0.0015  0.7850
 5065SOL     OW26827   3.743   0.815  12.240  0.1434 -0.6857 -0.0539
 5065SOL    HW126828   3.823   0.814  12.187  0.7431 -0.0764  0.8394
 5065SOL    HW226829   3.770   0.747  12.302 -1.1907 -2.4686 -1.4644
 5066SOL     OW26830   4.004   1.067   6.364 -0.7559 -0.4610  0.2867
 5066SOL    HW126831   4.069   1.120   6.317  1.9876 -2.1771  2.0981
 5066SOL    HW226832   4.054   1.039   6.441  1.5096 -0.4626 -1.1768
 5067SOL     OW26833   0.780   0.350   7.300 -0.3715 -0.1774 -0.4268
 5067SOL    HW126834   0.848   0.346   7.232  0.6501 -1.1313  0.6442
 5067SOL    HW226835   0.831   0.307   7.369 -1.1917 -2.0976 -1.0133
 5068SOL     OW26836   3.209   1.174   7.185 -0.4447  0.6592  1.1076
 5068SOL    HW126837   3.137   1.224   7.224  0.2708  1.5557  1.2822
 5068SOL    HW226838   3.274   1.236   7.153 -0.8019  0.3774 -0.1890
 5069SOL     OW26839   3.891   3.500   3.909 -0.9435 -0.1814 -0.0618
 5069SOL    HW126840   3.847   3.416   3.922 -0.2076 -0.7940 -1.4834
 5069SOL    HW226841   3.841   3.537   3.837  0.4180 -1.7711 -1.8262
 5070SOL     OW26842   1.444   2.463   5.576  0.1352 -0.2301 -0.5781
 5070SOL    HW126843   1.496   2.543   5.579  1.3363 -0.9492 -1.8806
 5070SOL    HW226844   1.508   2.409   5.529  2.8667 -1.1890  4.2912
 5071SOL     OW26845   0.643   3.026   4.136  0.3929 -0.7866  0.1887
 5071SOL    HW126846   0.553   3.052   4.112 -0.0081 -1.7302  0.6825
 5071SOL    HW226847   0.663   3.097   4.197 -0.3574  1.4812 -2.1607
 5072SOL     OW26848   2.727   1.853  11.776  0.2425 -0.0248  0.3574
 5072SOL    HW126849   2.679   1.782  11.732  1.6198  0.6442 -2.2212
 5072SOL    HW226850   2.739   1.818  11.865 -0.6362 -1.7940 -0.2158
 5073SOL     OW26851   4.121   3.647   6.703  0.2160  0.1116  0.3337
 5073SOL    HW126852   4.135   3.670   6.795  0.2626  1.6087 -0.0567
 5073SOL    HW226853   4.076   3.564   6.716  0.8489  0.1301  2.7603
 5074SOL     OW26854   4.267   2.194   2.256 -0.0837  0.3198 -0.3124
 5074SOL    HW126855   4.351   2.182   2.301  0.4523  0.2739 -1.3120
 5074SOL    HW226856   4.271   2.281   2.218 -0.2721 -0.5888 -2.4230
 5075SOL     OW26857   2.764   2.114   4.626  0.0453  0.2804  0.1567
 5075SOL    HW126858   2.707   2.186   4.597  0.3063  0.6828  0.6473
 5075SOL    HW226859   2.747   2.120   4.720  1.2352  0.1850  0.3775
 5076SOL     OW26860   0.082   2.485   1.329  0.0665 -0.1761  0.1304
 5076SOL    HW126861   0.023   2.517   1.261 -0.2262  1.8439  1.3302
 5076SOL    HW226862   0.012   2.462   1.390  0.3303  1.7403  1.1918
 5077SOL     OW26863   0.979   0.797   6.378  0.3439 -0.5177  0.7489
 5077SOL    HW126864   0.964   0.869   6.439  1.2184  0.6892 -0.4612
 5077SOL    HW226865   1.016   0.852   6.308 -2.0048  2.6817  2.0078
 5078SOL     OW26866   3.142   3.014  13.114  0.3995 -0.5120  0.3445
 5078SOL    HW126867   3.130   3.087  13.174  0.9132 -1.1109  1.1696
 5078SOL    HW226868   3.210   2.960  13.154  0.7824  0.2925  0.7747
 5079SOL     OW26869   4.241   1.822  12.838  0.2737  0.0587  0.2012
 5079SOL    HW126870   4.242   1.917  12.831  0.2512 -0.0358 -1.2452
 5079SOL    HW226871   4.326   1.793  12.803 -0.0590 -2.3216  1.3385
 5080SOL     OW26872   3.385   1.782  14.427  0.3107  0.1352  0.2574
 5080SOL    HW126873   3.291   1.788  14.443  0.3923  0.2996  0.6730
 5080SOL    HW226874   3.422   1.827  14.502 -1.6618  4.1194 -1.1141
 5081SOL     OW26875   4.138   1.173   1.801  0.3800 -0.4601  0.4306
 5081SOL    HW126876   4.086   1.173   1.720  0.3727 -0.2090  0.4356
 5081SOL    HW226877   4.118   1.257   1.841 -3.0805 -1.3512  0.6176
 5082SOL     OW26878   1.385   4.503  16.824 -0.0817 -0.0550  0.3382
 5082SOL    HW126879   1.295   4.495  16.856 -1.2016 -1.8739 -3.3147
 5082SOL    HW226880   1.430   4.438  16.878  1.4331  0.3952 -0.4019
 5083SOL     OW26881   0.558   0.989   9.297 -0.2738  0.3828  0.0089
 5083SOL    HW126882   0.617   0.948   9.233  0.6633  0.9339  0.5207
 5083SOL    HW226883   0.538   0.908   9.344  1.6106 -0.6499 -0.9647
 5084SOL     OW26884   3.709   4.220   6.800 -0.1144 -0.3194 -0.5448
 5084SOL    HW126885   3.700   4.126   6.814 -1.1555 -0.1246  0.0545
 5084SOL    HW226886   3.630   4.234   6.748  0.4090 -2.2707 -1.8656
 5085SOL     OW26887   1.720   2.907   6.853 -0.0556 -0.7366  0.5723
 5085SOL    HW126888   1.702   2.945   6.938 -1.2375  1.8595 -0.8409
 5085SOL    HW226889   1.809   2.874   6.862  0.3012  0.3660  0.9813
 5086SOL     OW26890   4.656   3.354   5.015 -0.0227  0.3519 -0.1326
 5086SOL    HW126891   4.617   3.441   5.006  1.5156  1.1426  0.8403
 5086SOL    HW226892   4.699   3.349   4.930 -0.9859  0.2415 -0.6213
 5087SOL     OW26893   0.853   2.939   8.051 -0.3922  0.0216  0.1078
 5087SOL    HW126894   0.896   3.010   8.098  0.8223 -0.3272 -0.4746
 5087SOL    HW226895   0.920   2.871   8.062 -1.3426 -1.2861 -2.0849
 5088SOL     OW26896   3.866   0.947  17.578  0.2079 -0.0427 -0.2229
 5088SOL    HW126897   3.962   0.948  17.587  0.2025 -0.9284 -0.1402
 5088SOL    HW226898   3.871   0.898  17.496 -2.4062 -2.4945  1.1011
 5089SOL     OW26899   4.264   0.547   3.479 -0.1799 -0.1117 -0.4733
 5089SOL    HW126900   4.326   0.487   3.437  1.3180 -0.6255  2.4350
 5089SOL    HW226901   4.323   0.603   3.530 -0.8788 -0.4073  0.6560
 5090SOL     OW26902   4.692   2.808   4.849  0.3451  0.6060 -0.3083
 5090SOL    HW126903   4.694   2.794   4.944 -0.9537 -0.2802 -0.4134
 5090SOL    HW226904   4.704   2.903   4.842  0.3761  0.4402 -2.5698
 5091SOL     OW26905   2.612   2.034   5.376 -0.1593 -0.0640 -0.1564
 5091SOL    HW126906   2.645   1.980   5.448  1.0758 -1.3493 -1.6735
 5091SOL    HW226907   2.550   2.092   5.419  1.3484  2.0040 -0.7355
 5092SOL     OW26908   2.288   2.586  12.576  0.0750 -0.2417 -0.0051
 5092SOL    HW126909   2.230   2.521  12.536 -0.3935  0.1130  0.1007
 5092SOL    HW226910   2.318   2.533  12.650  1.7668 -1.9868 -1.9134
 5093SOL     OW26911   1.620   4.612   2.269  0.6781 -0.0957  0.0840
 5093SOL    HW126912   1.619   4.694   2.318 -2.3345 -0.5153  0.7242
 5093SOL    HW226913   1.694   4.631   2.212  1.1467 -1.5178  0.2106
 5094SOL     OW26914   1.424   1.767  11.140  0.2268 -0.2100  0.3705
 5094SOL    HW126915   1.358   1.742  11.206 -0.5507 -0.7019 -0.5846
 5094SOL    HW226916   1.381   1.738  11.059  1.1419 -0.0938 -0.1503
 5095SOL     OW26917   3.262   2.445   7.056  0.2720 -0.6268  0.9648
 5095SOL    HW126918   3.168   2.452   7.073  0.5328  0.8345  1.8064
 5095SOL    HW226919   3.260   2.411   6.966  0.6455 -0.3292  0.8430
 5096SOL     OW26920   0.905   2.175  14.723  0.0016  0.5632  0.2645
 5096SOL    HW126921   0.942   2.214  14.644 -1.3163  0.3601 -0.4537
 5096SOL    HW226922   0.810   2.188  14.711 -0.2129 -2.5930 -1.4500
 5097SOL     OW26923   4.581   3.618   4.471 -0.7781 -0.0504 -0.5854
 5097SOL    HW126924   4.634   3.693   4.499 -1.2918 -0.7624  2.2942
 5097SOL    HW226925   4.564   3.566   4.550 -0.4419 -0.6601 -0.9139
 5098SOL     OW26926   2.748   0.272  14.174 -0.5360  0.0165 -0.2373
 5098SOL    HW126927   2.795   0.210  14.119  0.1442  0.8674 -0.5949
 5098SOL    HW226928   2.813   0.333  14.208 -1.0795  0.2425  0.4145
 5099SOL     OW26929   0.849   1.191  11.250  0.2088 -0.2032  0.0324
 5099SOL    HW126930   0.774   1.249  11.262 -0.1742 -0.8031  0.5365
 5099SOL    HW226931   0.901   1.218  11.325  0.1005  0.5716 -0.1742
 5100SOL     OW26932   2.630   2.407  16.870 -0.0382  0.0629  1.0458
 5100SOL    HW126933   2.557   2.468  16.858  1.2299  1.4381  0.3984
 5100SOL    HW226934   2.607   2.345  16.801 -0.7263  1.0956  0.3545
 5101SOL     OW26935   2.649   3.236   2.160 -0.2012 -0.2861 -0.1286
 5101SOL    HW126936   2.674   3.328   2.153 -1.6534  0.1096 -0.2081
 5101SOL    HW226937   2.723   3.200   2.209 -1.2962 -0.1237  1.6462
 5102SOL     OW26938   2.958   3.756   6.832  0.2797 -0.2953  0.2552
 5102SOL    HW126939   3.040   3.773   6.878  0.2061 -0.9571  0.6345
 5102SOL    HW226940   2.915   3.717   6.909 -0.7357 -3.1503 -1.7266
 5103SOL     OW26941   4.337   0.622   5.306  0.9802 -0.8456 -0.3533
 5103SOL    HW126942   4.373   0.541   5.341  1.1171 -1.1000 -1.0813
 5103SOL    HW226943   4.313   0.659   5.391 -1.0323 -0.4245 -1.1188
 5104SOL     OW26944   1.298   2.632   9.986  1.0094  0.0622  0.4099
 5104SOL    HW126945   1.218   2.591  10.019  0.7245  1.4013  1.4001
 5104SOL    HW226946   1.362   2.619  10.056  2.1701  2.0794 -0.2606
 5105SOL     OW26947   0.672   3.756   5.972 -0.0135  0.1606 -0.2490
 5105SOL    HW126948   0.588   3.710   5.962 -0.0961  0.6328 -1.8698
 5105SOL    HW226949   0.686   3.761   6.066 -0.2116  0.1861 -0.2209
 5106SOL     OW26950   0.955   1.640   3.515  0.6016 -0.2408 -0.1420
 5106SOL    HW126951   0.917   1.705   3.574 -1.3516 -1.6883  0.1772
 5106SOL    HW226952   0.966   1.572   3.582 -0.4668  2.3974  2.6999
 5107SOL     OW26953   2.723   4.395   0.177  1.1267 -0.5033  0.1395
 5107SOL    HW126954   2.795   4.333   0.175  0.8350 -0.8669  0.7284
 5107SOL    HW226955   2.731   4.405   0.272 -0.8060 -0.2178  0.2889
 5108SOL     OW26956   1.177   4.504   5.762  0.4677 -0.1065 -0.5515
 5108SOL    HW126957   1.205   4.430   5.709 -0.2802 -0.5780 -0.2789
 5108SOL    HW226958   1.229   4.479   5.838  0.1687  1.2894  0.1199
 5109SOL     OW26959   3.935   0.490   8.313 -0.1345 -0.1027  0.1166
 5109SOL    HW126960   3.997   0.452   8.375 -0.5670  0.5024  0.9243
 5109SOL    HW226961   3.988   0.487   8.234  2.3669 -0.2723  1.7833
 5110SOL     OW26962   2.516   3.781   3.684 -0.4634 -0.3063 -0.0630
 5110SOL    HW126963   2.529   3.756   3.775  2.0494  2.2068  0.2891
 5110SOL    HW226964   2.506   3.875   3.701  2.9521  0.4870 -2.5631
 5111SOL     OW26965   4.606   2.933   8.371  0.3147  0.2430  0.3911
 5111SOL    HW126966   4.677   2.883   8.330  0.7867  2.2222 -1.2161
 5111SOL    HW226967   4.536   2.933   8.306  1.8663  1.0355 -1.2797
 5112SOL     OW26968   1.891   0.702   6.377 -0.1306  0.4950  0.2291
 5112SOL    HW126969   1.812   0.740   6.339 -0.4784 -1.3903 -0.9881
 5112SOL    HW226970   1.917   0.773   6.434  0.8311  0.6284 -0.3696
 5113SOL     OW26971   2.352   4.650   3.148  0.0115 -0.6781 -0.1036
 5113SOL    HW126972   2.338   4.696   3.065  0.9190  1.8583  1.1610
 5113SOL    HW226973   2.446   4.634   3.145  0.2745  0.6975  1.2714
 5114SOL     OW26974   1.258   4.054   5.435  0.5991  0.4830  0.2669
 5114SOL    HW126975   1.316   3.978   5.440  0.2246  0.2360  1.0060
 5114SOL    HW226976   1.191   4.031   5.501  1.2230 -0.2873  0.6373
 5115SOL     OW26977   2.439   0.587   2.004  0.5391 -0.0733  0.1943
 5115SOL    HW126978   2.359   0.591   1.952  0.4602 -1.0409  0.2319
 5115SOL    HW226979   2.433   0.678   2.033 -0.0222 -0.2280  0.5608
 5116SOL     OW26980   4.529   3.597   2.398  0.0328 -0.6831 -0.1689
 5116SOL    HW126981   4.622   3.612   2.417 -0.2943 -0.1500  0.9969
 5116SOL    HW226982   4.534   3.524   2.337 -3.0498  0.2066 -1.4679
 5117SOL     OW26983   4.040   4.255   4.450  0.4050  0.0390  0.0952
 5117SOL    HW126984   4.128   4.221   4.436  0.9849  1.4298  0.3383
 5117SOL    HW226985   3.983   4.182   4.425  1.0407  0.8632 -3.7497
 5118SOL     OW26986   1.739   3.789   4.871 -0.3434  0.1577 -0.4329
 5118SOL    HW126987   1.676   3.733   4.827 -0.0878 -0.3686 -0.1286
 5118SOL    HW226988   1.684   3.860   4.903  0.9904  0.6988  0.6251
 5119SOL     OW26989   2.685   0.294  11.099 -0.1236  0.3419  0.3489
 5119SOL    HW126990   2.713   0.359  11.034 -0.7753  1.2890  1.0134
 5119SOL    HW226991   2.596   0.326  11.116 -0.6481 -1.7977  1.5670
 5120SOL     OW26992   1.212   0.949   6.248 -0.0910  0.2443 -0.5433
 5120SOL    HW126993   1.284   0.887   6.237 -1.9159 -1.7282 -1.2965
 5120SOL    HW226994   1.228   0.996   6.166 -2.0447 -0.7395 -1.4716
 5121SOL     OW26995   1.470   1.820   5.655  0.1896  0.4209  0.4072
 5121SOL    HW126996   1.379   1.797   5.636 -0.1511  0.9963  1.3410
 5121SOL    HW226997   1.524   1.784   5.584 -0.9297 -1.7205  0.6661
 5122SOL     OW26998   1.947   0.745   5.905  0.2073  0.4391 -0.0687
 5122SOL    HW126999   1.931   0.664   5.954  0.3914 -0.5884 -1.6940
 5122SOL    HW227000   1.981   0.706   5.824 -3.0259 -1.0307 -0.7130
 5123SOL     OW27001   0.327   1.328   9.183 -0.2675 -0.2099  0.1001
 5123SOL    HW127002   0.401   1.291   9.135  1.8221  2.8543  0.9161
 5123SOL    HW227003   0.258   1.269   9.154  0.7606 -0.2008 -2.4082
 5124SOL     OW27004   0.408   4.250   2.613  0.7551 -0.2001  0.2329
 5124SOL    HW127005   0.455   4.174   2.579  0.1579 -0.8603  0.8918
 5124SOL    HW227006   0.385   4.293   2.531 -1.7666 -0.0868  1.0013
 5125SOL     OW27007   2.829   1.747   6.981 -0.4325  0.1144  0.5486
 5125SOL    HW127008   2.814   1.694   7.059  1.2378 -0.0236  0.7747
 5125SOL    HW227009   2.899   1.694   6.944  0.0287  0.6781  0.6096
 5126SOL     OW27010   1.455   3.067   9.061 -0.3045  0.4863  0.0481
 5126SOL    HW127011   1.362   3.055   9.041  0.3474 -0.8936 -2.1374
 5126SOL    HW227012   1.462   3.162   9.056  1.9615  0.2998 -0.4922
 5127SOL     OW27013   0.955   3.182   4.732 -0.4907  0.3845  0.4403
 5127SOL    HW127014   0.948   3.260   4.787 -1.4463  1.4386 -1.1786
 5127SOL    HW227015   1.044   3.201   4.700 -1.4456  0.6846 -2.0362
 5128SOL     OW27016   2.946   0.002  17.253  0.1866  0.4406  0.0265
 5128SOL    HW127017   2.925   4.735  17.346 -0.6663  0.4809 -0.1695
 5128SOL    HW227018   2.872   4.705  17.206 -0.7286 -0.7475  2.3968
 5129SOL     OW27019   1.330   3.058   1.459  0.3636 -0.2322  0.6720
 5129SOL    HW127020   1.306   3.107   1.537  3.0356  1.0180  0.7038
 5129SOL    HW227021   1.259   3.071   1.397 -0.1294  1.1639  1.5345
 5130SOL     OW27022   1.303   1.541   1.837 -0.4786 -0.6763 -0.2126
 5130SOL    HW127023   1.376   1.533   1.899 -0.7968  0.4108  0.3001
 5130SOL    HW227024   1.329   1.603   1.769  0.5156 -2.3897 -1.3902
 5131SOL     OW27025   1.303   1.284   9.150 -0.0843 -0.1431 -0.2524
 5131SOL    HW127026   1.369   1.352   9.158  0.7041 -0.9321 -0.0625
 5131SOL    HW227027   1.227   1.328   9.189  0.2067 -0.3573  0.5527
 5132SOL     OW27028   3.858   1.436   2.440  0.2277 -0.2905  0.4641
 5132SOL    HW127029   3.869   1.450   2.534  2.2708 -0.0790  0.2066
 5132SOL    HW227030   3.789   1.370   2.444  0.0885 -0.1021  1.2249
 5133SOL     OW27031   0.823   0.306   8.576  0.2555 -0.2463  0.1901
 5133SOL    HW127032   0.803   0.340   8.663  1.5470 -0.0711  0.4210
 5133SOL    HW227033   0.818   0.212   8.594  0.7505  0.3900  3.7028
 5134SOL     OW27034   1.109   2.012   7.455  0.1220 -0.1162  0.5691
 5134SOL    HW127035   1.116   2.077   7.524 -2.3758  1.0725 -0.3022
 5134SOL    HW227036   1.120   1.928   7.500  1.2831  0.9627  2.2659
 5135SOL     OW27037   1.853   0.826  17.521 -0.4611 -0.4869  0.2387
 5135SOL    HW127038   1.844   0.763  17.593  1.2709 -1.9532 -0.8296
 5135SOL    HW227039   1.856   0.757  17.454 -3.4037 -0.8830  0.4940
 5136SOL     OW27040   0.416   1.522   4.514 -1.0966  0.1496 -0.5177
 5136SOL    HW127041   0.439   1.518   4.607  2.0733 -3.0195 -1.4474
 5136SOL    HW227042   0.401   1.616   4.506  0.3668  0.4157 -0.1427
 5137SOL     OW27043   1.364   4.500   3.959  0.1975  0.0531  0.5485
 5137SOL    HW127044   1.447   4.463   3.929  0.2641  1.1580 -0.6394
 5137SOL    HW227045   1.378   4.595   3.951 -2.2293  0.4336  0.5751
 5138SOL     OW27046   2.772   0.650   5.549  0.0967 -0.2121 -0.3496
 5138SOL    HW127047   2.796   0.575   5.494  0.2150  0.5750 -1.3683
 5138SOL    HW227048   2.728   0.593   5.612  0.2459 -0.8890 -0.8601
 5139SOL     OW27049   4.463   4.094  13.507  0.3117 -0.1224 -0.0169
 5139SOL    HW127050   4.500   4.174  13.470  1.8098 -0.4434  0.7705
 5139SOL    HW227051   4.438   4.140  13.587 -1.9122  0.3512 -0.9748
 5140SOL     OW27052   2.063   4.568   0.540 -0.0253  0.3168 -0.0975
 5140SOL    HW127053   2.055   4.476   0.514 -0.0003  0.7719 -1.7286
 5140SOL    HW227054   1.973   4.598   0.555 -0.4320 -0.8119 -0.3011
 5141SOL     OW27055   1.863   4.334  13.438 -0.2635  0.0192  0.3076
 5141SOL    HW127056   1.955   4.354  13.452 -0.3001  0.3315  0.1062
 5141SOL    HW227057   1.850   4.265  13.502 -2.9659 -0.7144 -1.0214
 5142SOL     OW27058   2.072   4.361   7.341  0.0839  0.0874 -0.2434
 5142SOL    HW127059   2.143   4.380   7.281  0.9391 -2.0822  0.0492
 5142SOL    HW227060   2.041   4.450   7.357 -0.0999  0.5215 -3.1625
 5143SOL     OW27061   2.149   3.469  15.958  0.1563 -0.3528 -0.1142
 5143SOL    HW127062   2.200   3.393  15.984 -3.9523 -2.2004  2.6287
 5143SOL    HW227063   2.104   3.440  15.879  1.0188 -1.3148 -0.2481
 5144SOL     OW27064   2.470   0.371   7.376  0.4367 -0.0982  0.0154
 5144SOL    HW127065   2.525   0.313   7.430  0.4081  0.8843  1.1213
 5144SOL    HW227066   2.495   0.455   7.416 -1.4954 -0.1932  1.4096
 5145SOL     OW27067   0.770   2.771   1.539 -0.4976 -0.3673 -0.0100
 5145SOL    HW127068   0.817   2.690   1.558 -1.3474 -0.1107  3.2289
 5145SOL    HW227069   0.828   2.847   1.546 -1.1103 -0.1691  3.0478
 5146SOL     OW27070   4.653   0.574   5.501  0.0814  0.4385  0.3107
 5146SOL    HW127071   4.687   0.652   5.456  1.0837 -0.7384 -0.9515
 5146SOL    HW227072   4.731   0.540   5.546  1.4281  1.9890 -0.8442
 5147SOL     OW27073   0.807   3.097   6.994 -0.4660 -0.0698 -0.3325
 5147SOL    HW127074   0.833   3.097   6.902  0.0377 -0.0207 -0.1876
 5147SOL    HW227075   0.858   3.163   7.041 -1.3555  0.9545 -0.7875
 5148SOL     OW27076   1.461   0.521  12.385  0.2208 -0.3751 -0.2942
 5148SOL    HW127077   1.435   0.482  12.468 -2.2017  2.5555  0.3041
 5148SOL    HW227078   1.556   0.515  12.392  0.1589 -0.6826  0.2944
 5149SOL     OW27079   2.272   3.385   4.373  0.0092  0.2123  0.0231
 5149SOL    HW127080   2.294   3.348   4.287 -1.9737 -1.0090  0.0591
 5149SOL    HW227081   2.194   3.331   4.385  2.1189 -2.6640  0.7722
 5150SOL     OW27082   0.997   3.648   4.611  0.2829 -0.4913 -0.1498
 5150SOL    HW127083   1.001   3.741   4.636 -1.2577 -0.4374 -0.0798
 5150SOL    HW227084   1.055   3.598   4.667  0.3783  0.3691  0.5283
 5151SOL     OW27085   0.883   2.476   1.579  0.1870  0.2145 -0.6360
 5151SOL    HW127086   0.803   2.436   1.546  0.9892 -1.2714 -0.7900
 5151SOL    HW227087   0.948   2.417   1.541 -1.9476 -1.4399 -1.7083
 5152SOL     OW27088   4.338   4.345   4.233 -0.3058 -0.7326 -0.7019
 5152SOL    HW127089   4.412   4.405   4.249  0.5611 -1.6050 -1.4464
 5152SOL    HW227090   4.328   4.311   4.322 -1.5021 -1.7631 -1.2387
 5153SOL     OW27091   0.088   3.579  15.686 -0.3313 -0.3650  0.4902
 5153SOL    HW127092   0.060   3.663  15.649 -1.7672 -1.4985 -1.0098
 5153SOL    HW227093   0.182   3.578  15.669 -0.2355 -0.7714  1.0439
 5154SOL     OW27094   4.104   2.082   8.149 -0.2486 -0.0716 -0.3098
 5154SOL    HW127095   4.136   2.150   8.089 -0.2524 -0.3973 -0.6794
 5154SOL    HW227096   4.074   2.143   8.217  0.7921  2.0167 -1.6965
 5155SOL     OW27097   3.830   0.232  17.407  0.1732  0.5136  0.0188
 5155SOL    HW127098   3.825   0.312  17.460 -0.7153  1.2083 -1.1183
 5155SOL    HW227099   3.884   0.177  17.463 -1.6659 -1.3058 -0.0156
 5156SOL     OW27100   3.238   0.112   1.466  0.1504  0.3266 -0.2640
 5156SOL    HW127101   3.149   0.126   1.435 -0.1470 -1.7798 -0.3470
 5156SOL    HW227102   3.298   0.170   1.419 -0.7475 -0.2428 -2.1019
 5157SOL     OW27103   2.593   1.359   8.865 -0.4522  0.0741 -0.6840
 5157SOL    HW127104   2.531   1.387   8.797 -1.3594 -0.6585 -0.1442
 5157SOL    HW227105   2.581   1.264   8.865 -0.4661  0.0758 -0.7250
 5158SOL     OW27106   2.084   3.041   0.297 -0.8391  0.1424 -0.1346
 5158SOL    HW127107   2.166   3.091   0.303 -0.5866 -0.2231 -0.6010
 5158SOL    HW227108   2.035   3.092   0.363  2.3792  1.9830  0.8318
 5159SOL     OW27109   4.292   3.953   9.042  0.0727  0.0056  0.2388
 5159SOL    HW127110   4.256   4.023   9.096 -3.4369 -0.7528 -1.1149
 5159SOL    HW227111   4.302   3.879   9.101 -0.7264  0.3110  0.7649
 5160SOL     OW27112   2.723   1.670   7.731  0.3254 -0.1180  0.5139
 5160SOL    HW127113   2.750   1.692   7.642  1.0288 -0.6592  0.6029
 5160SOL    HW227114   2.630   1.658   7.709  0.5549  2.5657 -1.9351
 5161SOL     OW27115   2.832   2.046  11.290 -0.1957 -0.0818  0.0976
 5161SOL    HW127116   2.920   2.083  11.283 -0.3798  0.1406 -1.0097
 5161SOL    HW227117   2.850   2.023  11.382  0.2945  0.7686  0.2172
 5162SOL     OW27118   3.892   0.570  14.393 -0.1519  0.7241 -0.7202
 5162SOL    HW127119   3.864   0.661  14.398  1.1374  1.0837  0.0176
 5162SOL    HW227120   3.843   0.539  14.317  1.5187  0.5229 -1.6934
 5163SOL     OW27121   0.951   1.084   5.593 -0.2720  0.1381 -0.0676
 5163SOL    HW127122   0.967   1.112   5.683 -2.6624 -2.3593  1.1362
 5163SOL    HW227123   0.860   1.057   5.604 -0.8523  1.7663 -0.8153
 5164SOL     OW27124   1.943   0.930  10.195  0.0350 -0.4088 -0.2231
 5164SOL    HW127125   1.905   1.013  10.166  2.2936  0.5353 -0.5154
 5164SOL    HW227126   1.998   0.905  10.121 -0.4914 -0.8358 -0.4690
 5165SOL     OW27127   2.594   1.202  11.804 -0.2143 -0.0330 -0.4426
 5165SOL    HW127128   2.595   1.285  11.757 -3.0479 -1.0957 -2.3485
 5165SOL    HW227129   2.681   1.203  11.844  0.0056 -0.5833 -0.9013
 5166SOL     OW27130   1.447   1.739   6.703 -0.6501  0.4872 -0.3825
 5166SOL    HW127131   1.403   1.715   6.784 -1.2272 -1.9872 -1.4351
 5166SOL    HW227132   1.520   1.790   6.740  0.6303 -3.1446  2.0579
 5167SOL     OW27133   1.367   2.352   6.997 -0.6714 -0.2644 -0.5006
 5167SOL    HW127134   1.411   2.302   7.066 -0.6661 -1.4701 -1.3857
 5167SOL    HW227135   1.435   2.351   6.931  0.4184 -0.8730  0.6375
 5168SOL     OW27136   1.346   4.413   8.327  0.2245 -0.2053 -0.9976
 5168SOL    HW127137   1.365   4.327   8.363  0.5510  0.9607  1.6221
 5168SOL    HW227138   1.428   4.461   8.343  0.6880 -1.5620  0.6306
 5169SOL     OW27139   3.244   3.303   4.524  0.4829  0.0517 -0.1451
 5169SOL    HW127140   3.321   3.359   4.523 -0.5794  1.5323  1.8285
 5169SOL    HW227141   3.216   3.302   4.616 -1.0420 -1.8484 -0.6197
 5170SOL     OW27142   3.899   1.705   4.472  0.1701  0.2430  0.3008
 5170SOL    HW127143   3.906   1.780   4.414  0.0114 -1.2171 -1.5862
 5170SOL    HW227144   3.804   1.699   4.474  0.2828 -2.0912 -2.6022
 5171SOL     OW27145   3.780   1.522   4.052  0.4402  0.0168 -0.2837
 5171SOL    HW127146   3.699   1.475   4.066  1.1093 -0.9156  0.4095
 5171SOL    HW227147   3.807   1.521   4.144 -1.7867 -2.1999  0.3232
 5172SOL     OW27148   3.692   0.212   5.391  0.4942  0.2152  0.2815
 5172SOL    HW127149   3.727   0.300   5.371 -2.1667  0.9697 -1.0579
 5172SOL    HW227150   3.732   0.156   5.324 -0.3545  0.4979 -0.4665
 5173SOL     OW27151   0.160   3.456   3.798 -0.2516 -0.2267  0.5069
 5173SOL    HW127152   0.100   3.414   3.736 -0.5806  0.4187  0.3834
 5173SOL    HW227153   0.097   3.522   3.828  1.0277  1.4688 -0.5406
 5174SOL     OW27154   4.632   4.355   5.706 -0.4007  0.3645 -0.2344
 5174SOL    HW127155   4.722   4.327   5.720 -0.5234 -0.9649 -2.1198
 5174SOL    HW227156   4.587   4.294   5.764 -2.3174 -0.7026 -2.8693
 5175SOL     OW27157   4.670   0.701   3.838 -0.1257  0.4111 -0.2878
 5175SOL    HW127158   4.617   0.729   3.912 -0.2252  0.3483 -0.3337
 5175SOL    HW227159   4.694   0.787   3.804  0.8464  0.3686  0.2958
 5176SOL     OW27160   3.002   3.782   9.762  0.1019 -0.1427  0.2719
 5176SOL    HW127161   2.984   3.804   9.854 -0.0511  1.6291 -0.1885
 5176SOL    HW227162   3.079   3.836   9.746  0.1062 -0.8698 -2.1728
 5177SOL     OW27163   0.318   2.509   2.135 -0.1199 -0.0783 -0.3753
 5177SOL    HW127164   0.274   2.453   2.071 -1.7852 -0.8887  1.4620
 5177SOL    HW227165   0.409   2.480   2.127  0.7097  1.6337  2.8865
 5178SOL     OW27166   2.461   1.764   6.569  0.1117  0.4236  0.4266
 5178SOL    HW127167   2.405   1.803   6.636 -0.8413 -0.0859 -0.0701
 5178SOL    HW227168   2.415   1.684   6.544  1.0129 -0.4472  1.5576
 5179SOL     OW27169   0.108   4.313   4.549 -0.0195 -0.1372 -0.0252
 5179SOL    HW127170   0.152   4.266   4.619  0.1698  0.9685  0.5960
 5179SOL    HW227171   0.045   4.359   4.604  0.8158  1.2016 -0.1907
 5180SOL     OW27172   1.070   2.912   4.786  0.0548  0.2071 -0.8305
 5180SOL    HW127173   1.035   2.890   4.873  2.9567 -1.7804 -0.1432
 5180SOL    HW227174   1.024   2.994   4.768  0.7242  0.2122 -2.4548
 5181SOL     OW27175   1.258   4.068  11.582 -0.3243  0.2167 -0.5751
 5181SOL    HW127176   1.317   3.996  11.603 -2.3434 -1.4303 -0.5597
 5181SOL    HW227177   1.244   4.052  11.488  0.0091 -1.1283 -0.3968
 5182SOL     OW27178   4.709   3.319   9.819 -0.3722  0.0561  0.1152
 5182SOL    HW127179   4.730   3.391   9.760 -1.0574 -1.0792 -1.4904
 5182SOL    HW227180   0.020   3.348   9.894 -1.2765  0.1891  0.6898
 5183SOL     OW27181   4.237   2.612   1.764 -0.3586 -0.2539 -0.5678
 5183SOL    HW127182   4.181   2.682   1.730 -0.6096 -0.4604 -0.5733
 5183SOL    HW227183   4.318   2.629   1.715  0.7189 -2.4588  0.4467
 5184SOL     OW27184   3.576   3.800   5.877 -0.1454  0.6344  0.0877
 5184SOL    HW127185   3.600   3.708   5.863 -2.1043 -0.0776  1.4511
 5184SOL    HW227186   3.586   3.829   5.786 -0.6455 -0.2224 -0.2480
 5185SOL     OW27187   4.206   2.444  15.909 -0.2628  0.2839  0.1354
 5185SOL    HW127188   4.256   2.493  15.974  0.7905  0.3959 -0.7725
 5185SOL    HW227189   4.276   2.432  15.846 -0.0479 -0.1430  0.4578
 5186SOL     OW27190   2.028   4.269   6.271 -0.6012  0.5301  0.0599
 5186SOL    HW127191   2.011   4.206   6.341 -0.3496  0.7474  0.3148
 5186SOL    HW227192   2.069   4.217   6.202 -1.9617  1.5204 -1.5105
 5187SOL     OW27193   4.381   2.049   2.571  0.2314  0.0831 -0.5585
 5187SOL    HW127194   4.300   2.076   2.614 -0.1464 -1.2025 -0.4456
 5187SOL    HW227195   4.428   2.024   2.650 -0.8363  1.4737  0.5085
 5188SOL     OW27196   2.452   1.924  13.163 -0.4917  0.2631 -0.3602
 5188SOL    HW127197   2.385   1.864  13.130 -0.3656  0.1680 -0.4410
 5188SOL    HW227198   2.408   2.008  13.150 -0.4140  0.0332 -2.0742
 5189SOL     OW27199   0.257   4.232  11.078  0.2854  0.4418 -0.3645
 5189SOL    HW127200   0.287   4.266  10.993  0.3238  0.8996 -0.1665
 5189SOL    HW227201   0.265   4.139  11.058  0.8928  0.8261 -1.9245
 5190SOL     OW27202   0.212   4.657   2.672 -0.3982  0.0725 -0.3117
 5190SOL    HW127203   0.200   4.643   2.766  2.1464  1.6648  0.2377
 5190SOL    HW227204   0.304   4.649   2.646  0.3929  0.7307  2.3388
 5191SOL     OW27205   1.630   0.658   1.372  0.6075 -0.1417 -0.0321
 5191SOL    HW127206   1.643   0.590   1.438  2.4822 -0.5417 -0.8296
 5191SOL    HW227207   1.704   0.716   1.391 -1.0668  1.9977 -0.0264
 5192SOL     OW27208   0.631   1.541   7.530 -0.2109  0.4629  0.6536
 5192SOL    HW127209   0.705   1.570   7.583  0.0190 -1.4116  1.3457
 5192SOL    HW227210   0.586   1.625   7.542 -0.4426  0.2793  1.0910
 5193SOL     OW27211   2.087   3.517   7.965 -0.0222 -0.2328  0.3665
 5193SOL    HW127212   2.137   3.585   7.920 -0.0163 -0.4660  0.0213
 5193SOL    HW227213   2.142   3.519   8.043  2.2861 -0.0453 -1.2821
 5194SOL     OW27214   1.118   1.894  16.817 -0.1886  0.1558  0.6459
 5194SOL    HW127215   1.082   1.878  16.904 -0.6280 -0.4639  0.3496
 5194SOL    HW227216   1.044   1.945  16.783  0.6958 -0.2169 -1.8577
 5195SOL     OW27217   3.616   2.954   7.481 -0.2558 -0.3847  0.5862
 5195SOL    HW127218   3.676   3.026   7.499  0.2074 -0.6658  0.1498
 5195SOL    HW227219   3.562   2.964   7.559 -0.0998  1.3792  0.4707
 5196SOL     OW27220   4.507   2.956   7.641 -0.1827  0.2349  0.4408
 5196SOL    HW127221   4.602   2.966   7.630 -0.5901  0.7479 -2.5562
 5196SOL    HW227222   4.459   3.039   7.632 -1.6453 -0.4838  1.6702
 5197SOL     OW27223   1.672   1.030   5.018  0.6620  0.4507  0.4308
 5197SOL    HW127224   1.724   1.003   5.093 -0.3497  0.1629  1.0280
 5197SOL    HW227225   1.637   0.949   4.982 -0.3834  0.4024  1.5375
 5198SOL     OW27226   3.752   1.869   9.831  0.2069 -0.2620  0.1509
 5198SOL    HW127227   3.748   1.884   9.925 -0.5275 -1.2173  0.2750
 5198SOL    HW227228   3.678   1.924   9.806  1.7584  2.3435  1.3130
 5199SOL     OW27229   2.113   0.682   5.708  0.0802 -0.2549 -0.2751
 5199SOL    HW127230   2.177   0.610   5.707 -0.5036 -0.7617 -1.8919
 5199SOL    HW227231   2.164   0.755   5.743 -1.5107  1.2567 -1.1020
 5200SOL     OW27232   1.304   4.338   1.875  0.5997 -0.6829 -0.1148
 5200SOL    HW127233   1.389   4.354   1.916  0.0756  4.3465 -0.9006
 5200SOL    HW227234   1.306   4.243   1.879 -1.1964 -0.6907  0.8135
 5201SOL     OW27235   0.139   2.961   2.977 -0.0135  0.0263  0.8315
 5201SOL    HW127236   0.207   3.020   2.943 -0.4192 -0.8892 -1.6261
 5201SOL    HW227237   0.184   2.880   2.952 -0.1414  0.4406 -0.7960
 5202SOL     OW27238   3.946   3.931   0.525 -0.1823  0.0745  0.2739
 5202SOL    HW127239   3.914   3.862   0.584 -0.1312  1.6322  2.1177
 5202SOL    HW227240   4.019   3.890   0.478 -3.1804 -6.6593  1.5353
 5203SOL     OW27241   4.180   0.310   5.459 -0.0163  0.3191 -0.4732
 5203SOL    HW127242   4.259   0.364   5.470 -0.4780  1.3758 -2.5328
 5203SOL    HW227243   4.233   0.241   5.419 -1.4272  0.5919 -2.7706
 5204SOL     OW27244   2.246   3.281   4.650  0.2003  0.2911 -0.1000
 5204SOL    HW127245   2.285   3.330   4.577 -0.8357  1.4725  0.1499
 5204SOL    HW227246   2.156   3.273   4.620  1.0652 -2.2226 -2.0307
 5205SOL     OW27247   1.226   3.106   2.677 -0.3473 -0.0075  0.2590
 5205SOL    HW127248   1.264   3.145   2.598  1.6634 -3.8454 -0.6875
 5205SOL    HW227249   1.135   3.133   2.664  0.1659  2.4197  1.7831
 5206SOL     OW27250   1.072   4.074   7.461 -0.1296  0.4843 -0.3202
 5206SOL    HW127251   1.057   4.137   7.391  0.4971 -1.7369 -2.4160
 5206SOL    HW227252   1.045   4.133   7.532  1.1669 -0.3013  0.8296
 5207SOL     OW27253   3.408   3.889  15.769 -0.4299  0.0416  0.2960
 5207SOL    HW127254   3.369   3.913  15.685  2.7697  1.1929 -0.8552
 5207SOL    HW227255   3.466   3.817  15.745 -0.4507 -0.3944  1.5564
 5208SOL     OW27256   0.976   3.708  14.854  0.3015 -0.2318 -0.3206
 5208SOL    HW127257   0.954   3.689  14.945 -0.2862  0.6670 -0.2655
 5208SOL    HW227258   0.884   3.694  14.832 -0.7755  2.1565  2.7185
 5209SOL     OW27259   2.635   2.042  14.723 -0.0668 -0.4078 -0.4535
 5209SOL    HW127260   2.663   1.986  14.650 -0.8039 -0.5270 -0.6478
 5209SOL    HW227261   2.579   2.107  14.681 -1.1114 -0.4785  0.8478
 5210SOL     OW27262   1.801   0.319  12.630 -0.4313 -1.0013  0.2665
 5210SOL    HW127263   1.715   0.281  12.649 -0.6158  0.1849  1.8138
 5210SOL    HW227264   1.778   0.402  12.590  1.4717 -1.3135 -1.4944
 5211SOL     OW27265   4.606   3.288   2.794  0.6841  0.1419  0.0425
 5211SOL    HW127266   4.655   3.256   2.870 -1.3656  2.4252  2.3157
 5211SOL    HW227267   4.680   3.310   2.737  1.4543 -1.1244  0.5399
 5212SOL     OW27268   3.267   2.042  17.282  0.8766 -0.2446  0.2749
 5212SOL    HW127269   3.291   2.084  17.199 -1.8042 -0.4654 -0.6119
 5212SOL    HW227270   3.344   2.067  17.332 -0.6238 -0.4727  2.6864
 5213SOL     OW27271   1.508   2.582   9.539 -0.1810  0.4985  0.2843
 5213SOL    HW127272   1.477   2.598   9.450 -3.1516 -0.2876  1.1833
 5213SOL    HW227273   1.525   2.671   9.570 -1.4712  0.5277  0.9134
 5214SOL     OW27274   4.063   1.141   2.075 -0.1817 -0.0296  0.0149
 5214SOL    HW127275   4.136   1.160   2.134  1.3223  0.6919 -2.0814
 5214SOL    HW227276   4.109   1.096   2.005 -0.0017  0.5975 -0.2600
 5215SOL     OW27277   2.644   0.721   7.230 -0.6813 -0.3458  0.2145
 5215SOL    HW127278   2.655   0.657   7.301  1.4637 -0.1727  0.0420
 5215SOL    HW227279   2.550   0.711   7.215 -0.7690 -0.8545  1.1169
 5216SOL     OW27280   3.648   1.039  15.708  0.0924 -0.2563 -0.5814
 5216SOL    HW127281   3.596   1.104  15.756  1.8723  1.9814 -1.6607
 5216SOL    HW227282   3.703   1.095  15.653  1.6380  0.0456  1.2705
 5217SOL     OW27283   1.361   4.265   6.536  0.0347  0.0341 -0.3743
 5217SOL    HW127284   1.295   4.206   6.572  0.9739 -0.4323  0.5731
 5217SOL    HW227285   1.406   4.208   6.473 -2.3241 -2.0795 -0.1182
 5218SOL     OW27286   3.677   4.594   1.600 -0.6168  0.2788 -0.2388
 5218SOL    HW127287   3.582   4.598   1.588 -0.6275  0.2936 -0.1486
 5218SOL    HW227288   3.705   4.592   1.509  1.6651 -1.8828  0.5301
 5219SOL     OW27289   4.626   3.303   7.278  0.5363  0.1170  0.4963
 5219SOL    HW127290   4.579   3.379   7.313 -0.3294  0.8910 -2.3410
 5219SOL    HW227291   4.633   3.319   7.184  3.1473 -2.4056  0.2664
 5220SOL     OW27292   4.572   0.364   0.797 -0.5060  0.1295  0.0754
 5220SOL    HW127293   4.558   0.459   0.799  0.9751  0.3687 -1.5675
 5220SOL    HW227294   4.498   0.348   0.738 -0.1630 -1.3416  0.0447
 5221SOL     OW27295   1.936   4.132   0.736  0.0276  0.8048  0.5696
 5221SOL    HW127296   1.910   4.109   0.825 -2.2075  3.2882  0.5778
 5221SOL    HW227297   1.862   4.189   0.715 -0.3813 -0.1483 -0.5431
 5222SOL     OW27298   4.418   0.427   5.520  0.2602 -0.1941 -0.5213
 5222SOL    HW127299   4.390   0.448   5.609  1.2773 -0.2339 -0.1929
 5222SOL    HW227300   4.508   0.458   5.513 -0.1731  0.8388 -1.5993
 5223SOL     OW27301   3.512   4.362  14.548 -0.2218 -0.1560  0.8821
 5223SOL    HW127302   3.529   4.439  14.602  0.8392  1.7867 -2.2018
 5223SOL    HW227303   3.487   4.296  14.613  2.3377 -0.8387  1.1669
 5224SOL     OW27304   3.481   4.221  17.448  0.1096 -0.5828  0.0350
 5224SOL    HW127305   3.517   4.218  17.537  1.0543  1.4608 -0.2692
 5224SOL    HW227306   3.444   4.133  17.450 -0.2435 -0.4672 -1.4126
 5225SOL     OW27307   4.699   3.873   3.497  0.1527  0.2484 -0.1074
 5225SOL    HW127308   4.637   3.856   3.426  1.4713 -2.0297 -0.7064
 5225SOL    HW227309   0.041   3.837   3.464  0.4444  0.9802 -0.1572
 5226SOL     OW27310   2.079   1.851   4.966  0.0666 -0.1660  0.1029
 5226SOL    HW127311   2.111   1.785   5.028  1.3567  1.0831  0.7643
 5226SOL    HW227312   2.150   1.848   4.902 -0.7448 -0.8402 -0.7634
 5227SOL     OW27313   2.936   2.329   4.680 -0.4157  0.1819 -0.3076
 5227SOL    HW127314   2.842   2.339   4.690 -0.2957 -0.3922  1.3159
 5227SOL    HW227315   2.947   2.288   4.765 -1.2127  0.0256 -0.2845
 5228SOL     OW27316   3.676   4.691   0.168  0.3037  0.0362  0.4630
 5228SOL    HW127317   3.704   4.599   0.175 -0.5558 -0.1900  0.9180
 5228SOL    HW227318   3.750   4.727   0.118  0.5445  0.2317  0.9586
 5229SOL     OW27319   1.969   4.184   5.102  0.6153 -0.0451 -0.1063
 5229SOL    HW127320   1.892   4.238   5.082 -1.9110 -3.7063 -0.1386
 5229SOL    HW227321   2.026   4.198   5.027  0.6939 -0.1379 -0.0626
 5230SOL     OW27322   2.212   2.261  17.755  0.1439  0.2816  0.5009
 5230SOL    HW127323   2.220   2.193  17.689  0.0280 -0.3737  1.1572
 5230SOL    HW227324   2.124   2.297  17.742  0.2579  0.1805 -0.5155
 5231SOL     OW27325   3.574   3.767   8.205  0.2965 -0.2732 -0.4080
 5231SOL    HW127326   3.521   3.822   8.263 -0.6839  0.2403 -1.7886
 5231SOL    HW227327   3.510   3.701   8.178 -2.6153  2.8396 -1.2337
 5232SOL     OW27328   2.791   0.603   4.337  0.3829  0.0691 -0.4557
 5232SOL    HW127329   2.798   0.639   4.249 -0.2093  0.4458 -0.3458
 5232SOL    HW227330   2.793   0.509   4.323 -1.8387  0.3850 -2.8417
 5233SOL     OW27331   0.651   1.240  16.553 -0.8379  0.7042 -0.4436
 5233SOL    HW127332   0.746   1.248  16.561 -0.6281 -3.4899  1.2355
 5233SOL    HW227333   0.639   1.247  16.458  0.7825  0.7815 -0.6381
 5234SOL     OW27334   4.153   3.905   3.842 -0.4425 -0.2217 -0.9201
 5234SOL    HW127335   4.079   3.873   3.791 -0.1919 -0.5479 -1.0821
 5234SOL    HW227336   4.140   4.000   3.850 -0.7156 -0.4115  0.8052
 5235SOL     OW27337   3.534   2.256  12.300  0.2790  0.1169 -0.0097
 5235SOL    HW127338   3.481   2.204  12.361 -0.8176  2.6774  1.2380
 5235SOL    HW227339   3.611   2.200  12.287 -1.0175 -1.7007  0.1007
 5236SOL     OW27340   0.244   3.218   5.902 -0.0283 -0.0792 -0.3124
 5236SOL    HW127341   0.275   3.202   5.991  1.5291 -0.2696 -0.8926
 5236SOL    HW227342   0.163   3.169   5.887 -1.0481  0.7537  2.5052
 5237SOL     OW27343   3.199   0.047   6.362  0.4468 -0.0695  0.2489
 5237SOL    HW127344   3.131   0.062   6.296  2.5273  0.3126 -1.8225
 5237SOL    HW227345   3.203   0.138   6.389 -1.7490 -0.8006  3.0242
 5238SOL     OW27346   1.468   2.309   9.097  0.3523  0.1933 -0.2393
 5238SOL    HW127347   1.436   2.325   9.186  0.4432  1.2254 -0.3891
 5238SOL    HW227348   1.546   2.365   9.097  2.1224 -2.2848 -0.4950
 5239SOL     OW27349   2.762   0.617   7.698 -0.3694  0.0923  0.1195
 5239SOL    HW127350   2.709   0.560   7.754  1.0749 -0.8121  0.5660
 5239SOL    HW227351   2.793   0.680   7.762 -0.6253  1.6180 -1.2655
 5240SOL     OW27352   2.352   1.676  14.491 -0.1627  0.1551  0.1778
 5240SOL    HW127353   2.341   1.703  14.582 -0.4135 -0.8233  0.4342
 5240SOL    HW227354   2.389   1.589  14.507  0.3680  0.5594  1.1266
 5241SOL     OW27355   1.486   1.029   4.129  0.5747  0.3777  0.3564
 5241SOL    HW127356   1.580   1.042   4.115  0.3640  0.3949 -0.9927
 5241SOL    HW227357   1.447   1.094   4.071  0.6600  0.1769  0.0774
 5242SOL     OW27358   0.771   3.858   1.982  0.0376 -0.1532 -1.0957
 5242SOL    HW127359   0.742   3.892   2.067  0.6447 -1.4367 -0.3826
 5242SOL    HW227360   0.802   3.935   1.936  1.6635  0.9880  1.9138
 5243SOL     OW27361   2.774   4.147   3.136 -0.1343  0.0470 -0.3014
 5243SOL    HW127362   2.781   4.077   3.202 -2.3172  0.7167  0.6632
 5243SOL    HW227363   2.695   4.118   3.090  1.0581 -1.5965 -1.3283
 5244SOL     OW27364   4.692   2.887  16.905 -0.3133 -0.1953  0.1383
 5244SOL    HW127365   0.002   2.968  16.916  0.8922 -0.6707 -1.7918
 5244SOL    HW227366   4.654   2.892  16.817  1.9384  0.4600 -0.8126
 5245SOL     OW27367   1.099   1.490   5.580  0.0761  0.4277 -0.1216
 5245SOL    HW127368   1.166   1.559   5.590 -1.9776  2.2416  1.1235
 5245SOL    HW227369   1.061   1.507   5.494 -0.2505 -2.3476 -0.4994
 5246SOL     OW27370   2.711   1.115   6.249  0.2766 -0.5772  0.0104
 5246SOL    HW127371   2.639   1.110   6.187  0.8173  2.0711 -0.8243
 5246SOL    HW227372   2.705   1.198   6.297 -3.3585  0.0953 -1.6338
 5247SOL     OW27373   3.575   1.509   8.929  0.1871 -0.2853 -0.5078
 5247SOL    HW127374   3.650   1.567   8.942 -0.2559  0.2794 -0.4866
 5247SOL    HW227375   3.594   1.497   8.836  1.0588 -0.4299 -0.3081
 5248SOL     OW27376   4.342   0.938   4.147  0.2925 -0.9986 -0.6615
 5248SOL    HW127377   4.337   0.962   4.240 -0.1023 -0.2625 -0.8680
 5248SOL    HW227378   4.252   0.906   4.137 -0.0647 -0.2278  0.0151
 5249SOL     OW27379   1.528   3.477   5.368  0.1653 -0.5952 -0.5727
 5249SOL    HW127380   1.608   3.529   5.378  0.3497 -0.8206 -0.8559
 5249SOL    HW227381   1.519   3.479   5.272 -0.2552 -1.6588 -0.5465
 5250SOL     OW27382   4.185   4.222   6.005  0.0026  0.1964 -0.0523
 5250SOL    HW127383   4.097   4.250   5.980 -0.3577 -0.8722 -0.0083
 5250SOL    HW227384   4.215   4.213   5.915  0.3701  1.1870 -0.0246
 5251SOL     OW27385   4.572   2.903   3.785 -0.2139 -0.4520 -0.8798
 5251SOL    HW127386   4.546   2.967   3.851 -0.0447 -1.0189 -0.2598
 5251SOL    HW227387   4.627   2.957   3.729 -1.5488  1.0358 -0.7668
 5252SOL     OW27388   1.451   4.326   8.695  1.0067  0.3517  0.9703
 5252SOL    HW127389   1.463   4.244   8.647 -1.0822  0.5313  0.1263
 5252SOL    HW227390   1.355   4.329   8.688  0.9898  0.6488  1.3308
 5253SOL     OW27391   3.413   0.008  17.213  0.7176  0.0899 -0.2284
 5253SOL    HW127392   3.418   4.711  17.301  0.5377  3.3359  1.1790
 5253SOL    HW227393   3.496   0.054  17.203  0.6075  0.3121 -0.1206
 5254SOL     OW27394   1.575   3.262   3.943  0.1759  0.5216 -0.1897
 5254SOL    HW127395   1.649   3.268   3.881 -0.7237  2.0459 -1.1079
 5254SOL    HW227396   1.502   3.302   3.896  0.7781  0.5454 -1.1299
 5255SOL     OW27397   2.962   2.254   7.015  0.4185 -0.2033 -0.2673
 5255SOL    HW127398   3.002   2.226   7.097  1.8159  0.5800 -0.6781
 5255SOL    HW227399   2.915   2.175   6.987  0.1034 -0.0372 -0.2139
 5256SOL     OW27400   3.667   1.258   1.042  0.3112  0.1633  0.9257
 5256SOL    HW127401   3.719   1.312   0.982 -0.5172  0.0427  0.0991
 5256SOL    HW227402   3.710   1.173   1.029 -0.9968 -0.9092  3.6417
 5257SOL     OW27403   3.095   4.617   0.079  0.2292 -0.5209  0.0791
 5257SOL    HW127404   3.153   4.545   0.104  1.0926 -0.4855 -1.8157
 5257SOL    HW227405   3.089   4.605  17.745 -0.0550 -1.6335  0.2469
 5258SOL     OW27406   2.355   0.802   1.716 -0.7175 -0.1297  0.1444
 5258SOL    HW127407   2.301   0.770   1.788 -2.1221  1.8168 -0.0521
 5258SOL    HW227408   2.329   0.732   1.656 -2.1057  0.5919 -0.1145
 5259SOL     OW27409   3.525   4.576   6.908 -0.3195  0.2907 -0.0518
 5259SOL    HW127410   3.507   4.669   6.924  2.1898  0.6563  0.5918
 5259SOL    HW227411   3.620   4.585   6.908 -0.3740  0.8566 -0.7639
 5260SOL     OW27412   0.784   1.326   5.476 -0.4012  0.3674 -0.2382
 5260SOL    HW127413   0.842   1.330   5.553  1.1939 -0.9253 -1.3811
 5260SOL    HW227414   0.742   1.244   5.502 -1.1747  0.4025 -1.3910
 5261SOL     OW27415   4.442   2.125   1.971 -0.5248  0.3660 -0.3235
 5261SOL    HW127416   4.449   2.076   2.053 -0.0534 -0.4670 -0.8729
 5261SOL    HW227417   4.349   2.140   1.958 -0.5622  0.1402 -0.3059
 5262SOL     OW27418   0.016   0.212   7.361 -0.6249 -0.6222 -0.4144
 5262SOL    HW127419   0.030   0.174   7.275  0.7593  0.6317 -0.7479
 5262SOL    HW227420   0.074   0.163   7.420  0.2895  1.4912  0.4551
 5263SOL     OW27421   2.002   3.789  14.163 -0.3191 -0.3931 -0.8537
 5263SOL    HW127422   1.927   3.757  14.114 -0.4567  0.0083 -0.9077
 5263SOL    HW227423   1.967   3.876  14.181  3.5211  1.2857 -1.3979
 5264SOL     OW27424   1.143   4.472   1.722  0.2183  0.2536  0.3869
 5264SOL    HW127425   1.200   4.482   1.646 -2.2974  1.5571 -1.3478
 5264SOL    HW227426   1.194   4.422   1.785 -1.1691 -0.1072  1.2157
 5265SOL     OW27427   0.781   2.071   8.444  0.2600  0.0504 -0.7384
 5265SOL    HW127428   0.814   2.105   8.527 -0.0278  2.0823 -1.4732
 5265SOL    HW227429   0.855   2.035   8.395  1.2404  0.4155  0.4668
 5266SOL     OW27430   0.596   3.726   4.799 -0.7938  0.3122  0.6362
 5266SOL    HW127431   0.590   3.638   4.762  0.6043 -0.2592  1.7406
 5266SOL    HW227432   0.550   3.718   4.883 -0.8194 -0.8394  0.5121
 5267SOL     OW27433   0.382   0.793   2.926  0.2109  0.1367 -0.2676
 5267SOL    HW127434   0.462   0.752   2.958  0.5767  1.1425  0.1157
 5267SOL    HW227435   0.394   0.781   2.832  0.9899  0.0206 -0.1501
 5268SOL     OW27436   4.208   4.026   7.611  0.5138  0.6383 -0.7250
 5268SOL    HW127437   4.303   4.027   7.600  0.6051  2.4173  0.2230
 5268SOL    HW227438   4.179   4.075   7.534  0.1755  0.6544 -0.5914
 5269SOL     OW27439   4.534   2.961   9.641  0.2245  1.0906 -0.3890
 5269SOL    HW127440   4.475   3.005   9.702 -1.2323 -1.0634 -0.2614
 5269SOL    HW227441   4.525   2.867   9.658 -0.7038  0.9118 -1.9294
 5270SOL     OW27442   3.112   0.416   3.289  0.4735  0.0485  0.2206
 5270SOL    HW127443   3.170   0.454   3.355  2.0194 -2.5826  0.3563
 5270SOL    HW227444   3.027   0.404   3.332 -0.1996  0.1472 -1.0806
 5271SOL     OW27445   0.468   3.811  16.742  0.0959  0.3182 -0.3106
 5271SOL    HW127446   0.511   3.846  16.664  0.1410  0.1184 -0.3750
 5271SOL    HW227447   0.543   3.800  16.801  0.0917  2.5102  0.1140
 5272SOL     OW27448   3.300   1.689   3.566 -0.4677  0.9223  0.2509
 5272SOL    HW127449   3.266   1.601   3.584  0.5332  0.3520 -0.6017
 5272SOL    HW227450   3.343   1.671   3.481  1.2750 -0.2329  1.3710
 5273SOL     OW27451   1.102   4.554   9.906 -0.3571 -0.3147  0.1393
 5273SOL    HW127452   1.017   4.533   9.944  0.2077 -1.4134  0.7986
 5273SOL    HW227453   1.130   4.640   9.937 -0.6334  0.4382 -1.6983
 5274SOL     OW27454   0.053   1.856   3.284  0.3013 -0.3398  0.1010
 5274SOL    HW127455   0.021   1.928   3.339 -0.6629  0.2145 -1.1865
 5274SOL    HW227456   0.098   1.908   3.217 -1.3758  0.6323 -0.2800
 5275SOL     OW27457   0.540   2.373   5.249  0.0763  0.3222 -0.5425
 5275SOL    HW127458   0.514   2.450   5.198 -0.7680  1.0627  0.9907
 5275SOL    HW227459   0.458   2.324   5.240  1.2077 -1.4254 -1.2508
 5276SOL     OW27460   2.135   1.906   8.573 -0.3794 -0.4767  0.0533
 5276SOL    HW127461   2.086   1.988   8.569 -1.2582 -0.9982 -0.0041
 5276SOL    HW227462   2.218   1.938   8.539  1.3083 -0.4012  4.2312
 5277SOL     OW27463   3.674   0.082  17.209  0.3708 -0.5496  0.5497
 5277SOL    HW127464   3.720   0.095  17.292 -0.4154  0.0259  0.9017
 5277SOL    HW227465   3.744   0.041  17.159 -0.1987 -2.6418  1.4799
 5278SOL     OW27466   2.677   1.818  17.210  0.2842  0.2514  0.1562
 5278SOL    HW127467   2.710   1.873  17.280  1.3729  0.9362 -0.8877
 5278SOL    HW227468   2.733   1.835  17.134  2.8916 -1.1099  1.7999
 5279SOL     OW27469   0.731   3.263   9.505  0.5842 -0.0840  0.4690
 5279SOL    HW127470   0.798   3.331   9.497 -0.4077  1.1963  3.2039
 5279SOL    HW227471   0.759   3.208   9.432 -1.5166 -0.4653 -0.0500
 5280SOL     OW27472   1.212   3.476   8.985 -0.8537  0.0073  0.1083
 5280SOL    HW127473   1.123   3.443   8.989  0.0965 -2.7397 -1.2272
 5280SOL    HW227474   1.252   3.417   8.920 -0.8300  1.0086 -0.7982
 5281SOL     OW27475   3.477   3.766   3.282 -0.2306  0.1624 -0.4232
 5281SOL    HW127476   3.398   3.769   3.229  0.2639  1.0417 -1.1140
 5281SOL    HW227477   3.455   3.841   3.337 -2.1512 -1.7233  1.4107
 5282SOL     OW27478   3.397   2.534   5.778 -0.4081 -0.2328  0.4641
 5282SOL    HW127479   3.393   2.439   5.791 -0.9679 -0.1793  0.6723
 5282SOL    HW227480   3.381   2.554   5.870  1.1419  0.7921  0.5191
 5283SOL     OW27481   2.357   4.184  12.662 -0.1141 -0.3004 -0.0873
 5283SOL    HW127482   2.392   4.227  12.740  1.1780  0.1576 -0.9234
 5283SOL    HW227483   2.400   4.100  12.677 -0.0434 -0.7235 -2.6132
 5284SOL     OW27484   2.624   1.499   7.121  0.0653  0.5484  0.3192
 5284SOL    HW127485   2.531   1.486   7.104  0.3472  0.5956 -1.2277
 5284SOL    HW227486   2.670   1.455   7.050  0.5925  0.4455  0.7142
 5285SOL     OW27487   3.575   2.214  16.157  0.1755 -0.2166  0.6441
 5285SOL    HW127488   3.608   2.288  16.105  0.6985 -0.8592  0.0536
 5285SOL    HW227489   3.495   2.255  16.188 -0.7889 -1.1196 -0.6471
 5286SOL     OW27490   3.481   3.173   3.506 -0.1166 -0.3226  0.0554
 5286SOL    HW127491   3.447   3.084   3.515 -1.2692 -0.2300 -3.5218
 5286SOL    HW227492   3.468   3.189   3.412 -1.2350  0.5326  0.3687
 5287SOL     OW27493   3.548   0.284   3.099 -0.0940  0.1612 -0.4644
 5287SOL    HW127494   3.468   0.308   3.146 -0.5628  0.6460 -1.5176
 5287SOL    HW227495   3.600   0.365   3.101 -1.1293  0.8502 -1.2153
 5288SOL     OW27496   2.389   1.058   1.621 -0.1267  0.0080  0.0534
 5288SOL    HW127497   2.389   0.964   1.640 -0.5654  0.0935  0.4727
 5288SOL    HW227498   2.295   1.072   1.632 -0.3099 -0.9402 -0.3083
 5289SOL     OW27499   0.525   2.455   8.337 -0.5454 -0.3261  0.1169
 5289SOL    HW127500   0.589   2.396   8.296  0.5425  1.0650 -0.1857
 5289SOL    HW227501   0.546   2.448   8.430 -2.6343 -1.0191  0.5313
 5290SOL     OW27502   3.786   1.383   0.847 -0.9782 -0.4553 -0.1742
 5290SOL    HW127503   3.773   1.302   0.799 -1.6468 -0.2216 -0.3934
 5290SOL    HW227504   3.850   1.434   0.798 -1.0681  0.5597  0.7517
 5291SOL     OW27505   0.510   0.272   6.723  0.1874  0.1769  0.3767
 5291SOL    HW127506   0.536   0.332   6.793 -0.3380 -0.2422  0.9359
 5291SOL    HW227507   0.466   0.332   6.662 -2.0468 -0.1219  1.6607
 5292SOL     OW27508   2.622   2.308  12.889  0.3461 -0.3088 -0.2616
 5292SOL    HW127509   2.564   2.233  12.879 -0.1349 -0.1064  1.0895
 5292SOL    HW227510   2.557   2.378  12.884 -0.6480 -1.2030  0.2195
 5293SOL     OW27511   2.531   3.977  13.752  0.4013 -0.2533 -0.4651
 5293SOL    HW127512   2.594   3.948  13.817  0.8796 -0.3153 -0.9510
 5293SOL    HW227513   2.535   4.070  13.776  0.0774 -0.1289 -0.8763
 5294SOL     OW27514   0.097   1.673   7.688  0.3127 -0.3469  0.0019
 5294SOL    HW127515   0.069   1.704   7.774  0.0470  1.1081 -0.6115
 5294SOL    HW227516   0.124   1.750   7.638 -0.7570  1.0645  1.5865
 5295SOL     OW27517   1.850   0.797   1.423  0.3143 -0.0805  0.4803
 5295SOL    HW127518   1.859   0.873   1.366 -1.6586  0.3159  0.7123
 5295SOL    HW227519   1.893   0.824   1.505  0.8839  0.3773  0.0281
 5296SOL     OW27520   1.355   3.163  15.972 -0.0137 -0.2720  0.2859
 5296SOL    HW127521   1.368   3.203  15.886  1.9114  0.7337  1.0326
 5296SOL    HW227522   1.364   3.248  16.016  0.4912  0.5594 -1.4264
 5297SOL     OW27523   2.504   3.723   2.045  0.3103  0.5991  0.4181
 5297SOL    HW127524   2.413   3.708   2.021  0.4009  1.7070 -0.6082
 5297SOL    HW227525   2.543   3.793   1.992  2.3829 -1.3318 -0.6176
 5298SOL     OW27526   1.007   4.246  14.122  0.1786  0.2582  0.1467
 5298SOL    HW127527   0.989   4.276  14.212  2.4840  2.0371  0.0108
 5298SOL    HW227528   0.917   4.253  14.090  0.1539  0.3884  0.2445
 5299SOL     OW27529   0.244   4.543   4.833  0.5634  0.3557 -0.1369
 5299SOL    HW127530   0.285   4.566   4.750  1.4028  0.8195  0.4013
 5299SOL    HW227531   0.180   4.614   4.823 -2.6340 -2.8815 -2.6772
 5300SOL     OW27532   4.260   2.657   3.538 -0.6259 -0.4617  0.5826
 5300SOL    HW127533   4.262   2.721   3.467  0.5014 -0.1630  0.8816
 5300SOL    HW227534   4.232   2.578   3.492 -0.6840  0.5202 -1.0938
 5301SOL     OW27535   1.029   2.578   2.557  0.0104  0.1516  0.0124
 5301SOL    HW127536   0.992   2.659   2.593 -0.9487 -0.7079  0.9771
 5301SOL    HW227537   1.058   2.543   2.642  1.7871  2.9433  0.5607
 5302SOL     OW27538   3.641   1.251   1.680  0.2714 -0.2988 -0.2623
 5302SOL    HW127539   3.654   1.198   1.758  0.6139  1.4200  0.8504
 5302SOL    HW227540   3.686   1.330   1.709  1.4628 -1.0603 -0.0400
 5303SOL     OW27541   4.307   3.236  10.557 -0.6315  0.1571  0.8477
 5303SOL    HW127542   4.326   3.325  10.526 -0.4630 -0.4295 -0.7226
 5303SOL    HW227543   4.365   3.228  10.633 -0.5915  0.1521  0.8164
 5304SOL     OW27544   2.107   1.006   8.621 -0.2567  0.1159  0.1181
 5304SOL    HW127545   2.125   0.934   8.681  0.3656  1.6671  1.8217
 5304SOL    HW227546   2.017   1.024   8.647 -0.3471  1.5927 -1.1927
 5305SOL     OW27547   0.174   1.394   4.430  0.3219  0.2188  0.0005
 5305SOL    HW127548   0.123   1.435   4.500 -0.2190 -2.1163  0.9608
 5305SOL    HW227549   0.257   1.439   4.445 -0.6214  3.4472 -4.5633
 5306SOL     OW27550   0.765   0.619   8.531 -0.1133 -0.0614  0.7303
 5306SOL    HW127551   0.672   0.599   8.543  0.0757  0.0041  2.2353
 5306SOL    HW227552   0.803   0.532   8.537 -0.7121 -0.3356  0.5955
 5307SOL     OW27553   4.599   4.000   9.838 -0.2849  0.1155 -0.3881
 5307SOL    HW127554   4.549   4.076   9.807  1.7786  1.2002 -1.0595
 5307SOL    HW227555   4.688   4.031   9.825  0.4608 -2.8312 -2.1213
 5308SOL     OW27556   0.209   2.751   7.369 -0.4809  0.5837  0.1055
 5308SOL    HW127557   0.116   2.741   7.351 -0.7392  1.5107  0.9372
 5308SOL    HW227558   0.227   2.825   7.310  0.1586 -0.4561 -0.9869
 5309SOL     OW27559   4.353   3.663  13.558 -0.5337 -0.4291 -0.1999
 5309SOL    HW127560   4.442   3.669  13.593  0.6113 -0.5492 -3.1070
 5309SOL    HW227561   4.313   3.632  13.640  1.9856  0.6819  1.4363
 5310SOL     OW27562   2.037   0.142   7.770  0.0807  0.0757  0.2018
 5310SOL    HW127563   1.995   0.193   7.839 -1.2328 -0.0823 -0.4835
 5310SOL    HW227564   2.126   0.175   7.778 -0.4622  1.3153  1.1079
 5311SOL     OW27565   2.106   2.088   3.242  0.0426  0.0565 -0.0098
 5311SOL    HW127566   2.180   2.138   3.276 -0.9148  0.9021  0.8064
 5311SOL    HW227567   2.154   2.055   3.166  0.1555  1.5616 -0.5872
 5312SOL     OW27568   0.983   0.361  11.720  0.0853 -0.1213 -0.2246
 5312SOL    HW127569   1.072   0.368  11.687  0.1515  2.4407  0.4514
 5312SOL    HW227570   0.942   0.434  11.675 -0.9967 -1.3039 -1.1560
 5313SOL     OW27571   2.692   4.458  10.982  0.3052 -0.2678  0.0601
 5313SOL    HW127572   2.759   4.393  11.001  1.3604  0.8621  0.1449
 5313SOL    HW227573   2.730   4.489  10.899 -3.4645  1.5589 -0.9881
 5314SOL     OW27574   3.696   1.491   3.610 -0.2206 -0.6855 -0.3525
 5314SOL    HW127575   3.740   1.464   3.691 -1.6860  0.5839  0.8718
 5314SOL    HW227576   3.711   1.585   3.608 -0.2033 -0.6246  2.4670
 5315SOL     OW27577   2.434   0.848   2.385  0.3814  0.0478 -0.3257
 5315SOL    HW127578   2.353   0.798   2.390  0.8025 -0.7890 -1.9414
 5315SOL    HW227579   2.446   0.884   2.473  2.2539  1.4222 -1.1515
 5316SOL     OW27580   4.158   2.335  12.197 -0.2411  0.5881 -0.3412
 5316SOL    HW127581   4.085   2.380  12.241  0.1782  2.0595 -1.1249
 5316SOL    HW227582   4.144   2.243  12.216 -0.5170  0.5207 -0.8681
 5317SOL     OW27583   3.269   1.436   3.145  0.1988 -0.4516 -0.1175
 5317SOL    HW127584   3.323   1.398   3.076 -0.8624 -0.1443 -1.1121
 5317SOL    HW227585   3.209   1.365   3.168  1.0147 -1.3528 -0.7776
 5318SOL     OW27586   4.573   2.073  14.332 -0.1143  0.1265  0.0663
 5318SOL    HW127587   4.588   2.163  14.362  1.1391  0.9265 -2.9403
 5318SOL    HW227588   4.596   2.069  14.239  0.0052  3.5440 -0.0381
 5319SOL     OW27589   3.470   3.347   5.143 -0.2139 -0.4214  0.1159
 5319SOL    HW127590   3.389   3.368   5.190 -0.0618  0.1241  0.1410
 5319SOL    HW227591   3.442   3.291   5.070  2.0289  0.6022 -1.5416
 5320SOL     OW27592   1.896   3.424  12.223  0.3023 -0.5476  0.2251
 5320SOL    HW127593   1.954   3.499  12.216  0.1104 -0.1514  2.6380
 5320SOL    HW227594   1.863   3.419  12.134  0.5712  1.6006  0.0243
 5321SOL     OW27595   0.502   3.295  17.437 -0.1548 -0.4149 -0.0923
 5321SOL    HW127596   0.463   3.209  17.453 -1.6522 -0.1728 -2.4105
 5321SOL    HW227597   0.575   3.289  17.498 -1.0319 -0.0978  1.0060
 5322SOL     OW27598   0.308   4.065   3.743  0.5081 -0.0113  0.0560
 5322SOL    HW127599   0.252   3.987   3.744  0.6442 -0.1110 -0.2412
 5322SOL    HW227600   0.390   4.032   3.779 -0.5981 -1.7942  0.9385
 5323SOL     OW27601   2.172   3.917   3.155 -0.2767 -0.3047  0.2487
 5323SOL    HW127602   2.124   3.891   3.234  0.9172 -2.3459  0.3208
 5323SOL    HW227603   2.105   3.957   3.100  0.2889 -0.8950 -0.8669
 5324SOL     OW27604   0.269   2.743  13.707 -0.0841 -0.1058 -0.4165
 5324SOL    HW127605   0.361   2.722  13.720  0.3530  0.6857 -2.2005
 5324SOL    HW227606   0.270   2.817  13.767  1.2702 -0.8936  0.5417
 5325SOL     OW27607   0.217   3.007   3.842  0.0925  0.4126  0.3303
 5325SOL    HW127608   0.211   2.964   3.927 -0.7395  0.2917  0.2044
 5325SOL    HW227609   0.128   3.030   3.818  0.8710  0.7037 -2.2937
 5326SOL     OW27610   2.364   2.283  12.591  0.1610 -0.0595  0.2582
 5326SOL    HW127611   2.353   2.213  12.527  1.7236 -1.8305  1.9493
 5326SOL    HW227612   2.341   2.236  12.671 -0.7456 -1.3854 -0.7866
 5327SOL     OW27613   4.531   3.991  17.715  0.6241 -1.0217 -0.2296
 5327SOL    HW127614   4.606   3.932  17.707  2.1572  1.1263 -1.7910
 5327SOL    HW227615   4.496   3.942   0.029  1.3733  1.2748  1.6357
 5328SOL     OW27616   2.565   0.582   7.504 -0.1159  0.0634  0.0452
 5328SOL    HW127617   2.544   0.674   7.493  0.6645 -0.0434 -2.1863
 5328SOL    HW227618   2.645   0.590   7.555 -0.9425  0.4129  1.2891
 5329SOL     OW27619   3.898   3.559   7.783  0.0682 -0.8345  0.2817
 5329SOL    HW127620   3.893   3.644   7.825 -1.8751 -0.8474  0.0574
 5329SOL    HW227621   3.919   3.509   7.862 -2.7749  1.4102  2.4142
 5330SOL     OW27622   2.250   1.598   9.442 -0.3239 -0.2263 -0.2990
 5330SOL    HW127623   2.217   1.625   9.357 -0.7589 -0.1132 -0.0975
 5330SOL    HW227624   2.334   1.643   9.451  0.7154 -2.6536  2.2217
 5331SOL     OW27625   0.319   1.236  10.312  0.0506  0.2895  0.5970
 5331SOL    HW127626   0.350   1.321  10.281  0.0421 -0.1003 -0.4638
 5331SOL    HW227627   0.231   1.240  10.275  0.2564  1.5795  0.2749
 5332SOL     OW27628   2.730   1.180   3.829  0.2949 -0.1231  0.5170
 5332SOL    HW127629   2.745   1.250   3.766  0.9667 -0.7088  0.0310
 5332SOL    HW227630   2.822   1.173   3.854  0.4065  2.9435  0.9781
 5333SOL     OW27631   3.373   1.948  10.137 -0.7369 -0.3553  0.3641
 5333SOL    HW127632   3.299   1.893  10.111 -1.2043  0.6949 -0.5531
 5333SOL    HW227633   3.439   1.888  10.172 -0.6414 -0.4595  0.0062
 5334SOL     OW27634   3.441   0.303   1.881 -0.3451 -0.4617 -0.1711
 5334SOL    HW127635   3.441   0.236   1.950 -1.3808  0.8983  1.1506
 5334SOL    HW227636   3.377   0.268   1.820  0.0705 -0.7378 -0.4473
 5335SOL     OW27637   2.310   2.493   4.474  0.2146 -0.5454 -0.4544
 5335SOL    HW127638   2.238   2.526   4.528  1.3725 -2.0898  2.0050
 5335SOL    HW227639   2.388   2.526   4.519  0.3321 -1.5818  0.1051
 5336SOL     OW27640   2.045   1.768   3.620 -0.1720  0.1503 -0.4228
 5336SOL    HW127641   2.097   1.726   3.689  1.1412 -0.4462 -1.7698
 5336SOL    HW227642   1.960   1.782   3.661  0.8543  2.8135  0.8394
 5337SOL     OW27643   3.605   1.203   7.673  0.1438  0.4880 -0.2317
 5337SOL    HW127644   3.577   1.245   7.754  0.8028 -0.4940  0.5069
 5337SOL    HW227645   3.700   1.214   7.681 -0.0125  0.8909  1.0109
 5338SOL     OW27646   1.584   0.641   8.592 -0.3500  0.1972 -0.0649
 5338SOL    HW127647   1.674   0.615   8.609 -0.6129  0.9156  2.3772
 5338SOL    HW227648   1.557   0.657   8.682 -1.7051 -4.1592  0.2783
 5339SOL     OW27649   3.940   1.747   6.504 -0.1360  0.2629 -0.6395
 5339SOL    HW127650   3.873   1.739   6.436  0.3219 -0.0455 -1.0521
 5339SOL    HW227651   3.993   1.821   6.474 -0.2777 -0.3390 -2.3920
 5340SOL     OW27652   2.977   2.516   1.545 -0.3919 -0.2147  0.2290
 5340SOL    HW127653   3.061   2.518   1.593  0.5187  2.1963 -1.4734
 5340SOL    HW227654   3.006   2.480   1.462 -0.8084  1.2443 -0.5482
 5341SOL     OW27655   3.183   2.285   4.505  0.1883 -0.2097  0.8023
 5341SOL    HW127656   3.163   2.365   4.553 -1.2186 -0.2760  0.3097
 5341SOL    HW227657   3.253   2.244   4.557  0.5729 -2.8234 -1.7791
 5342SOL     OW27658   3.765   3.785   4.895 -0.6555 -0.6688 -0.5236
 5342SOL    HW127659   3.831   3.790   4.964 -1.8560 -2.7412  0.7649
 5342SOL    HW227660   3.754   3.690   4.897 -2.3191 -0.4188  1.1367
 5343SOL     OW27661   4.138   1.422   2.440 -0.0955  0.2224  0.7723
 5343SOL    HW127662   4.047   1.435   2.414 -0.1123 -0.5662  0.4154
 5343SOL    HW227663   4.166   1.347   2.387  0.6107  0.6858  0.4917
 5344SOL     OW27664   3.968   0.147   6.857 -0.0626 -0.2970  0.0437
 5344SOL    HW127665   4.037   0.198   6.898 -0.1855 -0.0561 -0.0491
 5344SOL    HW227666   3.949   0.185   6.771 -0.6402 -1.3970 -0.3151
 5345SOL     OW27667   0.675   0.049   2.197  0.3121  0.6041  0.3322
 5345SOL    HW127668   0.769   0.032   2.202  0.5791  2.1386  0.5506
 5345SOL    HW227669   0.664   0.075   2.106 -1.4839  1.7918  0.8777
 5346SOL     OW27670   2.368   2.282   2.988 -0.0525  0.1702  0.1441
 5346SOL    HW127671   2.392   2.257   3.077  0.2106 -1.8726 -0.4871
 5346SOL    HW227672   2.341   2.372   3.004  1.7346  0.8147 -0.4656
 5347SOL     OW27673   2.759   0.936   4.079 -0.1407  0.8479  0.2725
 5347SOL    HW127674   2.721   0.980   4.003  0.3376 -0.9418 -1.0171
 5347SOL    HW227675   2.703   0.859   4.084 -0.5310  1.0295 -1.2361
 5348SOL     OW27676   3.425   3.371  12.760  0.2687  0.1176 -0.0482
 5348SOL    HW127677   3.344   3.342  12.800  0.7106 -1.8314 -0.5897
 5348SOL    HW227678   3.426   3.457  12.804 -0.0469 -0.0577  0.2977
 5349SOL     OW27679   1.137   1.745  13.151  0.2212  0.0206 -0.3380
 5349SOL    HW127680   1.128   1.838  13.130 -0.6276  0.2753  1.1382
 5349SOL    HW227681   1.145   1.709  13.063  2.1395 -0.1208 -0.1040
 5350SOL     OW27682   4.314   4.282   3.086  0.7596 -0.0034 -0.7885
 5350SOL    HW127683   4.244   4.292   3.022  0.6753  2.2109 -0.3515
 5350SOL    HW227684   4.268   4.222   3.145  2.6641 -0.5213  0.1398
 5351SOL     OW27685   3.332   2.517  13.251 -0.5283  0.2304 -0.1994
 5351SOL    HW127686   3.426   2.506  13.269 -1.0199 -2.0276  0.8835
 5351SOL    HW227687   3.313   2.427  13.224 -1.3730  0.2745  0.2910
 5352SOL     OW27688   0.938   2.149   4.741  0.2585  0.2874  0.2871
 5352SOL    HW127689   0.937   2.114   4.652 -0.9922 -0.5060  0.6251
 5352SOL    HW227690   0.859   2.113   4.781  0.0698 -0.1211 -0.4464
 5353SOL     OW27691   1.241   2.387   9.306 -0.0637 -0.2632 -0.7606
 5353SOL    HW127692   1.196   2.446   9.367  0.3530 -0.6882 -0.0381
 5353SOL    HW227693   1.280   2.327   9.370  0.5299 -0.3042 -1.1615
 5354SOL     OW27694   0.647   0.589   4.123 -0.2382 -0.0429 -0.2077
 5354SOL    HW127695   0.732   0.605   4.164 -0.2769 -1.3948  0.4151
 5354SOL    HW227696   0.589   0.597   4.199 -1.2867 -2.2105 -0.7736
 5355SOL     OW27697   1.896   0.348  17.537 -0.3671 -0.3049  0.1539
 5355SOL    HW127698   1.868   0.298  17.460 -0.8113 -0.1693  0.2297
 5355SOL    HW227699   1.930   0.426  17.492 -3.3011  0.2852 -1.0496
 5356SOL     OW27700   4.172   3.280   8.626  0.1209 -0.2327 -0.7078
 5356SOL    HW127701   4.242   3.328   8.669 -0.0626  0.2323 -0.9189
 5356SOL    HW227702   4.103   3.281   8.693 -1.9665 -2.0357 -2.8002
 5357SOL     OW27703   1.732   2.855   9.345 -0.0152  0.1151  0.4685
 5357SOL    HW127704   1.663   2.893   9.399 -2.2909  0.2152 -2.5048
 5357SOL    HW227705   1.701   2.876   9.257  2.7453  0.4574 -0.4424
 5358SOL     OW27706   1.358   2.790   0.594 -0.3927  0.2285  0.1602
 5358SOL    HW127707   1.306   2.855   0.548 -1.3119 -0.2538  0.5020
 5358SOL    HW227708   1.318   2.790   0.682  0.3933 -0.6534  0.5245
 5359SOL     OW27709   3.017   2.066   4.510  0.0094 -0.4231  0.0379
 5359SOL    HW127710   2.946   2.081   4.573  0.9896 -0.3449  1.1370
 5359SOL    HW227711   3.085   2.130   4.530  0.0256 -1.3241  2.9201
 5360SOL     OW27712   0.703   0.692  10.815  0.5248 -0.5449 -0.1338
 5360SOL    HW127713   0.762   0.695  10.891 -3.3288 -0.2450  2.8216
 5360SOL    HW227714   0.763   0.709  10.743 -1.0691  1.6041 -0.9257
 5361SOL     OW27715   4.007   1.975   2.511  0.2981  0.0131 -0.0126
 5361SOL    HW127716   4.012   2.062   2.471  0.4109  0.8959  1.9060
 5361SOL    HW227717   4.034   1.919   2.438 -0.4868 -1.1523  0.5927
 5362SOL     OW27718   1.771   3.306   3.735  0.0948  0.4723 -0.3757
 5362SOL    HW127719   1.855   3.272   3.763 -0.5809 -0.7468  0.1502
 5362SOL    HW227720   1.802   3.363   3.664 -1.5439  1.3078 -0.4298
 5363SOL     OW27721   2.742   1.506  15.544  0.3097  0.4354  0.0708
 5363SOL    HW127722   2.768   1.505  15.636 -0.1731 -1.0230  0.1987
 5363SOL    HW227723   2.811   1.456  15.500  0.6293 -0.1833  1.2718
 5364SOL     OW27724   1.503   4.244   7.310  0.0543 -0.6466  0.3445
 5364SOL    HW127725   1.504   4.176   7.378  1.3920 -1.9267 -0.9342
 5364SOL    HW227726   1.577   4.215   7.256  0.0578 -0.6007  0.3247
 5365SOL     OW27727   3.588   0.619   1.578  0.2656  0.3993 -0.2755
 5365SOL    HW127728   3.560   0.564   1.506 -2.4429 -0.2466  1.2649
 5365SOL    HW227729   3.607   0.566   1.656 -0.4154  0.9122  0.2381
 5366SOL     OW27730   3.977   4.505   2.378  0.3271  0.5605 -0.8529
 5366SOL    HW127731   4.058   4.454   2.366  0.7220  1.2023 -0.9071
 5366SOL    HW227732   3.917   4.441   2.416  1.0885  0.4178  0.0855
 5367SOL     OW27733   2.102   4.093  13.726  0.1175 -0.6624  0.4611
 5367SOL    HW127734   2.145   4.101  13.811 -0.6873 -0.2541  0.8299
 5367SOL    HW227735   2.173   4.065  13.668  0.7951  1.4261  0.2757
 5368SOL     OW27736   4.400   1.409   7.444  0.0001 -0.0900 -0.2411
 5368SOL    HW127737   4.486   1.424   7.483  0.3021 -2.1777 -0.1185
 5368SOL    HW227738   4.347   1.470   7.497 -0.4188 -2.3794  1.9537
 5369SOL     OW27739   0.411   3.056  17.490 -0.4596 -0.7112  0.4759
 5369SOL    HW127740   0.324   3.088  17.516 -0.3260  0.8705 -1.0820
 5369SOL    HW227741   0.383   3.000  17.418 -0.7565 -0.8755  0.7171
 5370SOL     OW27742   2.930   2.662   9.018 -0.6029  0.1498  0.4135
 5370SOL    HW127743   3.014   2.645   9.061 -0.5344  1.4329  0.7869
 5370SOL    HW227744   2.882   2.594   9.066 -0.5199 -0.5673 -0.5232
 5371SOL     OW27745   1.772   0.088   8.347 -0.0984 -0.0937  0.2783
 5371SOL    HW127746   1.787   0.039   8.428  0.4147 -1.7683 -0.8536
 5371SOL    HW227747   1.773   0.182   8.369 -1.4237  0.1577 -0.7831
 5372SOL     OW27748   2.876   2.718   6.302  0.1274 -0.1227 -0.9148
 5372SOL    HW127749   2.855   2.701   6.394 -0.1013  0.8798 -0.7749
 5372SOL    HW227750   2.930   2.639   6.299 -0.7932 -0.6996 -2.0129
 5373SOL     OW27751   1.828   3.663   0.355 -0.1059  0.7915  0.1790
 5373SOL    HW127752   1.831   3.758   0.364 -0.9902  0.7996  0.4563
 5373SOL    HW227753   1.902   3.655   0.294  0.7711  1.7568  1.1171
 5374SOL     OW27754   1.283   2.289  12.584  0.5510 -0.1643  0.2453
 5374SOL    HW127755   1.336   2.341  12.524 -2.1437  0.3269 -1.7124
 5374SOL    HW227756   1.341   2.214  12.596  2.1295  0.7578 -1.5837
 5375SOL     OW27757   0.321   3.591   5.475  0.1405 -0.4237 -0.1657
 5375SOL    HW127758   0.234   3.614   5.508  0.3821  0.2548 -0.0057
 5375SOL    HW227759   0.315   3.495   5.480  0.7648 -0.4662 -0.2841
 5376SOL     OW27760   3.295   1.011  15.568 -0.2582  0.3844  0.1900
 5376SOL    HW127761   3.246   1.028  15.648  1.0351  0.6391  0.9178
 5376SOL    HW227762   3.220   0.986  15.513 -1.9724  0.1181  2.6540
 5377SOL     OW27763   4.125   3.735   7.582 -0.0736  0.1579  0.3663
 5377SOL    HW127764   4.140   3.825   7.612  0.0584  1.0553 -2.4211
 5377SOL    HW227765   4.057   3.747   7.516  0.0039  4.3770  1.0334
 5378SOL     OW27766   3.334   3.899   5.168 -0.2781 -0.1156 -0.2700
 5378SOL    HW127767   3.348   3.840   5.242  1.8360 -0.9929 -1.3583
 5378SOL    HW227768   3.397   3.877   5.099  0.7536 -0.1281  0.6685
 5379SOL     OW27769   3.607   0.415   6.517 -0.5960 -0.1522 -0.0683
 5379SOL    HW127770   3.648   0.392   6.433 -2.4829  1.4307 -1.4172
 5379SOL    HW227771   3.627   0.334   6.564 -1.1675  0.3858  1.0884
 5380SOL     OW27772   0.733   2.303   8.270 -0.0098  0.2272  1.1153
 5380SOL    HW127773   0.735   2.219   8.316  0.6214  0.2061  1.0488
 5380SOL    HW227774   0.796   2.286   8.199 -0.4798  0.5815  0.6185
 5381SOL     OW27775   0.416   1.907  13.935  0.4639  0.4552 -0.2423
 5381SOL    HW127776   0.323   1.907  13.959  1.3151  0.5923  3.1529
 5381SOL    HW227777   0.437   1.815  13.952  1.2800  0.2038 -2.7154
 5382SOL     OW27778   4.358   3.792   2.665  0.6933  0.3220 -0.1432
 5382SOL    HW127779   4.305   3.731   2.717  0.1934 -1.8776 -3.2688
 5382SOL    HW227780   4.292   3.848   2.625 -0.5003  0.0463  1.4291
 5383SOL     OW27781   3.164   0.867   0.723  0.3974  0.4882 -0.0059
 5383SOL    HW127782   3.174   0.841   0.815 -2.4669 -0.2197  0.1251
 5383SOL    HW227783   3.252   0.845   0.692 -0.5807  1.1552 -3.2088
 5384SOL     OW27784   4.375   0.776   7.263  0.0018  0.1663 -0.2025
 5384SOL    HW127785   4.296   0.728   7.286  1.4637 -2.4641 -0.7187
 5384SOL    HW227786   4.337   0.847   7.210 -0.9494  0.3770  0.7647
 5385SOL     OW27787   2.257   2.870   4.243  0.2258  0.8174 -0.2470
 5385SOL    HW127788   2.240   2.923   4.165 -2.5580  0.0992 -0.1133
 5385SOL    HW227789   2.216   2.791   4.208  0.6123  0.5099 -0.0174
 5386SOL     OW27790   1.734   0.623   6.778 -0.3096 -0.1696  0.0045
 5386SOL    HW127791   1.655   0.655   6.821 -0.9470 -1.9141  0.1127
 5386SOL    HW227792   1.695   0.585   6.699  1.5435 -0.0567 -0.9721
 5387SOL     OW27793   0.790   2.023   2.701  0.6579  0.1918 -0.1422
 5387SOL    HW127794   0.736   2.057   2.773 -0.6954  0.8332 -1.4697
 5387SOL    HW227795   0.724   2.035   2.633 -2.1025  0.0915  2.5343
 5388SOL     OW27796   0.287   1.653   5.341  0.6060 -0.1591  0.2234
 5388SOL    HW127797   0.382   1.656   5.350  0.8336 -1.6827 -1.7131
 5388SOL    HW227798   0.251   1.711   5.408  0.1650 -0.2312  0.0484
 5389SOL     OW27799   1.032   2.680   3.724 -0.7787 -0.4306 -0.2257
 5389SOL    HW127800   1.108   2.671   3.782  0.7529  2.9950 -1.6991
 5389SOL    HW227801   1.056   2.743   3.657 -2.9255  1.9755  1.2571
 5390SOL     OW27802   1.502   4.478  17.288 -0.0296  0.0372  0.1298
 5390SOL    HW127803   1.450   4.520  17.357 -1.9657  0.0839 -1.3617
 5390SOL    HW227804   1.464   4.520  17.211  2.0229 -0.1464 -0.9859
 5391SOL     OW27805   1.164   3.091   7.220  0.2113  0.7315 -0.3320
 5391SOL    HW127806   1.085   3.140   7.197  0.1250  1.3101  1.2476
 5391SOL    HW227807   1.157   3.033   7.144  2.4588  0.0352  0.0101
 5392SOL     OW27808   3.316   0.883   8.098 -0.5770 -0.0787  0.1873
 5392SOL    HW127809   3.285   0.792   8.093  0.6819 -0.4189 -1.5356
 5392SOL    HW227810   3.398   0.873   8.051  0.0777 -0.8341  1.5047
 5393SOL     OW27811   3.910   1.685  10.038 -0.6954  0.2301 -0.5571
 5393SOL    HW127812   3.819   1.663  10.020 -1.3961  0.0273  3.2331
 5393SOL    HW227813   3.909   1.779  10.053  1.6408  0.1542  0.1186
 5394SOL     OW27814   3.780   3.339   6.106  0.2485  0.2452 -0.3512
 5394SOL    HW127815   3.779   3.431   6.134  3.4854  0.4070 -0.7550
 5394SOL    HW227816   3.868   3.315   6.136 -0.5985 -0.1476  1.8256
 5395SOL     OW27817   0.218   3.562   5.086  0.2535 -0.0086 -0.1128
 5395SOL    HW127818   0.207   3.595   4.997 -0.6886  2.4714  0.9077
 5395SOL    HW227819   0.133   3.599   5.112 -0.2123 -1.5336  0.5031
 5396SOL     OW27820   2.714   4.526   6.353  0.0024  0.0258  0.1377
 5396SOL    HW127821   2.758   4.510   6.437 -2.7804 -0.7897  1.4427
 5396SOL    HW227822   2.789   4.559   6.303  0.2833 -1.8566 -0.6871
 5397SOL     OW27823   0.552   0.455  13.640  0.0857 -0.1748  0.1373
 5397SOL    HW127824   0.578   0.444  13.732  1.3662 -1.7953 -0.4257
 5397SOL    HW227825   0.552   0.550  13.622 -3.4420  0.3292  2.9021
 5398SOL     OW27826   0.528   2.385   8.657 -0.1694 -0.1806  0.0905
 5398SOL    HW127827   0.548   2.293   8.640 -2.3184 -0.6986  0.2543
 5398SOL    HW227828   0.599   2.406   8.718 -0.5927  1.7524 -0.0937
 5399SOL     OW27829   2.017   0.296  13.057 -0.2156  0.1017 -0.5242
 5399SOL    HW127830   2.110   0.313  13.048 -0.4767  3.0405  2.3761
 5399SOL    HW227831   2.000   0.248  12.976 -2.2892  3.0133 -1.8101
 5400SOL     OW27832   1.722   0.340  14.270  0.9367 -0.3669 -0.5755
 5400SOL    HW127833   1.714   0.286  14.349  0.6819 -0.3586 -0.5938
 5400SOL    HW227834   1.653   0.405  14.283  1.2070 -0.1473 -0.2464
 5401SOL     OW27835   4.619   4.422  17.576 -0.3834  0.0882  0.7602
 5401SOL    HW127836   4.565   4.344  17.564 -1.9086  1.6071 -2.1932
 5401SOL    HW227837   4.710   4.399  17.558 -0.2407  0.3617  1.1359
 5402SOL     OW27838   2.826   2.896   6.051  0.0163  0.0948  0.4479
 5402SOL    HW127839   2.744   2.885   6.004 -0.4334 -1.6573  1.6776
 5402SOL    HW227840   2.834   2.817   6.104 -0.3178 -1.1532 -1.3725
 5403SOL     OW27841   3.300   2.998   4.752 -0.3296  0.1791  0.2850
 5403SOL    HW127842   3.234   2.943   4.710  0.1722  1.5425 -2.3010
 5403SOL    HW227843   3.363   3.015   4.682  0.9346 -1.6900  0.9504
 5404SOL     OW27844   4.575   3.530  16.808  0.3441  0.5344  0.6095
 5404SOL    HW127845   4.640   3.554  16.874  2.0654  0.2019 -0.9508
 5404SOL    HW227846   4.514   3.477  16.858  0.1550  1.9297  1.8347
 5405SOL     OW27847   0.990   3.891   2.520  0.0165  0.0320 -0.7104
 5405SOL    HW127848   0.952   3.839   2.590 -0.6209 -0.4131 -1.3899
 5405SOL    HW227849   1.023   3.956   2.583  0.2339  0.8269 -1.6428
 5406SOL     OW27850   1.669   1.771   2.363 -0.0661  0.3491  0.3400
 5406SOL    HW127851   1.664   1.856   2.407 -1.7873 -0.0409  0.9126
 5406SOL    HW227852   1.720   1.731   2.434  0.0373  0.3964  0.2920
 5407SOL     OW27853   0.673   3.580   7.559 -0.2087 -0.1300  0.6288
 5407SOL    HW127854   0.647   3.564   7.469  0.6411 -1.0787  0.5454
 5407SOL    HW227855   0.676   3.676   7.560  2.2200 -0.2022 -0.7838
 5408SOL     OW27856   2.561   0.447   3.656 -0.1202  0.1832  0.0319
 5408SOL    HW127857   2.548   0.405   3.571 -0.4583 -0.6800  0.5079
 5408SOL    HW227858   2.491   0.413   3.711 -0.3255  0.4936 -0.0413
 5409SOL     OW27859   1.610   3.296   6.695  0.0829  0.3616  0.3311
 5409SOL    HW127860   1.538   3.304   6.758 -0.3292  0.1236 -0.1123
 5409SOL    HW227861   1.555   3.243   6.637  0.8368  2.1286 -1.9912
 5410SOL     OW27862   1.463   1.973   0.136 -0.0977  0.3403 -1.1631
 5410SOL    HW127863   1.374   1.994   0.107 -0.5818 -0.4977 -0.2908
 5410SOL    HW227864   1.503   2.058   0.117  1.4086  0.1537  1.2474
 5411SOL     OW27865   2.382   0.150  16.931 -0.2411  0.8353  0.2768
 5411SOL    HW127866   2.293   0.155  16.896 -0.3214  2.7589  0.7585
 5411SOL    HW227867   2.419   0.236  16.911  0.1832 -0.0779 -2.8277
 5412SOL     OW27868   2.850   0.569   3.442  0.8159 -0.2486  0.3007
 5412SOL    HW127869   2.862   0.587   3.535 -0.1751  0.2633  0.3309
 5412SOL    HW227870   2.814   0.481   3.446  2.9510 -1.2172 -1.7610
 5413SOL     OW27871   1.995   2.495   8.308 -0.4875  0.0260 -0.4807
 5413SOL    HW127872   1.977   2.456   8.394 -0.8733  0.6409 -0.2821
 5413SOL    HW227873   1.972   2.588   8.318  0.3043 -0.0865  2.4104
 5414SOL     OW27874   3.868   0.827   4.608  0.2748  0.5675  0.5583
 5414SOL    HW127875   3.918   0.871   4.677  1.8930  0.2974 -0.4446
 5414SOL    HW227876   3.937   0.766   4.580  1.0596  1.9160 -0.4159
 5415SOL     OW27877   3.437   4.343   7.085 -0.2896 -0.0655  0.1980
 5415SOL    HW127878   3.463   4.386   7.003  0.5432  1.2165  1.1339
 5415SOL    HW227879   3.495   4.268   7.095  0.4571  0.4382 -0.3836
 5416SOL     OW27880   2.463   1.116   0.099 -0.2807 -0.5689 -0.0631
 5416SOL    HW127881   2.525   1.167   0.046 -0.0216 -0.6589  0.1553
 5416SOL    HW227882   2.393   1.108   0.035  1.8025 -1.0181 -2.2992
 5417SOL     OW27883   4.123   4.283  10.806 -0.3990  0.5137 -0.1080
 5417SOL    HW127884   4.038   4.312  10.775 -1.5799 -1.7160  1.0550
 5417SOL    HW227885   4.159   4.372  10.816  1.2667 -0.4497  2.5167
 5418SOL     OW27886   2.497   0.925  17.381  0.5906  0.7601 -0.6802
 5418SOL    HW127887   2.565   0.964  17.436  0.4584  0.2013 -0.1220
 5418SOL    HW227888   2.424   0.985  17.394 -1.3312 -1.8614  0.5235
 5419SOL     OW27889   3.305   0.127   6.097  0.2003 -0.3378 -0.0322
 5419SOL    HW127890   3.273   0.040   6.074  3.3188 -1.0173 -1.7781
 5419SOL    HW227891   3.298   0.124   6.193 -1.0544  0.0861 -0.1159
 5420SOL     OW27892   0.620   3.199   6.473  0.0176 -0.0389  0.6709
 5420SOL    HW127893   0.545   3.256   6.456  0.6848  0.6306 -0.0604
 5420SOL    HW227894   0.581   3.125   6.426  0.1915 -0.6042  1.4238
 5421SOL     OW27895   0.643   1.484   5.808 -0.7397 -0.4079  0.0150
 5421SOL    HW127896   0.723   1.444   5.775  0.0475 -0.3602  1.8753
 5421SOL    HW227897   0.592   1.402   5.810 -3.7092  1.4211 -0.6945
 5422SOL     OW27898   2.334   1.887   1.189  0.1376  0.0764 -0.8546
 5422SOL    HW127899   2.390   1.815   1.218  0.0588  0.3387 -0.0533
 5422SOL    HW227900   2.249   1.845   1.178 -0.8280  2.3358 -2.1289
 5423SOL     OW27901   0.932   4.727  17.022 -0.3826  0.2710 -0.2391
 5423SOL    HW127902   0.992   0.035  17.078  0.4321 -1.8580  0.7428
 5423SOL    HW227903   0.884   0.062  16.989 -2.4223 -0.7375  0.4009
 5424SOL     OW27904   0.441   0.288   5.739 -0.3098 -0.2496  0.5863
 5424SOL    HW127905   0.517   0.335   5.773  0.9556 -2.0620  0.2939
 5424SOL    HW227906   0.376   0.307   5.807  0.8523  3.4261  0.6693
 5425SOL     OW27907   4.272   1.073  17.635  0.0142  0.0594  0.2665
 5425SOL    HW127908   4.212   0.998  17.633 -0.9387  0.7853  1.2944
 5425SOL    HW227909   4.298   1.092  17.545  2.6793 -0.5913  0.9042
 5426SOL     OW27910   0.253   0.455   7.706  0.5053  0.7179  0.4931
 5426SOL    HW127911   0.263   0.515   7.780 -0.1063 -0.5630  1.6036
 5426SOL    HW227912   0.298   0.506   7.638 -2.6652  2.9497  0.1048
 5427SOL     OW27913   2.260   1.285   4.486 -0.2701  0.1544  0.4908
 5427SOL    HW127914   2.217   1.200   4.487 -0.9074  0.4575 -0.9602
 5427SOL    HW227915   2.219   1.336   4.556 -0.1163  0.2487  0.5131
 5428SOL     OW27916   3.576   4.660   4.773 -0.8007 -0.2965 -0.0661
 5428SOL    HW127917   3.492   4.679   4.732 -1.5165 -0.0899  1.5012
 5428SOL    HW227918   3.635   4.701   4.710  1.0155 -0.1084  1.7108
 5429SOL     OW27919   2.168   4.332   3.411 -0.0180  0.1291 -0.5551
 5429SOL    HW127920   2.109   4.339   3.336 -1.0387 -1.4517  0.0863
 5429SOL    HW227921   2.209   4.249   3.386 -0.3299  0.6589 -2.7344
 5430SOL     OW27922   0.019   0.320   0.067 -0.2218  0.1817 -0.0274
 5430SOL    HW127923   4.704   0.392   0.096 -0.3722  0.7607 -1.7983
 5430SOL    HW227924   0.037   0.281   0.153 -2.0143  1.0002  0.7112
 5431SOL     OW27925   4.365   4.325   6.967  0.3131  0.1995 -0.6898
 5431SOL    HW127926   4.455   4.345   6.941  0.7979  0.1343  0.9523
 5431SOL    HW227927   4.341   4.253   6.908 -0.3417 -0.0469 -0.1212
 5432SOL     OW27928   1.353   0.679   6.167 -0.4475  0.0708  0.0280
 5432SOL    HW127929   1.427   0.739   6.168  1.0817 -1.8275 -0.1134
 5432SOL    HW227930   1.344   0.675   6.072  2.0899  0.9214 -0.2410
 5433SOL     OW27931   3.532   1.131   2.177 -0.0028 -0.1402  0.3484
 5433SOL    HW127932   3.528   1.226   2.167 -0.9348 -0.2626 -0.4814
 5433SOL    HW227933   3.627   1.126   2.189  0.1656 -2.2956 -1.9008
 5434SOL     OW27934   4.087   4.716   3.440  0.0438  0.1137 -0.6389
 5434SOL    HW127935   4.067   0.066   3.420  0.0646  0.3136  0.2428
 5434SOL    HW227936   4.131   4.689   3.359  1.5642 -1.2619  0.6488
 5435SOL     OW27937   1.616   1.217  12.623  0.1422  0.3793 -0.8439
 5435SOL    HW127938   1.583   1.154  12.687  2.2117  0.7350  0.5758
 5435SOL    HW227939   1.606   1.292  12.683 -0.5155 -0.4014  0.0139
 5436SOL     OW27940   0.059   2.924   7.596  0.4790  0.3038 -0.5801
 5436SOL    HW127941   0.129   2.879   7.548  0.8632  0.8262 -0.5061
 5436SOL    HW227942   0.098   3.009   7.614 -0.3651  0.7158 -0.6720
 5437SOL     OW27943   0.008   4.099   0.848 -0.3310  0.3034  0.0471
 5437SOL    HW127944   0.063   4.166   0.807 -1.5764 -0.4027 -2.8099
 5437SOL    HW227945   4.700   4.144   0.917 -0.1535 -1.8685  1.5985
 5438SOL     OW27946   3.965   2.553   0.603  0.3278  0.0288 -0.3549
 5438SOL    HW127947   3.892   2.518   0.553  2.5129  0.1161 -3.5843
 5438SOL    HW227948   4.046   2.515   0.568 -1.5037 -1.7254 -2.6034
 5439SOL     OW27949   1.308   3.476  17.087  0.3594  0.0837 -0.0354
 5439SOL    HW127950   1.316   3.470  17.182 -1.1522  0.3554  0.1176
 5439SOL    HW227951   1.371   3.412  17.053  1.5303  0.5511  1.2712
 5440SOL     OW27952   3.108   0.082   3.324 -0.0151  0.8767  0.4423
 5440SOL    HW127953   3.047   0.155   3.318 -2.1452 -0.9751 -0.5130
 5440SOL    HW227954   3.065   0.030   3.392  0.4984 -0.1462 -0.0124
 5441SOL     OW27955   2.637   4.647   0.734  0.1283  0.2488  0.7521
 5441SOL    HW127956   2.570   4.715   0.728 -0.1712 -0.0190  1.0691
 5441SOL    HW227957   2.709   4.708   0.717 -1.7926  1.6222 -2.4593
 5442SOL     OW27958   0.316   4.641   3.719  0.2767  0.7043 -0.0537
 5442SOL    HW127959   0.392   4.588   3.697 -0.0040 -0.3809  1.5850
 5442SOL    HW227960   0.293   4.679   3.634 -3.4174  0.0629  0.6300
 5443SOL     OW27961   0.919   1.288  10.029 -0.4572  0.2404 -0.3364
 5443SOL    HW127962   0.850   1.351  10.053 -2.8214 -1.9841 -1.2672
 5443SOL    HW227963   0.927   1.317   9.938 -3.1564 -0.8552 -0.9215
 5444SOL     OW27964   4.477   4.081   8.722  0.2888 -0.1090 -0.3373
 5444SOL    HW127965   4.448   3.997   8.759 -1.0025  0.7200  0.5242
 5444SOL    HW227966   4.519   4.111   8.802 -2.4475 -0.5368  1.2562
 5445SOL     OW27967   2.954   4.711  12.169 -0.3363  0.1168 -0.2756
 5445SOL    HW127968   2.974   4.737  12.258  2.9469 -2.3438 -0.2767
 5445SOL    HW227969   3.023   0.019  12.124  0.3200 -0.1225  0.4765
 5446SOL     OW27970   4.609   2.286  17.423  0.7646  0.4641 -0.2228
 5446SOL    HW127971   4.595   2.367  17.374  1.1835  0.0817 -0.9634
 5446SOL    HW227972   4.621   2.316  17.513  2.5110 -0.0836 -0.2831
 5447SOL     OW27973   2.224   2.978   2.240 -0.3706 -0.2146  0.0380
 5447SOL    HW127974   2.276   3.051   2.206  1.3421 -1.7802 -0.7304
 5447SOL    HW227975   2.208   2.921   2.165  0.2037  1.4436 -1.3446
 5448SOL     OW27976   0.917   3.288   7.153 -0.3435 -0.5377  0.0414
 5448SOL    HW127977   0.963   3.347   7.093 -0.4793  0.1382  0.6083
 5448SOL    HW227978   0.919   3.344   7.231 -0.2828 -1.4901  0.7224
 5449SOL     OW27979   0.476   1.060   5.372  0.0685 -0.1901 -0.1827
 5449SOL    HW127980   0.398   1.098   5.414  0.0011  0.2735 -0.7214
 5449SOL    HW227981   0.438   1.052   5.285  1.1264 -1.5641 -0.5026
 5450SOL     OW27982   0.326   2.133  15.657 -0.2202 -0.0703 -0.6088
 5450SOL    HW127983   0.252   2.094  15.610 -1.3686  1.4967 -0.1064
 5450SOL    HW227984   0.383   2.144  15.581 -0.3027 -0.6254 -0.7483
 5451SOL     OW27985   2.519   2.261   7.477  0.4025 -0.4331  0.5306
 5451SOL    HW127986   2.592   2.294   7.426 -0.3784 -2.9024 -2.1527
 5451SOL    HW227987   2.522   2.174   7.436  0.0507 -0.6751  1.0159
 5452SOL     OW27988   2.220   0.749   0.340  0.0734 -0.0884 -0.2310
 5452SOL    HW127989   2.289   0.812   0.316 -1.0435  1.7972  1.5259
 5452SOL    HW227990   2.145   0.784   0.291 -0.1993 -1.1776 -0.5812
 5453SOL     OW27991   4.451   4.642   4.209 -0.2369 -0.4547 -0.5565
 5453SOL    HW127992   4.389   4.614   4.141 -0.1693 -1.6467 -0.1328
 5453SOL    HW227993   4.390   4.699   4.256  0.8540 -0.1613  0.4935
 5454SOL     OW27994   0.070   0.815   3.469  0.4783 -0.4551 -0.4293
 5454SOL    HW127995   0.037   0.902   3.449  0.5908 -0.7735 -2.0775
 5454SOL    HW227996   0.013   0.758   3.418  0.0862  0.8711 -1.4756
 5455SOL     OW27997   4.143   3.951  10.881  0.2111 -1.1128 -0.1981
 5455SOL    HW127998   4.194   4.002  10.944 -1.5118  0.6280 -0.2093
 5455SOL    HW227999   4.186   3.978  10.801 -1.1357  1.1927 -0.1352
 5456SOL     OW28000   3.000   0.494  14.029 -0.1065 -0.2989 -0.5863
 5456SOL    HW128001   2.959   0.455  14.106 -0.7625  1.0548 -0.2422
 5456SOL    HW228002   3.024   0.574  14.076 -0.9968 -0.7445  0.6340
 5457SOL     OW28003   0.040   4.000  10.142 -0.1612 -0.2031 -0.1011
 5457SOL    HW128004   0.136   4.004  10.152 -0.2308  0.0573  0.4650
 5457SOL    HW228005   0.038   3.936  10.071  2.6143 -1.4506  0.9408
 5458SOL     OW28006   2.625   2.158   2.653  0.8717 -0.0806 -0.0520
 5458SOL    HW128007   2.657   2.247   2.639  0.2302  0.2219  0.4282
 5458SOL    HW228008   2.628   2.116   2.568 -3.3530 -3.2489  1.4071
 5459SOL     OW28009   2.957   3.777  10.042  0.4327  0.2128 -0.3297
 5459SOL    HW128010   2.886   3.745  10.099 -0.6521  0.5855 -1.4668
 5459SOL    HW228011   3.034   3.739  10.084 -1.6960 -0.9013  2.5806
 5460SOL     OW28012   1.268   4.063  17.590  0.5767 -0.1874 -0.3954
 5460SOL    HW128013   1.289   3.973  17.565 -2.4226 -0.7606 -0.8480
 5460SOL    HW228014   1.350   4.108  17.571  1.0413 -0.4523  1.0167
 5461SOL     OW28015   2.453   1.851   8.130 -0.6452 -0.3691 -0.0971
 5461SOL    HW128016   2.527   1.833   8.189 -0.2659  0.3660 -0.3538
 5461SOL    HW228017   2.383   1.806   8.177 -1.9802 -0.2435 -1.9523
 5462SOL     OW28018   1.777   0.366   1.206  0.3477 -0.5295 -0.3821
 5462SOL    HW128019   1.749   0.457   1.199 -0.0814 -0.5005  1.8641
 5462SOL    HW228020   1.703   0.331   1.254  0.6303 -2.1448 -1.1404
 5463SOL     OW28021   4.439   3.213   9.900  0.2031  0.3671 -0.2679
 5463SOL    HW128022   4.534   3.207   9.883  0.5981 -1.2286  2.4853
 5463SOL    HW228023   4.440   3.261   9.982 -0.9730  1.2968 -0.8129
 5464SOL     OW28024   3.940   4.372   1.952  0.1617  0.4821  0.6895
 5464SOL    HW128025   4.001   4.335   1.889  0.7254  3.5619 -0.5763
 5464SOL    HW228026   3.864   4.405   1.904 -0.9174 -1.9345  0.7328
 5465SOL     OW28027   4.303   3.704   9.197 -0.3068  0.5362 -0.3736
 5465SOL    HW128028   4.274   3.618   9.169 -1.1368  0.2031  1.5148
 5465SOL    HW228029   4.278   3.691   9.288 -1.4655 -0.1061 -0.7876
 5466SOL     OW28030   4.332   3.412  15.559  0.6534  0.4017  0.4063
 5466SOL    HW128031   4.295   3.424  15.646 -1.6360 -0.9402 -0.3669
 5466SOL    HW228032   4.250   3.391  15.514  1.1980  1.1496 -0.9274
 5467SOL     OW28033   3.956   3.767   2.199 -0.2606 -0.4362  0.0230
 5467SOL    HW128034   3.985   3.853   2.229  2.8416 -1.2415 -0.6882
 5467SOL    HW228035   3.947   3.778   2.104 -0.5378  3.3891  0.5064
 5468SOL     OW28036   0.062   3.625   5.557 -0.2380 -0.2178  0.4607
 5468SOL    HW128037   4.720   3.588   5.525 -1.3466  0.3172  2.6555
 5468SOL    HW228038   0.085   3.581   5.639  0.6371 -0.4960  0.0633
 5469SOL     OW28039   2.207   1.720   5.187  0.8567  0.3707 -0.6230
 5469SOL    HW128040   2.301   1.702   5.183  1.0690  0.9698  1.6912
 5469SOL    HW228041   2.213   1.774   5.266 -0.4746  0.5634 -0.6543
 5470SOL     OW28042   2.026   0.025   4.370  0.4645  0.2268  0.1915
 5470SOL    HW128043   1.959   0.078   4.328  0.1829 -0.6669 -0.5067
 5470SOL    HW228044   1.978   4.726   4.443 -1.1514  1.3340 -0.2772
 5471SOL     OW28045   0.854   3.081   7.782 -0.5718 -0.1036 -0.6062
 5471SOL    HW128046   0.827   3.005   7.730 -3.0914 -0.8917  1.8678
 5471SOL    HW228047   0.824   3.046   7.866  0.5051 -1.3921 -0.7509
 5472SOL     OW28048   0.069   4.041   8.476 -0.1019  0.3702 -0.3143
 5472SOL    HW128049   0.158   4.053   8.509 -0.8535  2.1668  1.0660
 5472SOL    HW228050   0.043   3.966   8.530 -0.4858  1.2601  0.7438
 5473SOL     OW28051   2.440   0.993   8.754  0.5302  0.2083  0.8745
 5473SOL    HW128052   2.491   1.045   8.692  0.5398 -0.8653 -0.0097
 5473SOL    HW228053   2.515   0.981   8.813  1.4173  2.0389  0.1192
 5474SOL     OW28054   3.255   3.668   3.145 -0.1525 -0.8606  0.1108
 5474SOL    HW128055   3.284   3.652   3.055 -0.1306 -0.0144 -0.0355
 5474SOL    HW228056   3.232   3.761   3.135 -0.8739 -1.2810 -2.2140
 5475SOL     OW28057   3.089   1.521  16.852  0.5897  0.5734  0.2870
 5475SOL    HW128058   3.146   1.516  16.775 -0.0776  1.7955 -0.2748
 5475SOL    HW228059   3.032   1.449  16.826 -1.8449  1.8558  2.1180
 5476SOL     OW28060   0.574   0.915  11.037 -0.0204 -0.2580 -0.1951
 5476SOL    HW128061   0.665   0.941  11.053 -0.4233  1.0851 -0.0906
 5476SOL    HW228062   0.572   0.845  11.102  1.5124 -0.1348 -0.0101
 5477SOL     OW28063   3.645   4.330   4.298  0.0521  0.3791 -0.1163
 5477SOL    HW128064   3.560   4.286   4.307  0.3151  0.2285  1.7810
 5477SOL    HW228065   3.649   4.319   4.203  1.3751 -1.1212  0.1107
 5478SOL     OW28066   1.745   1.145   4.090 -0.0416 -0.3069  0.4610
 5478SOL    HW128067   1.810   1.203   4.051 -1.3978  2.0485  1.7214
 5478SOL    HW228068   1.734   1.186   4.175 -0.1183  1.6658 -0.5137
 5479SOL     OW28069   0.572   3.602  17.705  0.1213  0.3084 -0.1776
 5479SOL    HW128070   0.571   3.690  17.667  1.2330  0.0021 -0.9205
 5479SOL    HW228071   0.649   3.609   0.001 -0.2801  0.9433  0.2878
 5480SOL     OW28072   1.945   0.856   9.110 -0.2510  0.3482  0.4049
 5480SOL    HW128073   1.996   0.855   9.030  0.1313  1.0498  0.6388
 5480SOL    HW228074   1.908   0.769   9.095  0.0544  0.0654  1.2762
 5481SOL     OW28075   1.233   0.023   5.403 -0.1992 -0.0318 -0.1766
 5481SOL    HW128076   1.183   0.015   5.485 -0.6974  2.9704 -0.1768
 5481SOL    HW228077   1.307   4.712   5.435 -0.8082 -1.3191 -0.8327
 5482SOL     OW28078   3.546   0.987   0.265  0.6373  0.2496 -0.2222
 5482SOL    HW128079   3.604   1.063   0.253  0.2457  0.5627 -0.1495
 5482SOL    HW228080   3.577   0.931   0.194  1.1025  2.9721 -2.1982
 5483SOL     OW28081   2.074   1.522   5.020 -0.0107  0.0132  0.5204
 5483SOL    HW128082   2.130   1.448   5.044  0.6314  0.5241  0.6133
 5483SOL    HW228083   2.112   1.597   5.066  0.9107 -0.1777  0.0595
 5484SOL     OW28084   4.208   2.327   9.389 -0.5479  0.2135  0.3540
 5484SOL    HW128085   4.222   2.418   9.363 -2.6701  0.1601 -0.9547
 5484SOL    HW228086   4.248   2.339   9.475 -1.1176  1.6208  0.4191
 5485SOL     OW28087   3.647   0.574  17.425  0.0182  0.0427  0.0025
 5485SOL    HW128088   3.741   0.555  17.432  0.0497 -0.5164 -2.0940
 5485SOL    HW228089   3.621   0.575  17.333 -0.8384  2.0825  0.2814
 5486SOL     OW28090   2.976   2.063  10.140  0.3568 -0.3246  0.2629
 5486SOL    HW128091   3.039   1.994  10.163 -0.0352 -0.9875 -0.6619
 5486SOL    HW228092   2.896   2.010  10.141 -0.8102  1.3929 -1.3104
 5487SOL     OW28093   4.425   2.908  16.458  0.0259 -0.1393 -0.1671
 5487SOL    HW128094   4.351   2.963  16.484  0.2418 -0.1018  0.3609
 5487SOL    HW228095   4.457   2.955  16.381 -1.9449  1.1341 -0.2032
 5488SOL     OW28096   4.478   4.608  15.204  0.4838 -0.6613 -0.7444
 5488SOL    HW128097   4.481   4.647  15.291  2.8649 -1.3021 -0.5382
 5488SOL    HW228098   4.399   4.654  15.176 -0.2625  0.0672  2.6619
 5489SOL     OW28099   1.015   1.374   8.247 -0.1502 -0.6203  0.0480
 5489SOL    HW128100   1.090   1.327   8.211  0.2126 -0.0438  0.0539
 5489SOL    HW228101   1.037   1.462   8.215 -0.1898 -0.7781 -0.4187
 5490SOL     OW28102   1.877   4.657   6.946 -0.3647  0.2551 -0.9506
 5490SOL    HW128103   1.860   4.649   6.853  1.1899  0.7594 -1.2896
 5490SOL    HW228104   1.812   4.597   6.982 -1.6082  0.0262 -3.5985
 5491SOL     OW28105   1.184   3.444   2.605 -0.1162  0.2103  0.3459
 5491SOL    HW128106   1.100   3.441   2.651  0.2316 -2.0973  0.8703
 5491SOL    HW228107   1.228   3.511   2.657 -2.6586  0.8459  1.6823
 5492SOL     OW28108   2.977   1.154   6.829  0.1780 -0.4649 -0.0351
 5492SOL    HW128109   2.954   1.144   6.736  0.5561 -2.4278  0.0829
 5492SOL    HW228110   2.896   1.132   6.873  1.0126  0.4815  1.9938
 5493SOL     OW28111   0.379   0.743   5.516  0.5771  0.1502  0.1817
 5493SOL    HW128112   0.339   0.661   5.487 -1.2650  0.6162  1.4152
 5493SOL    HW228113   0.472   0.723   5.521  0.6773  0.6101  0.1433
 5494SOL     OW28114   3.301   1.006  17.337 -0.0803  0.3388  0.3252
 5494SOL    HW128115   3.291   0.916  17.370 -2.0005  0.7185  0.7838
 5494SOL    HW228116   3.281   1.055  17.417  0.3336 -0.6236  1.0319
 5495SOL     OW28117   3.964   0.145   2.261 -0.3491  0.2140 -0.7202
 5495SOL    HW128118   3.932   0.198   2.334  2.5182 -1.2808  1.6665
 5495SOL    HW228119   3.885   0.100   2.233  0.3756 -0.9261 -0.9309
 5496SOL     OW28120   1.137   0.416   2.125  0.5152  0.4598 -0.1195
 5496SOL    HW128121   1.219   0.465   2.115  0.4412  0.6541  0.2470
 5496SOL    HW228122   1.073   0.486   2.114  1.0053  0.5398 -2.5525
 5497SOL     OW28123   2.402   2.229   9.731 -0.0332 -0.5297  0.5106
 5497SOL    HW128124   2.422   2.182   9.812  2.2040  1.0174  0.8377
 5497SOL    HW228125   2.311   2.203   9.718 -0.2518  0.3945  0.1964
 5498SOL     OW28126   0.541   2.847   8.351  0.1500 -0.0594 -0.4241
 5498SOL    HW128127   0.555   2.894   8.268 -0.5528  1.4134  0.3072
 5498SOL    HW228128   0.601   2.773   8.336  1.6686  1.4159 -1.6793
 5499SOL     OW28129   4.337   1.546   7.120 -0.4757 -0.1871  0.2133
 5499SOL    HW128130   4.429   1.548   7.149  0.0743 -0.2398 -1.5061
 5499SOL    HW228131   4.293   1.511   7.197  0.1467  1.2450  1.2268
 5500SOL     OW28132   3.812   0.570   0.825  0.3430  0.2419  0.0676
 5500SOL    HW128133   3.728   0.527   0.808 -0.1883  0.9144  1.0298
 5500SOL    HW228134   3.820   0.623   0.747 -0.8064 -2.7244 -2.0733
 5501SOL     OW28135   3.415   3.178   3.008 -0.6161 -0.3283 -0.7484
 5501SOL    HW128136   3.484   3.233   3.044 -1.0150  0.5225 -1.2765
 5501SOL    HW228137   3.419   3.104   3.068 -1.0306 -1.4709 -2.1449
 5502SOL     OW28138   0.341   4.200   8.822 -0.4650  0.1246  0.1467
 5502SOL    HW128139   0.346   4.293   8.841 -1.2730  0.1255  0.3292
 5502SOL    HW228140   0.416   4.173   8.875 -0.0433  2.7756  0.8968
 5503SOL     OW28141   3.027   1.838  11.257  0.2254  0.2639  0.1377
 5503SOL    HW128142   2.953   1.896  11.272 -0.4692 -0.8025  0.7928
 5503SOL    HW228143   3.041   1.793  11.340 -1.1865  0.5777  0.5322
 5504SOL     OW28144   2.044   0.180  12.307  0.0560  0.0690  0.5381
 5504SOL    HW128145   2.088   0.104  12.269 -0.2917 -0.1266  0.5279
 5504SOL    HW228146   2.039   0.150  12.398 -1.8981 -0.6043  0.2183
 5505SOL     OW28147   3.783   0.213   7.372 -0.0151 -0.2959  0.3672
 5505SOL    HW128148   3.728   0.287   7.344  1.2003  0.1242 -0.9235
 5505SOL    HW228149   3.731   0.154   7.317  0.8261  0.7630 -1.5785
 5506SOL     OW28150   1.336   0.164   5.722  0.0108  0.3124 -0.7494
 5506SOL    HW128151   1.279   0.097   5.686  2.9477 -1.4365 -2.2101
 5506SOL    HW228152   1.304   0.160   5.812  1.0872  1.5286 -0.2946
 5507SOL     OW28153   4.485   3.972  17.328  0.5276  0.5094  0.8692
 5507SOL    HW128154   4.559   4.015  17.370  0.2841  0.2194  1.5956
 5507SOL    HW228155   4.455   4.041  17.270 -0.4486 -0.5790  0.0720
 5508SOL     OW28156   2.695   4.357   3.640 -0.4334  0.4084 -0.6498
 5508SOL    HW128157   2.689   4.419   3.713 -0.1785 -0.1351 -0.1730
 5508SOL    HW228158   2.691   4.271   3.681 -0.2391  1.8417  2.4089
 5509SOL     OW28159   4.104   3.012   3.675  0.2462  0.4708  0.2382
 5509SOL    HW128160   4.179   2.959   3.701 -0.0811 -1.3231 -2.5317
 5509SOL    HW228161   4.113   3.089   3.730  0.4360  0.4655  0.2136
 5510SOL     OW28162   2.393   2.799   6.326  0.1027 -0.1008  0.1319
 5510SOL    HW128163   2.389   2.739   6.400  1.3151  1.6602  1.5952
 5510SOL    HW228164   2.486   2.818   6.332 -0.2915  1.6016  0.8766
 5511SOL     OW28165   3.879   0.311  12.099  0.1027  0.0121 -0.2867
 5511SOL    HW128166   3.943   0.346  12.037 -0.2849  0.6472 -0.3276
 5511SOL    HW228167   3.934   0.265  12.163 -0.2014 -0.9269 -0.7065
 5512SOL     OW28168   0.672   2.317   2.682  0.6506  0.2863 -0.2409
 5512SOL    HW128169   0.582   2.342   2.705  1.0900  0.7323  1.0021
 5512SOL    HW228170   0.713   2.298   2.767 -0.2536  0.5612  0.2604
 5513SOL     OW28171   1.517   1.039   6.280  0.5002 -0.2243 -0.3352
 5513SOL    HW128172   1.548   1.111   6.225  1.5289 -0.6646 -0.3167
 5513SOL    HW228173   1.466   1.083   6.348 -0.9437 -0.3649 -1.3256
 5514SOL     OW28174   1.531   4.156   3.596  0.1078 -0.1347 -0.2518
 5514SOL    HW128175   1.606   4.142   3.653 -1.2907 -0.9417  1.3989
 5514SOL    HW228176   1.469   4.112   3.655 -0.2991 -2.6942 -2.6131
 5515SOL     OW28177   4.739   3.475  14.845 -0.2253 -0.1145  0.3480
 5515SOL    HW128178   0.040   3.465  14.759  0.2785 -0.4407  0.6290
 5515SOL    HW228179   4.645   3.476  14.828 -0.1407  1.2798 -0.0589
 5516SOL     OW28180   4.354   1.264  13.060 -0.6024 -0.2664 -0.0836
 5516SOL    HW128181   4.263   1.258  13.087 -0.3660 -0.0147  0.7563
 5516SOL    HW228182   4.340   1.325  12.988 -0.7271 -1.4552 -1.0689
 5517SOL     OW28183   3.205   1.788  16.926  0.2638 -0.9481  0.5241
 5517SOL    HW128184   3.186   1.703  16.888  0.7689 -1.7725  2.1139
 5517SOL    HW228185   3.299   1.804  16.920  0.2314 -0.8200  0.3594
 5518SOL     OW28186   1.307   2.139   8.940  0.5245  0.0367  0.0291
 5518SOL    HW128187   1.383   2.168   8.991 -0.1880 -0.4794  1.3737
 5518SOL    HW228188   1.252   2.106   9.012 -0.3124 -3.0711 -2.0709
 5519SOL     OW28189   0.762   1.249   7.729  0.5108 -0.1690  0.1330
 5519SOL    HW128190   0.686   1.268   7.673  1.1207 -1.5793 -1.1654
 5519SOL    HW228191   0.775   1.160   7.696 -1.0564 -1.0135  1.8460
 5520SOL     OW28192   0.567   1.801  15.429 -0.3476  0.0952  0.1495
 5520SOL    HW128193   0.493   1.741  15.420  1.3608 -1.7105 -1.8412
 5520SOL    HW228194   0.635   1.735  15.443 -0.1540 -0.2333 -2.3921
 5521SOL     OW28195   1.449   3.389   7.334  0.5392  0.2068 -0.3731
 5521SOL    HW128196   1.400   3.471   7.345  1.1027  0.3540  1.0905
 5521SOL    HW228197   1.541   3.415   7.328  0.6224  0.2149  0.8122
 5522SOL     OW28198   4.371   1.373   9.425 -0.2500 -0.0181 -0.2970
 5522SOL    HW128199   4.288   1.418   9.440 -0.0310  0.2240  0.1775
 5522SOL    HW228200   4.417   1.401   9.505 -1.2786 -2.7883  1.2370
 5523SOL     OW28201   2.771   0.363   4.600  0.2357  0.2495  0.2085
 5523SOL    HW128202   2.831   0.289   4.607 -2.2277 -2.0683 -3.3190
 5523SOL    HW228203   2.769   0.371   4.504  0.5238  2.3189  0.3687
 5524SOL     OW28204   1.977   2.455   5.273 -0.1141 -0.4935 -0.0266
 5524SOL    HW128205   2.047   2.519   5.260  0.9070 -1.6044  0.0758
 5524SOL    HW228206   1.955   2.428   5.184 -1.1467 -0.9269  0.3623
 5525SOL     OW28207   0.776   0.575  12.046 -0.4578  0.3316  0.0714
 5525SOL    HW128208   0.685   0.575  12.017 -0.2409 -0.1039 -0.5842
 5525SOL    HW228209   0.771   0.517  12.122 -1.0300  0.8288  0.4157
 5526SOL     OW28210   2.459   0.844   3.394  0.3898  0.5375  0.5864
 5526SOL    HW128211   2.388   0.846   3.459 -0.2244 -0.5347 -0.0624
 5526SOL    HW228212   2.435   0.764   3.348  2.6172 -0.5644  1.3323
 5527SOL     OW28213   0.869   3.131   0.154  0.4003  0.3053  0.1118
 5527SOL    HW128214   0.895   3.216   0.119 -1.3461  0.4301 -0.8911
 5527SOL    HW228215   0.888   3.093   0.068  2.3636  2.2856 -0.3341
 5528SOL     OW28216   4.031   0.584  17.178  0.7279 -0.2351  0.0371
 5528SOL    HW128217   3.968   0.593  17.107 -1.7541  1.8888  2.4905
 5528SOL    HW228218   4.077   0.665  17.158  1.2481 -0.1994  1.3917
 5529SOL     OW28219   2.111   2.923   5.368 -0.3204 -0.1256  0.2096
 5529SOL    HW128220   2.045   2.974   5.319 -0.8589 -0.5013  0.5478
 5529SOL    HW228221   2.191   2.950   5.323 -0.1332  0.1269  0.6930
 5530SOL     OW28222   2.415   2.208  14.682  0.0792  0.1554 -0.2824
 5530SOL    HW128223   2.428   2.198  14.776  3.3181  3.0636 -0.4105
 5530SOL    HW228224   2.323   2.237  14.677  0.0165 -0.0199 -0.1443
 5531SOL     OW28225   0.511   3.499   7.275 -0.4189  0.5442  0.1961
 5531SOL    HW128226   0.588   3.544   7.239  0.0736 -1.0787 -0.7952
 5531SOL    HW228227   0.443   3.566   7.279  2.1773  3.2164  0.0568
 5532SOL     OW28228   3.489   1.326  16.563 -0.4782 -0.0505  0.1979
 5532SOL    HW128229   3.574   1.368  16.581 -0.1244 -0.5342 -0.3452
 5532SOL    HW228230   3.452   1.385  16.498 -2.0004 -0.5157  0.6339
 5533SOL     OW28231   2.367   0.266   3.805 -0.1269  0.0048 -0.6784
 5533SOL    HW128232   2.377   0.313   3.887 -3.1062  0.8599 -0.7958
 5533SOL    HW228233   2.354   0.175   3.829 -0.1444  0.3310  0.5420
 5534SOL     OW28234   1.000   1.391   8.535  0.5552  0.2431  0.2669
 5534SOL    HW128235   1.077   1.333   8.537 -0.2583 -0.8881 -2.0489
 5534SOL    HW228236   0.980   1.387   8.441 -0.5661  1.8000  0.4438
 5535SOL     OW28237   1.029   2.615   1.311 -0.1934  0.0055 -0.3385
 5535SOL    HW128238   1.017   2.523   1.287 -0.0543  0.4771 -2.1661
 5535SOL    HW228239   1.096   2.645   1.250 -0.2543  1.0908  0.1172
 5536SOL     OW28240   4.200   3.160   0.364  0.2030 -0.3926  0.0199
 5536SOL    HW128241   4.262   3.233   0.366  1.3953 -1.4226  1.0244
 5536SOL    HW228242   4.253   3.100   0.416 -1.5649 -3.1688 -1.3990
 5537SOL     OW28243   4.332   3.150  13.358  0.1358  0.3299  0.5127
 5537SOL    HW128244   4.298   3.233  13.392  0.6054  1.3659 -1.5730
 5537SOL    HW228245   4.265   3.132  13.292  0.2168 -0.4035  0.6297
 5538SOL     OW28246   2.582   2.118  11.322  0.0046 -0.5402  0.3907
 5538SOL    HW128247   2.596   2.158  11.408  3.3102 -0.6488 -0.0868
 5538SOL    HW228248   2.662   2.072  11.296  0.5545 -0.2744  1.6393
 5539SOL     OW28249   1.115   2.781   4.145  1.2331  0.7828  0.0425
 5539SOL    HW128250   1.045   2.844   4.126  0.5176 -0.8731 -2.9042
 5539SOL    HW228251   1.055   2.709   4.165  0.9366  1.2571  0.8390
 5540SOL     OW28252   4.420   1.461   1.483 -0.5295  0.5257 -0.0150
 5540SOL    HW128253   4.462   1.535   1.439 -0.7473 -0.0863 -1.2688
 5540SOL    HW228254   4.467   1.460   1.566 -3.1328  0.1950  1.4744
 5541SOL     OW28255   2.274   4.654   0.879  0.0188 -0.3395  0.2489
 5541SOL    HW128256   2.327   4.629   0.955 -0.1829 -1.6809 -0.0356
 5541SOL    HW228257   2.330   4.649   0.801  0.2132 -1.4933  0.4485
 5542SOL     OW28258   1.628   0.154   7.984  0.2138  0.0273 -0.0766
 5542SOL    HW128259   1.612   0.233   7.932  0.3990 -1.5767 -2.5849
 5542SOL    HW228260   1.698   0.108   7.939  2.4069  1.1778  2.1683
 5543SOL     OW28261   1.252   2.313  13.072 -0.7144  0.0690  0.8332
 5543SOL    HW128262   1.246   2.319  13.168 -2.2279  2.0405  0.6198
 5543SOL    HW228263   1.343   2.341  13.069 -0.9672  1.0177  1.8179
 5544SOL     OW28264   2.356   3.551   2.681  0.3238 -0.0733  0.4579
 5544SOL    HW128265   2.436   3.500   2.673 -1.3028 -2.0894 -2.9348
 5544SOL    HW228266   2.338   3.511   2.766  0.6455  2.7806  1.8410
 5545SOL     OW28267   0.357   3.506   1.909  0.3321  0.3215  0.1656
 5545SOL    HW128268   0.406   3.424   1.909  2.8318  1.8314 -1.8889
 5545SOL    HW228269   0.436   3.559   1.922  0.1803 -0.0202  2.4542
 5546SOL     OW28270   3.676   0.952   7.499 -0.0360 -0.2321  0.3107
 5546SOL    HW128271   3.628   1.028   7.531  0.7980 -0.1860  1.4392
 5546SOL    HW228272   3.609   0.886   7.480  0.0865 -0.4765  0.7176
 5547SOL     OW28273   3.222   0.185   5.412 -0.0571  0.5689  0.2922
 5547SOL    HW128274   3.182   0.113   5.459 -2.3533  1.1106 -0.8429
 5547SOL    HW228275   3.313   0.180   5.442  0.5958  5.4095 -0.8695
 5548SOL     OW28276   2.300   0.047   4.236  0.0584 -0.1481 -0.1154
 5548SOL    HW128277   2.245   0.023   4.311 -0.2457  1.9805  0.3374
 5548SOL    HW228278   2.237   0.089   4.178 -1.8042  0.9517  2.7098
 5549SOL     OW28279   4.633   2.968  10.900  0.6427  0.2507 -0.1554
 5549SOL    HW128280   4.558   2.909  10.895  1.4802 -0.8357  0.1168
 5549SOL    HW228281   4.616   3.022  10.977 -3.6654 -0.1019 -0.8244
 5550SOL     OW28282   0.865   2.679   9.544  0.1688  0.0446 -0.1169
 5550SOL    HW128283   0.775   2.661   9.572  0.6017  1.1178  1.9670
 5550SOL    HW228284   0.844   2.761   9.499 -0.9084  0.1891  0.6389
 5551SOL     OW28285   0.449   4.420   3.907 -0.4232  0.2460 -0.4457
 5551SOL    HW128286   0.439   4.511   3.934 -0.8185  0.4086 -1.1423
 5551SOL    HW228287   0.365   4.387   3.941  0.4013 -1.0166  0.3499
 5552SOL     OW28288   3.753   0.659   5.338 -0.3508 -0.4755  0.4168
 5552SOL    HW128289   3.841   0.621   5.336 -0.1150  0.0567  0.4847
 5552SOL    HW228290   3.743   0.675   5.245 -0.1800  0.0298  0.4824
 5553SOL     OW28291   1.935   3.310   5.963  0.0306 -0.2049  0.1681
 5553SOL    HW128292   1.877   3.332   6.036  0.9377  0.2942  0.7223
 5553SOL    HW228293   2.016   3.297   6.011  0.8158  1.1513 -0.7957
 5554SOL     OW28294   1.875   4.570   3.434  0.3727  0.2599  0.3485
 5554SOL    HW128295   1.802   4.610   3.481  0.4919  1.7426 -0.7474
 5554SOL    HW228296   1.920   4.528   3.507 -0.0631  2.1128  1.6770
 5555SOL     OW28297   2.727   4.565  12.173 -0.3531 -0.6397  0.1760
 5555SOL    HW128298   2.806   4.619  12.165 -0.1301 -1.0199 -0.2040
 5555SOL    HW228299   2.766   4.483  12.203 -1.0925 -0.7710  0.7859
 5556SOL     OW28300   3.211   3.294   4.793  0.1205  0.5534 -0.4315
 5556SOL    HW128301   3.280   3.227   4.803  0.6149  0.8814 -1.5718
 5556SOL    HW228302   3.178   3.287   4.883  0.5632 -1.2567 -0.3916
 5557SOL     OW28303   3.621   2.593   2.855  0.1635 -0.5092  0.6617
 5557SOL    HW128304   3.659   2.608   2.942  1.8385  2.3363 -0.5775
 5557SOL    HW228305   3.561   2.667   2.846 -0.5874 -1.3771 -1.4578
 5558SOL     OW28306   2.572   2.589   2.100  0.8720 -0.1130 -0.4007
 5558SOL    HW128307   2.554   2.572   2.007  2.4214  0.3449 -0.7902
 5558SOL    HW228308   2.489   2.587   2.147 -0.3111 -0.6271 -2.5202
 5559SOL     OW28309   4.589   1.152   7.210 -0.4586  0.0162  0.2678
 5559SOL    HW128310   4.677   1.189   7.219 -0.1451 -0.5950 -0.2587
 5559SOL    HW228311   4.590   1.068   7.256 -0.8423  0.5416  1.2209
 5560SOL     OW28312   2.510   0.847   6.530 -0.4656 -0.3805 -0.2692
 5560SOL    HW128313   2.575   0.791   6.486  0.4831 -0.6758  1.4911
 5560SOL    HW228314   2.429   0.797   6.529 -1.2893  0.9263  0.9948
 5561SOL     OW28315   2.168   2.313   2.216  0.2409 -0.1056 -0.6557
 5561SOL    HW128316   2.202   2.328   2.128 -0.4768  2.0443 -0.5849
 5561SOL    HW228317   2.086   2.277   2.183 -0.2409 -1.9319  2.5034
 5562SOL     OW28318   2.266   1.477  15.032  0.2965 -0.2235  0.4662
 5562SOL    HW128319   2.308   1.500  15.115 -0.4005 -0.9430  1.0136
 5562SOL    HW228320   2.211   1.404  15.059 -0.9696  0.8214  0.6952
 5563SOL     OW28321   0.583   1.250   7.958 -0.0939  0.8057 -0.2096
 5563SOL    HW128322   0.656   1.291   8.004  0.8462 -0.6824 -0.3888
 5563SOL    HW228323   0.636   1.211   7.889  2.5290 -0.0770  2.3202
 5564SOL     OW28324   3.869   3.604   9.550  0.1785  0.4825  0.6643
 5564SOL    HW128325   3.798   3.652   9.507  1.2808  1.7749  0.2845
 5564SOL    HW228326   3.909   3.563   9.473 -2.7363  1.7496 -1.5431
 5565SOL     OW28327   4.471   1.982   4.562  0.2813  0.0028  0.1284
 5565SOL    HW128328   4.414   2.047   4.602 -2.8772 -2.8974  0.4252
 5565SOL    HW228329   4.491   2.021   4.477 -0.5758 -3.4849 -1.6777
 5566SOL     OW28330   0.425   0.237   4.642  0.1561 -0.0412 -0.0980
 5566SOL    HW128331   0.437   0.186   4.723 -0.7569  0.7469  0.5361
 5566SOL    HW228332   0.488   0.307   4.658 -0.0537  0.6331 -2.2368
 5567SOL     OW28333   2.216   4.640   7.155  0.0097 -0.0368  0.1287
 5567SOL    HW128334   2.258   4.659   7.238 -0.5803 -3.1460  1.1291
 5567SOL    HW228335   2.126   4.616   7.177  0.0829 -0.1502  0.3018
 5568SOL     OW28336   1.491   1.791   3.253  0.4093  0.4580  0.3646
 5568SOL    HW128337   1.504   1.809   3.159 -1.0775  0.7733  0.2240
 5568SOL    HW228338   1.401   1.816   3.270  1.2282  3.4937  0.2070
 5569SOL     OW28339   2.765   3.156   4.263  0.1042  0.4260  0.5190
 5569SOL    HW128340   2.774   3.142   4.169  1.8480  1.3633  0.5343
 5569SOL    HW228341   2.740   3.249   4.268 -0.3724  0.4555 -2.2205
 5570SOL     OW28342   3.290   1.544   3.896  0.0412 -0.1759  0.6675
 5570SOL    HW128343   3.303   1.490   3.974  0.1203 -1.1635 -0.0334
 5570SOL    HW228344   3.262   1.477   3.834 -0.8330 -0.4094  1.3171
 5571SOL     OW28345   0.013   0.341   4.432  0.3059 -0.5445 -0.4097
 5571SOL    HW128346   0.022   0.316   4.340 -2.2659 -4.1753  0.3300
 5571SOL    HW228347   0.102   0.370   4.453 -0.3200  1.1047 -0.0642
 5572SOL     OW28348   2.151   1.744   9.909  0.1230  0.3840  0.0469
 5572SOL    HW128349   2.230   1.773   9.955  0.7772 -1.3354  0.0376
 5572SOL    HW228350   2.189   1.761   9.822  2.9017  0.1295  1.2029
 5573SOL     OW28351   2.147   4.474   8.931 -0.3092 -0.7503 -0.4500
 5573SOL    HW128352   2.076   4.497   8.870  0.3154  0.0177 -0.8836
 5573SOL    HW228353   2.102   4.410   8.985  0.6068 -1.4140 -0.4735
 5574SOL     OW28354   1.885   1.311   3.061 -0.4496  0.3112  0.1958
 5574SOL    HW128355   1.946   1.248   3.099 -2.1532 -0.9691  0.8332
 5574SOL    HW228356   1.937   1.390   3.044 -0.2637  0.6799  2.4761
 5575SOL     OW28357   3.138   0.073   4.276  0.0740 -0.8762 -0.2006
 5575SOL    HW128358   3.045   0.060   4.294  0.5903 -0.3571  2.9217
 5575SOL    HW228359   3.167   0.015   4.346 -1.4844 -0.4560  0.8015
 5576SOL     OW28360   4.729   0.940   4.641  0.2045 -0.1316 -0.2382
 5576SOL    HW128361   0.029   0.877   4.581 -1.8091 -1.7460  0.0915
 5576SOL    HW228362   0.034   1.019   4.614 -0.1023  0.1704  0.1348
 5577SOL     OW28363   0.368   1.639   6.815 -0.4208  0.0664  0.3995
 5577SOL    HW128364   0.403   1.575   6.753  0.7890 -0.7288  1.9323
 5577SOL    HW228365   0.308   1.690   6.760 -0.3327 -0.1884  0.0721
 5578SOL     OW28366   2.458   3.561  12.225  0.3242  0.0023 -0.1734
 5578SOL    HW128367   2.447   3.570  12.320  1.5372 -0.8752  0.0434
 5578SOL    HW228368   2.405   3.482  12.211  0.3751 -0.4653  2.1500
 5579SOL     OW28369   1.849   3.818   2.257  0.5539 -0.3406  0.3329
 5579SOL    HW128370   1.801   3.738   2.234 -0.4189  0.1693  0.5633
 5579SOL    HW228371   1.780   3.884   2.250  1.0281  0.1104 -0.0636
 5580SOL     OW28372   4.657   3.132   6.111  0.1160  0.0168  0.3580
 5580SOL    HW128373   4.717   3.076   6.161 -1.4792 -2.5647 -0.6387
 5580SOL    HW228374   4.711   3.146   6.033 -1.9685 -2.2593 -1.5116
 5581SOL     OW28375   1.928   2.422   5.990 -0.4319  0.9884 -0.2761
 5581SOL    HW128376   1.987   2.417   6.066 -1.3320  0.1482  0.3668
 5581SOL    HW228377   1.851   2.374   6.020 -0.3161 -0.5508 -2.4323
 5582SOL     OW28378   0.790   1.587   7.746  0.0208 -0.0705  0.4176
 5582SOL    HW128379   0.848   1.512   7.733  2.0008  1.3896  0.8651
 5582SOL    HW228380   0.753   1.575   7.833 -1.7008  1.3146 -0.1236
 5583SOL     OW28381   3.050   4.286   8.602  0.1383  0.6080  0.1621
 5583SOL    HW128382   3.076   4.376   8.582  0.2772  0.0849 -2.0195
 5583SOL    HW228383   2.956   4.297   8.619 -0.0094  0.5250 -0.5853
 5584SOL     OW28384   4.468   1.385   6.400 -0.2462  0.1203  0.3831
 5584SOL    HW128385   4.443   1.295   6.423  2.4282 -0.9998 -1.1651
 5584SOL    HW228386   4.415   1.400   6.322  0.5211 -3.7312 -0.8794
 5585SOL     OW28387   1.010   0.270   7.472 -0.2182 -0.0749 -0.1362
 5585SOL    HW128388   1.050   0.340   7.523 -1.0913 -0.3436  0.9010
 5585SOL    HW228389   1.082   0.231   7.421 -1.9530  0.9602 -3.3208
 5586SOL     OW28390   0.711   4.128  12.260  0.6266  0.4071 -1.0415
 5586SOL    HW128391   0.793   4.139  12.308  1.0781 -2.7474 -1.0894
 5586SOL    HW228392   0.720   4.176  12.178 -1.3475  1.4456 -0.6643
 5587SOL     OW28393   0.974   4.211   1.354 -0.1725 -0.6059  0.4487
 5587SOL    HW128394   0.881   4.190   1.354 -0.0436 -1.1354 -0.9830
 5587SOL    HW228395   1.007   4.138   1.407  1.7224 -0.0778 -0.0131
 5588SOL     OW28396   4.480   2.283   8.828  0.0798  0.0769 -0.4437
 5588SOL    HW128397   4.521   2.198   8.842 -0.1124  0.1248  0.4541
 5588SOL    HW228398   4.483   2.325   8.915  1.5798  0.6474 -0.7707
 5589SOL     OW28399   4.179   1.681  12.287 -0.2783 -0.2516  0.1304
 5589SOL    HW128400   4.174   1.697  12.192 -1.1047  2.2830  0.5927
 5589SOL    HW228401   4.259   1.724  12.317  0.0693  0.9502 -2.4949
 5590SOL     OW28402   3.926   4.422   6.771 -0.5407 -0.3335  0.1204
 5590SOL    HW128403   3.853   4.371   6.805 -1.9035  0.7185 -1.1745
 5590SOL    HW228404   4.002   4.385   6.815  0.9166  2.6320  0.1378
 5591SOL     OW28405   0.089   3.604   2.770  0.5000  0.5181 -0.0221
 5591SOL    HW128406   0.050   3.562   2.847 -1.2507  2.1231 -0.0214
 5591SOL    HW228407   0.132   3.528   2.731 -0.7134  0.5839 -1.5082
 5592SOL     OW28408   3.253   3.100   7.740  0.3595 -0.4866  0.1686
 5592SOL    HW128409   3.316   3.034   7.712  1.8008  1.8202 -2.0212
 5592SOL    HW228410   3.272   3.175   7.685 -0.0188 -0.8102 -0.3971
 5593SOL     OW28411   0.560   4.548   1.546 -0.0758 -0.2034  0.2722
 5593SOL    HW128412   0.630   4.611   1.532 -0.8949  0.7613  0.4347
 5593SOL    HW228413   0.510   4.590   1.617 -0.6015  0.7879 -0.6852
 5594SOL     OW28414   1.078   2.102  12.724 -0.2763 -0.0571  0.2036
 5594SOL    HW128415   1.132   2.149  12.660  0.7130  0.5077  1.4496
 5594SOL    HW228416   0.991   2.107  12.685 -0.1859  1.9317  0.2415
 5595SOL     OW28417   4.418   0.707   6.144  0.0717 -0.0608 -0.2456
 5595SOL    HW128418   4.337   0.699   6.194 -1.4964  1.2689 -2.5456
 5595SOL    HW228419   4.430   0.617   6.113  1.6867  0.7237 -1.8600
 5596SOL     OW28420   3.306   2.455  15.891  0.0829 -0.0748 -0.2520
 5596SOL    HW128421   3.247   2.406  15.833  1.6786  0.3053 -2.1673
 5596SOL    HW228422   3.335   2.517  15.824  1.9240 -0.4054  0.2695
 5597SOL     OW28423   1.693   2.271  12.219  0.2851 -0.2005  0.4136
 5597SOL    HW128424   1.621   2.317  12.262  1.1198 -0.0547  1.6624
 5597SOL    HW228425   1.708   2.212  12.292  0.9387  0.4120  0.7769
 5598SOL     OW28426   1.352   0.369   4.615  0.0082 -0.3920  0.3380
 5598SOL    HW128427   1.312   0.361   4.529  0.2348 -0.1830  0.2150
 5598SOL    HW228428   1.365   0.463   4.614  1.9005 -0.6182  2.2461
 5599SOL     OW28429   0.181   0.289   5.127 -0.4036 -0.0421 -0.0218
 5599SOL    HW128430   0.163   0.344   5.051 -0.0914 -1.1111 -0.8794
 5599SOL    HW228431   0.119   0.318   5.193 -0.4447  1.1465 -0.5902
 5600SOL     OW28432   2.598   3.840   3.377  0.1034  0.2590 -0.0011
 5600SOL    HW128433   2.664   3.770   3.383 -0.8094 -0.7232 -1.3698
 5600SOL    HW228434   2.542   3.819   3.452  1.8983  0.8949  1.5324
 5601SOL     OW28435   0.827   0.774   8.199 -0.0449 -0.1741  0.8500
 5601SOL    HW128436   0.874   0.761   8.282  0.3438 -0.9177  0.5137
 5601SOL    HW228437   0.893   0.772   8.129 -0.8257 -0.9111  0.1372
 5602SOL     OW28438   0.015   3.162  10.218  0.0523  0.9582  0.0204
 5602SOL    HW128439   0.043   3.214  10.142  0.2945  0.0068 -0.5368
 5602SOL    HW228440   0.004   3.084  10.163  0.1607  2.1762 -1.7514
 5603SOL     OW28441   1.111   3.790   6.251 -0.2109 -0.4198 -0.3504
 5603SOL    HW128442   1.054   3.780   6.327 -0.6531  0.3926 -0.5794
 5603SOL    HW228443   1.049   3.762   6.183 -0.1031 -1.3872 -0.0589
 5604SOL     OW28444   0.060   0.107   2.539  0.4152  0.2149  0.5288
 5604SOL    HW128445   4.720   0.055   2.539 -0.0461  0.9258  1.0428
 5604SOL    HW228446   0.117   0.043   2.582 -0.5202 -0.1388  1.2367
 5605SOL     OW28447   4.156   1.007   6.592 -0.2234 -0.3721  0.5331
 5605SOL    HW128448   4.202   1.091   6.589  1.5701 -1.3571  0.0190
 5605SOL    HW228449   4.225   0.944   6.570 -0.5071  0.3161 -2.2395
 5606SOL     OW28450   2.213   0.421   7.440 -0.3538  0.7698  0.2264
 5606SOL    HW128451   2.307   0.431   7.432 -0.1787  0.8667  2.2305
 5606SOL    HW228452   2.210   0.327   7.460 -1.9599  0.9334  0.7916
 5607SOL     OW28453   0.814   2.250  13.324  0.1208  0.2593  0.2891
 5607SOL    HW128454   0.819   2.329  13.378  3.3342 -0.2745  0.7878
 5607SOL    HW228455   0.874   2.282  13.256 -0.1491  3.3234  1.5124
 5608SOL     OW28456   0.717   0.288  11.791  0.1968 -0.2157  0.1259
 5608SOL    HW128457   0.735   0.381  11.807  0.8501 -0.6670  2.0044
 5608SOL    HW228458   0.809   0.265  11.779  0.6543  1.5726  0.2398
 5609SOL     OW28459   1.355   2.465  17.454 -0.4672  0.3447  0.1131
 5609SOL    HW128460   1.434   2.508  17.420  0.3529  1.4038  3.2858
 5609SOL    HW228461   1.306   2.544  17.477 -1.4738  0.7168 -3.3141
 5610SOL     OW28462   1.425   0.423   8.047 -0.2676 -0.3365 -0.0865
 5610SOL    HW128463   1.384   0.407   8.132 -0.8072 -0.1119 -0.3002
 5610SOL    HW228464   1.467   0.508   8.058 -1.7159  0.3350  0.3272
 5611SOL     OW28465   3.567   1.463   2.493 -0.0028  0.0710 -0.6165
 5611SOL    HW128466   3.573   1.525   2.565  0.7523  0.9450 -1.4397
 5611SOL    HW228467   3.585   1.517   2.416 -0.9554  0.4362 -0.5819
 5612SOL     OW28468   0.160   1.489   2.109 -0.0985 -0.0691 -0.0972
 5612SOL    HW128469   0.223   1.547   2.153  2.4244 -2.1155 -0.9945
 5612SOL    HW228470   0.088   1.551   2.097 -0.3050 -0.4292 -0.7255
 5613SOL     OW28471   1.722   0.954  11.390 -0.3018  0.3692  0.3134
 5613SOL    HW128472   1.800   1.008  11.396 -0.8958  1.2741 -0.2576
 5613SOL    HW228473   1.680   0.999  11.317 -2.5035  1.7861  2.4763
 5614SOL     OW28474   4.565   0.854  17.333 -0.1144  0.3439  0.2856
 5614SOL    HW128475   4.549   0.759  17.335  1.0737  0.1235 -0.2295
 5614SOL    HW228476   4.647   0.858  17.282 -1.3100  3.9039 -1.3272
 5615SOL     OW28477   1.168   0.957   4.225  0.0945  0.0365 -0.1121
 5615SOL    HW128478   1.175   1.010   4.304 -2.5957  0.2673 -0.0328
 5615SOL    HW228479   1.260   0.945   4.203  0.0308 -0.7394  0.0484
 5616SOL     OW28480   2.220   1.952   3.551 -0.3279  0.5103 -0.0516
 5616SOL    HW128481   2.194   1.983   3.464 -1.6136  0.2214  0.2316
 5616SOL    HW228482   2.141   1.901   3.568 -0.5772  1.0933  0.5127
 5617SOL     OW28483   2.714   3.970  14.557 -0.2580 -0.9236 -0.1235
 5617SOL    HW128484   2.642   3.909  14.539  0.9324 -1.7565 -2.1127
 5617SOL    HW228485   2.776   3.973  14.483  2.1196  1.4833  1.9800
 5618SOL     OW28486   4.380   3.554   6.090  0.4227 -0.0591  0.3171
 5618SOL    HW128487   4.331   3.509   6.020  1.5213 -1.0954  0.2107
 5618SOL    HW228488   4.415   3.478   6.135  2.7816  1.7953  1.5934
 5619SOL     OW28489   2.399   2.626  16.909  0.1184 -0.3275  0.1526
 5619SOL    HW128490   2.470   2.677  16.870  0.0982  0.9320  1.7549
 5619SOL    HW228491   2.328   2.689  16.912 -0.3703 -0.8496 -0.5749
 5620SOL     OW28492   0.638   2.296  12.774 -1.1313  0.7437  0.4160
 5620SOL    HW128493   0.567   2.242  12.740 -0.6024  0.7235 -0.6489
 5620SOL    HW228494   0.609   2.320  12.862 -1.6237 -1.2866  0.8033
 5621SOL     OW28495   2.952   3.443   9.495 -0.2522 -0.0571 -0.4625
 5621SOL    HW128496   2.959   3.350   9.514  0.8515  0.0327 -0.4438
 5621SOL    HW228497   2.889   3.474   9.559 -1.0041 -2.2739 -0.1209
 5622SOL     OW28498   4.098   4.035   6.860 -0.1509 -0.6477 -0.5740
 5622SOL    HW128499   4.191   4.056   6.868  0.1267 -1.4584 -1.6453
 5622SOL    HW228500   4.100   4.009   6.768  1.2259 -1.6113 -0.2627
 5623SOL     OW28501   0.673   2.522   5.677  0.0884  0.2099  0.1960
 5623SOL    HW128502   0.599   2.476   5.637  0.9070 -0.8235 -0.1201
 5623SOL    HW228503   0.626   2.555   5.754 -1.4765  1.9575 -1.5073
 5624SOL     OW28504   2.643   0.975   6.764 -0.0995 -0.1744  0.7614
 5624SOL    HW128505   2.601   0.925   6.694  1.5644  0.3700 -0.6217
 5624SOL    HW228506   2.723   1.000   6.719 -0.8523 -1.1713 -1.1085
 5625SOL     OW28507   4.690   0.566  17.373 -0.3496  0.0463 -0.0348
 5625SOL    HW128508   4.723   0.522  17.295  0.0372  0.1329  0.0770
 5625SOL    HW228509   4.669   0.494  17.433  1.3646 -0.3676  0.0780
 5626SOL     OW28510   2.473   1.872   7.642 -0.5951 -0.2741  0.0201
 5626SOL    HW128511   2.532   1.798   7.626  2.3113  1.9561  0.4410
 5626SOL    HW228512   2.393   1.840   7.601 -1.3993  0.3801  1.0943
 5627SOL     OW28513   0.755   2.652   4.967 -0.0401 -0.5097 -0.4631
 5627SOL    HW128514   0.776   2.560   4.986  1.2859 -0.4275 -1.5056
 5627SOL    HW228515   0.704   2.678   5.043 -0.1606 -2.0982  0.0105
 5628SOL     OW28516   3.766   1.710   5.892  0.4926 -0.2580 -0.3130
 5628SOL    HW128517   3.840   1.726   5.833 -0.4064  0.3826 -1.2635
 5628SOL    HW228518   3.813   1.678   5.969  2.2003 -0.0508 -1.2592
 5629SOL     OW28519   0.871   2.398   6.535  0.1341  0.3421 -0.2572
 5629SOL    HW128520   0.885   2.386   6.629 -2.6066  1.2837  0.2730
 5629SOL    HW228521   0.886   2.310   6.499  0.7903 -0.3703  1.7533
 5630SOL     OW28522   1.285   1.235   4.342  0.1463 -0.1909 -0.2748
 5630SOL    HW128523   1.201   1.241   4.386  1.7395 -4.6283  3.3771
 5630SOL    HW228524   1.331   1.167   4.392  2.1780  0.6882 -0.9418
 5631SOL     OW28525   3.119   1.195  15.810  0.3655  0.0643 -0.4416
 5631SOL    HW128526   3.029   1.173  15.788  1.0754 -0.2856 -2.9938
 5631SOL    HW228527   3.120   1.175  15.904 -0.6138 -1.1545 -0.6836
 5632SOL     OW28528   1.429   2.177  11.855  0.4174  0.3317  0.6967
 5632SOL    HW128529   1.373   2.118  11.906  3.2128 -1.9827  1.0357
 5632SOL    HW228530   1.488   2.189  11.929  0.8033  0.7178  0.3241
 5633SOL     OW28531   2.673   0.597  16.732  0.0024 -0.5619  0.2461
 5633SOL    HW128532   2.723   0.516  16.723  1.7154  0.4079  0.9715
 5633SOL    HW228533   2.664   0.624  16.641  1.2036  1.2702  0.6735
 5634SOL     OW28534   3.797   4.368   4.534 -0.2690  0.1320 -0.6435
 5634SOL    HW128535   3.781   4.394   4.443 -3.3494  1.9134  0.3770
 5634SOL    HW228536   3.892   4.374   4.535 -0.1814 -1.2965 -0.7272
 5635SOL     OW28537   0.640   0.608  13.185  0.4753 -0.9984  0.5010
 5635SOL    HW128538   0.600   0.532  13.141 -1.1938  0.4873 -0.5625
 5635SOL    HW228539   0.577   0.672  13.153 -0.1455 -1.7311  0.2401
 5636SOL     OW28540   2.829   0.789  14.014 -0.4434  0.2786  0.4806
 5636SOL    HW128541   2.767   0.778  13.943  2.6067  1.6963 -2.3699
 5636SOL    HW228542   2.794   0.735  14.086 -2.1687 -0.5763 -0.9915
 5637SOL     OW28543   1.186   1.729   5.584 -0.0926 -0.6377 -0.2633
 5637SOL    HW128544   1.107   1.779   5.602  0.8424  0.9345 -0.5262
 5637SOL    HW228545   1.199   1.766   5.497  2.0628 -1.3414 -0.2384
 5638SOL     OW28546   2.555   3.596  14.903  0.8881  0.5933 -0.1803
 5638SOL    HW128547   2.627   3.600  14.840  1.0015 -0.0510 -0.0964
 5638SOL    HW228548   2.482   3.626  14.848  1.9705  0.3002 -1.8017
 5639SOL     OW28549   1.148   2.760  15.109 -0.0846  0.2907 -0.5956
 5639SOL    HW128550   1.157   2.725  15.197  1.3025 -2.0846 -1.6863
 5639SOL    HW228551   1.066   2.721  15.077 -0.1956  1.8324 -2.2245
 5640SOL     OW28552   2.473   4.516   1.562  0.5365 -0.0509  0.4994
 5640SOL    HW128553   2.475   4.498   1.468  1.0370  2.3206  0.0718
 5640SOL    HW228554   2.543   4.581   1.565  1.6899 -1.2602  0.2977
 5641SOL     OW28555   0.946   2.699   0.680  0.0064  0.6659  0.7063
 5641SOL    HW128556   0.889   2.667   0.749 -0.9452  0.0474 -0.3847
 5641SOL    HW228557   0.912   2.661   0.600  1.4573  0.0510  0.3821
 5642SOL     OW28558   4.322   0.063   4.391  0.4082  0.3077 -0.5595
 5642SOL    HW128559   4.323   0.088   4.483 -1.7312  0.7709 -0.6548
 5642SOL    HW228560   4.326   0.148   4.348 -0.5555  0.4244 -0.4156
 5643SOL     OW28561   0.277   0.362   4.468  0.4704 -0.1126 -0.4283
 5643SOL    HW128562   0.329   0.301   4.520 -1.4393 -0.6939  0.7788
 5643SOL    HW228563   0.269   0.431   4.534  1.6358  1.7415 -2.2127
 5644SOL     OW28564   4.736   4.168   3.284  0.2361  0.8670  0.0631
 5644SOL    HW128565   4.699   4.156   3.372 -0.9192 -0.1993 -0.5494
 5644SOL    HW228566   4.652   4.199   3.250 -1.7603 -5.0667 -0.5178
 5645SOL     OW28567   3.740   2.603  17.319  0.5849  0.1117 -0.2432
 5645SOL    HW128568   3.706   2.675  17.372  1.7459  0.7323 -0.3486
 5645SOL    HW228569   3.664   2.581  17.265  1.5228 -0.6743 -1.2463
 5646SOL     OW28570   4.015   2.471  10.075  0.1427  0.6071 -0.0179
 5646SOL    HW128571   4.055   2.392  10.039  0.4682  0.8961 -0.2867
 5646SOL    HW228572   3.990   2.434  10.160  0.4942 -0.1350 -0.2390
 5647SOL     OW28573   1.842   2.498  12.227  0.1792  0.1533 -0.0250
 5647SOL    HW128574   1.765   2.443  12.209  0.0514  0.3838 -0.1723
 5647SOL    HW228575   1.838   2.565  12.159  2.7347 -0.1865 -0.5186
 5648SOL     OW28576   2.942   2.973   8.403  0.0764 -0.5249  0.0428
 5648SOL    HW128577   2.913   3.027   8.329 -0.5919  0.5254  1.0604
 5648SOL    HW228578   2.861   2.978   8.454 -0.7048  0.5577 -1.2870
 5649SOL     OW28579   1.975   2.623   4.324 -0.0015  0.0075 -0.0879
 5649SOL    HW128580   1.947   2.548   4.377 -0.4824 -0.6031 -1.1837
 5649SOL    HW228581   2.035   2.664   4.385 -1.0401  2.0249 -0.4349
 5650SOL     OW28582   2.285   1.729  15.415 -0.8430  0.4491  0.4422
 5650SOL    HW128583   2.364   1.774  15.446  0.4138 -1.5800  0.1854
 5650SOL    HW228584   2.218   1.791  15.445 -1.5240  0.6905 -1.5762
 5651SOL     OW28585   4.683   4.565   9.961 -0.1422  0.3975  0.5997
 5651SOL    HW128586   4.727   4.613  10.031  1.3041  0.9048 -0.6452
 5651SOL    HW228587   4.620   4.625   9.924  0.6090 -0.8316 -2.6618
 5652SOL     OW28588   0.651   3.658  11.590 -0.1547 -0.0887  0.2465
 5652SOL    HW128589   0.631   3.678  11.681  0.0836 -3.4657  1.0356
 5652SOL    HW228590   0.741   3.689  11.574 -0.2526 -0.1854 -0.4763
 5653SOL     OW28591   0.104   2.445   2.622  0.1674 -0.2421  0.0956
 5653SOL    HW128592   0.101   2.385   2.697 -1.8187 -1.6525 -1.1191
 5653SOL    HW228593   0.061   2.528   2.646  0.4364  0.1476 -0.7693
 5654SOL     OW28594   3.639   3.432  10.922  0.0776  0.3182  0.1117
 5654SOL    HW128595   3.704   3.417  10.991 -0.1336 -0.4674  0.1389
 5654SOL    HW228596   3.695   3.471  10.855  2.1822 -0.1882  1.5712
 5655SOL     OW28597   3.082   2.204   2.788  0.0882 -0.5018 -0.0337
 5655SOL    HW128598   3.034   2.276   2.829 -0.7121 -2.0538  1.7900
 5655SOL    HW228599   3.171   2.235   2.803 -0.4775  2.3033 -2.7090
 5656SOL     OW28600   2.297   4.007  13.576 -0.0876 -0.4537 -0.1574
 5656SOL    HW128601   2.354   4.084  13.570 -1.0233 -0.0384 -3.6066
 5656SOL    HW228602   2.354   3.934  13.603  1.5326  0.7114 -0.4064
 5657SOL     OW28603   0.457   0.585   5.969 -0.1018 -0.2491 -0.2393
 5657SOL    HW128604   0.538   0.590   6.019  0.1895  1.4944 -0.8827
 5657SOL    HW228605   0.489   0.568   5.881  1.1719  2.1392 -0.2184
 5658SOL     OW28606   0.841   1.424   7.401 -0.1412 -0.2169  0.4104
 5658SOL    HW128607   0.837   1.355   7.335  1.1075  0.1463 -0.0393
 5658SOL    HW228608   0.752   1.451   7.423 -0.8007 -1.5393 -0.6152
 5659SOL     OW28609   3.431   4.677   0.313 -0.2949  0.5665  0.0693
 5659SOL    HW128610   3.354   4.720   0.351 -0.6788  0.2100 -0.3004
 5659SOL    HW228611   3.482   0.008   0.274 -0.2567  0.0710 -0.7897
 5660SOL     OW28612   4.359   1.856   0.349  0.2274  0.4114  0.0994
 5660SOL    HW128613   4.310   1.936   0.369  0.2469  0.7512 -1.1670
 5660SOL    HW228614   4.325   1.794   0.414  0.0503  0.5445  0.1354
 5661SOL     OW28615   3.135   1.438   1.832  0.6980  0.4038 -0.3573
 5661SOL    HW128616   3.144   1.356   1.882  0.6549 -0.7554 -2.2280
 5661SOL    HW228617   3.226   1.467   1.826  0.5606  0.9273  0.1561
 5662SOL     OW28618   4.531   1.878  11.710  0.1010  0.2180 -0.1149
 5662SOL    HW128619   4.603   1.884  11.773  0.5254  2.1457 -0.8008
 5662SOL    HW228620   4.495   1.965  11.724  1.3871  0.8659 -0.8118
 5663SOL     OW28621   4.436   2.757   4.088 -0.3132  0.2248 -0.3802
 5663SOL    HW128622   4.368   2.819   4.060  0.2049  0.1583 -1.7575
 5663SOL    HW228623   4.432   2.683   4.028 -2.5892 -0.6051  0.7885
 5664SOL     OW28624   4.579   2.486   7.431 -0.1907 -0.0594 -0.3752
 5664SOL    HW128625   4.632   2.558   7.465  0.1647 -0.7488  0.5295
 5664SOL    HW228626   4.620   2.416   7.481 -1.7654  0.6276  1.9235
 5665SOL     OW28627   0.147   0.108   7.557  1.0046  0.3518  0.2404
 5665SOL    HW128628   0.206   0.167   7.603  0.6691 -0.3545  1.5955
 5665SOL    HW228629   0.077   0.100   7.622  0.1415  0.9113 -0.6049
 5666SOL     OW28630   0.199   1.171   7.906 -0.5213  0.6923 -0.2256
 5666SOL    HW128631   0.183   1.266   7.909 -0.8652  0.6424 -0.4677
 5666SOL    HW228632   0.244   1.149   7.987  2.4695 -1.6499 -2.5243
 5667SOL     OW28633   0.120   3.382  12.423  0.2678 -0.3571  0.5491
 5667SOL    HW128634   0.149   3.392  12.332  1.5213 -1.6623  0.8062
 5667SOL    HW228635   0.107   3.471  12.456  1.7059 -0.4009  1.2540
 5668SOL     OW28636   2.811   0.785   3.274  0.1618 -0.2154  0.7733
 5668SOL    HW128637   2.748   0.828   3.332 -2.0019  0.0757 -1.8025
 5668SOL    HW228638   2.836   0.709   3.327 -1.6002 -0.1939  1.6440
 5669SOL     OW28639   1.535   2.614   4.006 -0.0794 -0.2782 -0.0823
 5669SOL    HW128640   1.594   2.597   4.080  0.9392 -1.9382 -1.2750
 5669SOL    HW228641   1.449   2.623   4.047  0.5998  1.4569  0.9496
 5670SOL     OW28642   2.003   4.428   2.503 -0.0210  0.0072  0.3920
 5670SOL    HW128643   1.999   4.344   2.550  0.0013 -0.2477 -0.0679
 5670SOL    HW228644   1.918   4.431   2.460 -1.1620  0.9146  2.6928
 5671SOL     OW28645   0.427   2.412   7.621  0.0336 -0.4850  0.1139
 5671SOL    HW128646   0.344   2.452   7.593  0.2684  1.0337  1.6034
 5671SOL    HW228647   0.399   2.367   7.701 -1.0539  0.7230  0.4136
 5672SOL     OW28648   4.163   3.428   2.007  0.0618 -0.1568  0.2910
 5672SOL    HW128649   4.142   3.429   2.101 -0.9522  2.0018  0.0423
 5672SOL    HW228650   4.133   3.342   1.975 -2.8980  1.4157 -1.2112
 5673SOL     OW28651   0.244   2.949   7.194 -0.5546 -0.0078  0.2107
 5673SOL    HW128652   0.173   3.012   7.206 -0.7583  0.2309 -2.2957
 5673SOL    HW228653   0.318   2.997   7.156 -0.1439  0.8102  2.0250
 5674SOL     OW28654   4.541   4.161   8.974  0.1949 -0.4911 -0.0853
 5674SOL    HW128655   4.632   4.157   9.003  0.9090  1.6062 -2.0328
 5674SOL    HW228656   4.510   4.074   8.998 -5.0847  1.7912  1.4153
 5675SOL     OW28657   1.376   2.687   9.348  0.0124  0.4599 -0.0282
 5675SOL    HW128658   1.288   2.656   9.369  0.6310 -0.5250  1.1412
 5675SOL    HW228659   1.388   2.657   9.257  0.6358  2.6807 -0.6882
 5676SOL     OW28660   0.283   0.969   5.058  0.2027  0.1001  0.0758
 5676SOL    HW128661   0.314   0.880   5.072 -2.0528 -0.1085  4.0396
 5676SOL    HW228662   0.258   0.957   4.967  0.0678 -0.2184  0.1521
 5677SOL     OW28663   1.958   4.175   2.612  0.0159  0.0061 -0.3946
 5677SOL    HW128664   1.881   4.224   2.639 -1.1676 -2.0017 -0.1516
 5677SOL    HW228665   1.915   4.111   2.554 -1.4865  0.7316 -0.0731
 5678SOL     OW28666   3.631   4.656  16.854 -0.1355  0.0037 -0.3472
 5678SOL    HW128667   3.721   4.668  16.886  0.1810 -0.4010 -1.0793
 5678SOL    HW228668   3.651   4.690  16.766 -0.0819 -0.7890 -0.6451
 5679SOL     OW28669   3.117   3.495   5.457 -0.2744 -0.4986 -0.4549
 5679SOL    HW128670   3.151   3.434   5.391  0.2294 -0.8633  0.1391
 5679SOL    HW228671   3.022   3.491   5.445 -0.3597  0.5526 -0.1284
 5680SOL     OW28672   1.704   4.462   6.342  0.1409 -0.0075  0.2067
 5680SOL    HW128673   1.689   4.556   6.353 -1.4678  0.0765 -2.7646
 5680SOL    HW228674   1.789   4.458   6.385  0.7450  2.5345 -0.7529
 5681SOL     OW28675   2.626   3.938   1.891  0.1038  0.1232  0.2695
 5681SOL    HW128676   2.656   4.009   1.834 -0.0317  0.0479  0.1042
 5681SOL    HW228677   2.704   3.883   1.899  0.3490  0.4867  0.3687
 5682SOL     OW28678   0.199   1.339   3.808  0.4014 -0.2003 -0.1942
 5682SOL    HW128679   0.167   1.273   3.747 -0.2062  1.7206 -1.9230
 5682SOL    HW228680   0.267   1.283   3.845  1.3264  0.8541 -0.2995
 5683SOL     OW28681   3.284   2.202  16.112 -0.5471  0.4698  0.3735
 5683SOL    HW128682   3.352   2.193  16.045 -0.6697 -0.7517  0.4002
 5683SOL    HW228683   3.275   2.294  16.138 -0.8681  0.3131  0.8212
 5684SOL     OW28684   2.118   1.970   7.727  0.1547 -0.6643 -0.3757
 5684SOL    HW128685   2.057   1.905   7.693 -0.8521  0.5945 -0.9941
 5684SOL    HW228686   2.109   1.962   7.821  2.3249 -0.0660 -0.1180
 5685SOL     OW28687   1.287   1.135   7.768  0.1802 -0.5354 -0.1301
 5685SOL    HW128688   1.354   1.161   7.831 -0.9045  0.1886  0.7266
 5685SOL    HW228689   1.235   1.076   7.824 -1.5796  0.1788 -1.0238
 5686SOL     OW28690   3.902   3.696   9.099 -0.9158  0.2119 -0.1694
 5686SOL    HW128691   3.910   3.712   9.005  0.8769  0.2380 -0.0266
 5686SOL    HW228692   3.900   3.785   9.135 -1.3351  0.6226 -1.2384
 5687SOL     OW28693   2.813   2.939   2.724 -0.2748 -0.6012 -0.0758
 5687SOL    HW128694   2.741   2.993   2.691 -0.6367 -0.7377  0.4968
 5687SOL    HW228695   2.779   2.863   2.677 -1.9882 -0.2915  0.6453
 5688SOL     OW28696   2.109   2.785   4.497  0.0647  0.1190 -0.5741
 5688SOL    HW128697   2.066   2.779   4.583 -3.2433  0.0292 -2.2610
 5688SOL    HW228698   2.179   2.845   4.525 -0.4971  0.7939 -0.6223
 5689SOL     OW28699   4.504   0.461   1.613 -0.1203  0.0279 -0.1947
 5689SOL    HW128700   4.599   0.450   1.617  0.0452  1.2403 -1.0137
 5689SOL    HW228701   4.469   0.421   1.693  1.4511 -0.3991  0.2762
 5690SOL     OW28702   3.005   2.700   8.426  0.2559  0.0183 -0.3432
 5690SOL    HW128703   3.003   2.796   8.419 -0.2533  0.0761  0.5706
 5690SOL    HW228704   2.945   2.668   8.358  1.2169 -0.7755 -0.8130
 5691SOL     OW28705   3.343   0.287   3.280 -0.5189 -0.1453 -0.5307
 5691SOL    HW128706   3.251   0.310   3.272 -0.9855 -1.7433  0.1271
 5691SOL    HW228707   3.358   0.271   3.374  5.1124 -0.5273 -1.5217
 5692SOL     OW28708   4.140   2.018   2.813  0.2537  0.1990 -0.0110
 5692SOL    HW128709   4.084   1.999   2.738  0.4081  2.9205 -0.8178
 5692SOL    HW228710   4.141   2.113   2.801 -0.7527  0.0633 -1.1341
 5693SOL     OW28711   2.708   4.639   2.002  0.0015  0.1848  0.3550
 5693SOL    HW128712   2.780   4.594   1.957 -1.0312 -0.6538 -0.4630
 5693SOL    HW228713   2.754   4.676   2.078  0.8539 -0.8559  0.3544
 5694SOL     OW28714   3.952   2.084   3.718  0.1143 -0.3271 -0.5758
 5694SOL    HW128715   3.936   2.176   3.739 -2.0060 -1.1573  1.4469
 5694SOL    HW228716   4.035   2.089   3.671  0.5458 -1.4058  0.0782
 5695SOL     OW28717   2.514   2.345   7.768 -0.2465 -0.2428  0.0167
 5695SOL    HW128718   2.457   2.272   7.789  1.9546 -1.9184  0.1277
 5695SOL    HW228719   2.532   2.317   7.678  1.3888 -2.1246  0.9255
 5696SOL     OW28720   1.209   4.144   0.762 -0.6499  0.1397 -0.3898
 5696SOL    HW128721   1.303   4.130   0.768 -0.6978  1.6345  3.8729
 5696SOL    HW228722   1.212   4.234   0.795  1.1742 -0.0875  0.0568
 5697SOL     OW28723   2.536   1.087   2.318 -0.1224  1.0365 -0.3286
 5697SOL    HW128724   2.522   1.004   2.362  0.6592  0.7198 -0.6619
 5697SOL    HW228725   2.632   1.078   2.317 -0.2343 -0.1566 -0.6937
 5698SOL     OW28726   4.196   2.316   8.047  0.1684 -0.3160 -0.1081
 5698SOL    HW128727   4.277   2.343   8.091 -0.1803 -1.1484  1.0480
 5698SOL    HW228728   4.188   2.396   7.996 -2.5194 -1.9971 -2.3005
 5699SOL     OW28729   4.681   3.833   8.618  0.3301  0.1660  0.6287
 5699SOL    HW128730   4.693   3.852   8.711 -1.6517  2.2951  0.4402
 5699SOL    HW228731   0.012   3.774   8.594  0.4129  0.2992  0.5521
 5700SOL     OW28732   2.865   1.809  10.257 -0.2543 -0.1032 -0.1180
 5700SOL    HW128733   2.923   1.743  10.217 -0.1040 -0.6633  1.0405
 5700SOL    HW228734   2.798   1.758  10.303  2.9458 -0.8420  3.6668
 5701SOL     OW28735   4.203   4.067   9.872 -0.2859 -0.2974 -0.8115
 5701SOL    HW128736   4.244   4.120   9.803  0.4447 -0.2915 -0.3786
 5701SOL    HW228737   4.141   4.013   9.824  0.4792 -0.0677 -2.0709
 5702SOL     OW28738   1.043   3.125  10.661  0.6108 -0.1859 -0.0827
 5702SOL    HW128739   0.953   3.127  10.692  0.4357 -1.5703 -0.5033
 5702SOL    HW228740   1.070   3.042  10.700  1.7461  0.0081 -0.4491
 5703SOL     OW28741   2.027   3.270   4.487 -0.1882  0.2215  0.0469
 5703SOL    HW128742   1.933   3.287   4.490  0.5766  4.5466 -0.2622
 5703SOL    HW228743   2.032   3.183   4.448 -1.0241 -0.0264  0.4987
 5704SOL     OW28744   1.603   0.784   6.326  0.2788  0.1446 -0.2186
 5704SOL    HW128745   1.584   0.812   6.415  0.2647 -0.6785  0.0368
 5704SOL    HW228746   1.597   0.871   6.287  0.7907 -0.5398 -1.8206
 5705SOL     OW28747   4.456   4.391   3.416  0.1300 -0.1207  0.2243
 5705SOL    HW128748   4.542   4.405   3.455  2.0000 -0.0370 -3.8757
 5705SOL    HW228749   4.482   4.412   3.326  1.3104 -0.9598  0.3692
 5706SOL     OW28750   1.267   0.961   6.533 -0.0867 -0.0884  0.1549
 5706SOL    HW128751   1.302   1.048   6.513 -0.7920 -0.3610 -2.2002
 5706SOL    HW228752   1.230   0.943   6.447  0.0950 -2.0367  0.4969
 5707SOL     OW28753   2.381   2.406   6.446  0.1306 -0.7261  0.1045
 5707SOL    HW128754   2.424   2.339   6.392  1.4599 -0.2861  0.6234
 5707SOL    HW228755   2.296   2.363   6.453 -0.1159 -0.4383 -1.0089
 5708SOL     OW28756   3.285   2.848  17.626  0.6425  0.2228 -0.5144
 5708SOL    HW128757   3.304   2.905  17.552 -0.4654 -1.3990 -2.0498
 5708SOL    HW228758   3.347   2.880  17.692  1.4995 -0.5786 -0.9254
 5709SOL     OW28759   2.216   2.412   0.247  0.3831  0.1599  0.3718
 5709SOL    HW128760   2.219   2.336   0.189  0.1031 -0.8845  1.7123
 5709SOL    HW228761   2.228   2.486   0.187 -0.7243  0.9688  1.1546
 5710SOL     OW28762   3.218   3.418   6.626  0.4774 -0.1825 -0.2876
 5710SOL    HW128763   3.298   3.457   6.591  0.0168 -0.3863 -1.5722
 5710SOL    HW228764   3.162   3.396   6.552  2.4682 -0.9542 -1.5565
 5711SOL     OW28765   0.698   3.782   4.059  0.2328 -0.0269 -0.3183
 5711SOL    HW128766   0.781   3.820   4.088  0.9373 -0.0766 -2.2521
 5711SOL    HW228767   0.639   3.839   4.109  3.2643  3.0957 -0.3113
 5712SOL     OW28768   3.952   0.261   6.183  0.1519  0.0143  0.0783
 5712SOL    HW128769   3.922   0.248   6.093  0.9137 -0.9527 -0.0339
 5712SOL    HW228770   4.045   0.262   6.164  0.4684 -0.3511  1.5681
 5713SOL     OW28771   3.462   0.847   9.991 -0.2309 -0.2339 -0.6625
 5713SOL    HW128772   3.409   0.907  10.043 -1.0152  0.6222 -2.4704
 5713SOL    HW228773   3.407   0.794   9.932  1.1310 -1.1624 -1.1211
 5714SOL     OW28774   2.190   3.261  16.744 -0.2459 -0.0861 -0.0806
 5714SOL    HW128775   2.247   3.319  16.692  0.2993  1.5031  2.2932
 5714SOL    HW228776   2.127   3.218  16.686 -0.5147 -0.7001  0.6673
 5715SOL     OW28777   1.641   3.177  13.151 -0.1040 -0.2416 -0.5543
 5715SOL    HW128778   1.683   3.263  13.149 -0.7890  0.0807 -1.2868
 5715SOL    HW228779   1.693   3.123  13.091  0.9690  1.2034 -0.9343
 5716SOL     OW28780   3.156   3.693   1.859  0.6003 -0.0334  0.2570
 5716SOL    HW128781   3.100   3.666   1.786  0.1056  1.2938  0.1527
 5716SOL    HW228782   3.233   3.727   1.815 -0.7840  2.4831 -0.2223
 5717SOL     OW28783   2.342   1.106   6.798  0.4905 -0.0683  0.8082
 5717SOL    HW128784   2.270   1.087   6.738 -0.6329  0.4821  1.9834
 5717SOL    HW228785   2.361   1.192   6.759 -3.5713  0.1162 -0.7927
 5718SOL     OW28786   0.805   2.322   0.050 -0.3923 -0.3433  0.5556
 5718SOL    HW128787   0.757   2.291  17.734  2.9040  0.1996 -1.7502
 5718SOL    HW228788   0.779   2.255   0.113 -1.3031  1.1006  1.7040
 5719SOL     OW28789   1.536   4.301   2.509  0.6051  0.3764  0.7070
 5719SOL    HW128790   1.466   4.364   2.492 -0.8213 -1.6675 -0.9394
 5719SOL    HW228791   1.487   4.251   2.574  2.2979 -3.8076 -1.2978
 5720SOL     OW28792   4.321   1.560   4.376 -0.3195  0.0409 -0.2645
 5720SOL    HW128793   4.287   1.512   4.452  0.1370  1.3731  0.7851
 5720SOL    HW228794   4.394   1.608   4.416  0.4943 -1.2582 -0.2018
 5721SOL     OW28795   4.406   1.158  12.073  0.1626  0.1107 -0.1588
 5721SOL    HW128796   4.469   1.134  12.140 -1.4381  0.1526  1.3792
 5721SOL    HW228797   4.452   1.118  12.000 -1.3264  0.6505 -1.4074
 5722SOL     OW28798   1.929   0.914   6.945 -0.2424 -0.0712 -0.2959
 5722SOL    HW128799   1.912   1.008   6.948 -0.8082 -0.1940  0.2521
 5722SOL    HW228800   1.932   0.898   7.039  0.5748 -0.9822 -0.4802
 5723SOL     OW28801   3.317   1.886   4.208  0.0624 -0.8591 -0.4919
 5723SOL    HW128802   3.363   1.802   4.219 -1.1764 -1.6694 -1.5829
 5723SOL    HW228803   3.347   1.902   4.119 -1.7063  0.2701 -0.8813
 5724SOL     OW28804   3.543   0.871  15.168 -0.0498 -0.3412  0.6923
 5724SOL    HW128805   3.565   0.962  15.146 -0.5723 -0.1750  0.8695
 5724SOL    HW228806   3.543   0.882  15.263  0.2992 -2.8362  0.9915
 5725SOL     OW28807   1.062   2.736   7.958 -0.1946 -0.5684 -0.0102
 5725SOL    HW128808   1.124   2.663   7.954 -0.6203 -0.9488  0.4653
 5725SOL    HW228809   1.113   2.801   7.910 -1.1689  0.1250 -0.1045
 5726SOL     OW28810   0.846   3.867   4.827  0.5026 -0.0061  0.1526
 5726SOL    HW128811   0.867   3.833   4.914 -2.2022 -0.0681  0.7600
 5726SOL    HW228812   0.762   3.823   4.818  0.1540  0.1952  2.5714
 5727SOL     OW28813   0.180   1.173   5.201  0.3852 -0.2224 -0.2855
 5727SOL    HW128814   0.221   1.102   5.150 -0.3858 -0.4659 -0.5578
 5727SOL    HW228815   0.204   1.254   5.156  0.5750 -0.6251 -0.9060
 5728SOL     OW28816   2.636   1.965   4.298 -0.8444 -0.5106  0.0822
 5728SOL    HW128817   2.563   1.982   4.238 -0.4307  0.1123 -0.2482
 5728SOL    HW228818   2.674   1.895   4.245  1.5714 -0.1733  1.3764
 5729SOL     OW28819   1.406   4.267   2.929  0.4129 -0.4310  0.4671
 5729SOL    HW128820   1.338   4.308   2.982 -1.2319  0.3729 -2.2669
 5729SOL    HW228821   1.431   4.340   2.872 -0.6092  2.0441  3.2013
 5730SOL     OW28822   4.089   3.922   6.608 -0.2793  0.4848  0.1558
 5730SOL    HW128823   4.126   3.835   6.623  1.3991  1.3518  0.9745
 5730SOL    HW228824   4.125   3.940   6.522  1.6374 -1.1397  0.6183
 5731SOL     OW28825   1.057   1.511   6.085 -0.1963  0.2289 -0.1261
 5731SOL    HW128826   1.141   1.504   6.129  0.4561 -1.6668 -1.6628
 5731SOL    HW228827   1.023   1.573   6.150 -1.1087  0.1661 -0.5395
 5732SOL     OW28828   0.964   2.924   5.027 -0.1436 -0.3584  0.5399
 5732SOL    HW128829   0.971   2.842   5.076  0.5344  0.1213  1.2503
 5732SOL    HW228830   0.997   2.988   5.090  0.6706  1.7559 -2.0268
 5733SOL     OW28831   2.984   3.481   4.450 -0.4225  0.8057  0.0231
 5733SOL    HW128832   3.036   3.512   4.376  1.0004 -0.4012  0.5312
 5733SOL    HW228833   3.044   3.476   4.524  0.2171  2.7299 -0.3615
 5734SOL     OW28834   3.614   4.295   3.393  0.3415 -0.8767  0.7707
 5734SOL    HW128835   3.699   4.305   3.351 -0.9486 -2.9874 -2.3213
 5734SOL    HW228836   3.576   4.381   3.372 -1.5070 -1.9188 -0.1504
 5735SOL     OW28837   3.442   2.957   5.849  0.2960 -0.3170 -0.0494
 5735SOL    HW128838   3.399   2.948   5.765  0.5681 -0.0719 -0.2142
 5735SOL    HW228839   3.384   2.920   5.916  1.6603  0.1891  1.4199
 5736SOL     OW28840   3.801   4.066   4.436 -0.0553  0.1862  0.1444
 5736SOL    HW128841   3.794   4.145   4.489 -1.0984 -1.2854  2.2110
 5736SOL    HW228842   3.758   4.002   4.492  0.0893  0.0138  0.0598
 5737SOL     OW28843   1.475   2.498   3.334 -0.6112  0.3798  0.2970
 5737SOL    HW128844   1.477   2.402   3.340  0.0381  0.2841 -1.5254
 5737SOL    HW228845   1.497   2.513   3.242 -0.1353 -0.7927  0.2071
 5738SOL     OW28846   4.277   0.038  15.080 -0.5023  0.0038  0.1638
 5738SOL    HW128847   4.281   0.133  15.070 -3.0477 -0.0311 -1.4511
 5738SOL    HW228848   4.259   0.014  14.989 -0.8776 -0.4634  0.3595
 5739SOL     OW28849   4.468   0.844  16.781  0.1614 -0.0564 -0.0850
 5739SOL    HW128850   4.499   0.900  16.853 -2.0336  1.3023 -0.2222
 5739SOL    HW228851   4.411   0.907  16.739  1.5013  2.3005  1.6297
 5740SOL     OW28852   0.821   2.279   4.031 -1.0466  0.0700 -0.0561
 5740SOL    HW128853   0.831   2.290   3.937  0.4750  4.0215  0.5495
 5740SOL    HW228854   0.725   2.271   4.034 -1.1702  2.6394  3.7237
 5741SOL     OW28855   2.648   1.802  12.263  0.0402  0.5685 -0.0592
 5741SOL    HW128856   2.554   1.790  12.276  0.2028  1.0719  1.5449
 5741SOL    HW228857   2.665   1.833  12.352 -1.9043 -1.6932  1.0966
 5742SOL     OW28858   0.709   1.190   6.873 -0.0112  0.1097 -0.4452
 5742SOL    HW128859   0.635   1.130   6.866 -1.6835  2.3623 -2.0294
 5742SOL    HW228860   0.766   1.149   6.938 -1.3361 -0.9077  0.0599
 5743SOL     OW28861   3.271   4.453  17.405 -0.2315  0.4491 -0.1008
 5743SOL    HW128862   3.305   4.458  17.316  0.7296  0.6496  0.2822
 5743SOL    HW228863   3.304   4.370  17.440 -2.2562 -0.2813  0.1076
 5744SOL     OW28864   3.264   4.458   6.843  0.7231  0.5524 -0.1547
 5744SOL    HW128865   3.260   4.540   6.794 -0.3778  0.2170 -0.6246
 5744SOL    HW228866   3.342   4.482   6.893  1.5898 -1.0222 -0.7410
 5745SOL     OW28867   3.123   3.176   8.988 -0.2235 -0.2799 -0.0844
 5745SOL    HW128868   3.087   3.089   8.974 -0.4220  0.1851 -2.3583
 5745SOL    HW228869   3.095   3.217   8.906  2.7578 -0.6250 -1.2688
 5746SOL     OW28870   3.420   0.704  12.423 -0.0934  0.0848  0.0061
 5746SOL    HW128871   3.477   0.742  12.355 -0.4262 -0.5201 -0.6072
 5746SOL    HW228872   3.428   0.613  12.396  2.2306 -0.4711  2.6099
 5747SOL     OW28873   1.065   0.089  12.956  0.4193 -0.2365  0.1020
 5747SOL    HW128874   1.077   0.173  12.910  1.0225 -1.1007 -1.3145
 5747SOL    HW228875   1.026   0.131  13.033 -0.4739  0.5380 -0.7693
 5748SOL     OW28876   3.899   1.399   3.816  0.4186  0.0908 -0.0012
 5748SOL    HW128877   3.877   1.468   3.879 -0.1682  0.4187 -0.5694
 5748SOL    HW228878   3.918   1.328   3.878  0.4096 -1.0788 -1.3327
 5749SOL     OW28879   1.246   1.267   8.158  0.2422  0.3925  0.3634
 5749SOL    HW128880   1.321   1.257   8.099  1.0231 -1.0286  1.6172
 5749SOL    HW228881   1.206   1.180   8.156  1.5767 -0.2527  2.7234
 5750SOL     OW28882   1.187   1.258  10.328 -0.1232 -0.8129  0.6345
 5750SOL    HW128883   1.231   1.173  10.329  0.2292 -0.6422  0.0618
 5750SOL    HW228884   1.148   1.245  10.241 -0.4046  0.7269  0.5233
 5751SOL     OW28885   3.801   1.960  10.522 -0.0944 -0.1257  0.4595
 5751SOL    HW128886   3.889   1.925  10.511 -0.9336 -1.4593 -2.1925
 5751SOL    HW228887   3.809   1.962  10.617  0.4592 -0.7710  0.4276
 5752SOL     OW28888   4.231   3.606   5.730 -0.3867  0.2469 -0.5524
 5752SOL    HW128889   4.161   3.667   5.754  0.1623  1.5763 -2.2722
 5752SOL    HW228890   4.215   3.533   5.790  1.4155 -0.6156 -1.1422
 5753SOL     OW28891   0.164   2.664  14.939 -0.5870  0.0888 -0.5856
 5753SOL    HW128892   0.257   2.684  14.952 -0.5750 -1.2378  1.4057
 5753SOL    HW228893   0.129   2.750  14.914  1.1860  0.5171 -1.5906
 5754SOL     OW28894   1.686   0.088  13.236 -0.4301 -0.1420 -0.4300
 5754SOL    HW128895   1.753   0.153  13.254 -1.2493  0.5532  0.1361
 5754SOL    HW228896   1.713   0.009  13.281  0.6838  0.4017 -0.1407
 5755SOL     OW28897   2.021   2.866  13.081 -0.1376 -0.0062  0.0165
 5755SOL    HW128898   2.024   2.784  13.032 -0.0808 -0.4733  0.7998
 5755SOL    HW228899   2.110   2.898  13.064 -0.6276  0.8093 -1.0344
 5756SOL     OW28900   3.884   4.593   4.086  0.3495 -0.0089 -0.2784
 5756SOL    HW128901   3.940   4.524   4.050 -1.0697 -1.7749  0.8984
 5756SOL    HW228902   3.798   4.570   4.052  0.2520  1.8243 -1.2944
 5757SOL     OW28903   1.238   1.070   5.510 -0.8259  0.0555 -0.2089
 5757SOL    HW128904   1.158   1.104   5.550 -3.0869 -2.5525 -2.5290
 5757SOL    HW228905   1.254   1.148   5.458 -2.1320 -0.5918 -1.5846
 5758SOL     OW28906   0.345   0.345  10.782 -0.9445 -0.2607 -0.4968
 5758SOL    HW128907   0.394   0.421  10.813  0.8497 -2.4313  2.0233
 5758SOL    HW228908   0.301   0.314  10.861  2.3424  0.7719  1.7483
 5759SOL     OW28909   4.720   0.293   9.514 -0.7025 -0.3221 -0.4725
 5759SOL    HW128910   4.699   0.231   9.445 -0.7922 -2.6394  1.6108
 5759SOL    HW228911   4.723   0.377   9.468 -2.2742 -0.7429 -1.3209
 5760SOL     OW28912   2.793   4.041   8.403 -0.2556  0.2623  0.1056
 5760SOL    HW128913   2.748   4.097   8.339 -0.0464  0.4629  0.1347
 5760SOL    HW228914   2.850   3.979   8.358 -0.6302 -0.6003  0.8276
 5761SOL     OW28915   4.308   4.375   1.677  0.1288 -0.1714 -0.3975
 5761SOL    HW128916   4.250   4.315   1.723  0.2310  0.4336  0.5197
 5761SOL    HW228917   4.386   4.320   1.673 -0.1043 -0.6124  0.8550
 5762SOL     OW28918   1.095   3.229   8.850 -0.0968 -0.1303 -0.2739
 5762SOL    HW128919   1.089   3.200   8.941  2.8373 -0.6472 -0.2383
 5762SOL    HW228920   1.188   3.213   8.830  0.5460  1.9629  1.0685
 5763SOL     OW28921   0.007   4.625   5.635  0.0937  0.6371  0.3452
 5763SOL    HW128922   0.083   4.581   5.596  0.2530  1.5546 -0.3492
 5763SOL    HW228923   4.718   4.547   5.683  1.8389  0.4346  1.1036
 5764SOL     OW28924   4.380   0.166   6.804  0.0627 -0.0999  0.3052
 5764SOL    HW128925   4.304   0.193   6.857 -0.6879  1.3194 -1.4841
 5764SOL    HW228926   4.437   0.151   6.879  0.9047  0.1421 -0.2914
 5765SOL     OW28927   2.420   0.823   8.144  0.0306 -0.5411  0.2758
 5765SOL    HW128928   2.495   0.883   8.145  1.4930 -2.3221 -1.8767
 5765SOL    HW228929   2.431   0.818   8.049 -1.3192 -0.2157  0.1080
 5766SOL     OW28930   0.008   3.280   2.446  0.6629 -1.1423  0.1068
 5766SOL    HW128931   0.024   3.311   2.535  1.8326 -2.4883  0.3701
 5766SOL    HW228932   0.097   3.262   2.416 -0.6124 -2.9037 -2.6414
 5767SOL     OW28933   2.147   1.986  13.801 -0.0557 -0.4785 -0.6046
 5767SOL    HW128934   2.060   1.968  13.764 -0.4514 -0.0645  0.1234
 5767SOL    HW228935   2.124   2.047  13.872 -0.2307  0.4966 -1.4867
 5768SOL     OW28936   3.659   4.244   5.372  0.3674  0.6987  0.2469
 5768SOL    HW128937   3.652   4.191   5.293  1.5773 -1.5791  1.6785
 5768SOL    HW228938   3.736   4.302   5.364  1.0741 -0.3528 -0.6117
 5769SOL     OW28939   4.484   4.272   8.503  0.2043 -0.2832 -0.6780
 5769SOL    HW128940   4.403   4.312   8.535  0.9899  3.4991 -3.3451
 5769SOL    HW228941   4.501   4.214   8.577 -0.4711 -0.0170 -0.3224
 5770SOL     OW28942   2.187   4.194   4.902  0.4475  0.2007  0.3646
 5770SOL    HW128943   2.148   4.221   4.819 -1.7286  1.1155  1.7031
 5770SOL    HW228944   2.157   4.103   4.906  0.5348  0.1271 -0.5156
 5771SOL     OW28945   3.974   1.387   1.959  0.3534  0.5015 -0.4819
 5771SOL    HW128946   3.982   1.457   2.024  0.5430  0.3480 -0.3418
 5771SOL    HW228947   3.960   1.317   2.022  1.9910  0.5863 -0.0184
 5772SOL     OW28948   4.467   2.593   8.313 -0.1708  0.4555  0.1058
 5772SOL    HW128949   4.510   2.629   8.236  1.2016  0.5278  0.8945
 5772SOL    HW228950   4.540   2.540   8.347  1.1358  2.2015  0.0085
 5773SOL     OW28951   2.304   1.986   9.281  0.1809  0.6883  0.4765
 5773SOL    HW128952   2.357   2.064   9.261  1.2636 -0.8650 -2.6680
 5773SOL    HW228953   2.336   1.964   9.369  0.7498  1.5824  0.5006
 5774SOL     OW28954   3.092   2.922   9.525  0.2755  0.5800  0.4608
 5774SOL    HW128955   3.152   2.905   9.453 -1.7052  0.7166 -1.1947
 5774SOL    HW228956   3.114   2.849   9.583 -0.9348 -0.8793 -0.9243
 5775SOL     OW28957   1.350   1.628   8.243 -0.3449 -0.2217 -0.1605
 5775SOL    HW128958   1.382   1.537   8.242  1.8649  0.5675 -0.9986
 5775SOL    HW228959   1.320   1.630   8.334 -1.1967 -0.1029 -0.4412
 5776SOL     OW28960   2.320   0.553   7.799  0.0507  0.1402 -0.4011
 5776SOL    HW128961   2.302   0.601   7.719  0.3679 -1.4415 -1.4146
 5776SOL    HW228962   2.232   0.520   7.820 -0.4452  1.1413 -0.8773
 5777SOL     OW28963   3.172   4.063   7.253  0.2708 -0.0257  0.2086
 5777SOL    HW128964   3.123   3.997   7.302 -1.3774 -0.1643 -1.6297
 5777SOL    HW228965   3.235   4.102   7.314 -0.5219  2.4540 -0.5536
 5778SOL     OW28966   3.808   0.176  13.028  0.1552  0.2449  0.8091
 5778SOL    HW128967   3.761   0.139  12.953  1.3442 -0.3357  0.3602
 5778SOL    HW228968   3.844   0.095  13.064  0.9060 -1.6778 -4.3057
 5779SOL     OW28969   0.942   3.104   6.505 -0.1834 -0.1703 -0.3393
 5779SOL    HW128970   0.966   3.108   6.413 -4.2447  2.1917 -1.3513
 5779SOL    HW228971   0.872   3.170   6.502  0.2214  0.0277 -5.0804
 5780SOL     OW28972   3.973   2.025  13.230  0.0125  0.4524  0.2324
 5780SOL    HW128973   4.032   1.984  13.166  0.7282  0.3960  0.9348
 5780SOL    HW228974   3.905   2.058  13.171  0.6631  2.3147  0.5405
 5781SOL     OW28975   1.478   3.988   7.537  0.6576  1.2597  0.4321
 5781SOL    HW128976   1.535   3.943   7.601  2.4938  2.4293 -0.3833
 5781SOL    HW228977   1.436   4.058   7.587 -0.3315  1.4122 -0.6232
 5782SOL     OW28978   4.111   0.953   3.895 -0.1043  0.5349  0.3495
 5782SOL    HW128979   4.133   0.880   3.838 -3.4805 -2.1791  2.5454
 5782SOL    HW228980   4.090   0.911   3.979  1.7496 -1.0306  0.0303
 5783SOL     OW28981   4.630   0.660   3.328 -0.3643 -0.1450  0.0693
 5783SOL    HW128982   4.557   0.717   3.303 -0.8397 -1.0624 -0.6212
 5783SOL    HW228983   4.595   0.572   3.315  0.8336 -0.3619 -1.7013
 5784SOL     OW28984   4.268   2.566   5.990  0.3015  0.3059 -0.9874
 5784SOL    HW128985   4.177   2.594   5.978  0.7524  1.1709 -2.5042
 5784SOL    HW228986   4.288   2.541   5.900 -1.1243 -2.1817 -0.6114
 5785SOL     OW28987   3.238   0.585   6.611  0.1896 -0.2520 -0.3971
 5785SOL    HW128988   3.233   0.672   6.652  1.5825  0.5381 -1.9060
 5785SOL    HW228989   3.175   0.528   6.655 -0.0522 -1.0254 -1.7511
 5786SOL     OW28990   3.784   2.783   1.554 -0.1389  0.9907 -0.0390
 5786SOL    HW128991   3.791   2.688   1.553  0.4851  1.0402 -1.4740
 5786SOL    HW228992   3.794   2.797   1.459  2.3570 -0.0074  0.0805
 5787SOL     OW28993   2.849   4.141   2.663  0.7678  0.2166  0.3512
 5787SOL    HW128994   2.807   4.220   2.630 -2.9162 -0.0076  4.4743
 5787SOL    HW228995   2.775   4.100   2.708  1.1889 -0.5862  0.3092
 5788SOL     OW28996   1.647   3.533   7.212  0.1787 -0.6252 -0.4182
 5788SOL    HW128997   1.652   3.607   7.272  0.3352 -1.0298  0.0614
 5788SOL    HW228998   1.741   3.514   7.203  0.1598 -0.4364 -1.0293
 5789SOL     OW28999   4.718   1.183   6.582 -0.1127 -0.1877  0.0894
 5789SOL    HW129000   4.666   1.115   6.538  1.3464 -0.3007 -1.4604
 5789SOL    HW229001   4.653   1.254   6.578  0.2396  0.0547 -1.3451
 5790SOL     OW29002   0.931   1.199   3.012 -0.0444 -0.6470  0.3398
 5790SOL    HW129003   0.973   1.228   2.932  1.6057 -1.4475  0.9087
 5790SOL    HW229004   0.963   1.257   3.081  0.1015  3.7326 -3.4486
 5791SOL     OW29005   4.007   0.541   2.679  0.4449  0.3676 -0.0293
 5791SOL    HW129006   3.969   0.472   2.734  0.8518  0.8574  0.8739
 5791SOL    HW229007   3.933   0.601   2.691 -0.7744 -1.0011 -0.5803
 5792SOL     OW29008   3.912   4.453   0.518 -0.0046  0.0995  0.0559
 5792SOL    HW129009   3.921   4.393   0.445 -0.7257  0.7915 -0.6063
 5792SOL    HW229010   3.923   4.540   0.479  1.1546 -0.8610 -1.7738
 5793SOL     OW29011   0.564   0.216   2.869 -0.1611 -0.4365 -0.3124
 5793SOL    HW129012   0.576   0.271   2.792 -1.5575  0.4107  0.0762
 5793SOL    HW229013   0.469   0.222   2.880 -0.1002 -0.1137  0.0288
 5794SOL     OW29014   1.081   0.332   8.886  0.4457  0.0767  0.4449
 5794SOL    HW129015   1.026   0.268   8.932  0.0377 -1.0372 -1.6146
 5794SOL    HW229016   1.163   0.283   8.886 -0.9546 -2.2796 -1.9279
 5795SOL     OW29017   0.846   3.683   5.378  0.5657  0.1022 -0.1334
 5795SOL    HW129018   0.868   3.614   5.440  1.4068  0.6792  0.2064
 5795SOL    HW229019   0.752   3.668   5.368  0.6689 -1.3848  1.2313
 5796SOL     OW29020   4.228   2.464   8.287  0.0113 -0.4169  0.0493
 5796SOL    HW129021   4.320   2.492   8.288 -0.2420  0.3922  0.8471
 5796SOL    HW229022   4.180   2.545   8.301  0.4369 -0.2794  0.7219
 5797SOL     OW29023   1.454   0.258  13.253 -0.1764  0.4953  0.3438
 5797SOL    HW129024   1.539   0.214  13.262  0.2669  0.8133 -2.1007
 5797SOL    HW229025   1.474   0.314  13.178 -1.5767  0.9776  0.3362
 5798SOL     OW29026   2.176   3.496   5.091  0.2646  0.4220  0.1678
 5798SOL    HW129027   2.221   3.489   5.007  0.4999  2.2222  0.1425
 5798SOL    HW229028   2.090   3.513   5.053 -0.5334 -0.8627  1.3990
 5799SOL     OW29029   0.726   4.610   0.222 -0.3207  1.3994  0.4302
 5799SOL    HW129030   0.675   4.573   0.294  0.3877 -0.3911  0.0018
 5799SOL    HW229031   0.662   4.618   0.151  0.1449 -2.4239 -0.4099
 5800SOL     OW29032   2.197   2.170   1.699  0.2329  0.3576  0.0909
 5800SOL    HW129033   2.168   2.129   1.781 -0.1757 -0.5946 -0.5271
 5800SOL    HW229034   2.109   2.175   1.660 -0.0349  0.4690  0.7031
 5801SOL     OW29035   4.375   0.116   6.361 -0.3464  0.1555  0.1298
 5801SOL    HW129036   4.427   0.082   6.289 -0.8942  2.4204 -1.3285
 5801SOL    HW229037   4.365   0.211   6.355  1.7204  0.2543 -1.5251
 5802SOL     OW29038   1.995   1.995   9.857 -0.2668  0.1111  0.1589
 5802SOL    HW129039   1.935   1.941   9.907 -0.1869  0.4173  0.5875
 5802SOL    HW229040   2.004   2.074   9.910 -0.9947  0.5782 -0.4175
 5803SOL     OW29041   3.993   3.417   5.847  0.4833  0.2342 -0.2416
 5803SOL    HW129042   3.930   3.463   5.791  0.4719  0.4802 -0.0307
 5803SOL    HW229043   3.986   3.463   5.931  1.3674  1.6227 -0.9314
 5804SOL     OW29044   2.637   2.448   6.584 -0.5637  0.0967  0.1519
 5804SOL    HW129045   2.576   2.489   6.522 -1.5786 -2.1698 -0.3344
 5804SOL    HW229046   2.577   2.384   6.622 -3.2866  2.6828  0.2762
 5805SOL     OW29047   4.127   1.868   7.642  0.2331  0.4506  0.0399
 5805SOL    HW129048   4.085   1.887   7.725 -2.5027 -1.3199 -0.9540
 5805SOL    HW229049   4.061   1.905   7.583  1.8467  1.7062 -0.9817
 5806SOL     OW29050   1.235   1.227   7.188 -0.7559  0.0162 -0.2325
 5806SOL    HW129051   1.174   1.220   7.115 -0.9012 -0.6341 -0.0482
 5806SOL    HW229052   1.179   1.185   7.253 -0.8719 -2.5873 -2.0342
 5807SOL     OW29053   4.480   4.003  17.019  0.8157 -0.2806  0.0477
 5807SOL    HW129054   4.534   3.958  17.085 -1.3155  0.0204  2.0006
 5807SOL    HW229055   4.391   4.012  17.051  0.2953  1.2169 -1.8465
 5808SOL     OW29056   1.972   4.096   6.475  0.0609 -0.0006  0.2178
 5808SOL    HW129057   2.025   4.091   6.555  1.0114  2.4304 -0.2425
 5808SOL    HW229058   1.892   4.050   6.500 -0.6711  1.1115 -0.0802
 5809SOL     OW29059   4.210   4.240   3.739  0.4310  0.2608 -0.1845
 5809SOL    HW129060   4.166   4.240   3.824  0.1139 -0.0138 -0.3490
 5809SOL    HW229061   4.266   4.318   3.739  1.3915 -0.4373 -1.3044
 5810SOL     OW29062   0.297   4.542   0.102 -0.2108  0.0881 -0.4869
 5810SOL    HW129063   0.236   4.471   0.120 -0.5186  0.5065  0.1277
 5810SOL    HW229064   0.243   4.619   0.087  0.6450  0.7908  0.0442
 5811SOL     OW29065   4.585   0.368   5.758  0.4398 -0.5779  0.1643
 5811SOL    HW129066   4.658   0.377   5.821  1.5469  1.3546 -1.4008
 5811SOL    HW229067   4.632   0.307   5.700  0.8045  0.6500 -0.8245
 5812SOL     OW29068   2.878   1.162   3.480 -0.0150  0.7842 -0.3195
 5812SOL    HW129069   2.830   1.240   3.507  0.3660  1.1608 -0.7444
 5812SOL    HW229070   2.808   1.107   3.445  1.8400 -1.4561 -0.4915
 5813SOL     OW29071   0.455   3.104   7.536 -0.7378  0.5528 -0.2846
 5813SOL    HW129072   0.540   3.071   7.504 -0.7820  0.6856 -0.5400
 5813SOL    HW229073   0.464   3.198   7.524  1.8586  0.1118 -2.0816
 5814SOL     OW29074   0.439   2.311   0.027 -0.2530  0.3820  0.2243
 5814SOL    HW129075   0.497   2.250  17.741 -1.5721  0.1877 -1.1708
 5814SOL    HW229076   0.444   2.388  17.730  1.2576 -0.7851 -1.2167
 5815SOL     OW29077   0.738   2.120  15.808  0.0290  1.0704  0.4879
 5815SOL    HW129078   0.672   2.184  15.783  0.0132  1.2297  0.9407
 5815SOL    HW229079   0.699   2.041  15.772  1.3248  0.0846  1.2342
 5816SOL     OW29080   3.981   3.648   4.131  0.1745  0.0581 -0.3745
 5816SOL    HW129081   3.974   3.587   4.058  2.1028 -2.0543  1.2153
 5816SOL    HW229082   3.894   3.681   4.155 -0.7886 -2.7164 -0.1017
 5817SOL     OW29083   1.566   1.032   4.414 -0.3389 -0.6277 -0.4723
 5817SOL    HW129084   1.554   0.993   4.327  2.5269 -1.3139 -0.5581
 5817SOL    HW229085   1.622   1.107   4.390 -2.5604  1.7413  1.7919
 5818SOL     OW29086   1.268   4.204   7.104 -0.3151  0.6801  0.2547
 5818SOL    HW129087   1.188   4.222   7.155 -1.7059  1.5548 -2.2205
 5818SOL    HW229088   1.327   4.166   7.169 -0.9109  1.0305  0.9966
 5819SOL     OW29089   4.499   3.793   7.701  0.2075  0.0489 -0.1279
 5819SOL    HW129090   4.412   3.771   7.735 -0.4595 -1.5705 -2.9153
 5819SOL    HW229091   4.526   3.861   7.764  0.9530 -0.0780 -0.3127
 5820SOL     OW29092   3.113   4.304  17.187  0.1414  0.4172 -0.1694
 5820SOL    HW129093   3.049   4.359  17.143  0.0323  0.6272  0.2583
 5820SOL    HW229094   3.195   4.349  17.167  1.0171 -0.4286  1.4861
 5821SOL     OW29095   0.232   2.178   9.367 -0.0647  0.3734  0.0094
 5821SOL    HW129096   0.257   2.085   9.366 -0.1638  0.3765 -1.6617
 5821SOL    HW229097   0.229   2.184   9.463 -2.0664  0.4127 -0.0619
 5822SOL     OW29098   3.647   0.403  13.053 -0.3474 -0.6511 -0.4236
 5822SOL    HW129099   3.632   0.365  13.140  0.2692  0.2006  0.0590
 5822SOL    HW229100   3.713   0.346  13.016 -0.2415  0.0969 -1.3723
 5823SOL     OW29101   2.893   2.470   7.479  0.3289  0.3261  0.2120
 5823SOL    HW129102   2.975   2.518   7.488 -0.0843  1.1431 -0.3568
 5823SOL    HW229103   2.842   2.520   7.543 -1.2037 -0.0928 -0.6564
 5824SOL     OW29104   2.417   1.151   2.972  0.7076 -0.7460 -0.5490
 5824SOL    HW129105   2.456   1.237   2.955 -0.6744 -0.0095 -0.0702
 5824SOL    HW229106   2.335   1.173   3.016  0.6733  0.4260 -1.1901
 5825SOL     OW29107   1.827   3.433   2.052 -0.9333  0.1650  0.3352
 5825SOL    HW129108   1.782   3.354   2.022  0.1640 -1.4379  2.9088
 5825SOL    HW229109   1.780   3.503   2.009  0.0110  1.1196  0.8504
 5826SOL     OW29110   2.797   0.965  12.993  0.5315 -0.3926  0.6954
 5826SOL    HW129111   2.827   0.970  12.903  1.0964  2.0855  1.0272
 5826SOL    HW229112   2.704   0.942  12.998  0.1291  0.8200 -1.4603
 5827SOL     OW29113   3.008   3.899   1.482 -0.7886  0.2776  0.2434
 5827SOL    HW129114   3.055   3.911   1.400  1.8404 -0.5164  1.6460
 5827SOL    HW229115   2.926   3.934   1.447  1.4988  3.4423 -1.9544
 5828SOL     OW29116   4.571   1.933   7.891 -0.1939  0.0849 -0.2149
 5828SOL    HW129117   4.543   1.912   7.802  0.4082 -3.4950  0.4263
 5828SOL    HW229118   4.513   2.008   7.903 -1.7738 -1.0845 -0.4939
 5829SOL     OW29119   0.748   3.415   8.308  0.7297 -0.1290  0.0242
 5829SOL    HW129120   0.774   3.479   8.241 -1.7562  0.1803 -0.6388
 5829SOL    HW229121   0.807   3.340   8.306 -1.2542 -1.6444 -1.0040
 5830SOL     OW29122   1.761   4.543  12.187  0.1678 -0.5457  0.0554
 5830SOL    HW129123   1.787   4.451  12.194  0.7951 -0.4052 -0.4574
 5830SOL    HW229124   1.824   4.580  12.248  0.8856  0.1793 -1.1250
 5831SOL     OW29125   0.165   1.952   8.734  0.0597  0.1228  0.2914
 5831SOL    HW129126   0.210   2.014   8.792 -0.6101  2.0078 -1.2247
 5831SOL    HW229127   0.201   1.975   8.648  2.4663  1.1969  1.5823
 5832SOL     OW29128   1.494   2.791   4.651  0.2632 -0.3169 -0.5087
 5832SOL    HW129129   1.535   2.754   4.730  1.5374 -1.4534 -1.7098
 5832SOL    HW229130   1.414   2.743   4.629 -0.1172 -0.0518  0.2827
 5833SOL     OW29131   0.483   2.104  15.374 -0.0692  0.3951 -0.3411
 5833SOL    HW129132   0.392   2.116  15.347 -0.2334 -0.5192 -0.2107
 5833SOL    HW229133   0.490   2.012  15.402  0.5246  0.3626 -0.5984
 5834SOL     OW29134   2.755   0.890  10.782 -0.0765  0.6490 -0.2278
 5834SOL    HW129135   2.706   0.932  10.853  0.3473 -3.0680  2.2193
 5834SOL    HW229136   2.844   0.917  10.804  0.1176  0.8771 -1.3093
 5835SOL     OW29137   3.499   4.003  10.461  0.1443  0.4745  0.4016
 5835SOL    HW129138   3.573   4.039  10.510 -0.2673  2.3366 -0.3367
 5835SOL    HW229139   3.432   3.981  10.526  0.0573  0.3110  0.2562
 5836SOL     OW29140   2.253   4.621  11.483  0.5169  0.6736  0.4882
 5836SOL    HW129141   2.164   4.602  11.453  0.9054 -2.2602  1.2210
 5836SOL    HW229142   2.274   4.536  11.522  0.6375  0.7850  0.6670
 5837SOL     OW29143   0.206   0.365  13.435 -0.4931 -0.0863 -0.1011
 5837SOL    HW129144   0.261   0.294  13.468  0.9031  2.0658  2.2034
 5837SOL    HW229145   0.252   0.443  13.464 -0.2560 -0.5448  0.7709
 5838SOL     OW29146   2.844   0.626   9.508  0.2940  0.1179  0.6372
 5838SOL    HW129147   2.899   0.675   9.447  2.8141 -0.9190  2.0806
 5838SOL    HW229148   2.900   0.610   9.583 -0.0212  0.2501  0.9012
 5839SOL     OW29149   3.740   4.147   7.969  0.1593 -0.1975  0.1468
 5839SOL    HW129150   3.826   4.133   7.929  0.4663  2.3564 -0.1164
 5839SOL    HW229151   3.708   4.057   7.963  0.3347 -0.2183 -0.5573
 5840SOL     OW29152   1.668   4.592   7.395 -0.2388 -0.1921  0.9714
 5840SOL    HW129153   1.610   4.523   7.362 -0.4568  0.7174 -0.5233
 5840SOL    HW229154   1.602   4.649   7.436  1.8924  2.5153  0.6288
 5841SOL     OW29155   2.213   3.704   7.801  0.5118  0.1673 -0.2568
 5841SOL    HW129156   2.307   3.694   7.790  0.5844 -1.0882  1.5605
 5841SOL    HW229157   2.205   3.763   7.876  1.5907 -0.1867  0.1323
 5842SOL     OW29158   3.571   1.765  11.614  0.1461  0.2567 -0.1858
 5842SOL    HW129159   3.645   1.810  11.573 -3.0497  3.3264 -2.5154
 5842SOL    HW229160   3.511   1.838  11.622 -2.6648 -1.8463 -2.1018
 5843SOL     OW29161   2.257   3.126   8.498  0.3014 -0.4670 -0.1367
 5843SOL    HW129162   2.344   3.086   8.505  0.9704  0.7389 -1.4787
 5843SOL    HW229163   2.260   3.197   8.562  0.1942  0.8716 -1.6232
 5844SOL     OW29164   2.404   0.647   6.962  0.5256 -0.1214  0.0498
 5844SOL    HW129165   2.393   0.742   6.961  1.4822 -0.0187 -0.3416
 5844SOL    HW229166   2.325   0.621   6.913 -0.8589  0.4786  1.9623
 5845SOL     OW29167   0.380   3.142   4.098  0.5775 -0.2441 -0.1995
 5845SOL    HW129168   0.379   3.130   4.003  0.7018 -0.2526 -0.2004
 5845SOL    HW229169   0.355   3.234   4.103 -0.4323 -0.5889  1.0261
 5846SOL     OW29170   1.073   0.251  16.925  0.1239 -0.0034  0.4195
 5846SOL    HW129171   0.984   0.282  16.944 -0.0146 -0.3693  0.3659
 5846SOL    HW229172   1.046   0.169  16.883  0.5485 -0.1752  0.4804
 5847SOL     OW29173   0.815   0.978   7.087  0.3053  0.3120  0.4786
 5847SOL    HW129174   0.836   0.886   7.069  1.6972  1.1026 -1.8358
 5847SOL    HW229175   0.744   0.964   7.150 -0.0470 -1.1248 -0.2255
 5848SOL     OW29176   3.598   0.190   5.957 -0.2645  0.1167 -0.3332
 5848SOL    HW129177   3.607   0.202   5.863 -2.8387  0.7341 -0.5058
 5848SOL    HW229178   3.514   0.236   5.961  0.8153  1.8978  1.5410
 5849SOL     OW29179   2.066   4.217  10.156  0.0520  0.7275  0.0608
 5849SOL    HW129180   1.988   4.240  10.106  1.2565  3.4371 -0.5751
 5849SOL    HW229181   2.020   4.184  10.233 -0.2079 -0.7324 -0.7213
 5850SOL     OW29182   4.447   0.202  16.657 -0.0846 -0.6418  0.3354
 5850SOL    HW129183   4.383   0.142  16.695 -0.3707 -0.5550  0.0025
 5850SOL    HW229184   4.448   0.167  16.568 -0.7769  0.9194 -0.2795
 5851SOL     OW29185   3.167   4.411   7.577 -0.1850  0.4076 -0.1794
 5851SOL    HW129186   3.244   4.460   7.548 -1.1063 -0.2857 -3.7043
 5851SOL    HW229187   3.093   4.457   7.537 -0.4043 -0.4999 -0.8143
 5852SOL     OW29188   2.638   3.564  13.698  0.4188 -0.3119  0.0967
 5852SOL    HW129189   2.734   3.565  13.691  0.5397 -0.1789  1.7310
 5852SOL    HW229190   2.625   3.492  13.759 -0.8526 -0.3734 -0.2504
 5853SOL     OW29191   0.203   2.338  13.552 -0.0101 -0.6012  0.0027
 5853SOL    HW129192   0.211   2.331  13.457  1.2517 -2.0433  0.2228
 5853SOL    HW229193   0.289   2.342  13.593 -1.1517 -1.2989  2.5329
 5854SOL     OW29194   2.014   4.139   6.781  0.5885  0.4482 -0.1357
 5854SOL    HW129195   1.971   4.128   6.866  0.6513  0.5391 -0.0913
 5854SOL    HW229196   2.018   4.235   6.777 -0.0378  0.3325 -3.1036
 5855SOL     OW29197   1.778   0.180   3.002 -0.4716 -0.0236 -0.3392
 5855SOL    HW129198   1.809   0.255   3.052 -1.8823  0.6271 -0.4444
 5855SOL    HW229199   1.835   0.109   3.031  1.1255  0.4276 -2.4142
 5856SOL     OW29200   1.040   3.942   1.404 -0.3498 -0.3902 -0.4097
 5856SOL    HW129201   0.972   3.895   1.453 -1.2125  0.3638 -0.8877
 5856SOL    HW229202   1.035   3.895   1.321  0.5288  2.9893 -2.3577
 5857SOL     OW29203   1.228   2.144   2.513 -0.4817  0.3722  0.2053
 5857SOL    HW129204   1.219   2.234   2.481  1.7743 -0.0054 -1.4724
 5857SOL    HW229205   1.213   2.092   2.434  1.3714  1.3619 -0.7962
 5858SOL     OW29206   3.494   0.827   8.322  0.0671 -0.4367  0.4584
 5858SOL    HW129207   3.497   0.791   8.234 -0.9600  0.8375 -0.0909
 5858SOL    HW229208   3.441   0.761   8.368  0.0997 -1.2860 -0.7221
 5859SOL     OW29209   0.580   0.929  16.287  0.6119 -0.0623 -0.2283
 5859SOL    HW129210   0.519   0.855  16.275 -1.5739  1.5281  0.9589
 5859SOL    HW229211   0.630   0.912  16.367 -2.2453  1.0380  1.7973
 5860SOL     OW29212   2.639   3.837   4.319 -0.0484 -0.0597  0.2250
 5860SOL    HW129213   2.662   3.927   4.342  0.5130  0.0729 -0.8489
 5860SOL    HW229214   2.610   3.795   4.400  0.7765 -1.6728 -0.3176
 5861SOL     OW29215   3.925   1.326   4.734  0.3868 -0.3942  0.2106
 5861SOL    HW129216   3.844   1.282   4.760  2.1098 -1.1683  4.2280
 5861SOL    HW229217   3.983   1.292   4.801  1.3219  1.5314  0.3726
 5862SOL     OW29218   0.731   4.359  15.488  0.0741  0.1842 -0.1015
 5862SOL    HW129219   0.695   4.428  15.544  1.0701 -0.2111  1.0365
 5862SOL    HW229220   0.661   4.359  15.423 -1.9266 -0.9814  2.0739
 5863SOL     OW29221   3.746   4.352   7.251 -0.1405 -0.1457 -0.6652
 5863SOL    HW129222   3.705   4.281   7.202  1.8053  0.6246 -3.4480
 5863SOL    HW229223   3.756   4.423   7.188 -0.9726 -0.3148 -0.9848
 5864SOL     OW29224   1.655   1.380   8.242  0.0158 -0.1679 -0.5469
 5864SOL    HW129225   1.665   1.475   8.243  2.0459 -0.4209  1.6426
 5864SOL    HW229226   1.662   1.357   8.149  1.5009  1.3518 -0.8082
 5865SOL     OW29227   0.439   1.632  13.929 -0.4416  0.5808 -0.2373
 5865SOL    HW129228   0.510   1.576  13.960 -3.5473 -2.5416  1.2108
 5865SOL    HW229229   0.457   1.636  13.835  0.0336  2.6972 -0.0638
 5866SOL     OW29230   0.949   1.789   4.601 -0.5717 -0.1974  0.2706
 5866SOL    HW129231   0.907   1.844   4.535 -0.6091 -1.9243 -1.1477
 5866SOL    HW229232   1.040   1.796   4.573 -0.1605 -2.2065  1.1318
 5867SOL     OW29233   1.680   3.189   3.210 -0.0885  0.5423 -0.4622
 5867SOL    HW129234   1.664   3.161   3.120 -0.9209 -1.7148  0.3765
 5867SOL    HW229235   1.696   3.282   3.196  2.2798  0.3272  0.7782
 5868SOL     OW29236   2.519   0.302   2.026 -0.1220  0.4781 -0.4603
 5868SOL    HW129237   2.550   0.309   2.116 -1.9869  0.0564  0.2273
 5868SOL    HW229238   2.470   0.384   2.019 -1.0483  0.0210  0.6561
 5869SOL     OW29239   2.700   4.557  13.692 -0.2452  0.1850  0.0310
 5869SOL    HW129240   2.660   4.594  13.614  1.7390 -0.3256 -1.2335
 5869SOL    HW229241   2.738   4.633  13.738  1.2307  0.4328 -1.5758
 5870SOL     OW29242   3.029   3.878   7.917 -0.2042 -0.2695 -0.1917
 5870SOL    HW129243   2.934   3.871   7.900 -0.1652  1.2636 -1.0002
 5870SOL    HW229244   3.045   3.806   7.978  0.0496 -0.0965 -0.0570
 5871SOL     OW29245   3.161   2.985  10.991  0.0527 -0.0688  0.2198
 5871SOL    HW129246   3.248   2.949  10.973 -0.4311 -1.7057  1.1321
 5871SOL    HW229247   3.104   2.933  10.934  0.3197 -0.6974  0.5286
 5872SOL     OW29248   4.428   4.180  16.821  0.1240 -0.2640  0.8810
 5872SOL    HW129249   4.438   4.135  16.737  0.2694 -0.6926  1.1281
 5872SOL    HW229250   4.435   4.101  16.873 -1.4389 -0.0203  1.4367
 5873SOL     OW29251   3.602   3.108   6.696 -0.0687 -0.0242 -0.5120
 5873SOL    HW129252   3.656   3.037   6.661 -1.6008 -2.3606  1.8269
 5873SOL    HW229253   3.632   3.126   6.785  1.3704 -1.8657 -0.6013
 5874SOL     OW29254   1.564   3.844   0.568  0.4023  0.1317 -0.4477
 5874SOL    HW129255   1.571   3.793   0.487  1.9155 -1.2930  0.6143
 5874SOL    HW229256   1.489   3.902   0.550  0.6074  1.2074  2.2307
 5875SOL     OW29257   4.662   4.450   1.358  0.2823  0.4575  0.0859
 5875SOL    HW129258   4.694   4.449   1.448  0.3180 -1.8305  0.0528
 5875SOL    HW229259   4.706   4.528   1.325 -0.8030  0.8133 -0.5019
 5876SOL     OW29260   1.913   0.961   3.036  0.2762 -0.1673  0.2424
 5876SOL    HW129261   1.894   0.875   3.072  2.2407 -0.6415  0.1450
 5876SOL    HW229262   1.840   0.966   2.975  0.5672  0.7629 -0.0345
 5877SOL     OW29263   1.193   2.122  11.503 -0.0202  0.2280 -0.6143
 5877SOL    HW129264   1.263   2.185  11.516 -0.7043  0.6959  0.8413
 5877SOL    HW229265   1.209   2.073  11.584 -0.3038  1.5330  0.2423
 5878SOL     OW29266   4.559   0.149   6.600  0.7366 -0.1672  0.1948
 5878SOL    HW129267   4.491   0.143   6.533 -1.2835  1.1166  2.1332
 5878SOL    HW229268   4.508   0.155   6.680 -1.5122 -2.5454 -1.0754
 5879SOL     OW29269   3.833   4.029   7.633  0.3646  0.3255  0.1857
 5879SOL    HW129270   3.857   3.968   7.563 -1.4834  1.0825 -1.1047
 5879SOL    HW229271   3.747   3.998   7.661 -0.0697  0.6771 -0.7695
 5880SOL     OW29272   0.228   3.061   2.075 -0.2912  0.5634 -0.1533
 5880SOL    HW129273   0.186   3.028   2.154  2.4973  2.2475  2.0437
 5880SOL    HW229274   0.322   3.056   2.092 -0.1749 -1.5695 -1.4417
 5881SOL     OW29275   1.102   1.205   3.808 -0.7972 -0.2826  0.0910
 5881SOL    HW129276   1.152   1.209   3.889  1.4987 -0.5894 -1.3083
 5881SOL    HW229277   1.097   1.111   3.790  1.1460 -0.0588 -1.5583
 5882SOL     OW29278   1.529   1.406   5.476 -0.0958  0.2459  0.0443
 5882SOL    HW129279   1.511   1.477   5.414  0.9957 -1.3501 -2.1348
 5882SOL    HW229280   1.461   1.343   5.452  0.6882 -1.3189  1.9468
 5883SOL     OW29281   1.513   2.904   2.592 -0.1217 -0.3827  0.7163
 5883SOL    HW129282   1.587   2.879   2.536 -0.1739  1.4902 -0.2083
 5883SOL    HW229283   1.542   2.992   2.613  1.4398 -0.5703 -0.6587
 5884SOL     OW29284   1.990   4.317   4.177  0.3780 -0.0177  0.1452
 5884SOL    HW129285   2.031   4.345   4.258 -1.5512 -0.6260  1.3226
 5884SOL    HW229286   2.000   4.223   4.192 -0.5153  0.2688  2.4975
 5885SOL     OW29287   4.360   3.058   8.991  0.2537  0.3375  0.0244
 5885SOL    HW129288   4.398   3.026   8.909 -2.0173 -1.8752 -0.1765
 5885SOL    HW229289   4.435   3.081   9.046  0.0351 -0.9205  0.8373
 5886SOL     OW29290   4.154   3.910   5.173 -0.1023 -0.3089  0.3004
 5886SOL    HW129291   4.202   3.969   5.231 -0.4781 -0.3182  0.6228
 5886SOL    HW229292   4.146   3.835   5.232  0.6847  0.3968  1.3001
 5887SOL     OW29293   3.347   1.914   4.528  0.5281 -0.1829 -0.1273
 5887SOL    HW129294   3.412   1.944   4.465  0.5535 -1.1505 -0.5500
 5887SOL    HW229295   3.350   1.995   4.580  0.6202  0.4736 -1.1660
 5888SOL     OW29296   4.649   4.619   0.172  0.3791 -0.1623  0.1715
 5888SOL    HW129297   4.573   4.572   0.137  0.8664  0.0673 -1.1882
 5888SOL    HW229298   4.654   4.605   0.266 -1.4169 -2.9876 -0.1358
 5889SOL     OW29299   2.887   2.571   8.194  0.6427 -0.0861 -0.1513
 5889SOL    HW129300   2.810   2.545   8.143 -0.8331  0.3904  1.8443
 5889SOL    HW229301   2.943   2.493   8.196  0.7025 -0.0107  1.0155
 5890SOL     OW29302   1.292   2.397  17.193  0.5891 -0.3619  0.4430
 5890SOL    HW129303   1.301   2.402  17.288 -0.2318  3.1355  0.3265
 5890SOL    HW229304   1.378   2.364  17.167  0.3830  0.8871 -1.8183
 5891SOL     OW29305   3.345   4.679   8.417  0.3239  0.2205 -0.4857
 5891SOL    HW129306   3.400   4.656   8.342 -0.9356  0.5220 -1.4976
 5891SOL    HW229307   3.297   0.016   8.389 -0.5839  0.6559  2.3177
 5892SOL     OW29308   2.091   2.732   5.554  0.0230 -0.1103  0.1053
 5892SOL    HW129309   2.052   2.784   5.624 -0.8436 -0.7347  0.0889
 5892SOL    HW229310   2.104   2.803   5.491  3.2839 -0.0630  0.8458
 5893SOL     OW29311   4.608   4.393   6.071 -0.2334 -0.6976  0.2440
 5893SOL    HW129312   4.615   4.303   6.039  3.2533 -0.3111 -0.0895
 5893SOL    HW229313   4.583   4.381   6.162 -1.8203  2.0452  0.1605
 5894SOL     OW29314   1.086   0.668   4.987  0.3419 -0.3598 -0.0588
 5894SOL    HW129315   1.073   0.685   4.894 -1.1428  0.2527  0.2573
 5894SOL    HW229316   1.045   0.739   5.036  1.8311  0.7696 -0.4330
 5895SOL     OW29317   3.380   2.671   4.586 -0.0388 -0.3308  0.1755
 5895SOL    HW129318   3.378   2.626   4.502 -1.1361 -0.6261  0.3686
 5895SOL    HW229319   3.355   2.758   4.555 -3.3519 -0.8393  1.4465
 5896SOL     OW29320   0.792   2.683   3.586 -0.5434  0.1090 -0.0820
 5896SOL    HW129321   0.825   2.750   3.527 -1.8967 -0.2081 -1.1870
 5896SOL    HW229322   0.864   2.650   3.641  1.1684 -0.6298 -2.7691
 5897SOL     OW29323   4.640   2.466  15.026 -0.1700 -0.1875 -0.0575
 5897SOL    HW129324   4.713   2.526  15.023 -0.0651 -0.1894  2.5853
 5897SOL    HW229325   4.584   2.512  14.963 -0.1328 -0.5434 -0.3559
 5898SOL     OW29326   0.342   3.797  17.638  0.0482 -0.0846 -0.1016
 5898SOL    HW129327   0.263   3.766  17.683 -0.3738  0.9933 -0.0905
 5898SOL    HW229328   0.408   3.742  17.680 -0.7391 -0.1427  1.0714
 5899SOL     OW29329   0.319   4.327  10.820 -0.4757  0.5145  0.2664
 5899SOL    HW129330   0.230   4.334  10.786 -0.7912  0.8248  1.1399
 5899SOL    HW229331   0.349   4.417  10.807  2.0559 -0.7657 -2.7077
 5900SOL     OW29332   3.853   2.709   1.908 -0.2727  0.6958  0.3695
 5900SOL    HW129333   3.819   2.798   1.911  1.7479  1.4971 -0.5417
 5900SOL    HW229334   3.948   2.721   1.917  0.1379 -1.2188 -1.3724
 5901SOL     OW29335   2.198   0.677   1.500 -0.2472  0.2376  0.3323
 5901SOL    HW129336   2.159   0.763   1.491 -0.4434 -0.0627 -1.7248
 5901SOL    HW229337   2.216   0.642   1.413 -0.5992 -2.5807  1.3696
 5902SOL     OW29338   2.305   0.651   6.532  0.0109  0.1547  0.3892
 5902SOL    HW129339   2.288   0.599   6.611  1.5388  1.0933  1.3378
 5902SOL    HW229340   2.367   0.593   6.489 -0.1700 -0.6558  1.2131
 5903SOL     OW29341   2.328   2.558   4.932 -0.7370  0.3282 -0.3679
 5903SOL    HW129342   2.260   2.503   4.893 -1.7185  1.2023  0.1097
 5903SOL    HW229343   2.359   2.492   4.994  0.8694  1.6545  0.2224
 5904SOL     OW29344   1.351   4.649   0.587  0.5951  0.1445 -0.0732
 5904SOL    HW129345   1.390   4.562   0.594 -1.3507 -0.6968  0.3020
 5904SOL    HW229346   1.276   4.640   0.529  1.3119 -0.2806 -0.9283
 5905SOL     OW29347   3.481   2.944   7.721  0.3577  0.1173  0.0207
 5905SOL    HW129348   3.517   2.966   7.808  1.9469 -0.6445 -0.4385
 5905SOL    HW229349   3.495   2.850   7.720 -3.0548 -0.3821 -0.5252
 5906SOL     OW29350   3.929   3.550   3.188  0.2899  0.7182  0.0547
 5906SOL    HW129351   3.982   3.628   3.207  1.7226 -0.3567  0.4847
 5906SOL    HW229352   3.843   3.582   3.215  0.2152 -0.2055  0.9530
 5907SOL     OW29353   3.413   2.608   7.434  0.3151  0.5103  0.4787
 5907SOL    HW129354   3.435   2.531   7.381 -0.1061  1.1611 -0.6513
 5907SOL    HW229355   3.491   2.625   7.487  0.9422  0.9260 -0.5643
 5908SOL     OW29356   1.018   0.747   5.334 -0.1026  0.4496  0.1710
 5908SOL    HW129357   0.967   0.697   5.271 -0.6734  1.2142  0.0258
 5908SOL    HW229358   1.053   0.672   5.383 -3.2318 -0.6119  0.7860
 5909SOL     OW29359   0.725   2.012   2.020 -0.1932 -0.5042  0.3835
 5909SOL    HW129360   0.645   1.968   1.991 -0.8122  1.0048 -0.1413
 5909SOL    HW229361   0.794   1.950   1.994 -0.6889 -1.3178  0.9937
 5910SOL     OW29362   4.527   3.447   4.712 -0.2157  0.0237  0.1375
 5910SOL    HW129363   4.467   3.390   4.758  1.3477 -1.8074 -0.0964
 5910SOL    HW229364   4.568   3.499   4.781 -1.7886  2.2186 -0.5879
 5911SOL     OW29365   3.767   0.131   8.147 -0.3939 -0.4795  0.1267
 5911SOL    HW129366   3.672   0.131   8.133 -0.4186 -0.1244  0.2937
 5911SOL    HW229367   3.787   0.182   8.225  2.8935 -0.7470 -0.5579
 5912SOL     OW29368   4.477   1.985   7.281 -0.9428  0.3783  0.2111
 5912SOL    HW129369   4.466   1.891   7.268  2.1393 -0.0186  0.2917
 5912SOL    HW229370   4.464   2.028   7.197 -0.0975 -0.5713 -0.4086
 5913SOL     OW29371   2.597   2.464   3.828  0.0582 -0.4321 -0.0881
 5913SOL    HW129372   2.623   2.440   3.739 -1.2475 -0.9216 -0.3332
 5913SOL    HW229373   2.664   2.529   3.847 -0.9533  0.1449  1.5308
 5914SOL     OW29374   1.982   2.240   2.690  0.0043 -0.0409 -0.0093
 5914SOL    HW129375   1.954   2.290   2.613  0.0827 -1.8976 -1.2402
 5914SOL    HW229376   2.062   2.286   2.716  0.0497  0.1347 -0.4588
 5915SOL     OW29377   4.563   3.469  12.476 -0.4613  0.1756  0.3289
 5915SOL    HW129378   4.647   3.423  12.471  0.1959  1.1474  2.6899
 5915SOL    HW229379   4.594   3.560  12.475  0.6095 -0.1985 -2.0392
 5916SOL     OW29380   0.267   2.463   9.677 -0.2164 -0.3883  0.4947
 5916SOL    HW129381   0.182   2.502   9.653  1.0563  0.1579 -3.1234
 5916SOL    HW229382   0.307   2.439   9.594  2.5745  3.5820  0.6741
 5917SOL     OW29383   1.724   2.097   3.817 -0.3591  0.5963 -0.5515
 5917SOL    HW129384   1.707   2.073   3.908  0.4190  0.2503 -0.4931
 5917SOL    HW229385   1.656   2.163   3.805 -0.0863  0.8076 -0.9381
 5918SOL     OW29386   0.238   3.337   7.022  0.5356  0.2117 -0.1325
 5918SOL    HW129387   0.251   3.429   7.045  0.3788 -0.0982  1.1955
 5918SOL    HW229388   0.296   3.306   7.091 -0.2626  2.4865  1.5928
 5919SOL     OW29389   3.926   2.558   0.301  0.6592 -0.1247  0.2719
 5919SOL    HW129390   3.837   2.594   0.305  0.4821 -0.7279  1.9897
 5919SOL    HW229391   3.952   2.593   0.216 -0.8145 -1.4754 -0.7460
 5920SOL     OW29392   2.149   1.946  15.136 -0.4879  0.1384  0.0632
 5920SOL    HW129393   2.131   1.884  15.065 -1.3909  0.5179 -0.0465
 5920SOL    HW229394   2.095   2.020  15.106  1.2869  0.6949 -1.7690
 5921SOL     OW29395   0.210   2.850   6.880  0.5209 -0.1618  0.0482
 5921SOL    HW129396   0.160   2.914   6.931 -1.0409 -1.2015 -0.1702
 5921SOL    HW229397   0.168   2.862   6.795  0.1855  0.0019  0.2362
 5922SOL     OW29398   1.795   0.930   5.753 -0.0966 -0.4630  0.1726
 5922SOL    HW129399   1.719   0.909   5.700 -0.1506 -1.0632  0.4899
 5922SOL    HW229400   1.803   0.858   5.815 -0.9370 -1.0957 -0.4622
 5923SOL     OW29401   2.524   2.990   6.574 -0.3454 -0.0149 -0.4531
 5923SOL    HW129402   2.524   2.940   6.656  1.0808 -1.6195 -1.4157
 5923SOL    HW229403   2.604   3.043   6.580 -0.3563 -0.1864  1.2302
 5924SOL     OW29404   1.803   0.397   0.027 -0.4791  0.7572  0.0892
 5924SOL    HW129405   1.833   0.372  17.700 -1.9767 -0.1911 -0.1502
 5924SOL    HW229406   1.819   0.319   0.080  2.4667  0.4769 -1.2060
 5925SOL     OW29407   0.970   1.317  16.643 -0.2633 -0.3098  0.0284
 5925SOL    HW129408   0.995   1.364  16.723 -0.8726  1.7141 -0.9673
 5925SOL    HW229409   0.984   1.379  16.571 -2.2033  0.8754  0.6879
 5926SOL     OW29410   2.968   2.374   6.593 -0.7474 -0.1250 -0.3746
 5926SOL    HW129411   2.880   2.402   6.617 -0.6933 -1.0113  0.8532
 5926SOL    HW229412   2.973   2.448   6.532 -1.3280 -0.8436 -1.3037
 5927SOL     OW29413   3.395   1.860  12.209 -0.1521 -0.4160 -0.3096
 5927SOL    HW129414   3.320   1.910  12.242 -2.4522 -3.8310 -0.4133
 5927SOL    HW229415   3.404   1.886  12.117 -0.2209 -0.1544 -0.2424
 5928SOL     OW29416   2.633   4.140   8.917  0.5646  0.7656  0.3167
 5928SOL    HW129417   2.544   4.111   8.899 -0.0460  2.3888  0.7056
 5928SOL    HW229418   2.674   4.054   8.910  0.3316  0.4682  2.6027
 5929SOL     OW29419   0.406   4.010   7.187 -0.1414  0.6876  0.2161
 5929SOL    HW129420   0.405   3.946   7.258  2.6413  2.1419  1.5623
 5929SOL    HW229421   0.493   4.049   7.181 -0.1019  0.6883  0.7466
 5930SOL     OW29422   2.172   4.120   7.475  0.3995 -0.0552  0.1174
 5930SOL    HW129423   2.189   4.137   7.568  1.2408 -0.1750 -0.0141
 5930SOL    HW229424   2.154   4.206   7.438  0.6711 -1.1063 -2.4484
 5931SOL     OW29425   1.896   4.022   9.027  0.9624  0.0053 -0.2245
 5931SOL    HW129426   1.869   4.056   8.941  1.0245 -0.0103 -0.2508
 5931SOL    HW229427   1.825   3.960   9.040  0.3312  1.2175  1.9660
 5932SOL     OW29428   2.887   3.182   1.291 -0.3868  0.1421 -0.2761
 5932SOL    HW129429   2.795   3.207   1.282 -0.4512  0.2303  0.5498
 5932SOL    HW229430   2.904   3.131   1.212  0.5252  1.4437 -0.9134
 5933SOL     OW29431   1.702   3.638   1.959  0.0266  0.9184 -0.2774
 5933SOL    HW129432   1.705   3.681   1.873 -0.9338  0.5769 -0.4940
 5933SOL    HW229433   1.611   3.654   1.985  0.3348 -0.5661  1.6893
 5934SOL     OW29434   1.642   0.040   8.830  0.7993  0.3756  0.7649
 5934SOL    HW129435   1.660   0.025   8.923  2.4299  1.4420  0.6203
 5934SOL    HW229436   1.619   0.133   8.829 -1.1240 -0.1204 -0.8979
 5935SOL     OW29437   2.217   2.748   1.784  0.0191  0.2289 -0.3657
 5935SOL    HW129438   2.194   2.679   1.721 -1.2131 -0.9424  1.3868
 5935SOL    HW229439   2.220   2.684   1.855 -1.4977 -0.2937 -0.7756
 5936SOL     OW29440   0.810   1.310   6.612  0.2303  0.0203 -0.0810
 5936SOL    HW129441   0.765   1.392   6.634  2.0776  1.4577 -1.5948
 5936SOL    HW229442   0.800   1.257   6.690 -0.7592  1.5685  0.8359
 5937SOL     OW29443   0.760   0.194   9.747  0.3052  0.0506  0.3568
 5937SOL    HW129444   0.795   0.118   9.793  1.8870  1.1101  0.9438
 5937SOL    HW229445   0.802   0.268   9.791 -1.6623  0.6529  1.2197
 5938SOL     OW29446   1.663   0.099   2.448 -0.4254 -0.0023 -0.6081
 5938SOL    HW129447   1.670   0.193   2.431 -0.1413  0.3534  1.4383
 5938SOL    HW229448   1.746   0.080   2.491 -1.2379 -0.2503  0.8672
 5939SOL     OW29449   0.490   0.837   8.699 -0.4947  0.6617 -0.0319
 5939SOL    HW129450   0.417   0.797   8.746  0.1204  0.8670  1.1028
 5939SOL    HW229451   0.526   0.772   8.639 -0.3392 -0.0970  0.8830
 5940SOL     OW29452   1.355   4.543   7.721  0.8905 -0.4015 -0.1742
 5940SOL    HW129453   1.268   4.561   7.684  1.4663  1.1062 -0.8109
 5940SOL    HW229454   1.349   4.572   7.812 -0.0493 -3.1487  0.6323
 5941SOL     OW29455   0.578   2.896   8.645 -0.3104 -0.0788  0.4215
 5941SOL    HW129456   0.583   2.880   8.551  2.6010  1.0985  0.3507
 5941SOL    HW229457   0.612   2.986   8.647 -0.9677  0.1039  2.9667
 5942SOL     OW29458   3.104   1.854   6.691 -0.1344 -0.3891  0.2938
 5942SOL    HW129459   3.091   1.795   6.765  1.0549  1.2288  1.8172
 5942SOL    HW229460   3.190   1.827   6.659 -1.8667 -2.7754 -2.3552
 5943SOL     OW29461   4.435   2.962   4.403  0.6903  0.2880  0.2092
 5943SOL    HW129462   4.476   2.922   4.480  0.5125  1.7204  1.0484
 5943SOL    HW229463   4.504   2.950   4.337  0.2658  0.5236 -0.2738
 5944SOL     OW29464   0.181   3.822   6.857 -0.3279 -0.8685  0.5962
 5944SOL    HW129465   0.099   3.785   6.825 -1.8829  1.0821  2.3802
 5944SOL    HW229466   0.236   3.746   6.837 -1.2984 -1.8539  1.6222
 5945SOL     OW29467   2.319   4.740   2.514 -0.3865 -0.0122 -0.7115
 5945SOL    HW129468   2.360   4.711   2.432 -1.2649 -0.5609 -0.9637
 5945SOL    HW229469   2.238   4.696   2.488 -1.1663  1.6005 -1.0331
 5946SOL     OW29470   1.552   3.895   3.273  0.1562  0.0302  0.2607
 5946SOL    HW129471   1.466   3.866   3.301  0.3531 -0.9229 -0.1111
 5946SOL    HW229472   1.537   3.990   3.272  1.0538  0.1831  0.4766
 5947SOL     OW29473   4.713   2.335   9.381  0.1697  0.8696 -0.1821
 5947SOL    HW129474   0.021   2.312   9.460 -0.3359  0.2533 -0.0497
 5947SOL    HW229475   4.625   2.317   9.412  0.4531 -2.1895 -1.1527
 5948SOL     OW29476   3.225   1.512   6.414 -0.1829  0.5397  0.6580
 5948SOL    HW129477   3.225   1.432   6.361 -2.7128  2.5422 -2.3729
 5948SOL    HW229478   3.230   1.577   6.344 -0.5866  1.2392  1.2721
 5949SOL     OW29479   3.891   3.391   2.608 -0.0334 -0.6517  0.2050
 5949SOL    HW129480   3.892   3.431   2.695 -1.4002 -1.0812  0.4155
 5949SOL    HW229481   3.945   3.456   2.563 -0.9108 -0.8988 -1.2099
 5950SOL     OW29482   3.652   0.940  11.992  0.4481  0.7165  0.5836
 5950SOL    HW129483   3.622   1.022  12.033 -0.1472  0.6068  0.3679
 5950SOL    HW229484   3.708   0.906  12.061 -0.6426  1.7724  1.9763
 5951SOL     OW29485   1.861   2.506   2.825 -0.0606  0.1561 -0.2425
 5951SOL    HW129486   1.905   2.423   2.840 -0.2106  0.4580  1.7931
 5951SOL    HW229487   1.940   2.561   2.820 -0.0666  0.2114  0.3508
 5952SOL     OW29488   1.936   2.372   2.458  0.1415  0.5535  0.0376
 5952SOL    HW129489   1.922   2.287   2.415 -3.6887 -0.3174  2.9400
 5952SOL    HW229490   1.965   2.422   2.383  0.7131  0.0342 -0.0920
 5953SOL     OW29491   4.253   0.942  17.333 -0.9230  0.1052 -0.0360
 5953SOL    HW129492   4.320   1.000  17.295 -1.9473 -0.1478 -2.2626
 5953SOL    HW229493   4.201   0.934  17.253 -0.8613  1.0866 -0.1824
 5954SOL     OW29494   2.403   0.099   5.662 -0.1493 -0.0222 -0.1189
 5954SOL    HW129495   2.462   0.025   5.674 -0.1098  0.5452  3.1800
 5954SOL    HW229496   2.454   0.136   5.589 -1.8717  3.6068  0.5202
 5955SOL     OW29497   1.845   0.186   3.391  0.0728 -0.4094 -0.5280
 5955SOL    HW129498   1.802   0.268   3.415 -0.8972 -0.2462 -2.8023
 5955SOL    HW229499   1.932   0.223   3.374 -0.9647  1.4427 -1.8002
 5956SOL     OW29500   1.382   1.391   4.514  0.4924 -0.6934 -0.3472
 5956SOL    HW129501   1.409   1.460   4.453  0.3700  0.6269  1.0784
 5956SOL    HW229502   1.345   1.332   4.449 -0.8844 -0.6859  0.4284
 5957SOL     OW29503   2.768   0.612   1.190  0.0244 -0.3591 -0.0852
 5957SOL    HW129504   2.716   0.601   1.270  0.5257 -1.8989  0.0385
 5957SOL    HW229505   2.833   0.677   1.214 -0.1786 -0.6456  1.2480
 5958SOL     OW29506   1.491   0.726   2.876 -0.7811 -0.2627 -0.1851
 5958SOL    HW129507   1.538   0.808   2.893 -3.4893  1.7776 -2.5568
 5958SOL    HW229508   1.504   0.681   2.960  0.5418  1.3375  0.4918
 5959SOL     OW29509   1.288   2.868   2.404 -0.1972 -0.0075  0.1475
 5959SOL    HW129510   1.354   2.878   2.472 -0.2698 -0.0632  0.2261
 5959SOL    HW229511   1.208   2.861   2.456  1.1305 -0.0653  2.1615
 5960SOL     OW29512   1.492   3.920  16.078  0.5316  0.2375  0.7748
 5960SOL    HW129513   1.565   3.973  16.046 -0.2507  0.5201 -0.5519
 5960SOL    HW229514   1.438   3.922  15.999  2.7464  0.2766 -0.7122
 5961SOL     OW29515   0.551   0.087   5.973 -0.1283 -0.3938 -0.0715
 5961SOL    HW129516   0.502   0.024   5.921  0.9638  1.2386 -3.1329
 5961SOL    HW229517   0.518   0.175   5.954  1.7984  0.4195  0.2525
 5962SOL     OW29518   1.528   3.121   5.178  0.1125  0.2300 -0.0860
 5962SOL    HW129519   1.531   3.139   5.084  0.0465  1.4117  0.1365
 5962SOL    HW229520   1.623   3.119   5.187  0.3219 -1.1189 -2.8480
 5963SOL     OW29521   3.779   2.741   7.600 -0.1780  0.1650 -0.2042
 5963SOL    HW129522   3.750   2.677   7.536  2.0351 -1.8772  0.8333
 5963SOL    HW229523   3.741   2.819   7.561  0.0882  0.7006  0.5971
 5964SOL     OW29524   2.198   1.645   8.658 -0.5077 -0.3643 -0.0571
 5964SOL    HW129525   2.187   1.736   8.630 -0.1412  0.5516  2.7134
 5964SOL    HW229526   2.178   1.653   8.751  1.3948  3.1807  0.0541
 5965SOL     OW29527   0.794   4.493   0.667 -0.1417  0.2437 -0.0225
 5965SOL    HW129528   0.740   4.443   0.606 -1.4333  0.9660  0.5242
 5965SOL    HW229529   0.742   4.509   0.746 -3.0542  1.6532 -2.2414
 5966SOL     OW29530   0.029   0.307   3.739  0.0894 -0.2140  0.5062
 5966SOL    HW129531   0.037   0.249   3.663  0.7532 -2.5458  2.3720
 5966SOL    HW229532   4.700   0.363   3.705  0.5960 -0.0328 -0.2375
 5967SOL     OW29533   0.612   1.236  10.282  0.3915 -0.4529 -0.2737
 5967SOL    HW129534   0.518   1.251  10.266  0.0057 -0.8280  1.6121
 5967SOL    HW229535   0.613   1.159  10.340  2.7791 -1.9454 -2.3365
 5968SOL     OW29536   2.971   0.286  12.765 -0.0072 -0.4032 -1.0708
 5968SOL    HW129537   2.876   0.300  12.772  0.0753 -1.0015  1.1181
 5968SOL    HW229538   2.987   0.284  12.859  0.3789 -2.5798 -1.1857
 5969SOL     OW29539   3.900   2.335   8.031 -0.3226 -0.0200 -0.2169
 5969SOL    HW129540   3.993   2.324   8.047 -0.6173 -0.4963  1.1466
 5969SOL    HW229541   3.868   2.398   8.096 -2.2130 -0.0857 -1.0806
 5970SOL     OW29542   4.460   4.215  17.605 -0.6073  0.2144 -0.2161
 5970SOL    HW129543   4.479   4.124  17.629 -0.1185  1.0250  2.4689
 5970SOL    HW229544   4.451   4.212  17.510 -0.2233  2.7575 -0.3234
 5971SOL     OW29545   1.823   3.190   7.963 -0.2171 -0.0661  0.0262
 5971SOL    HW129546   1.795   3.210   7.874 -3.2301  1.5819  1.3315
 5971SOL    HW229547   1.856   3.101   7.953  0.4891 -0.1670  3.2991
 5972SOL     OW29548   0.322   0.584   7.931 -0.1161  0.3086  0.2928
 5972SOL    HW129549   0.344   0.500   7.973 -0.1040  0.9899  1.6675
 5972SOL    HW229550   0.314   0.646   8.004 -1.1665 -0.5790  0.9312
 5973SOL     OW29551   4.169   0.563  17.567  0.4491 -0.0484 -0.0469
 5973SOL    HW129552   4.238   0.596  17.510 -0.1585  3.3299  1.1509
 5973SOL    HW229553   4.192   0.471  17.552  2.5297  0.4471  0.1452
 5974SOL     OW29554   4.571   0.630   7.526  0.5682 -0.3025  0.5720
 5974SOL    HW129555   4.488   0.638   7.573  0.8340 -2.5998  1.4238
 5974SOL    HW229556   4.565   0.544   7.484 -0.4660  0.4223 -0.7653
 5975SOL     OW29557   2.569   4.089   8.561 -0.0317  0.0477  0.2203
 5975SOL    HW129558   2.595   4.056   8.647  0.1624  0.1373  0.1953
 5975SOL    HW229559   2.657   4.086   8.524  0.3891  2.0294  1.0452
 5976SOL     OW29560   1.143   2.483  11.432 -0.2658 -0.5414 -0.2610
 5976SOL    HW129561   1.094   2.501  11.353  1.0316 -1.8192 -1.3616
 5976SOL    HW229562   1.205   2.428  11.383 -1.2531 -0.4330 -1.5999
 5977SOL     OW29563   1.156   4.107   1.588  0.3747 -0.0381  0.8641
 5977SOL    HW129564   1.113   4.062   1.516 -3.4463 -0.1048  3.1800
 5977SOL    HW229565   1.235   4.147   1.553  0.1639 -1.4243 -1.1809
 5978SOL     OW29566   4.447   0.169   4.911 -0.3157  0.9358 -0.0671
 5978SOL    HW129567   4.366   0.157   4.960  0.3809  1.0671  1.1022
 5978SOL    HW229568   4.507   0.143   4.981 -0.5632  3.3627  1.0393
 5979SOL     OW29569   3.683   2.621   3.410 -0.4958  0.3738  0.0498
 5979SOL    HW129570   3.714   2.642   3.498 -0.3836  1.2931 -0.2013
 5979SOL    HW229571   3.762   2.601   3.362 -1.2161  0.9836 -1.3882
 5980SOL     OW29572   4.058   3.252  13.230 -0.1173 -0.3424 -0.0948
 5980SOL    HW129573   4.091   3.341  13.220  1.3050 -0.8292  0.2668
 5980SOL    HW229574   3.988   3.247  13.164 -2.3087  1.3051  2.1097
 5981SOL     OW29575   2.485   4.085   7.258  0.3718  0.3045  0.4564
 5981SOL    HW129576   2.526   4.023   7.318  0.5220 -0.8016 -0.7954
 5981SOL    HW229577   2.530   4.167   7.278 -0.7429  0.8325  0.8579
 5982SOL     OW29578   1.686   4.369   8.989 -0.0491 -0.4254  0.2821
 5982SOL    HW129579   1.663   4.401   8.902  1.4006 -2.0570 -0.6958
 5982SOL    HW229580   1.777   4.392   9.003  0.2976 -1.1264 -0.8357
 5983SOL     OW29581   1.235   0.405  13.578 -0.0630  0.1371 -0.5409
 5983SOL    HW129582   1.208   0.342  13.511 -1.3328 -0.0633  0.1513
 5983SOL    HW229583   1.218   0.353  13.656  1.4656  2.8513  1.5835
 5984SOL     OW29584   1.364   4.398  15.526  0.2099 -0.2658  0.3337
 5984SOL    HW129585   1.323   4.431  15.606 -2.5120 -0.6596 -0.8786
 5984SOL    HW229586   1.331   4.311  15.547 -0.7184 -0.0796 -0.3240
 5985SOL     OW29587   4.486   4.658   4.703  0.6328  0.2101 -0.2540
 5985SOL    HW129588   4.453   0.006   4.710 -2.4952 -1.0219  0.5179
 5985SOL    HW229589   4.417   4.614   4.753  0.9665  1.1346  1.0027
 5986SOL     OW29590   3.028   0.374   8.470  0.1382 -0.1195  0.6640
 5986SOL    HW129591   2.971   0.436   8.424 -2.0930 -1.0319  2.2225
 5986SOL    HW229592   2.959   0.319   8.506 -0.2711  0.8251  1.3029
 5987SOL     OW29593   1.254   0.160   7.625 -0.4278  0.0381 -0.0781
 5987SOL    HW129594   1.232   0.171   7.717  1.2263  0.8538  0.2156
 5987SOL    HW229595   1.310   0.237   7.620 -0.1236 -0.2112 -0.4575
 5988SOL     OW29596   2.075   1.950  12.943 -0.2862 -0.1197  0.3158
 5988SOL    HW129597   2.120   1.879  12.989 -2.3313 -2.8981 -1.9109
 5988SOL    HW229598   1.997   1.911  12.902 -0.8897  0.2968  1.0723
 5989SOL     OW29599   0.576   3.039   6.216  0.5164 -0.2980 -0.0131
 5989SOL    HW129600   0.620   2.957   6.194 -0.7192 -0.3161 -2.5018
 5989SOL    HW229601   0.612   3.102   6.153  0.3121  0.2716  0.4364
 5990SOL     OW29602   4.183   0.576   0.505 -0.4060  0.8709  0.0731
 5990SOL    HW129603   4.158   0.484   0.491  1.6799  0.6533 -2.2673
 5990SOL    HW229604   4.276   0.571   0.481 -0.5791  0.0068 -0.4387
 5991SOL     OW29605   1.928   4.704   5.689  0.3906 -0.1114 -0.1579
 5991SOL    HW129606   2.018   4.706   5.723 -0.0145  1.2988  0.8435
 5991SOL    HW229607   1.938   0.006   5.604 -1.3824 -1.7129 -1.1655
 5992SOL     OW29608   3.808   1.133   2.506 -0.3967 -0.3840  0.4844
 5992SOL    HW129609   3.799   1.091   2.421  1.2204 -0.7150  0.4741
 5992SOL    HW229610   3.873   1.078   2.549 -0.7760 -0.8182  0.4962
 5993SOL     OW29611   1.923   2.254   3.097 -0.0870 -0.0524 -0.6277
 5993SOL    HW129612   1.977   2.209   3.161  0.3592  3.3853  1.3874
 5993SOL    HW229613   1.926   2.339   3.141  0.8259  0.1892 -1.1482
 5994SOL     OW29614   3.936   2.557   5.594  0.1626  0.6435  0.0264
 5994SOL    HW129615   3.878   2.496   5.640  0.1065  0.4520 -0.3017
 5994SOL    HW229616   3.917   2.633   5.649 -0.7760  0.1634  0.3591
 5995SOL     OW29617   0.235   1.638   0.604 -0.0724  0.2621  0.6099
 5995SOL    HW129618   0.259   1.710   0.545  1.3161  0.2671  1.1955
 5995SOL    HW229619   0.296   1.641   0.678  0.3175 -1.4308  0.3510
 5996SOL     OW29620   0.532   4.640   2.621 -0.0018  0.0977 -0.0662
 5996SOL    HW129621   0.611   4.693   2.612 -1.5939  2.3680 -0.5689
 5996SOL    HW229622   0.508   4.633   2.529  0.8335 -0.6369 -0.2412
 5997SOL     OW29623   3.219   0.512   4.377 -0.5850 -0.6311 -0.3182
 5997SOL    HW129624   3.266   0.468   4.448  0.3808  0.0811 -0.4993
 5997SOL    HW229625   3.208   0.596   4.423  0.2594  0.3093 -1.7946
 5998SOL     OW29626   2.878   0.846   5.992  0.0058  0.5416  0.2990
 5998SOL    HW129627   2.941   0.786   6.032 -0.1603  0.0643 -0.1574
 5998SOL    HW229628   2.885   0.821   5.900 -0.5210  0.7349  0.2090
 5999SOL     OW29629   0.383   1.730   9.047  0.4383 -0.5324 -0.3427
 5999SOL    HW129630   0.442   1.787   9.098  1.8572 -1.9607 -0.3697
 5999SOL    HW229631   0.438   1.713   8.971  1.0150  1.0163 -0.2722
 6000SOL     OW29632   3.114   2.566   4.603 -0.2139  0.0481 -0.1851
 6000SOL    HW129633   3.083   2.608   4.522 -1.8450 -1.9282 -0.5951
 6000SOL    HW229634   3.196   2.610   4.624  0.9445 -1.2898 -1.9150
 6001SOL     OW29635   3.316   1.632  11.560 -0.3431 -0.1207  0.3474
 6001SOL    HW129636   3.317   1.558  11.500 -0.0343  2.4946 -2.9052
 6001SOL    HW229637   3.406   1.620  11.590 -0.1206 -0.8309 -0.5796
 6002SOL     OW29638   3.615   3.676   9.430 -0.3451 -0.3579  0.3674
 6002SOL    HW129639   3.583   3.763   9.406 -0.7047 -0.2325  1.2915
 6002SOL    HW229640   3.535   3.629   9.408 -1.0165  0.4511  1.0876
 6003SOL     OW29641   1.592   1.774   1.601  0.0163 -0.2676 -0.0512
 6003SOL    HW129642   1.520   1.784   1.664  1.3993 -0.4205  1.5512
 6003SOL    HW229643   1.554   1.706   1.545  2.4884 -1.0683 -0.7152
 6004SOL     OW29644   1.546   1.532   1.477  0.0303  0.3866 -0.1352
 6004SOL    HW129645   1.466   1.487   1.501  1.3247  0.0274  3.3916
 6004SOL    HW229646   1.549   1.519   1.382 -0.1710  1.0457 -0.2321
 6005SOL     OW29647   4.701   3.693   1.701  0.0323  0.0918  0.4029
 6005SOL    HW129648   4.651   3.638   1.639  0.0200 -0.1169  0.5955
 6005SOL    HW229649   4.707   3.634   1.777 -0.3220 -1.2277 -0.5763
 6006SOL     OW29650   2.154   3.990   8.993  0.6282 -0.1817 -0.1255
 6006SOL    HW129651   2.183   4.001   9.084 -2.7807  1.2785  0.7639
 6006SOL    HW229652   2.061   3.996   9.013  0.8064  1.8418  0.1382
 6007SOL     OW29653   0.339   0.429   3.822 -0.8043  0.9735  0.5822
 6007SOL    HW129654   0.267   0.463   3.876 -0.1529 -0.6838  2.4817
 6007SOL    HW229655   0.317   0.478   3.742  1.6983 -0.6406 -1.0927
 6008SOL     OW29656   2.630   3.241   8.348 -0.2869 -0.3250 -0.3625
 6008SOL    HW129657   2.665   3.274   8.264 -0.0044  0.5410  0.0953
 6008SOL    HW229658   2.570   3.309   8.379  0.6121  0.5122 -0.4513
 6009SOL     OW29659   1.840   1.474   0.421  0.6560 -0.1108 -0.2675
 6009SOL    HW129660   1.861   1.381   0.424 -0.1586 -0.2261  1.4153
 6009SOL    HW229661   1.813   1.480   0.512 -0.0038  0.5163 -0.5032
 6010SOL     OW29662   4.651   1.774   8.151 -0.0358 -0.3046  0.2149
 6010SOL    HW129663   4.679   1.851   8.200 -1.0179 -0.9801  1.8606
 6010SOL    HW229664   4.651   1.826   8.071  4.1727  0.3073  0.6282
 6011SOL     OW29665   2.695   1.313   2.450 -0.1281 -0.5957  0.0213
 6011SOL    HW129666   2.637   1.278   2.382  1.4057 -2.6058 -0.2550
 6011SOL    HW229667   2.777   1.327   2.403 -1.3081  0.9183 -1.5964
 6012SOL     OW29668   3.160   0.649  15.667 -0.0669 -0.0810 -0.5584
 6012SOL    HW129669   3.094   0.691  15.611  0.7525  2.1075  0.1288
 6012SOL    HW229670   3.111   0.588  15.722  0.6297  0.0983  0.2514
 6013SOL     OW29671   1.819   0.287  11.745 -0.5389  0.2334 -0.0623
 6013SOL    HW129672   1.811   0.379  11.723  0.5223  0.5918  1.0333
 6013SOL    HW229673   1.899   0.252  11.705 -0.5691  0.1076 -0.0128
 6014SOL     OW29674   1.677   3.664  15.216  0.2155  0.1123  0.3176
 6014SOL    HW129675   1.766   3.634  15.234 -0.7365 -2.6886  0.2515
 6014SOL    HW229676   1.629   3.584  15.196  0.4435 -0.2516  1.2341
 6015SOL     OW29677   0.979   0.553  13.468  0.3818  0.0353 -0.2469
 6015SOL    HW129678   0.949   0.590  13.551 -0.2883 -0.8648 -0.0816
 6015SOL    HW229679   1.056   0.504  13.496  0.9950  2.1838  1.7391
 6016SOL     OW29680   3.873   3.724   4.566 -0.0478  0.6627  0.0114
 6016SOL    HW129681   3.930   3.753   4.494  1.3954 -1.4006  0.3379
 6016SOL    HW229682   3.795   3.705   4.514  1.0261 -2.2533 -0.5259
 6017SOL     OW29683   0.232   1.172  10.000 -0.0092  0.6080  0.0220
 6017SOL    HW129684   0.243   1.077  10.006 -0.2818  0.7470  2.6432
 6017SOL    HW229685   0.168   1.195  10.068  0.7878  1.2498  0.5536
 6018SOL     OW29686   2.216   0.806   0.632  0.2588 -0.1454  0.5562
 6018SOL    HW129687   2.134   0.786   0.676 -0.4894  1.4490 -0.1159
 6018SOL    HW229688   2.199   0.763   0.548  2.6211 -0.9067  0.4564
 6019SOL     OW29689   1.570   1.771  15.141  0.1678 -1.3253  0.1995
 6019SOL    HW129690   1.638   1.706  15.124  0.5284 -1.0093  0.4317
 6019SOL    HW229691   1.497   1.735  15.091 -0.3194  1.3598 -1.0581
 6020SOL     OW29692   1.114   4.250   2.858  0.5083  0.2244 -0.1108
 6020SOL    HW129693   1.095   4.323   2.799 -0.1967 -0.5093 -0.8077
 6020SOL    HW229694   1.109   4.302   2.938 -3.1084  1.6865 -1.3227
 6021SOL     OW29695   1.545   3.959   0.006  0.0628  0.3219 -0.5373
 6021SOL    HW129696   1.533   4.031  17.704 -0.4256 -0.5352 -1.4410
 6021SOL    HW229697   1.513   3.996   0.088  3.3197  0.9970  0.3811
 6022SOL     OW29698   3.175   0.756   5.777  0.8354  1.0004 -0.2821
 6022SOL    HW129699   3.179   0.782   5.684 -1.4859  1.6395 -0.2152
 6022SOL    HW229700   3.088   0.716   5.775  0.5229  1.7377 -2.5151
 6023SOL     OW29701   1.437   2.987  16.599  0.0443 -0.1384  0.1011
 6023SOL    HW129702   1.385   3.031  16.532  1.1719  2.0982  0.7071
 6023SOL    HW229703   1.461   2.905  16.555 -0.7167 -0.0778 -0.4181
 6024SOL     OW29704   4.045   0.921   7.809 -0.4753  0.4426  0.6075
 6024SOL    HW129705   3.953   0.902   7.796 -0.1612 -1.2977  1.0097
 6024SOL    HW229706   4.030   0.993   7.870 -0.2577  0.0609  1.1083
 6025SOL     OW29707   2.855   3.097   8.989  0.4204 -0.2180  0.6466
 6025SOL    HW129708   2.841   3.191   9.002 -0.8110 -0.2093 -0.7228
 6025SOL    HW229709   2.840   3.067   9.078  0.3616  1.5575  1.2384
 6026SOL     OW29710   0.539   1.683   8.826 -0.1465 -0.1878 -0.3527
 6026SOL    HW129711   0.567   1.742   8.757  0.3615  0.4176  0.3696
 6026SOL    HW229712   0.487   1.624   8.771 -0.5106  0.8781 -1.1571
 6027SOL     OW29713   4.139   2.440  12.963 -0.1785  0.2238 -0.2442
 6027SOL    HW129714   4.179   2.451  13.050 -0.6682 -0.3922  0.0618
 6027SOL    HW229715   4.055   2.480  12.985 -1.3197 -1.7587 -1.0113
 6028SOL     OW29716   4.330   0.682  11.058  0.5282  0.1393 -0.3151
 6028SOL    HW129717   4.340   0.772  11.089  0.3616  0.6306 -1.7169
 6028SOL    HW229718   4.248   0.679  11.009 -0.0048 -0.0894  0.5743
 6029SOL     OW29719   1.418   2.244   9.442 -0.5364  0.8670 -0.4414
 6029SOL    HW129720   1.462   2.195   9.512 -0.7244  0.3954 -0.6535
 6029SOL    HW229721   1.489   2.299   9.410  0.6926  0.0879  0.9659
 6030SOL     OW29722   0.952   3.156   6.759 -0.2849 -0.4091  0.0387
 6030SOL    HW129723   0.974   3.129   6.670  0.0939  2.7140 -0.8119
 6030SOL    HW229724   1.000   3.238   6.769 -0.9733 -0.2126  1.7279
 6031SOL     OW29725   0.077   2.933  14.908 -0.5006 -0.6909 -0.0645
 6031SOL    HW129726   0.028   3.015  14.910  0.4813 -0.1138  0.4916
 6031SOL    HW229727   0.167   2.952  14.933  0.0792 -2.0617 -1.1446
 6032SOL     OW29728   0.904   3.278   4.053  0.1045  0.3911 -0.2758
 6032SOL    HW129729   0.872   3.368   4.046  1.2942  0.7472 -1.1217
 6032SOL    HW229730   0.821   3.243   4.085 -1.7004  2.1819 -3.0415
 6033SOL     OW29731   0.863   1.629   2.377 -0.4313 -0.2431  0.5759
 6033SOL    HW129732   0.956   1.641   2.398 -0.2162  1.3042 -1.2035
 6033SOL    HW229733   0.863   1.644   2.282  1.2885  0.2653  0.6526
 6034SOL     OW29734   2.580   2.669  13.128 -0.4580  0.3129  0.0832
 6034SOL    HW129735   2.675   2.685  13.133 -0.4784  1.3456 -3.3014
 6034SOL    HW229736   2.556   2.757  13.155  1.1706  1.0120 -0.7707
 6035SOL     OW29737   0.822   1.760   3.742 -0.5487  0.3408  0.2627
 6035SOL    HW129738   0.734   1.742   3.775 -0.3265  0.1226  0.7382
 6035SOL    HW229739   0.863   1.780   3.826 -0.6896 -1.4777  0.7578
 6036SOL     OW29740   3.541   1.100   1.477  0.8141  0.2529 -0.5904
 6036SOL    HW129741   3.524   1.026   1.535  3.9162 -0.7253 -0.9409
 6036SOL    HW229742   3.588   1.145   1.547  1.8017 -0.0957 -1.0347
 6037SOL     OW29743   2.778   4.696   8.002  0.3203 -0.1734 -0.5532
 6037SOL    HW129744   2.844   4.709   7.934  0.0459 -3.7350 -1.5051
 6037SOL    HW229745   2.706   0.004   7.962  1.0860  0.6327 -0.9344
 6038SOL     OW29746   0.265   4.094   3.184 -0.0998  0.3426 -0.0667
 6038SOL    HW129747   0.317   4.161   3.227 -0.1207  0.5701 -0.3930
 6038SOL    HW229748   0.181   4.110   3.228 -0.0884  0.1158  0.0372
 6039SOL     OW29749   1.028   1.720  15.255 -0.3531  0.5179  0.0298
 6039SOL    HW129750   0.984   1.789  15.304 -0.4818  1.1807 -1.0163
 6039SOL    HW229751   1.045   1.769  15.175 -1.7009  0.1537 -0.4813
 6040SOL     OW29752   2.548   1.766   9.358  0.1202  0.1613 -0.5137
 6040SOL    HW129753   2.555   1.860   9.342 -3.0966  0.4025 -0.5211
 6040SOL    HW229754   2.526   1.769   9.451  0.0156 -3.1096 -0.4563
 6041SOL     OW29755   2.640   3.075   3.400 -0.0554  0.2210 -0.6857
 6041SOL    HW129756   2.731   3.065   3.430 -0.0907  0.9488 -0.3405
 6041SOL    HW229757   2.633   3.170   3.398 -0.1266  0.1976 -1.4746
 6042SOL     OW29758   2.339   2.373   8.074  0.1843  0.5982  0.4228
 6042SOL    HW129759   2.296   2.341   8.153 -0.5194  1.2747  0.3126
 6042SOL    HW229760   2.263   2.387   8.017  0.8127  0.2041 -0.5304
 6043SOL     OW29761   0.996   3.970  13.610 -0.1700  0.5255  0.0548
 6043SOL    HW129762   0.951   3.886  13.617  0.4970  0.0879 -0.7726
 6043SOL    HW229763   0.995   4.007  13.698  0.2885 -1.1818  0.7805
 6044SOL     OW29764   2.389   4.515   3.406  0.2147 -0.2541  0.1619
 6044SOL    HW129765   2.365   4.567   3.330 -0.1532 -3.9842 -2.2520
 6044SOL    HW229766   2.312   4.458   3.411 -0.6892  0.9120 -0.5471
 6045SOL     OW29767   3.574   0.514  13.413  0.2500 -0.5509 -0.0129
 6045SOL    HW129768   3.566   0.602  13.449  0.1090 -1.0456  1.2040
 6045SOL    HW229769   3.498   0.511  13.355 -1.0500 -1.2896  1.6965
 6046SOL     OW29770   3.649   1.578   2.971 -0.4990 -0.2630 -0.7670
 6046SOL    HW129771   3.657   1.550   3.062  0.2291  0.5112 -0.5867
 6046SOL    HW229772   3.709   1.653   2.965 -3.4323  1.9310 -2.4777
 6047SOL     OW29773   3.840   0.042   1.912 -0.4317  0.0805 -0.0807
 6047SOL    HW129774   3.920   0.037   1.965  0.4879  1.2532 -1.3593
 6047SOL    HW229775   3.817   4.690   1.916 -0.1950  0.0728  1.1695
 6048SOL     OW29776   1.515   2.183   7.139 -0.3475  0.4923 -0.1455
 6048SOL    HW129777   1.442   2.131   7.172 -1.4811  0.1307 -3.2182
 6048SOL    HW229778   1.554   2.222   7.217 -1.9138  1.1768  0.2867
 6049SOL     OW29779   0.870   0.210   6.168  0.3210 -0.2636  0.0074
 6049SOL    HW129780   0.779   0.184   6.186  0.1053  0.1744 -0.4590
 6049SOL    HW229781   0.898   0.221   6.259 -0.5877  0.7413  0.1573
 6050SOL     OW29782   2.066   3.067   9.348  0.1667 -0.2599  0.3835
 6050SOL    HW129783   2.052   2.977   9.376  0.6773  0.4301  2.8711
 6050SOL    HW229784   1.983   3.107   9.375 -0.4533 -1.3019  0.0419
 6051SOL     OW29785   1.247   4.386  11.619 -0.1136 -0.1412  0.4987
 6051SOL    HW129786   1.182   4.387  11.690 -1.0124 -1.2775 -0.3263
 6051SOL    HW229787   1.249   4.291  11.609 -0.3992 -0.0066 -0.8308
 6052SOL     OW29788   2.917   1.462   5.536 -0.0764 -0.3194 -0.5712
 6052SOL    HW129789   2.863   1.522   5.483 -1.3707 -0.4215  0.6484
 6052SOL    HW229790   2.977   1.527   5.573 -1.0356 -0.0004  0.4390
 6053SOL     OW29791   0.102   2.481  15.711 -0.0971 -0.7693  0.3640
 6053SOL    HW129792   0.176   2.528  15.674 -0.4285 -0.4482  0.1123
 6053SOL    HW229793   0.093   2.403  15.657 -0.5178  0.3914 -1.2572
 6054SOL     OW29794   4.408   3.180   4.234  0.9923 -0.3478  0.0523
 6054SOL    HW129795   4.389   3.110   4.296  0.1035  0.7298  0.9939
 6054SOL    HW229796   4.457   3.246   4.283  0.6321 -0.9745  1.2486
 6055SOL     OW29797   0.041   2.511   8.462  0.4395 -0.5815 -0.1916
 6055SOL    HW129798   0.051   2.588   8.519 -0.4692 -0.0858 -0.7001
 6055SOL    HW229799   0.054   2.442   8.527 -1.0025 -0.0663  0.6412
 6056SOL     OW29800   3.161   3.231   1.396  0.2577 -0.3075  0.5633
 6056SOL    HW129801   3.098   3.206   1.328  0.9003  0.8948 -0.4846
 6056SOL    HW229802   3.175   3.156   1.453  1.1130  0.5466  1.4640
 6057SOL     OW29803   2.866   4.622   5.395 -0.1869  0.6242  0.3640
 6057SOL    HW129804   2.935   4.628   5.462 -0.2413 -0.2386  0.5072
 6057SOL    HW229805   2.820   4.539   5.406  0.9742 -0.1123 -0.3020
 6058SOL     OW29806   2.906   3.938   7.307  0.5702  0.0311  0.4407
 6058SOL    HW129807   2.934   3.866   7.364 -0.2623 -1.0290 -0.4991
 6058SOL    HW229808   2.820   3.952   7.345 -0.4503 -0.7408 -1.5875
 6059SOL     OW29809   2.824   1.715   9.243  0.3537  0.3724 -0.2471
 6059SOL    HW129810   2.779   1.664   9.310  1.3051 -0.3039 -0.1241
 6059SOL    HW229811   2.840   1.655   9.170 -0.4310  0.0941 -0.1986
 6060SOL     OW29812   4.178   4.379   7.403 -0.3830 -0.1486 -0.4093
 6060SOL    HW129813   4.131   4.296   7.402  0.4624 -0.6283 -0.5156
 6060SOL    HW229814   4.234   4.376   7.325  1.2549  0.1761  0.7587
 6061SOL     OW29815   2.751   0.040   6.138 -0.5836  0.3453 -0.1436
 6061SOL    HW129816   2.780   0.117   6.186 -0.8587  0.8012 -0.7120
 6061SOL    HW229817   2.826   4.726   6.163  1.6149  2.4864 -2.0455
 6062SOL     OW29818   1.309   0.477   8.520  0.3083  0.2121  0.3627
 6062SOL    HW129819   1.367   0.550   8.498  1.0704  0.0201  1.7162
 6062SOL    HW229820   1.370   0.407   8.542 -0.2860 -0.5220 -0.3467
 6063SOL     OW29821   0.141   0.130  16.734  0.2145 -0.1861  0.1086
 6063SOL    HW129822   0.176   0.136  16.822 -1.8891 -1.2773  1.0325
 6063SOL    HW229823   0.051   0.143  16.763 -0.9852 -3.0446 -2.2562
 6064SOL     OW29824   0.767   3.166   5.027 -0.0296  0.7750  0.3020
 6064SOL    HW129825   0.860   3.186   5.023  0.0159  0.4017 -0.5050
 6064SOL    HW229826   0.744   3.153   4.935 -0.8942  1.3606  0.4329
 6065SOL     OW29827   0.826   0.938   2.232  0.1393  0.1160  0.6228
 6065SOL    HW129828   0.733   0.937   2.207  0.8774  0.0761 -2.1345
 6065SOL    HW229829   0.861   0.905   2.150  0.8743  0.6282  0.7271
 6066SOL     OW29830   2.537   3.191   6.040  0.1622 -0.0875  0.5177
 6066SOL    HW129831   2.487   3.110   6.031 -0.1243  0.5019 -3.4674
 6066SOL    HW229832   2.554   3.193   6.134  1.2256 -0.1224  0.3283
 6067SOL     OW29833   1.937   3.473   8.345 -0.0804  0.2865  0.5400
 6067SOL    HW129834   1.851   3.490   8.307  0.8558 -0.8218 -2.0619
 6067SOL    HW229835   1.967   3.393   8.301 -1.1558 -0.9325  2.0096
 6068SOL     OW29836   4.259   1.394   0.349 -0.1415 -0.0182  0.1890
 6068SOL    HW129837   4.301   1.476   0.323  1.8944 -0.7423  1.1870
 6068SOL    HW229838   4.298   1.339   0.280  1.0788 -0.3448  1.1340
 6069SOL     OW29839   2.849   0.757  15.472 -0.3984  0.6141  0.1329
 6069SOL    HW129840   2.822   0.726  15.385 -0.6224  1.9433 -0.2625
 6069SOL    HW229841   2.834   0.674  15.518  0.2937  1.2182  1.4332
 6070SOL     OW29842   3.910   0.271  12.447 -0.6302  0.6453  0.7019
 6070SOL    HW129843   3.838   0.215  12.417  1.2261 -1.4997  0.2624
 6070SOL    HW229844   3.907   0.270  12.542  2.1149  0.4691  0.7703
 6071SOL     OW29845   0.363   1.098   8.957  0.2595  0.7623  0.0117
 6071SOL    HW129846   0.445   1.102   9.006  0.3552 -2.8321  0.1524
 6071SOL    HW229847   0.363   1.185   8.917  2.8230  1.2311  1.0212
 6072SOL     OW29848   0.052   0.832   8.087 -0.2131  0.2034  0.3320
 6072SOL    HW129849   4.709   0.878   8.086 -1.5572 -2.2317 -0.9005
 6072SOL    HW229850   0.019   0.742   8.081 -0.0371  0.0989  0.9122
 6073SOL     OW29851   3.739   3.643   6.107  0.0058  0.1408  0.0897
 6073SOL    HW129852   3.820   3.692   6.123 -0.7456  1.2787  0.3969
 6073SOL    HW229853   3.670   3.701   6.139  0.6789  1.3056 -0.5791
 6074SOL     OW29854   4.456   1.067  17.206 -0.6001  0.3539 -0.1580
 6074SOL    HW129855   4.478   1.146  17.155  0.9831 -0.9347 -1.4680
 6074SOL    HW229856   4.499   0.988  17.173 -1.8898 -0.9618  1.3601
 6075SOL     OW29857   3.358   3.931   8.356  0.4496  0.0621  0.0928
 6075SOL    HW129858   3.274   3.963   8.323 -0.1455 -3.3384 -1.6781
 6075SOL    HW229859   3.326   3.859   8.410 -0.3921  0.9938  0.8392
 6076SOL     OW29860   1.643   0.671   3.613 -0.1849  0.1636  0.4233
 6076SOL    HW129861   1.554   0.663   3.580  0.9682  0.6838 -2.7924
 6076SOL    HW229862   1.633   0.621   3.694  1.0617 -3.3301 -1.6097
 6077SOL     OW29863   1.663   1.640  11.118  0.1985 -0.0451  0.1004
 6077SOL    HW129864   1.695   1.696  11.047 -0.3575 -0.7108 -0.6742
 6077SOL    HW229865   1.594   1.695  11.155  0.0991 -1.0460  1.4369
 6078SOL     OW29866   4.030   2.966   8.336  0.1153 -0.4832 -0.0449
 6078SOL    HW129867   3.974   2.962   8.414 -1.5668 -3.4078 -1.3939
 6078SOL    HW229868   4.079   2.884   8.345  0.5334 -0.3413 -1.1364
 6079SOL     OW29869   1.199   1.440   3.126 -0.4465  0.7290 -0.1130
 6079SOL    HW129870   1.118   1.397   3.154 -1.0398  2.3600  0.7085
 6079SOL    HW229871   1.255   1.368   3.099 -0.0626 -0.5242  3.9844
 6080SOL     OW29872   3.304   0.130   2.661 -0.4487 -0.0885 -0.1666
 6080SOL    HW129873   3.225   0.159   2.615 -0.2801  2.0182  0.8938
 6080SOL    HW229874   3.265   0.124   2.749  0.9859 -1.0464  0.4100
 6081SOL     OW29875   3.114   4.096   4.403 -0.4641 -0.1829 -0.6907
 6081SOL    HW129876   3.149   4.180   4.374  1.4495 -0.3488  1.1502
 6081SOL    HW229877   3.036   4.083   4.349 -0.4441 -1.5748 -0.3757
 6082SOL     OW29878   1.397   0.467   9.593  0.5036  0.7332 -0.0945
 6082SOL    HW129879   1.364   0.538   9.536 -0.2496  1.0339  0.7058
 6082SOL    HW229880   1.491   0.482   9.600  0.6004  0.7252 -1.3707
 6083SOL     OW29881   2.313   0.666  13.002  0.3549 -0.4266  0.0155
 6083SOL    HW129882   2.231   0.646  13.047  0.4963  1.4375  1.0762
 6083SOL    HW229883   2.306   0.761  12.990 -1.8620 -0.5470  0.4411
 6084SOL     OW29884   1.688   2.121  11.472  0.0390 -0.3505  0.0348
 6084SOL    HW129885   1.646   2.073  11.400 -0.7330  1.5732 -0.8038
 6084SOL    HW229886   1.644   2.205  11.462 -1.3491 -1.0984 -0.1554
 6085SOL     OW29887   3.435   3.663  11.391 -0.4023 -0.3588  0.2492
 6085SOL    HW129888   3.425   3.696  11.480 -0.2232 -3.3620  1.3820
 6085SOL    HW229889   3.520   3.620  11.385  0.2163  0.7402  1.1888
 6086SOL     OW29890   3.620   1.676   4.517  0.1142 -0.0076  0.2317
 6086SOL    HW129891   3.612   1.590   4.476 -3.5560  0.2180  0.5005
 6086SOL    HW229892   3.531   1.681   4.549 -0.2424  0.1558 -0.7757
 6087SOL     OW29893   0.032   3.293   4.754  0.1301  0.9181  0.5142
 6087SOL    HW129894   0.048   3.354   4.682  1.7727 -0.5807 -0.3922
 6087SOL    HW229895   0.106   3.232   4.752 -0.2222  0.5245 -0.3161
 6088SOL     OW29896   0.978   1.895   7.818 -0.4869  0.1804 -0.6594
 6088SOL    HW129897   0.999   1.812   7.861  2.9418  0.9766 -0.7555
 6088SOL    HW229898   1.034   1.890   7.740 -0.0112  0.9851 -0.3756
 6089SOL     OW29899   2.830   2.449  10.349  0.6483 -0.1793 -0.4327
 6089SOL    HW129900   2.906   2.485  10.303  0.3389  1.9933  0.7529
 6089SOL    HW229901   2.805   2.371  10.299  1.7976 -1.8987  1.6598
 6090SOL     OW29902   2.187   1.059   4.770  0.1316  0.6235 -0.1741
 6090SOL    HW129903   2.111   1.116   4.780  0.2794  0.5528  1.3399
 6090SOL    HW229904   2.154   1.023   4.688  0.2644  0.0582  0.0191
 6091SOL     OW29905   4.669   3.362   3.676  0.3789 -0.5216 -0.0693
 6091SOL    HW129906   4.597   3.361   3.612 -0.1314 -1.3276  0.5084
 6091SOL    HW229907   4.627   3.362   3.763 -0.4542 -0.1585 -0.4669
 6092SOL     OW29908   1.467   3.417   7.014 -0.0227  0.0269  0.1697
 6092SOL    HW129909   1.429   3.373   7.090 -0.3473 -0.9993 -0.5840
 6092SOL    HW229910   1.537   3.464   7.059 -1.2568  2.6164 -0.6331
 6093SOL     OW29911   1.593   4.155  10.410  0.1895  0.2477 -0.3021
 6093SOL    HW129912   1.639   4.085  10.365  0.7117 -0.4074  1.2615
 6093SOL    HW229913   1.592   4.123  10.500 -0.2709 -0.6121 -0.6149
 6094SOL     OW29914   3.119   0.382   2.204 -0.2464 -0.7803  0.2202
 6094SOL    HW129915   3.092   0.382   2.112 -1.3670  1.6110  0.5408
 6094SOL    HW229916   3.112   0.288   2.221 -0.0251 -0.7221  0.6350
 6095SOL     OW29917   2.743   3.047  16.162 -0.4561  0.0037  0.0989
 6095SOL    HW129918   2.752   2.952  16.171  1.2927  0.2123  0.4360
 6095SOL    HW229919   2.781   3.076  16.245 -0.4324 -0.1588  0.1454
 6096SOL     OW29920   1.821   4.422   8.419 -0.0161  0.2518  0.2024
 6096SOL    HW129921   1.837   4.328   8.411 -2.0224 -0.1664  0.9189
 6096SOL    HW229922   1.906   4.464   8.424  1.2438 -2.3726  1.0007
 6097SOL     OW29923   1.314   1.600   7.380  0.2827 -0.3466 -0.2306
 6097SOL    HW129924   1.278   1.687   7.398 -0.8498 -0.7111 -0.6930
 6097SOL    HW229925   1.230   1.554   7.371 -1.2360  2.3771  0.0562
 6098SOL     OW29926   4.373   3.204   3.736  0.0667 -0.3307 -0.2519
 6098SOL    HW129927   4.416   3.193   3.821 -1.2965  0.4270  0.5403
 6098SOL    HW229928   4.352   3.297   3.744  1.4478 -0.1075  0.8423
 6099SOL     OW29929   2.346   0.843   4.453 -0.6186 -0.0587 -0.7609
 6099SOL    HW129930   2.360   0.773   4.517 -0.8211  0.1455 -0.4929
 6099SOL    HW229931   2.424   0.896   4.467  2.0929 -4.5897  1.5660
 6100SOL     OW29932   0.398   3.628   6.354 -0.2116  0.4425  0.1824
 6100SOL    HW129933   0.458   3.695   6.388 -1.7494  0.3259  3.1144
 6100SOL    HW229934   0.323   3.682   6.330 -0.4045 -0.6993 -1.7538
 6101SOL     OW29935   0.137   4.033  10.761 -0.0024 -0.1477 -0.2315
 6101SOL    HW129936   0.159   4.019  10.853 -1.0784 -1.0056 -0.1030
 6101SOL    HW229937   0.157   3.950  10.718  1.3000 -0.3835  0.8205
 6102SOL     OW29938   0.142   2.387   4.701  0.6377 -0.1121  0.1844
 6102SOL    HW129939   0.067   2.352   4.654 -1.5082  0.4601  3.2463
 6102SOL    HW229940   0.170   2.321   4.764 -0.2909 -1.1087 -0.4482
 6103SOL     OW29941   2.304   0.149   6.556 -0.1063 -0.0864 -0.3810
 6103SOL    HW129942   2.238   0.155   6.626 -0.1362  0.7906 -0.4762
 6103SOL    HW229943   2.339   0.062   6.575 -0.0711  0.2751  1.2041
 6104SOL     OW29944   3.195   1.112  13.438  0.1433  0.1978  0.1451
 6104SOL    HW129945   3.150   1.106  13.354  0.2516 -0.7830  0.1587
 6104SOL    HW229946   3.132   1.060  13.487 -1.4012 -0.0059 -2.0754
 6105SOL     OW29947   0.813   4.538   7.089  0.1039 -0.1367  0.1817
 6105SOL    HW129948   0.906   4.557   7.100  0.1058  1.0962 -1.8585
 6105SOL    HW229949   0.776   4.608   7.142  2.3746  1.4654 -0.3336
 6106SOL     OW29950   4.626   0.162  14.813 -0.0100 -0.0695  0.3089
 6106SOL    HW129951   4.662   0.208  14.888 -0.3802  1.5688 -0.5215
 6106SOL    HW229952   4.542   0.206  14.800 -0.0331  0.5968  2.7196
 6107SOL     OW29953   2.649   2.888   7.925  0.2795  0.5608 -0.4333
 6107SOL    HW129954   2.578   2.916   7.984 -0.5237 -0.8755 -0.7046
 6107SOL    HW229955   2.609   2.804   7.901  1.1504 -0.5513  1.9774
 6108SOL     OW29956   2.905   0.871   5.451  0.3859 -0.8138 -0.2850
 6108SOL    HW129957   3.000   0.874   5.445  0.4719  1.9641  2.7758
 6108SOL    HW229958   2.896   0.777   5.462  0.6670 -0.7648  0.3544
 6109SOL     OW29959   2.341   2.569   2.241  0.4829 -0.2560 -0.1157
 6109SOL    HW129960   2.348   2.479   2.272 -0.8518  0.2279  1.5645
 6109SOL    HW229961   2.306   2.608   2.320  0.2393 -1.7705  0.5262
 6110SOL     OW29962   2.885   4.187  17.731 -0.5330  0.0885 -0.7207
 6110SOL    HW129963   2.969   4.191   0.017 -1.6221  1.9972  1.1382
 6110SOL    HW229964   2.880   4.276  17.695  1.6838  1.3560  2.0633
 6111SOL     OW29965   3.154   4.570   3.225 -0.1207  0.2981  0.3932
 6111SOL    HW129966   3.096   4.609   3.160 -1.4225 -1.9699  0.2210
 6111SOL    HW229967   3.200   4.645   3.263 -1.1431  2.2183 -2.1264
 6112SOL     OW29968   2.838   4.296  13.777 -0.0395 -0.0771 -0.0386
 6112SOL    HW129969   2.931   4.319  13.769  0.2203 -2.0610 -2.7887
 6112SOL    HW229970   2.793   4.364  13.728 -2.0526 -1.3579  0.0235
 6113SOL     OW29971   1.356   2.110   5.437 -0.0645 -0.3581 -0.4803
 6113SOL    HW129972   1.317   2.026   5.463 -1.2478  0.1343 -0.6798
 6113SOL    HW229973   1.419   2.090   5.367 -1.7318  0.9890 -2.3539
 6114SOL     OW29974   4.465   2.701   3.191  0.7463 -0.1680  0.1960
 6114SOL    HW129975   4.513   2.756   3.129 -1.4055 -0.9712 -2.1589
 6114SOL    HW229976   4.533   2.685   3.256  1.8419  0.4057 -0.8033
 6115SOL     OW29977   1.039   1.106   7.385 -0.3162 -0.1363  0.3058
 6115SOL    HW129978   1.028   1.012   7.378 -1.7323  0.0529  0.0723
 6115SOL    HW229979   0.957   1.140   7.350 -1.4463 -2.3074  0.9023
 6116SOL     OW29980   0.596   3.078   7.147 -0.3884 -0.2599  0.3111
 6116SOL    HW129981   0.674   3.106   7.099  0.5583 -0.1569  1.8875
 6116SOL    HW229982   0.551   3.026   7.081  0.7447 -1.4587  0.4928
 6117SOL     OW29983   4.387   2.450  13.713  0.1872 -0.1645  0.4368
 6117SOL    HW129984   4.453   2.388  13.683  0.8551  0.1706  1.2153
 6117SOL    HW229985   4.441   2.512  13.761  2.1642 -0.6693 -1.1239
 6118SOL     OW29986   2.178   1.641  13.455 -0.1433 -0.1355  0.0618
 6118SOL    HW129987   2.108   1.702  13.433 -2.6674 -3.2509 -0.4762
 6118SOL    HW229988   2.205   1.671  13.543  1.4341 -0.2128 -0.3878
 6119SOL     OW29989   3.682   0.299  10.191  0.3752  0.1066  0.2765
 6119SOL    HW129990   3.756   0.255  10.234  0.1240 -0.0102  0.5853
 6119SOL    HW229991   3.729   0.354  10.128  0.0747  1.5021  1.2707
 6120SOL     OW29992   0.397   2.262   2.299 -0.1114  0.0522 -0.1508
 6120SOL    HW129993   0.432   2.333   2.354  1.5553 -0.7178 -0.2040
 6120SOL    HW229994   0.463   2.267   2.230  0.0273 -1.4085 -0.1190
 6121SOL     OW29995   1.232   0.947   2.919  0.0666  0.6252 -0.0459
 6121SOL    HW129996   1.303   0.980   2.864  0.2746  1.0936  0.5114
 6121SOL    HW229997   1.192   0.885   2.858  0.5539  2.3065 -2.0572
 6122SOL     OW29998   3.930   2.493  12.343 -0.0213  0.0484  0.1640
 6122SOL    HW129999   3.931   2.563  12.408 -0.8475  0.2542 -0.0445
 6122SOL    HW230000   3.901   2.419  12.396  1.1977  0.8479  1.9204
 6123SOL     OW30001   2.943   1.477   5.082 -0.0218 -0.1967 -0.4561
 6123SOL    HW130002   3.006   1.504   5.150 -0.1870 -0.8878 -0.0211
 6123SOL    HW230003   2.926   1.391   5.122 -1.8771  0.4227  0.0912
 6124SOL     OW30004   0.112   4.702   5.305  0.8666  0.1428 -0.9125
 6124SOL    HW130005   0.154   4.641   5.365 -0.6225 -1.0259 -1.0642
 6124SOL    HW230006   0.143   4.680   5.217  1.9332  1.6716 -0.9315
 6125SOL     OW30007   2.823   0.034   2.209  0.0183  0.3393  0.8116
 6125SOL    HW130008   2.805   0.075   2.293  1.0547 -0.0266  1.2220
 6125SOL    HW230009   2.916   0.052   2.193 -0.2822  0.2018 -1.1256
 6126SOL     OW30010   2.966   3.714  13.934 -0.3696  0.4784 -0.6096
 6126SOL    HW130011   3.025   3.787  13.913  0.0027  0.3725  0.0481
 6126SOL    HW230012   2.996   3.684  14.021 -2.3521 -1.9773 -0.7694
 6127SOL     OW30013   2.642   4.465   6.664  0.1014 -0.4806 -0.8258
 6127SOL    HW130014   2.586   4.431   6.594 -0.8602  1.3386 -0.9483
 6127SOL    HW230015   2.580   4.518   6.713 -0.4246 -1.9059  0.0525
 6128SOL     OW30016   2.325   2.238   0.682  0.3214 -0.3944 -0.0041
 6128SOL    HW130017   2.363   2.206   0.763  1.9443  2.7518  0.4778
 6128SOL    HW230018   2.231   2.234   0.699 -0.0310 -1.5476 -2.2328
 6129SOL     OW30019   2.052   3.474   9.050 -0.1379  0.2649  0.1352
 6129SOL    HW130020   2.036   3.523   8.969  0.5651  0.3394  0.0469
 6129SOL    HW230021   2.046   3.543   9.117  1.7855  0.9376 -0.4048
 6130SOL     OW30022   0.415   2.582   9.862 -0.0592 -0.5635  0.1790
 6130SOL    HW130023   0.360   2.543   9.930 -0.0601 -0.3704  0.2888
 6130SOL    HW230024   0.361   2.550   9.790 -1.3191  2.7032 -0.3279
 6131SOL     OW30025   0.898   4.082   1.708 -0.1544  0.0430 -0.8504
 6131SOL    HW130026   0.988   4.095   1.680 -0.0216 -0.9064 -0.8855
 6131SOL    HW230027   0.900   4.104   1.801 -0.8938  0.4623 -0.9319
 6132SOL     OW30028   0.514   1.629   9.716 -0.1088 -0.1638 -0.8392
 6132SOL    HW130029   0.549   1.540   9.711 -1.0678 -0.4592 -2.5042
 6132SOL    HW230030   0.478   1.637   9.627 -2.2132  0.0796  0.0265
 6133SOL     OW30031   0.896   3.885   5.586 -0.7308 -0.1192 -0.1600
 6133SOL    HW130032   0.873   3.802   5.544  1.5249 -0.0446 -1.5213
 6133SOL    HW230033   0.974   3.863   5.637 -0.9411  1.4795  0.8578
 6134SOL     OW30034   1.449   1.597   5.300  0.3873  0.1477 -0.2282
 6134SOL    HW130035   1.480   1.687   5.285 -1.3737  0.7877 -0.0473
 6134SOL    HW230036   1.354   1.612   5.301  0.7756  2.6519 -0.6492
 6135SOL     OW30037   3.629   3.369   3.074  0.3751 -0.1696  0.4250
 6135SOL    HW130038   3.652   3.406   2.989 -0.7208 -1.8626 -0.6161
 6135SOL    HW230039   3.710   3.321   3.091  1.1966  1.0181 -0.1692
 6136SOL     OW30040   0.401   3.246   7.230 -0.0481  0.4075  0.1919
 6136SOL    HW130041   0.478   3.190   7.228  0.3963  1.0626 -0.9652
 6136SOL    HW230042   0.442   3.332   7.230 -1.6130  1.1608 -0.2193
 6137SOL     OW30043   1.627   1.994  13.507  0.2551  0.1968 -0.0956
 6137SOL    HW130044   1.637   2.088  13.526  0.3341  0.1020  0.3303
 6137SOL    HW230045   1.667   1.949  13.581  1.5676  0.7927 -0.4230
 6138SOL     OW30046   4.708   1.376   2.757 -0.4405 -0.7251 -0.4275
 6138SOL    HW130047   4.657   1.315   2.811 -3.1019  1.1421 -0.8484
 6138SOL    HW230048   0.039   1.320   2.727  1.3268  0.4846  1.5254
 6139SOL     OW30049   1.608   0.255  11.369  0.3828  0.2789 -0.3343
 6139SOL    HW130050   1.596   0.161  11.382  1.8734 -0.1399 -1.9528
 6139SOL    HW230051   1.658   0.252  11.288  0.9797  0.9475  0.0089
 6140SOL     OW30052   0.554   1.836  15.120 -0.2647 -0.1226  0.0358
 6140SOL    HW130053   0.604   1.793  15.190 -0.2366  1.7148  1.1459
 6140SOL    HW230054   0.530   1.766  15.059  0.5920 -0.0497 -0.3925
 6141SOL     OW30055   3.208   3.421   3.621  0.2452 -0.3400  0.0269
 6141SOL    HW130056   3.175   3.381   3.540  1.5732 -2.5180  0.5423
 6141SOL    HW230057   3.302   3.422   3.604  0.4046  2.5284  1.2485
 6142SOL     OW30058   1.704   3.062   8.359  0.1458 -0.0041 -1.2201
 6142SOL    HW130059   1.733   3.055   8.450 -0.4472 -1.2905 -1.1341
 6142SOL    HW230060   1.615   3.096   8.358 -0.5306 -1.7835 -1.4206
 6143SOL     OW30061   3.751   0.619   6.163 -0.9950  0.2866  1.0668
 6143SOL    HW130062   3.718   0.666   6.087 -0.1435  2.3323  1.9622
 6143SOL    HW230063   3.845   0.633   6.153 -1.3473  2.0947  0.3431
 6144SOL     OW30064   4.424   3.724   6.457 -0.0253  0.0502 -0.3593
 6144SOL    HW130065   4.395   3.797   6.402 -0.9093 -0.4919 -0.6153
 6144SOL    HW230066   4.503   3.694   6.411 -0.2870 -1.8288  0.4161
 6145SOL     OW30067   3.238   1.068  16.893  0.6730 -0.3193  0.1821
 6145SOL    HW130068   3.261   0.980  16.923  0.2602  0.0840  1.6689
 6145SOL    HW230069   3.317   1.091  16.843 -0.4940 -1.8750 -2.3257
 6146SOL     OW30070   4.727   2.063   9.268  0.2737 -0.2881  0.1396
 6146SOL    HW130071   0.055   2.127   9.288  1.4635 -1.3592 -0.5724
 6146SOL    HW230072   0.020   1.974   9.276 -0.6556 -0.8280 -1.8938
 6147SOL     OW30073   1.465   0.324   7.585  0.3660  0.6469  0.0167
 6147SOL    HW130074   1.475   0.414   7.614  2.3744  0.7504 -0.9546
 6147SOL    HW230075   1.492   0.320   7.493  2.2612 -1.8518  0.6605
 6148SOL     OW30076   3.677   3.102   8.824 -0.6390 -0.3628  0.4433
 6148SOL    HW130077   3.585   3.112   8.850 -0.8565 -1.7856  0.1980
 6148SOL    HW230078   3.701   3.041   8.894 -0.3390  0.4173  1.0225
 6149SOL     OW30079   3.790   3.305  13.876 -0.9189 -0.2835  0.4105
 6149SOL    HW130080   3.878   3.331  13.905 -1.9376  1.2528  2.0662
 6149SOL    HW230081   3.796   3.218  13.916 -1.7954 -0.7641 -0.5149
 6150SOL     OW30082   3.139   4.100   9.530 -0.0471  0.2128  0.1672
 6150SOL    HW130083   3.219   4.151   9.517  0.4007 -0.8373 -1.1866
 6150SOL    HW230084   3.178   4.035   9.587  0.9517 -0.5349 -1.3652
 6151SOL     OW30085   0.040   3.040   5.043 -0.2556  0.9387  0.4518
 6151SOL    HW130086   0.114   3.093   5.010 -2.2848  2.4496 -1.6700
 6151SOL    HW230087   4.719   3.111   5.061 -0.4253  0.9473 -0.1653
 6152SOL     OW30088   4.657   1.316   2.415  0.5156 -0.1793  0.5002
 6152SOL    HW130089   4.671   1.287   2.505 -1.1920 -0.6942  0.5950
 6152SOL    HW230090   4.634   1.408   2.427 -2.9957 -0.7914 -1.4410
 6153SOL     OW30091   2.938   4.176   7.642 -0.2237 -0.0290  0.0800
 6153SOL    HW130092   2.948   4.120   7.719 -0.7621 -0.3336 -0.0770
 6153SOL    HW230093   3.031   4.169   7.619 -0.4175  0.8102 -0.9194
 6154SOL     OW30094   3.125   2.204   9.066  0.0413  0.0639 -1.0265
 6154SOL    HW130095   3.191   2.168   9.125 -1.2770  0.5583  0.7832
 6154SOL    HW230096   3.085   2.118   9.050  0.3218 -0.1844 -0.4119
 6155SOL     OW30097   1.080   3.423  16.457  0.2632  0.9131 -0.1468
 6155SOL    HW130098   0.992   3.390  16.440  0.0126  1.7605 -0.4666
 6155SOL    HW230099   1.112   3.376  16.535 -0.6174  0.5164 -0.0191
 6156SOL     OW30100   1.380   4.442   5.932 -0.5860  0.0836  0.3422
 6156SOL    HW130101   1.427   4.359   5.924  0.9331  1.4886 -4.6966
 6156SOL    HW230102   1.445   4.502   5.896 -0.0365 -1.2017 -0.8215
 6157SOL     OW30103   1.761   3.679  14.107  0.0831 -0.2490 -0.0808
 6157SOL    HW130104   1.696   3.617  14.076 -0.6787  0.5571 -0.0855
 6157SOL    HW230105   1.726   3.696  14.195  0.5543  1.5976 -0.2330
 6158SOL     OW30106   3.267   0.820   7.710 -0.6597 -0.3991 -0.0555
 6158SOL    HW130107   3.195   0.881   7.725  1.6329  2.0616  0.9652
 6158SOL    HW230108   3.333   0.867   7.760 -1.6452  0.5624  0.3343
 6159SOL     OW30109   3.000   1.729   3.235 -0.4755  0.0937 -0.2390
 6159SOL    HW130110   2.974   1.667   3.167 -0.2442 -0.1895 -0.0704
 6159SOL    HW230111   3.074   1.770   3.189  0.3576  2.5204  3.2418
 6160SOL     OW30112   2.996   0.916   4.194 -0.1114  0.5647 -0.4534
 6160SOL    HW130113   2.911   0.934   4.153 -0.1060  0.9396 -0.3005
 6160SOL    HW230114   3.016   0.838   4.143  0.1301  1.6500 -2.0227
 6161SOL     OW30115   4.616   3.051   4.759 -0.1970  0.2651 -0.2335
 6161SOL    HW130116   4.534   3.058   4.808  0.4342 -0.6019  0.9218
 6161SOL    HW230117   4.640   3.143   4.768 -0.0596  0.0603  1.4124
 6162SOL     OW30118   2.218   4.051   5.552  0.5711  0.0199 -0.1163
 6162SOL    HW130119   2.274   4.128   5.567 -1.1224  0.8818  1.6999
 6162SOL    HW230120   2.172   4.073   5.471 -0.5782  0.8577  0.7770
 6163SOL     OW30121   2.503   3.029   0.194 -0.2796  0.2262 -0.0477
 6163SOL    HW130122   2.516   3.095   0.262 -2.4993  0.3338  0.2584
 6163SOL    HW230123   2.465   2.955   0.242  0.5525 -0.1815 -0.0223
 6164SOL     OW30124   4.651   2.400   6.937 -0.0740  0.3677 -0.1127
 6164SOL    HW130125   4.559   2.413   6.915 -0.2266  1.2137  1.0160
 6164SOL    HW230126   4.697   2.473   6.897 -0.0536  0.4603  0.0787
 6165SOL     OW30127   3.601   2.270  15.659  0.6951 -0.8033 -0.5735
 6165SOL    HW130128   3.667   2.294  15.594 -0.2524  1.8153 -0.5779
 6165SOL    HW230129   3.597   2.174  15.661 -1.7381 -0.7262 -0.8877
 6166SOL     OW30130   1.954   0.145  11.294  0.0516 -0.0046  0.4409
 6166SOL    HW130131   1.913   0.229  11.275  0.7699 -0.1401 -1.7391
 6166SOL    HW230132   1.983   0.155  11.385 -1.0210 -2.3089  1.0439
 6167SOL     OW30133   0.775   1.146   5.166  0.0204 -0.2297  0.5907
 6167SOL    HW130134   0.824   1.123   5.245  0.2537  0.3696  0.6217
 6167SOL    HW230135   0.751   1.063   5.125 -0.7442 -0.8350  2.2446
 6168SOL     OW30136   0.799   2.527  14.361  0.1319  0.9831  0.1141
 6168SOL    HW130137   0.796   2.567  14.274 -1.9936  0.8755  0.1408
 6168SOL    HW230138   0.756   2.579  14.428 -0.0728  1.2283 -0.2128
 6169SOL     OW30139   0.206   4.477   7.120  0.0505  0.6047 -0.3083
 6169SOL    HW130140   0.162   4.556   7.151  1.6889  0.3268  2.7738
 6169SOL    HW230141   0.243   4.436   7.198  1.2084  1.0442 -0.6095
 6170SOL     OW30142   2.705   3.233   7.520  0.2963 -0.3484 -0.5676
 6170SOL    HW130143   2.644   3.184   7.576  1.4857 -2.0193 -0.7301
 6170SOL    HW230144   2.760   3.167   7.479  0.5662  0.6779 -1.8528
 6171SOL     OW30145   1.946   4.637   8.789 -0.1047  0.5159 -0.6966
 6171SOL    HW130146   1.927   4.627   8.882 -1.1091 -1.3166 -1.1032
 6171SOL    HW230147   2.002   4.714   8.794 -0.1032  0.5724 -1.4597
 6172SOL     OW30148   4.031   4.067   7.815  0.0486 -0.4143  0.4231
 6172SOL    HW130149   4.101   4.076   7.750  0.3551 -1.1523  0.6545
 6172SOL    HW230150   3.959   4.050   7.755  1.3052 -3.1572 -0.3115
 6173SOL     OW30151   2.710   2.232   9.372  0.4390  0.5346 -0.2511
 6173SOL    HW130152   2.788   2.189   9.339  0.9389  1.4036 -0.2088
 6173SOL    HW230153   2.697   2.166   9.440  0.7379 -1.1407 -1.8338
 6174SOL     OW30154   0.351   2.277   7.851 -0.4239 -0.3528  0.7323
 6174SOL    HW130155   0.335   2.187   7.880  0.1137 -0.7989 -0.3731
 6174SOL    HW230156   0.272   2.315   7.890 -1.5207 -2.6532  0.7334
 6175SOL     OW30157   1.848   4.538  16.943 -0.2056 -0.1641 -0.4200
 6175SOL    HW130158   1.900   4.596  16.998 -2.8852 -0.2219  2.1912
 6175SOL    HW230159   1.761   4.577  16.953 -0.5032 -1.1741  0.9117
 6176SOL     OW30160   1.359   1.759   2.401 -0.0766  0.0859  0.4574
 6176SOL    HW130161   1.442   1.720   2.428  1.6922  3.1192 -0.7306
 6176SOL    HW230162   1.365   1.780   2.308  0.9878 -0.9282  0.2970
 6177SOL     OW30163   1.150   0.195   6.960  0.7391 -0.2931 -0.1376
 6177SOL    HW130164   1.188   0.240   6.885  0.3822  0.1894 -0.0252
 6177SOL    HW230165   1.206   0.117   6.962  1.4924  0.2679  0.3928
 6178SOL     OW30166   1.059   2.463   2.791 -0.5584 -0.0511 -0.0928
 6178SOL    HW130167   1.045   2.374   2.826  3.7888 -0.4627  0.6646
 6178SOL    HW230168   1.111   2.505   2.860  1.7059 -1.3268 -1.0242
 6179SOL     OW30169   3.663   0.177   6.683 -0.2417  0.1467 -0.2652
 6179SOL    HW130170   3.647   0.095   6.635 -2.0724  0.6226 -0.4693
 6179SOL    HW230171   3.685   0.143   6.769  2.9862  0.5012 -0.9671
 6180SOL     OW30172   0.243   2.553   6.739 -0.5820  0.2477  0.3995
 6180SOL    HW130173   0.293   2.557   6.821 -0.9611  1.4780  0.5768
 6180SOL    HW230174   0.284   2.476   6.701  1.1908  1.8644 -0.9951
 6181SOL     OW30175   2.132   0.125   8.825  0.5946  0.3420  0.4900
 6181SOL    HW130176   2.215   0.118   8.777 -1.2818  1.2688 -2.9391
 6181SOL    HW230177   2.161   0.095   8.911 -0.6060  2.1815  1.5288
 6182SOL     OW30178   0.636   1.889  14.648 -0.1556 -0.2644 -0.2040
 6182SOL    HW130179   0.653   1.968  14.596  0.8461  1.8622  3.4213
 6182SOL    HW230180   0.558   1.912  14.698  1.7728 -0.5213  2.8894
 6183SOL     OW30181   0.877   2.895  11.041  0.2003  0.3550  0.2851
 6183SOL    HW130182   0.970   2.876  11.032 -0.2537 -2.2348  1.0049
 6183SOL    HW230183   0.861   2.874  11.133  0.5475  0.0095  0.2668
 6184SOL     OW30184   0.849   4.161   2.252  0.9631  0.4277 -0.1061
 6184SOL    HW130185   0.789   4.182   2.180  2.0641  1.6007 -0.6916
 6184SOL    HW230186   0.836   4.066   2.252  0.4933  0.5019  2.0208
 6185SOL     OW30187   3.784   3.580  14.670 -0.6626  0.2337  0.3039
 6185SOL    HW130188   3.817   3.506  14.619 -1.2708  0.1800 -0.0130
 6185SOL    HW230189   3.813   3.652  14.614  0.8218 -0.9637 -0.4673
 6186SOL     OW30190   2.477   2.338  17.740 -0.0450 -0.2748 -0.6112
 6186SOL    HW130191   2.382   2.340  17.729 -0.1249  0.5877  0.2105
 6186SOL    HW230192   2.474   2.328   0.075 -3.6504  2.0156 -0.4623
 6187SOL     OW30193   2.716   3.764   8.126 -0.0702 -0.2051  0.2960
 6187SOL    HW130194   2.782   3.747   8.193 -0.1713  0.2437  0.5102
 6187SOL    HW230195   2.721   3.684   8.074 -0.5489  0.4642 -0.7717
 6188SOL     OW30196   1.546   4.052   8.612 -0.1403 -0.0230 -0.2496
 6188SOL    HW130197   1.636   4.022   8.600 -0.1699 -0.6056  0.9603
 6188SOL    HW230198   1.535   4.059   8.707 -0.2770  0.4936 -0.2996
 6189SOL     OW30199   1.906   2.712   9.092  0.2025  0.3863  0.2376
 6189SOL    HW130200   1.826   2.764   9.090  0.6659  1.0460 -1.2538
 6189SOL    HW230201   1.961   2.747   9.022  1.0099 -1.2735  0.0183
 6190SOL     OW30202   2.173   2.506  17.541  0.2495 -0.1303  0.3440
 6190SOL    HW130203   2.183   2.568  17.613  2.5729  0.3246 -0.3466
 6190SOL    HW230204   2.109   2.445  17.576 -0.0728  0.4802  0.8163
 6191SOL     OW30205   1.578   0.641   1.661 -0.1649 -0.1615  0.3800
 6191SOL    HW130206   1.627   0.703   1.606 -0.6397 -0.2943 -0.1871
 6191SOL    HW230207   1.538   0.700   1.725  1.5609  0.8939  0.5088
 6192SOL     OW30208   1.266   4.524  13.864  0.4458 -0.2946 -0.4260
 6192SOL    HW130209   1.225   4.467  13.799 -0.6588 -1.7027  1.5508
 6192SOL    HW230210   1.266   4.461  13.936 -1.9693 -0.3918 -0.5184
 6193SOL     OW30211   0.426   0.501   3.524 -0.2041 -0.3611 -0.7064
 6193SOL    HW130212   0.375   0.577   3.551  0.5289 -0.2778  0.4476
 6193SOL    HW230213   0.508   0.547   3.506 -0.9453  1.5783  0.9154
 6194SOL     OW30214   3.392   1.498   1.720 -0.3755 -0.1929  0.0884
 6194SOL    HW130215   3.375   1.440   1.645  0.2082 -0.3400  0.0722
 6194SOL    HW230216   3.412   1.584   1.683  3.1828 -0.6327  1.0376
 6195SOL     OW30217   0.493   4.431   9.158 -0.3751 -0.1908 -0.0010
 6195SOL    HW130218   0.521   4.393   9.075  3.3877 -2.9470  2.5393
 6195SOL    HW230219   0.576   4.426   9.205 -0.2842  0.1587 -0.1204
 6196SOL     OW30220   3.678   2.371  15.953 -0.0527  0.1125 -0.8287
 6196SOL    HW130221   3.644   2.358  15.864  0.7102 -0.1104 -1.0966
 6196SOL    HW230222   3.772   2.362  15.934  0.0262  0.5252 -0.6325
 6197SOL     OW30223   3.155   2.906   3.523  0.7446  0.4087 -0.0140
 6197SOL    HW130224   3.201   2.831   3.485  1.4584  0.7265  0.2091
 6197SOL    HW230225   3.229   2.928   3.579  1.0014  0.1141 -0.2389
 6198SOL     OW30226   2.265   1.744  13.692 -0.9172 -0.4292 -0.1827
 6198SOL    HW130227   2.305   1.725  13.777 -0.6235  0.7483 -0.0653
 6198SOL    HW230228   2.237   1.834  13.709 -0.3257  0.1004 -2.0934
 6199SOL     OW30229   3.726   2.714  15.312 -0.1781 -0.2018  0.1573
 6199SOL    HW130230   3.715   2.809  15.323 -0.7278 -0.3943  1.2563
 6199SOL    HW230231   3.819   2.698  15.295 -0.3094  0.0669 -0.8020
 6200SOL     OW30232   4.223   3.446   7.837  0.1614 -0.0651 -0.3445
 6200SOL    HW130233   4.139   3.448   7.882  0.3146 -0.4195 -0.0504
 6200SOL    HW230234   4.242   3.534   7.869  1.7349 -0.8754  0.9253
 6201SOL     OW30235   3.628   0.622   7.638 -0.1166 -0.6723 -0.0681
 6201SOL    HW130236   3.550   0.586   7.681 -1.3616  1.7693 -0.3154
 6201SOL    HW230237   3.627   0.578   7.554 -0.1243 -2.4544  0.8621
 6202SOL     OW30238   1.857   4.144   8.324  0.2830  0.8624  0.1217
 6202SOL    HW130239   1.931   4.109   8.275  0.1545  0.6028  0.1131
 6202SOL    HW230240   1.784   4.172   8.269  0.6108  2.0257  0.2716
 6203SOL     OW30241   2.282   2.547   9.703 -0.3452 -0.6527 -0.0494
 6203SOL    HW130242   2.342   2.485   9.745 -0.8003 -1.5356 -0.7138
 6203SOL    HW230243   2.307   2.614   9.767  0.0155 -1.2149  0.3894
 6204SOL     OW30244   3.231   4.370  16.459 -0.3406 -0.1444  0.1064
 6204SOL    HW130245   3.179   4.308  16.409  4.5579 -2.6617 -1.9204
 6204SOL    HW230246   3.193   4.450  16.424  1.2691  0.7032  0.2743
 6205SOL     OW30247   4.018   1.885   6.983  0.0145 -0.3913  0.1101
 6205SOL    HW130248   3.966   1.956   6.943  2.4546  1.9794  1.1574
 6205SOL    HW230249   3.978   1.810   6.938  0.6613 -1.9076  2.1090
 6206SOL     OW30250   4.170   1.200   6.222 -0.5908 -0.5538 -0.2210
 6206SOL    HW130251   4.258   1.165   6.236 -0.6627 -0.8791 -0.5988
 6206SOL    HW230252   4.178   1.213   6.128 -1.9202  2.5371  0.0749
 6207SOL     OW30253   0.281   4.532   9.296  0.0348  0.2324 -0.1417
 6207SOL    HW130254   0.356   4.503   9.244 -1.1386  0.6177 -2.0707
 6207SOL    HW230255   0.298   4.626   9.299  2.4450 -0.2598  2.1819
 6208SOL     OW30256   4.332   0.348   0.674 -0.0655 -0.1718 -0.4283
 6208SOL    HW130257   4.252   0.351   0.623 -0.5251  0.2184  0.3172
 6208SOL    HW230258   4.353   0.255   0.685  1.1603  0.2102  0.5507
 6209SOL     OW30259   3.117   1.127   0.962 -0.1613 -0.5704 -0.5244
 6209SOL    HW130260   3.120   1.139   0.867 -0.9917  1.3059 -0.2981
 6209SOL    HW230261   3.125   1.031   0.962  2.4235 -0.3583  0.0553
 6210SOL     OW30262   4.627   1.350   7.886 -0.1722  0.3279 -0.7974
 6210SOL    HW130263   4.568   1.402   7.831 -0.2213  1.6438  0.4854
 6210SOL    HW230264   4.603   1.262   7.857 -1.3305  1.1909 -2.4857
 6211SOL     OW30265   0.852   1.611   2.077 -0.3886  0.0269  0.1797
 6211SOL    HW130266   0.876   1.536   2.022 -1.6367  0.4504 -0.9547
 6211SOL    HW230267   0.860   1.679   2.010  0.3665 -0.3997 -0.1603
 6212SOL     OW30268   4.388   0.434   3.147 -0.5725  0.0905  0.1727
 6212SOL    HW130269   4.294   0.438   3.133 -0.5891  0.8221  0.4711
 6212SOL    HW230270   4.401   0.409   3.239  1.2732 -0.2800 -0.1736
 6213SOL     OW30271   1.589   0.035  16.074  0.2649  0.3340 -0.1724
 6213SOL    HW130272   1.591   0.032  15.979 -1.8960 -1.7325 -0.1642
 6213SOL    HW230273   1.681   0.037  16.100  0.7316 -1.6003 -1.6655
 6214SOL     OW30274   4.144   4.265   2.883 -0.0889 -0.2606  0.3078
 6214SOL    HW130275   4.053   4.264   2.856 -0.0773 -0.8001  0.2726
 6214SOL    HW230276   4.176   4.181   2.849  0.8683  1.3138 -2.6252
 6215SOL     OW30277   4.698   1.678   6.049 -0.8045  0.2990 -0.3322
 6215SOL    HW130278   4.653   1.602   6.012 -1.7883  0.2857  0.9084
 6215SOL    HW230279   4.702   1.655   6.141  0.2361 -1.1956 -0.7600
 6216SOL     OW30280   3.690   0.727   6.857 -0.1651  0.5349 -0.2780
 6216SOL    HW130281   3.675   0.735   6.763 -1.3679 -1.3844 -0.2558
 6216SOL    HW230282   3.603   0.700   6.886 -0.3499  1.7723  0.3228
 6217SOL     OW30283   0.805   1.725  15.673  0.1917 -0.0953  0.5907
 6217SOL    HW130284   0.829   1.651  15.729  1.4061  0.8572  1.3272
 6217SOL    HW230285   0.795   1.682  15.588  0.1052  1.1138 -0.0066
 6218SOL     OW30286   0.015   3.127   5.303  0.1660 -0.2962 -0.2076
 6218SOL    HW130287   0.087   3.074   5.269  2.4566  2.4451  0.4140
 6218SOL    HW230288   4.706   3.062   5.353  0.1456  0.4043  0.6898
 6219SOL     OW30289   1.576   1.168  13.041 -0.6911  0.3351  0.0605
 6219SOL    HW130290   1.549   1.225  12.970  3.5219  1.0847 -0.9574
 6219SOL    HW230291   1.508   1.100  13.046  0.8573 -1.1859  0.4743
 6220SOL     OW30292   4.385   2.402   7.045  0.6443 -0.0687 -0.1299
 6220SOL    HW130293   4.409   2.442   7.129  3.1260  1.3445 -1.5003
 6220SOL    HW230294   4.362   2.482   6.997  1.5032 -0.2277 -0.8250
 6221SOL     OW30295   2.669   1.321   5.581 -0.0362  0.1364 -0.2064
 6221SOL    HW130296   2.610   1.382   5.537 -0.6823 -0.5108 -0.2330
 6221SOL    HW230297   2.738   1.381   5.609 -0.4261  1.0126 -1.0933
 6222SOL     OW30298   2.114   4.256   2.264 -0.5143  0.5282  0.2172
 6222SOL    HW130299   2.088   4.163   2.259  3.3932 -0.5630  0.6612
 6222SOL    HW230300   2.145   4.267   2.353 -0.4108 -1.0934  0.3819
 6223SOL     OW30301   2.968   0.122   4.954 -0.0337 -0.0917  0.4804
 6223SOL    HW130302   3.056   0.103   4.987 -0.7515 -3.4215  0.4380
 6223SOL    HW230303   2.916   0.056   5.000  3.0550 -1.0324  2.6356
 6224SOL     OW30304   1.121   1.593   2.475  0.1742  0.2982 -0.0142
 6224SOL    HW130305   1.177   1.669   2.458 -0.4396  0.4729 -1.2581
 6224SOL    HW230306   1.177   1.517   2.458  1.2668  0.5695  2.4534
 6225SOL     OW30307   1.930   1.946  12.589  0.6595  0.0620 -0.1449
 6225SOL    HW130308   1.997   1.886  12.621 -1.4397 -1.0454  2.1302
 6225SOL    HW230309   1.983   2.024  12.574  1.2204  0.0040  1.5471
 6226SOL     OW30310   0.655   1.933  15.664 -0.6083  0.0100 -0.0518
 6226SOL    HW130311   0.720   1.862  15.671 -2.4160 -1.7933 -1.8103
 6226SOL    HW230312   0.622   1.922  15.575 -0.5083  0.7594 -0.1857
 6227SOL     OW30313   1.993   1.045   7.682  0.2672  0.1278  0.0012
 6227SOL    HW130314   1.922   1.075   7.625 -0.7072  1.4609  1.9011
 6227SOL    HW230315   1.956   1.028   7.769 -1.3797 -1.0323 -0.9294
 6228SOL     OW30316   1.945   3.286   5.261  0.3188  0.2764 -0.2977
 6228SOL    HW130317   1.915   3.346   5.193 -0.4331  1.0638  0.7321
 6228SOL    HW230318   2.035   3.263   5.236  0.6755  1.0289  0.3172
 6229SOL     OW30319   0.497   1.321   7.623  0.3149 -0.2522  0.2417
 6229SOL    HW130320   0.403   1.340   7.615  0.5077  0.4573 -0.2868
 6229SOL    HW230321   0.536   1.406   7.604 -0.3664  0.0535  0.1995
 6230SOL     OW30322   4.582   0.222   6.169  0.6264 -0.5970 -0.0923
 6230SOL    HW130323   4.603   0.261   6.254  0.8211 -0.5630 -0.1553
 6230SOL    HW230324   4.612   0.131   6.178 -0.8099 -0.9426  1.2924
 6231SOL     OW30325   3.059   0.814   7.135 -0.1782 -0.1178 -0.2391
 6231SOL    HW130326   3.093   0.896   7.098  5.0708 -1.4423  1.5645
 6231SOL    HW230327   3.109   0.758   7.076  3.8919  2.6590  0.5586
 6232SOL     OW30328   2.033   3.175   9.959 -0.5271 -0.3419 -0.1752
 6232SOL    HW130329   2.115   3.131   9.980 -0.8420 -0.3394  1.1033
 6232SOL    HW230330   2.042   3.264   9.995 -1.7690 -0.3934  0.2604
 6233SOL     OW30331   0.306   0.130  10.210 -0.5260 -0.0215  0.1298
 6233SOL    HW130332   0.379   0.168  10.259 -1.3553  0.9450  0.6275
 6233SOL    HW230333   0.321   0.141  10.116  1.5300  0.0339  0.4688
 6234SOL     OW30334   4.364   4.277   9.178 -0.3037  0.0261 -0.0043
 6234SOL    HW130335   4.358   4.194   9.227 -0.6795 -0.6758 -1.2368
 6234SOL    HW230336   4.307   4.249   9.106  0.0193  0.1982 -0.3215
 6235SOL     OW30337   1.902   2.437   1.923 -0.1318  0.2347 -0.7442
 6235SOL    HW130338   1.931   2.360   1.972  1.2649  2.0550  1.2827
 6235SOL    HW230339   1.974   2.460   1.865  1.5156  0.7563  1.5142
 6236SOL     OW30340   2.978   4.323   3.210 -0.5940 -0.4360  0.0579
 6236SOL    HW130341   2.918   4.371   3.267 -1.0890 -1.8752  0.7417
 6236SOL    HW230342   2.916   4.266   3.164 -1.0390 -0.7332  1.0280
 6237SOL     OW30343   3.897   4.672   7.835 -0.0768 -0.1970  0.0602
 6237SOL    HW130344   3.872   0.002   7.775  0.8945 -0.9203 -1.1897
 6237SOL    HW230345   3.941   4.607   7.781 -2.2817 -1.6620  0.0419
 6238SOL     OW30346   2.431   4.317  12.883 -0.1461  0.1132 -0.3999
 6238SOL    HW130347   2.474   4.393  12.843  0.7058  0.2669  0.8111
 6238SOL    HW230348   2.474   4.314  12.968  0.8399  2.3910 -0.8288
 6239SOL     OW30349   1.732   0.194   2.748  0.5384  0.1634 -0.3562
 6239SOL    HW130350   1.742   0.177   2.842 -0.8651  1.1052 -0.0296
 6239SOL    HW230351   1.818   0.228   2.725  0.4166  0.7435  0.0489
 6240SOL     OW30352   3.295   4.208   7.454 -0.4274  0.0185  0.4700
 6240SOL    HW130353   3.242   4.260   7.514  1.0456  1.7434  0.2673
 6240SOL    HW230354   3.363   4.172   7.511 -0.4225 -0.4054  0.1932
 6241SOL     OW30355   4.076   0.053  16.445 -0.1114  0.2599  0.1671
 6241SOL    HW130356   4.097   4.729  16.377  3.0519  1.0345  0.3993
 6241SOL    HW230357   3.997   0.094  16.408  0.3888  0.9408 -0.1506
 6242SOL     OW30358   1.490   3.477  15.152 -0.2351 -0.6464  0.5439
 6242SOL    HW130359   1.403   3.514  15.170 -1.1123 -1.6977 -1.4861
 6242SOL    HW230360   1.467   3.389  15.119 -0.6963 -1.1749  2.2611
 6243SOL     OW30361   3.125   2.839   5.425 -0.4626 -0.2115  0.2241
 6243SOL    HW130362   3.128   2.750   5.460 -0.1173 -0.0157  0.6887
 6243SOL    HW230363   3.058   2.876   5.482  0.6183  0.1094  1.2808
 6244SOL     OW30364   0.642   1.230   1.607  0.0272 -0.2619 -0.2590
 6244SOL    HW130365   0.571   1.170   1.628 -0.1665 -0.3432 -1.1399
 6244SOL    HW230366   0.620   1.251   1.516  1.8444 -0.4499 -0.7443
 6245SOL     OW30367   0.812   4.677   5.003 -0.5631 -0.2187 -0.3449
 6245SOL    HW130368   0.800   4.718   4.918  1.9328 -2.2747 -1.7020
 6245SOL    HW230369   0.903   4.648   4.991 -0.8076 -1.4624  0.7597
 6246SOL     OW30370   4.373   4.117   4.931  0.0692 -0.1361  0.1741
 6246SOL    HW130371   4.408   4.029   4.922  0.6286 -0.0709  1.5614
 6246SOL    HW230372   4.405   4.150   5.016 -0.0612  0.4085  0.0138
 6247SOL     OW30373   4.042   1.866   4.968 -0.0670 -0.2538  0.2527
 6247SOL    HW130374   3.958   1.822   4.978 -0.6277  0.3894 -1.5171
 6247SOL    HW230375   4.008   1.947   4.930  1.0097  0.4691  0.8253
 6248SOL     OW30376   1.283   3.923   8.762 -0.3736  0.0459  0.5031
 6248SOL    HW130377   1.242   3.880   8.836 -1.2481  0.3279  0.1822
 6248SOL    HW230378   1.361   3.961   8.802  2.2742 -3.6946 -1.1175
 6249SOL     OW30379   3.501   4.179   2.093  0.1903 -0.1606  0.2525
 6249SOL    HW130380   3.506   4.216   2.181  1.3011  1.0841 -0.3512
 6249SOL    HW230381   3.510   4.085   2.110 -1.8941 -0.4213 -0.0926
 6250SOL     OW30382   3.603   2.154  10.780  0.0773  0.1737 -0.3831
 6250SOL    HW130383   3.575   2.109  10.700 -4.1447 -0.1378  1.2912
 6250SOL    HW230384   3.676   2.096  10.804  0.2978  1.1127  1.2089
 6251SOL     OW30385   3.244   4.615   6.012  0.3495  0.0258  0.3912
 6251SOL    HW130386   3.305   4.552   5.972 -0.1584 -0.2261  0.0225
 6251SOL    HW230387   3.168   4.559   5.998  0.5333 -0.3606  0.9113
 6252SOL     OW30388   2.840   0.927   7.225  0.6281 -0.2177  0.4782
 6252SOL    HW130389   2.917   0.888   7.184 -0.5515 -1.2029 -0.7851
 6252SOL    HW230390   2.773   0.859   7.218  1.5420 -1.1506  0.8206
 6253SOL     OW30391   3.657   0.776   4.420  0.6363  0.4918 -0.7098
 6253SOL    HW130392   3.721   0.759   4.488 -0.9454 -0.7538  0.4807
 6253SOL    HW230393   3.585   0.820   4.466 -0.4704 -1.5407 -0.4590
 6254SOL     OW30394   0.852   3.622   8.114  0.6433  0.5488 -0.0545
 6254SOL    HW130395   0.858   3.633   8.019 -1.3282 -1.0625 -0.3805
 6254SOL    HW230396   0.766   3.662   8.129  1.1229  1.3721  0.4423
 6255SOL     OW30397   0.689   4.663   6.867 -0.5319  0.1902 -0.3650
 6255SOL    HW130398   0.620   4.710   6.914  1.9500  2.2558  1.2426
 6255SOL    HW230399   0.711   4.594   6.929  1.1265  0.3231 -0.8173
 6256SOL     OW30400   1.340   0.683   1.361 -0.4866  0.5439  0.3194
 6256SOL    HW130401   1.343   0.769   1.404 -1.3015 -0.5851  2.6148
 6256SOL    HW230402   1.433   0.662   1.371 -0.5768 -0.4134 -0.9124
 6257SOL     OW30403   3.963   3.631  13.664  0.2294  0.8033 -0.0554
 6257SOL    HW130404   4.011   3.664  13.588  0.0171 -1.3350 -1.1202
 6257SOL    HW230405   3.969   3.538  13.644 -0.7668  0.5858  0.6881
 6258SOL     OW30406   2.786   2.985   8.655  0.4507 -0.3383 -0.9065
 6258SOL    HW130407   2.813   3.066   8.699 -1.8419 -0.1932  0.1950
 6258SOL    HW230408   2.803   2.911   8.713 -2.8045 -1.0999 -0.9471
 6259SOL     OW30409   0.713   0.121  12.213 -1.2176  0.5639  0.5237
 6259SOL    HW130410   0.697   0.062  12.287  0.6938  1.0261  1.3099
 6259SOL    HW230411   0.751   0.063  12.147 -0.8234  1.6153 -0.1700
 6260SOL     OW30412   1.471   1.853  12.111 -0.0912 -0.3620  0.4285
 6260SOL    HW130413   1.394   1.824  12.161 -0.7160  0.3849 -0.1029
 6260SOL    HW230414   1.503   1.769  12.076 -0.5777 -1.1987  1.9545
 6261SOL     OW30415   2.704   3.584  12.937  0.0364  0.1024 -0.1189
 6261SOL    HW130416   2.689   3.492  12.959  1.8112 -0.0879  0.3129
 6261SOL    HW230417   2.767   3.581  12.865 -1.1910 -0.8318 -1.1631
 6262SOL     OW30418   4.383   4.231   7.914  0.3732 -0.2369 -0.5022
 6262SOL    HW130419   4.450   4.233   7.847  2.8749 -2.5215  1.9315
 6262SOL    HW230420   4.379   4.137   7.933 -0.6129 -0.1936 -0.4757
 6263SOL     OW30421   0.106   2.820   3.270 -0.0799  0.5319 -0.1305
 6263SOL    HW130422   0.193   2.862   3.267 -0.5453  1.5574  0.7486
 6263SOL    HW230423   0.136   2.739   3.310  1.3240  0.3775 -1.4893
 6264SOL     OW30424   2.675   0.017  11.059 -0.4135  0.9654  0.4557
 6264SOL    HW130425   2.662   0.112  11.051  1.7878  0.9378 -3.1052
 6264SOL    HW230426   2.728   0.016  11.139 -0.1186  1.4775  0.2690
 6265SOL     OW30427   4.721   0.590   0.485 -0.3879 -0.6333  0.2799
 6265SOL    HW130428   0.041   0.662   0.467  0.3856 -1.1767  0.6927
 6265SOL    HW230429   0.041   0.547   0.546  1.1283  2.6031  1.0316
 6266SOL     OW30430   2.032   3.619  16.154  0.0754  0.3053 -0.1201
 6266SOL    HW130431   2.119   3.612  16.193 -1.0753 -1.9832  2.0619
 6266SOL    HW230432   2.052   3.561  16.081 -0.6567  1.0123 -0.8790
 6267SOL     OW30433   2.696   0.986   0.630 -0.0748 -0.1820 -0.2811
 6267SOL    HW130434   2.605   0.958   0.637  0.9415 -3.5133 -0.4512
 6267SOL    HW230435   2.746   0.907   0.650 -1.5904 -0.7294  1.3953
 6268SOL     OW30436   0.197   1.678   3.595 -0.2286 -0.2330 -0.5690
 6268SOL    HW130437   0.247   1.683   3.513 -1.5841  0.6806 -1.3534
 6268SOL    HW230438   0.173   1.769   3.612 -1.5742 -0.5195 -0.9263
 6269SOL     OW30439   1.075   0.036   1.751 -0.5443  0.4382 -0.6541
 6269SOL    HW130440   1.074   4.686   1.720  1.4972 -0.7227  2.6169
 6269SOL    HW230441   1.169   0.058   1.746 -0.1399 -1.2232 -0.3646
 6270SOL     OW30442   2.210   0.067   2.876 -0.1922  0.5197  0.4059
 6270SOL    HW130443   2.172   0.024   2.800  1.4287  1.0846 -0.7220
 6270SOL    HW230444   2.234   0.151   2.836 -0.8850  0.2967 -0.4908
 6271SOL     OW30445   3.968   2.860  15.179 -0.1081 -0.2042 -0.0344
 6271SOL    HW130446   3.914   2.925  15.134 -1.5897 -1.3930  0.0157
 6271SOL    HW230447   4.015   2.921  15.236  1.9008  1.5473 -3.5124
 6272SOL     OW30448   3.972   1.897   9.304 -0.0528  0.3933  0.1216
 6272SOL    HW130449   4.067   1.896   9.320  0.0854 -2.3101 -0.7975
 6272SOL    HW230450   3.968   1.848   9.222  0.8133  1.9112 -0.8481
 6273SOL     OW30451   2.320   4.682   0.508  0.6085  0.5429 -0.2900
 6273SOL    HW130452   2.229   4.652   0.512  0.7854  0.0809  0.2955
 6273SOL    HW230453   2.338   4.689   0.414 -0.1281 -0.0746 -0.4740
 6274SOL     OW30454   2.912   0.096   5.676  0.2168 -0.9457  0.5422
 6274SOL    HW130455   2.976   0.063   5.612 -0.9011  0.7084 -1.4189
 6274SOL    HW230456   2.963   0.098   5.757 -0.0514  0.1595  0.6905
 6275SOL     OW30457   4.725   1.733  11.551  0.5374  0.1689 -0.2695
 6275SOL    HW130458   4.682   1.651  11.529  1.0531 -0.2456  0.2800
 6275SOL    HW230459   4.674   1.756  11.630 -0.4115  1.1817 -1.1747
 6276SOL     OW30460   2.916   0.094  16.251  0.5561 -0.0255  0.0455
 6276SOL    HW130461   2.836   0.043  16.266  1.1187 -1.2993 -1.2693
 6276SOL    HW230462   2.920   0.079  16.156  1.4865  3.1151 -0.4102
 6277SOL     OW30463   2.893   2.173   7.624  0.1519  0.0880  0.5428
 6277SOL    HW130464   2.920   2.108   7.689 -0.6340 -0.5622  0.2229
 6277SOL    HW230465   2.903   2.253   7.675 -2.4264  0.0575  1.1202
 6278SOL     OW30466   3.090   2.277  16.827 -0.3033  0.5099  0.4578
 6278SOL    HW130467   3.127   2.324  16.752  0.0413 -0.2204  0.1722
 6278SOL    HW230468   3.154   2.206  16.831 -1.3742 -0.5069 -0.6379
 6279SOL     OW30469   3.025   2.647   9.820  0.1989 -0.2079 -0.2205
 6279SOL    HW130470   3.034   2.684   9.908 -0.5780  0.7470 -0.5331
 6279SOL    HW230471   3.079   2.703   9.764  1.3947 -0.4323  0.7079
 6280SOL     OW30472   3.791   3.178   1.452  0.0455 -0.2570 -0.2317
 6280SOL    HW130473   3.717   3.119   1.465  0.4527 -1.1355 -1.9692
 6280SOL    HW230474   3.754   3.238   1.387 -3.4119 -1.3582  0.6878
 6281SOL     OW30475   2.466   0.984   8.428  0.3975 -0.3867 -0.1232
 6281SOL    HW130476   2.438   1.014   8.342  0.8938 -0.3550 -0.2772
 6281SOL    HW230477   2.495   1.065   8.469 -0.7830 -0.1111  0.1400
 6282SOL     OW30478   1.058   0.165  14.000  0.1747  0.0807  0.3517
 6282SOL    HW130479   0.964   0.168  13.980 -0.3428  3.7068  3.1917
 6282SOL    HW230480   1.055   0.189  14.093  0.7060 -0.6999  0.5667
 6283SOL     OW30481   2.357   4.421   7.238 -0.1943 -0.0045 -0.7985
 6283SOL    HW130482   2.393   4.508   7.224 -1.2313  0.6380  0.5886
 6283SOL    HW230483   2.433   4.370   7.267  0.8163  0.7950 -2.0419
 6284SOL     OW30484   1.584   3.755   0.308 -0.0668  0.0575 -0.7415
 6284SOL    HW130485   1.615   3.845   0.307  2.4175 -0.8017  1.2335
 6284SOL    HW230486   1.666   3.707   0.318  0.0041  0.1462 -0.9049
 6285SOL     OW30487   4.722   4.307  16.667 -0.0971  0.2874 -0.0119
 6285SOL    HW130488   4.734   4.224  16.714  1.3787  0.9035  0.6980
 6285SOL    HW230489   0.073   4.334  16.668 -0.3916  1.2501  0.7998
 6286SOL     OW30490   1.740   1.882   6.698 -0.3239  0.4987  0.5321
 6286SOL    HW130491   1.786   1.901   6.617  1.2054 -0.0307  1.2762
 6286SOL    HW230492   1.732   1.973   6.728  0.1923  1.2517 -1.6572
 6287SOL     OW30493   1.118   0.213   1.207  0.1950  0.2407 -0.0315
 6287SOL    HW130494   1.159   0.206   1.121 -0.0861  0.0225 -0.1467
 6287SOL    HW230495   1.094   0.305   1.204 -0.4931  0.0275 -0.9468
 6288SOL     OW30496   3.441   3.928  17.504  0.3215 -0.2010 -0.3398
 6288SOL    HW130497   3.373   3.870  17.471  2.0159 -1.2310 -2.0113
 6288SOL    HW230498   3.521   3.876  17.497  0.0937 -0.6147  0.1576
 6289SOL     OW30499   1.590   1.588   2.868  0.1134 -0.0805 -0.6298
 6289SOL    HW130500   1.495   1.600   2.871  0.2670  0.6678  0.9031
 6289SOL    HW230501   1.594   1.506   2.819 -0.6080 -1.2035  1.2387
 6290SOL     OW30502   3.953   4.073   5.338  0.1140  0.4816  0.1234
 6290SOL    HW130503   3.946   4.049   5.246 -0.5768 -0.2416  0.3599
 6290SOL    HW230504   3.865   4.105   5.359  0.3917  0.5167  1.2662
 6291SOL     OW30505   1.586   0.819  15.367  0.3154  0.2503 -0.4700
 6291SOL    HW130506   1.535   0.738  15.374  1.5390 -0.6636 -2.0193
 6291SOL    HW230507   1.645   0.809  15.442 -0.1246 -0.2207 -0.1879
 6292SOL     OW30508   1.088   1.446   9.532 -0.6324  0.0033  0.5653
 6292SOL    HW130509   1.150   1.449   9.459 -0.1677  0.6567  0.9786
 6292SOL    HW230510   1.007   1.477   9.492  1.4343 -0.1355 -3.6395
 6293SOL     OW30511   2.766   3.935   7.823 -0.0474  0.9282 -0.1681
 6293SOL    HW130512   2.671   3.927   7.814 -0.1078  1.4739 -0.0011
 6293SOL    HW230513   2.793   3.876   7.752 -0.5318  0.1363  0.2939
 6294SOL     OW30514   2.511   2.289   0.277 -0.0610 -0.5841 -0.2574
 6294SOL    HW130515   2.557   2.313   0.357  0.4000 -1.0064 -0.3988
 6294SOL    HW230516   2.444   2.234   0.317 -1.9478  1.5897 -0.4200
 6295SOL     OW30517   1.495   4.288  16.920  0.0180 -0.3795 -0.0078
 6295SOL    HW130518   1.445   4.211  16.891 -0.6709  0.5991 -1.4025
 6295SOL    HW230519   1.586   4.262  16.905 -0.1781  1.1711 -3.7710
 6296SOL     OW30520   2.205   3.814  13.318 -0.7187 -0.3472  0.2290
 6296SOL    HW130521   2.292   3.835  13.283  0.1371  1.1825  3.2540
 6296SOL    HW230522   2.192   3.871  13.394  1.0237 -1.2095  1.1699
 6297SOL     OW30523   2.335   1.512   7.045 -0.1098  0.5323 -0.1318
 6297SOL    HW130524   2.388   1.590   7.027  2.0173 -1.6878 -3.3729
 6297SOL    HW230525   2.256   1.540   6.998  1.2662  0.9683 -2.1625
 6298SOL     OW30526   0.107   0.659   2.281  0.2946 -0.5473 -0.2594
 6298SOL    HW130527   0.012   0.674   2.291  0.5883  1.2563 -0.1289
 6298SOL    HW230528   0.132   0.738   2.329 -0.0712  0.4973 -1.7567
 6299SOL     OW30529   0.513   3.089   5.166  1.0656  0.1840  0.1532
 6299SOL    HW130530   0.500   3.076   5.260  0.2460  2.2965  0.3272
 6299SOL    HW230531   0.478   3.176   5.149  0.2133 -0.3866 -1.0242
 6300SOL     OW30532   4.005   4.508   7.647 -0.1926  0.0336 -0.1808
 6300SOL    HW130533   3.975   4.428   7.604 -1.6037  1.0584 -1.1136
 6300SOL    HW230534   4.059   4.467   7.715 -1.3139 -0.1545  0.6072
 6301SOL     OW30535   3.454   3.621  12.854  0.1721 -0.2430  0.5417
 6301SOL    HW130536   3.430   3.706  12.890 -1.7409 -0.7962  0.5822
 6301SOL    HW230537   3.506   3.672  12.792 -0.7022 -0.1765 -0.1426
 6302SOL     OW30538   1.966   1.540   0.794 -0.2550 -0.1550 -0.3353
 6302SOL    HW130539   1.921   1.621   0.770 -0.2263  0.5341  1.9325
 6302SOL    HW230540   2.037   1.538   0.730 -1.3131 -0.5758 -1.4975
 6303SOL     OW30541   0.905   0.884   0.158  0.2430  0.1631 -0.5957
 6303SOL    HW130542   0.828   0.828   0.160  0.1834  0.1421 -3.2400
 6303SOL    HW230543   0.928   0.888   0.250  1.6901 -2.4397 -0.8423
 6304SOL     OW30544   0.453   4.699   3.951  0.1841  0.4923 -0.3154
 6304SOL    HW130545   0.427   0.046   3.978  2.1238  1.2637 -0.9714
 6304SOL    HW230546   0.410   4.684   3.867  0.2064 -0.6612 -0.1269
 6305SOL     OW30547   4.491   0.604   8.820 -0.2943  0.0512  0.4327
 6305SOL    HW130548   4.585   0.589   8.806 -0.2842  0.2371  0.3095
 6305SOL    HW230549   4.496   0.697   8.799  1.6582  0.0028  0.6857
 6306SOL     OW30550   4.431   3.826   5.916  0.2031  0.2155  0.3072
 6306SOL    HW130551   4.381   3.843   5.836  2.3182  0.7190 -0.9000
 6306SOL    HW230552   4.480   3.747   5.896  0.3909  0.2899  0.4774
 6307SOL     OW30553   4.059   4.254  17.684 -0.4321  0.0402  0.0701
 6307SOL    HW130554   4.090   4.171  17.720 -1.3179  0.2836  1.4289
 6307SOL    HW230555   4.122   4.281  17.617 -1.9610 -1.1364 -1.8276
 6308SOL     OW30556   3.481   0.854  15.434 -0.2982 -0.7434 -0.1639
 6308SOL    HW130557   3.483   0.791  15.506  0.4591 -0.8870 -0.3133
 6308SOL    HW230558   3.440   0.927  15.481 -2.5967 -0.6820 -2.2679
 6309SOL     OW30559   0.956   0.903   5.071 -0.3252  0.3371 -0.3111
 6309SOL    HW130560   0.969   0.957   5.149 -3.0758  0.7068 -0.0766
 6309SOL    HW230561   0.869   0.866   5.089 -0.1221 -0.5315 -1.1316
 6310SOL     OW30562   3.955   2.971  11.111  0.0273  0.4663  0.2258
 6310SOL    HW130563   3.935   2.923  11.030  1.5997 -1.0225  0.7403
 6310SOL    HW230564   3.892   3.044  11.108  0.0533  0.4864  0.1714
 6311SOL     OW30565   0.559   0.928   1.186  0.1804 -0.0607 -0.2981
 6311SOL    HW130566   0.486   0.962   1.134 -1.2202  0.1685  1.8059
 6311SOL    HW230567   0.627   0.903   1.124  1.1982  0.2401  0.7009
 6312SOL     OW30568   3.751   4.029   3.104  0.4754 -0.5539  0.2180
 6312SOL    HW130569   3.793   4.031   3.189 -2.4439 -0.2278  1.6484
 6312SOL    HW230570   3.664   3.994   3.124  1.0467 -0.9357  1.9675
 6313SOL     OW30571   3.131   0.931  17.562 -0.4608  0.3800 -0.1958
 6313SOL    HW130572   3.188   0.859  17.590  0.7861  0.9992 -1.1388
 6313SOL    HW230573   3.043   0.894  17.572 -0.4247  0.2060 -0.5186
 6314SOL     OW30574   3.606   2.157   4.331  0.3857  0.0272 -0.0483
 6314SOL    HW130575   3.633   2.157   4.240  1.0518  0.1549  0.1535
 6314SOL    HW230576   3.598   2.251   4.347  1.3920 -0.3157  2.5339
 6315SOL     OW30577   3.941   3.853  11.594 -0.4951 -0.0517  0.8794
 6315SOL    HW130578   3.864   3.895  11.557  0.9195  0.5419 -1.4437
 6315SOL    HW230579   3.925   3.873  11.686 -1.6648 -0.6042  0.7951
 6316SOL     OW30580   3.466   1.822   7.059 -0.4422 -0.0840 -0.2117
 6316SOL    HW130581   3.458   1.732   7.026  0.9074  0.0082 -0.7686
 6316SOL    HW230582   3.559   1.824   7.038 -0.3344  0.2882  0.3278
 6317SOL     OW30583   1.637   0.565   9.656  0.0250 -0.2177  0.0746
 6317SOL    HW130584   1.644   0.621   9.579  1.5376 -0.0172  0.3590
 6317SOL    HW230585   1.630   0.625   9.731 -0.8964 -1.0875  0.6815
 6318SOL     OW30586   4.399   0.921   2.460 -0.2641 -0.0189  0.1007
 6318SOL    HW130587   4.394   0.909   2.554 -1.5233 -0.0404  0.0397
 6318SOL    HW230588   4.306   0.916   2.434 -0.5241 -2.1036  1.4049
 6319SOL     OW30589   2.737   4.605  17.745 -0.3610  0.8961 -0.3696
 6319SOL    HW130590   2.749   4.542  17.673  1.6618  1.2780 -0.3662
 6319SOL    HW230591   2.739   4.545   0.059  1.4572 -0.6444 -1.6611
 6320SOL     OW30592   2.881   3.665   2.098 -0.5501 -0.0482 -0.2848
 6320SOL    HW130593   2.893   3.735   2.034  0.6493  1.1065  1.1840
 6320SOL    HW230594   2.803   3.700   2.141 -0.0615  2.6235 -1.5357
 6321SOL     OW30595   0.486   2.507  17.624 -0.2543 -0.0443 -0.0551
 6321SOL    HW130596   0.439   2.511  17.541  1.4876 -0.2649 -1.0447
 6321SOL    HW230597   0.577   2.521  17.597  0.1903 -1.5420  0.7053
 6322SOL     OW30598   2.290   4.165   3.027 -0.3479 -0.1981 -0.0157
 6322SOL    HW130599   2.297   4.118   2.943 -2.5082  3.3472 -2.1984
 6322SOL    HW230600   2.205   4.211   3.028 -0.0123  0.4620 -1.0426
 6323SOL     OW30601   3.078   2.805  16.707 -0.4581 -0.7309  0.3554
 6323SOL    HW130602   3.121   2.878  16.751  1.4792 -0.8077 -1.3700
 6323SOL    HW230603   3.095   2.731  16.764 -1.6557 -2.2136 -1.2302
 6324SOL     OW30604   3.887   0.250   5.925 -0.3612 -0.4161  0.0488
 6324SOL    HW130605   3.903   0.252   5.830 -2.2260  1.1671 -0.2306
 6324SOL    HW230606   3.794   0.229   5.933 -0.2821 -0.5683  0.5760
 6325SOL     OW30607   3.906   2.413   3.532  0.1315  0.2582  0.5069
 6325SOL    HW130608   3.903   2.479   3.464 -0.7119 -0.5539 -0.2276
 6325SOL    HW230609   4.001   2.414   3.548  0.2632  0.7477 -0.3345
 6326SOL     OW30610   1.136   3.633  14.608 -0.6940  0.0908 -0.5045
 6326SOL    HW130611   1.171   3.722  14.613  0.7800 -0.5299  0.3776
 6326SOL    HW230612   1.076   3.634  14.682  0.1881 -0.3560  0.2102
 6327SOL     OW30613   4.423   2.766  10.926  0.5215 -0.4178 -0.6869
 6327SOL    HW130614   4.436   2.680  10.885  0.9960 -0.4968 -0.3847
 6327SOL    HW230615   4.338   2.794  10.895  0.5757 -1.5203 -1.8445
 6328SOL     OW30616   4.684   4.470   4.758  0.0405 -0.0742  0.2304
 6328SOL    HW130617   4.733   4.523   4.821 -1.9907 -1.2870  2.8614
 6328SOL    HW230618   4.618   4.533   4.732 -0.3659 -1.0100 -1.0130
 6329SOL     OW30619   3.373   1.829   3.144  0.2553 -0.3428  0.3516
 6329SOL    HW130620   3.369   1.771   3.068  0.1988 -0.7378  0.6582
 6329SOL    HW230621   3.303   1.892   3.124  0.2828 -0.5138 -0.2718
 6330SOL     OW30622   3.462   0.234   7.567 -0.1036  0.4542  0.2878
 6330SOL    HW130623   3.423   0.149   7.547 -0.5370  0.8873 -0.6985
 6330SOL    HW230624   3.516   0.217   7.644 -1.1261  0.7863  1.0813
 6331SOL     OW30625   1.229   2.908  16.089  0.2849 -0.6124 -0.1318
 6331SOL    HW130626   1.239   2.942  16.178  2.9946 -2.8673  0.4527
 6331SOL    HW230627   1.280   2.971  16.037 -1.5394  0.4452 -0.6162
 6332SOL     OW30628   0.004   2.643  12.026 -0.1868 -0.2889 -0.0379
 6332SOL    HW130629   4.709   2.560  12.057 -0.0666 -0.5286 -0.5508
 6332SOL    HW230630   0.016   2.689  12.109 -0.9535  0.9343 -0.5972
 6333SOL     OW30631   1.854   0.127   4.177  0.4945  0.3584 -0.2890
 6333SOL    HW130632   1.793   0.114   4.250 -0.4123  1.6591 -0.8101
 6333SOL    HW230633   1.797   0.143   4.102  0.4744  1.6332 -0.0029
 6334SOL     OW30634   0.820   4.299   3.044  0.1725  0.1463  0.3723
 6334SOL    HW130635   0.738   4.269   3.082 -1.0949  2.5698 -0.4541
 6334SOL    HW230636   0.805   4.276   2.953  1.7346 -0.8587  0.3632
 6335SOL     OW30637   2.933   0.190  13.983 -0.1152 -0.1060 -0.6057
 6335SOL    HW130638   2.995   0.140  14.037 -1.0097 -1.2466 -0.6158
 6335SOL    HW230639   2.977   0.249  13.922 -1.2999 -1.5045 -2.7935
 6336SOL     OW30640   1.939   1.422   9.080  0.2210  0.6358  1.1481
 6336SOL    HW130641   2.024   1.379   9.087 -0.2833 -0.5138  0.2616
 6336SOL    HW230642   1.884   1.344   9.072  2.7622 -1.2886  2.9831
 6337SOL     OW30643   4.005   2.965   9.740  0.1623  0.2400 -0.5938
 6337SOL    HW130644   3.992   2.872   9.722 -0.4023  0.1732  0.1737
 6337SOL    HW230645   4.097   2.978   9.764 -0.2278  1.1279  0.4021
 6338SOL     OW30646   3.866   0.650   1.091 -0.0636 -0.0772  1.0834
 6338SOL    HW130647   3.845   0.645   0.997 -2.8219  0.1262  1.6768
 6338SOL    HW230648   3.920   0.571   1.088  0.4223  0.3507 -2.2748
 6339SOL     OW30649   3.939   4.506   0.806  0.0903 -0.1425 -0.0713
 6339SOL    HW130650   3.844   4.495   0.806  0.0905 -0.2314  1.2437
 6339SOL    HW230651   3.957   4.482   0.715 -2.2114 -0.8970 -0.3250
 6340SOL     OW30652   0.150   1.782   5.865  0.4703 -0.3317  0.2549
 6340SOL    HW130653   0.213   1.820   5.926 -0.7271  1.1591  0.5443
 6340SOL    HW230654   0.070   1.770   5.916  0.1819  1.9981  0.3335
 6341SOL     OW30655   0.458   4.448   9.486 -0.1926 -0.1615  0.3912
 6341SOL    HW130656   0.372   4.443   9.445 -0.4765 -1.8751  1.2140
 6341SOL    HW230657   0.465   4.358   9.517  0.8323 -0.9426 -2.0969
 6342SOL     OW30658   2.510   1.085   6.055  0.1292 -0.3818 -0.3663
 6342SOL    HW130659   2.525   1.037   5.973  0.1068 -1.6710  0.3980
 6342SOL    HW230660   2.424   1.052   6.081 -0.4525  0.9530 -0.6000
 6343SOL     OW30661   0.466   2.148   1.604 -0.1016  0.1050  0.2885
 6343SOL    HW130662   0.501   2.204   1.674 -0.4312  0.6871 -0.0122
 6343SOL    HW230663   0.377   2.179   1.623 -0.4868 -1.9724  1.8668
 6344SOL     OW30664   0.991   0.849   4.476 -0.0725  0.6117 -0.3014
 6344SOL    HW130665   1.014   0.806   4.394  0.6434 -0.7773  0.6154
 6344SOL    HW230666   1.051   0.922   4.488  1.5099 -1.0511  1.9776
 6345SOL     OW30667   4.572   4.626   3.865  0.0373 -0.2532  0.5002
 6345SOL    HW130668   4.649   4.571   3.879  1.2737  0.7507 -2.2986
 6345SOL    HW230669   4.615   4.707   3.838  0.9089 -1.2093 -0.9826
 6346SOL     OW30670   1.230   1.878   5.096  0.0825  0.0032  0.0845
 6346SOL    HW130671   1.270   1.812   5.039  2.0058  1.9787 -0.8761
 6346SOL    HW230672   1.260   1.963   5.064 -0.4937 -0.2491 -1.1096
 6347SOL     OW30673   4.009   4.612  13.370 -0.2707  0.4043  0.0556
 6347SOL    HW130674   3.979   4.534  13.416  0.7949 -0.7848 -1.2895
 6347SOL    HW230675   4.047   4.658  13.445  0.8341  1.2408 -1.0186
 6348SOL     OW30676   2.552   0.045  11.647 -0.5954 -0.0152  0.0918
 6348SOL    HW130677   2.553   0.032  11.552  2.6835 -1.3635  0.2977
 6348SOL    HW230678   2.556   0.140  11.654  2.7440 -0.0520 -0.9845
 6349SOL     OW30679   3.695   3.631   5.305  0.0074 -0.3943  0.9996
 6349SOL    HW130680   3.648   3.694   5.360  1.6982  2.9127 -1.2894
 6349SOL    HW230681   3.779   3.636   5.352 -0.0230 -1.1074  1.1297
 6350SOL     OW30682   2.241   3.074   3.224 -0.1630  0.3768  0.0758
 6350SOL    HW130683   2.150   3.096   3.208 -0.4522 -0.6716  0.3048
 6350SOL    HW230684   2.245   3.076   3.319  0.4799 -1.4256  0.0840
 6351SOL     OW30685   3.355   0.645   2.821  0.2047 -0.2606 -0.7863
 6351SOL    HW130686   3.287   0.643   2.888  2.2711  1.3703  1.3188
 6351SOL    HW230687   3.309   0.667   2.740 -0.9214  1.6038  0.3745
 6352SOL     OW30688   2.812   4.294   2.252 -0.2968  0.2275 -0.1885
 6352SOL    HW130689   2.750   4.222   2.263 -0.6116  0.4310 -0.6021
 6352SOL    HW230690   2.882   4.233   2.274  0.8589  0.9802 -1.7036
 6353SOL     OW30691   2.270   0.484   6.746 -0.3298  0.0001 -0.2400
 6353SOL    HW130692   2.199   0.445   6.797 -0.1111  0.6884  0.6004
 6353SOL    HW230693   2.339   0.418   6.750  1.8259  2.2782  0.3766
 6354SOL     OW30694   0.325   1.124   9.701 -0.3610 -0.1486  0.4029
 6354SOL    HW130695   0.369   1.077   9.771 -0.6911 -0.0199  0.6969
 6354SOL    HW230696   0.265   1.181   9.748  1.4748 -0.5917  3.2673
 6355SOL     OW30697   3.077   4.045  15.090 -0.2971  0.1618  0.4517
 6355SOL    HW130698   3.159   4.007  15.123  0.1430  2.1923  1.7126
 6355SOL    HW230699   3.087   4.138  15.111  1.8814  0.8736 -3.8996
 6356SOL     OW30700   4.210   4.116  13.094  0.1860 -0.1457  0.6098
 6356SOL    HW130701   4.233   4.131  13.002  0.1713 -0.3233  0.5765
 6356SOL    HW230702   4.205   4.201  13.137 -4.3643 -0.5994  0.9897
 6357SOL     OW30703   3.451   3.881  15.436 -0.4702 -0.2681  0.2469
 6357SOL    HW130704   3.414   3.795  15.418 -1.4512  0.0775  0.6162
 6357SOL    HW230705   3.544   3.860  15.428 -0.2170  0.3529  1.5852
 6358SOL     OW30706   0.633   4.337   0.516 -0.1297 -0.2132 -0.2466
 6358SOL    HW130707   0.560   4.376   0.468 -1.7206  0.6260  2.8971
 6358SOL    HW230708   0.599   4.250   0.533 -0.0271 -0.1700  0.1735
 6359SOL     OW30709   4.673   3.255   1.188  0.7482  0.3534 -0.0570
 6359SOL    HW130710   4.720   3.315   1.130 -3.1316  3.0619 -0.3882
 6359SOL    HW230711   4.670   3.171   1.141  3.0634  0.6668 -0.7852
 6360SOL     OW30712   3.230   2.403  10.304 -0.1719  0.1040  0.4932
 6360SOL    HW130713   3.157   2.449  10.264 -0.1847  1.4913  2.0926
 6360SOL    HW230714   3.250   2.465  10.375 -0.2889 -0.9587  1.4505
 6361SOL     OW30715   2.381   2.960   6.096 -0.0821  0.6169 -0.2837
 6361SOL    HW130716   2.289   2.985   6.090  0.3561  2.4123  0.5305
 6361SOL    HW230717   2.374   2.902   6.171 -3.2695 -0.8683 -1.7055
 6362SOL     OW30718   2.087   3.554   5.530 -0.3553 -0.4388  0.0457
 6362SOL    HW130719   2.133   3.618   5.583  1.0821 -1.9562  0.6351
 6362SOL    HW230720   2.104   3.473   5.578  0.3132  0.2131  0.8973
 6363SOL     OW30721   1.090   3.014  14.218  0.0336 -0.2175  0.9298
 6363SOL    HW130722   1.180   3.041  14.198  0.4585 -1.4950  1.1219
 6363SOL    HW230723   1.080   3.044  14.308 -2.6224 -0.0270  0.5666
 6364SOL     OW30724   2.169   0.234   5.454  0.6475  0.3535  0.4025
 6364SOL    HW130725   2.135   0.310   5.406 -0.7617 -0.3660  0.2645
 6364SOL    HW230726   2.261   0.257   5.469  0.7179  0.4242 -0.1335
 6365SOL     OW30727   4.451   4.219   5.168  0.1663 -0.3351  0.2881
 6365SOL    HW130728   4.540   4.254   5.171  0.8234 -1.8368 -1.8859
 6365SOL    HW230729   4.398   4.273   5.227  0.9471  0.1051  0.5932
 6366SOL     OW30730   4.004   0.715   2.215  0.3777  0.7826 -0.0131
 6366SOL    HW130731   4.018   0.647   2.281 -1.5220 -1.3731 -1.8487
 6366SOL    HW230732   3.924   0.690   2.170  1.5487 -0.5364 -1.3824
 6367SOL     OW30733   1.077   0.721   2.839 -0.2519 -0.1713  0.0395
 6367SOL    HW130734   1.129   0.671   2.901  0.6396  0.4777 -0.1885
 6367SOL    HW230735   1.013   0.763   2.896 -1.0496 -2.1542  0.5987
 6368SOL     OW30736   0.234   0.122   8.591  0.2399 -0.2383 -0.1882
 6368SOL    HW130737   0.284   0.199   8.616 -0.4771  0.2482 -0.2405
 6368SOL    HW230738   0.304   0.068   8.556 -0.1257 -0.4652 -0.5753
 6369SOL     OW30739   0.744   3.625  12.558 -0.1261  0.3586  0.1497
 6369SOL    HW130740   0.699   3.709  12.570 -1.9524 -0.6233  0.1442
 6369SOL    HW230741   0.819   3.667  12.515  1.3986 -1.8801  0.6508
 6370SOL     OW30742   0.393   3.128   3.323  0.6146 -0.0379  0.6054
 6370SOL    HW130743   0.362   3.154   3.409 -0.6266  0.9512 -0.1363
 6370SOL    HW230744   0.404   3.035   3.340  0.4810 -0.0782  0.4666
 6371SOL     OW30745   1.283   4.676   7.013 -1.3536 -0.0773 -0.1861
 6371SOL    HW130746   1.289   4.581   7.012  1.4001  0.1039 -1.0569
 6371SOL    HW230747   1.251   4.685   7.103 -2.6843  1.2616 -0.7925
 6372SOL     OW30748   2.867   0.027   2.796  0.7926  0.1634  0.1294
 6372SOL    HW130749   2.908   0.053   2.714  0.5986  0.6774  0.1998
 6372SOL    HW230750   2.808   0.098   2.821  1.9245  2.2425 -3.2847
 6373SOL     OW30751   0.871   0.156   1.331  0.4630 -0.6616  0.2133
 6373SOL    HW130752   0.832   0.242   1.349  1.0066 -0.5877  1.0705
 6373SOL    HW230753   0.965   0.165   1.314  0.3941 -4.0778 -1.7741
 6374SOL     OW30754   3.820   1.311   5.456  0.3630 -0.4176 -0.2128
 6374SOL    HW130755   3.846   1.403   5.449  1.1157 -0.4826  1.7531
 6374SOL    HW230756   3.884   1.263   5.508  1.5400  0.3664 -0.9467
 6375SOL     OW30757   2.183   2.966  16.568  0.3025  0.4412  0.0932
 6375SOL    HW130758   2.094   2.939  16.590 -0.1755  1.0507 -1.1215
 6375SOL    HW230759   2.176   3.058  16.545 -0.9676  0.5259  0.8308
 6376SOL     OW30760   2.739   3.291   8.751  0.7968  0.4299 -0.0157
 6376SOL    HW130761   2.683   3.358   8.711  1.7379 -0.3985 -2.6792
 6376SOL    HW230762   2.723   3.306   8.844 -1.0167  1.4694 -0.4895
 6377SOL     OW30763   4.300   4.673   3.938 -0.1652  0.2277 -0.1931
 6377SOL    HW130764   4.256   4.684   3.853 -0.8135  0.1517  0.1260
 6377SOL    HW230765   4.383   4.638   3.907  0.6066  1.1352  0.8527
 6378SOL     OW30766   4.693   4.064   5.462 -0.0182  0.0090 -0.1698
 6378SOL    HW130767   0.007   3.989   5.439 -1.9536 -0.4359 -3.3398
 6378SOL    HW230768   4.732   4.081   5.548  0.9096 -0.7619 -0.4352
 6379SOL     OW30769   0.787   4.523  12.278 -0.1625  0.2120 -0.5469
 6379SOL    HW130770   0.766   4.465  12.352  2.4515  1.9513  1.5539
 6379SOL    HW230771   0.853   4.581  12.316 -0.0295  0.1451 -0.6763
 6380SOL     OW30772   2.624   4.689   4.735 -0.8277 -0.1878  0.0819
 6380SOL    HW130773   2.616   4.714   4.828  0.6378 -1.4752  0.5584
 6380SOL    HW230774   2.716   4.667   4.725 -0.2618  1.2312  2.0810
 6381SOL     OW30775   0.747   4.199  12.000 -0.1158  0.3467  1.0751
 6381SOL    HW130776   0.756   4.284  11.955 -0.1976 -0.0549  0.3070
 6381SOL    HW230777   0.674   4.158  11.954  1.1722 -1.3213  0.5408
 6382SOL     OW30778   4.560   0.542  11.122 -0.3549  0.0808 -0.1538
 6382SOL    HW130779   4.475   0.577  11.095 -1.4383  0.4666  3.6648
 6382SOL    HW230780   4.534   0.508  11.208 -0.3586  2.4603  0.7880
 6383SOL     OW30781   1.814   1.969   8.248 -0.5196 -0.1879 -0.0080
 6383SOL    HW130782   1.796   2.059   8.221  0.8337  0.9239  2.7791
 6383SOL    HW230783   1.909   1.964   8.256 -0.3641  1.6173 -0.8037
 6384SOL     OW30784   3.337   0.414   6.919  0.2087  0.1382  0.0302
 6384SOL    HW130785   3.352   0.349   6.850 -2.8630  0.2335 -0.7265
 6384SOL    HW230786   3.394   0.383   6.989  0.5473  0.3650 -0.1476
 6385SOL     OW30787   3.637   0.731  14.177  0.1510  0.3440 -0.1052
 6385SOL    HW130788   3.658   0.762  14.089  0.5985 -2.4985 -0.9886
 6385SOL    HW230789   3.543   0.711  14.172  0.2275 -0.1436  0.4478
 6386SOL     OW30790   2.699   2.649   6.813 -0.6965 -0.1502  0.1271
 6386SOL    HW130791   2.664   2.579   6.758  1.9617 -1.4782  0.1296
 6386SOL    HW230792   2.782   2.609   6.838 -0.6669  1.2767  2.3325
 6387SOL     OW30793   3.991   3.917   2.697 -0.1634  0.0185 -0.0278
 6387SOL    HW130794   3.919   3.872   2.652 -2.3533  3.5907 -0.1101
 6387SOL    HW230795   3.937   3.994   2.716 -0.6342 -0.2873 -0.1090
 6388SOL     OW30796   0.824   2.407   5.112 -0.8316  0.1168  0.4174
 6388SOL    HW130797   0.763   2.343   5.076  0.6251 -0.9915 -0.0681
 6388SOL    HW230798   0.844   2.390   5.204 -0.7381  0.4563  0.4599
 6389SOL     OW30799   4.510   0.128   7.025  0.1806  0.1269 -0.5043
 6389SOL    HW130800   4.569   0.054   7.008 -0.5863 -1.0676  2.0744
 6389SOL    HW230801   4.464   0.101   7.104 -0.3678 -1.4559 -1.3639
 6390SOL     OW30802   4.113   3.069   7.483 -0.0087  0.2941  0.2199
 6390SOL    HW130803   4.123   2.975   7.494  1.6361  0.6356  1.6835
 6390SOL    HW230804   4.071   3.094   7.566  0.3180 -0.6670  0.6688
 6391SOL     OW30805   2.449   3.340   7.465  0.1176 -0.4533  0.0828
 6391SOL    HW130806   2.471   3.416   7.411  1.0414 -1.0361 -0.3548
 6391SOL    HW230807   2.539   3.308   7.475  0.4884  0.7168  0.3840
 6392SOL     OW30808   3.580   1.071  14.496  0.0463 -0.2305 -0.2228
 6392SOL    HW130809   3.624   0.992  14.463  0.4033 -0.4949  0.8691
 6392SOL    HW230810   3.495   1.065  14.454  0.3382 -2.8791 -0.4772
 6393SOL     OW30811   2.509   1.173   0.517 -0.9988 -0.5865  0.6835
 6393SOL    HW130812   2.585   1.127   0.553  1.2743  1.1153 -1.8712
 6393SOL    HW230813   2.535   1.265   0.525 -1.2159 -0.3722 -1.0009
 6394SOL     OW30814   0.401   2.080   4.139  0.2174 -0.5069 -0.1745
 6394SOL    HW130815   0.479   2.101   4.087  0.9747 -1.3508  0.6163
 6394SOL    HW230816   0.365   1.997   4.108  0.0507 -0.7054  0.5657
 6395SOL     OW30817   0.394   2.092  12.073 -0.0257 -0.2847 -0.0466
 6395SOL    HW130818   0.438   2.079  12.157  2.9564 -1.3238 -1.7460
 6395SOL    HW230819   0.377   2.000  12.054  2.0573 -0.9094  1.1113
 6396SOL     OW30820   0.416   3.976   1.901 -0.4688 -0.0226  0.2263
 6396SOL    HW130821   0.444   3.997   1.812 -3.4924  1.2347 -0.4588
 6396SOL    HW230822   0.346   3.916   1.873 -1.3219  1.4599 -0.8166
 6397SOL     OW30823   2.878   1.183  15.613 -0.0581  0.1142  0.0774
 6397SOL    HW130824   2.921   1.100  15.592 -0.8233 -0.1560 -0.4258
 6397SOL    HW230825   2.913   1.247  15.551 -0.6793 -2.6349 -3.1099
 6398SOL     OW30826   2.588   4.135   3.367 -0.2017  0.1509 -0.0908
 6398SOL    HW130827   2.495   4.157   3.360 -0.1817  0.7056  1.2949
 6398SOL    HW230828   2.572   4.041   3.373  0.2798  0.2246  2.5811
 6399SOL     OW30829   0.085   0.768   7.539 -0.0527  0.2457 -0.9403
 6399SOL    HW130830   4.739   0.728   7.545 -0.4822  1.2739 -0.4037
 6399SOL    HW230831   0.110   0.779   7.630 -0.3140 -4.5471 -0.3071
 6400SOL     OW30832   4.440   3.130   6.642 -0.2962 -0.0573 -0.0699
 6400SOL    HW130833   4.404   3.219   6.647  1.6455  0.6873  0.6661
 6400SOL    HW230834   4.436   3.120   6.738 -2.6047  0.7778 -0.0688
 6401SOL     OW30835   1.842   2.673  13.201 -0.7021  0.0524  0.5130
 6401SOL    HW130836   1.892   2.754  13.192 -0.6160 -0.1073 -0.3687
 6401SOL    HW230837   1.886   2.622  13.133  0.4998 -0.6990  1.8558
 6402SOL     OW30838   1.289   3.216   7.444 -0.1735 -0.3150 -0.1310
 6402SOL    HW130839   1.240   3.179   7.370 -1.0918  0.1099  0.2564
 6402SOL    HW230840   1.363   3.252   7.395 -0.1288  1.1749  1.0357
 6403SOL     OW30841   4.607   4.377   2.209 -0.4617  0.0286  0.7708
 6403SOL    HW130842   4.613   4.472   2.218 -1.0303  0.2291 -1.1023
 6403SOL    HW230843   4.593   4.339   2.296 -3.3559 -0.4687  0.0547
 6404SOL     OW30844   4.335   3.886   0.592 -0.5540 -0.0315 -0.4386
 6404SOL    HW130845   4.418   3.923   0.622 -0.8286  0.2935 -0.0689
 6404SOL    HW230846   4.270   3.943   0.633  0.6003 -0.5067  2.0636
 6405SOL     OW30847   1.719   1.475   9.991 -0.0967  0.0736  0.2360
 6405SOL    HW130848   1.652   1.524   9.943  2.1396  0.5912 -2.3633
 6405SOL    HW230849   1.709   1.389   9.951  2.0734 -0.3778  0.6901
 6406SOL     OW30850   4.725   1.032   5.441 -0.2181  0.3134  0.6481
 6406SOL    HW130851   4.689   1.105   5.389 -0.2960 -0.7276 -0.7761
 6406SOL    HW230852   4.646   0.989   5.474  0.6730 -3.2257 -1.8799
 6407SOL     OW30853   0.255   1.047   3.958  0.5510  0.5744  0.6020
 6407SOL    HW130854   0.275   1.093   4.040  0.8254  3.3823 -1.0668
 6407SOL    HW230855   0.346   1.046   3.927  0.7254  2.3485  1.0800
 6408SOL     OW30856   2.081   4.699  16.624 -0.2987  0.2267 -0.0821
 6408SOL    HW130857   2.071   4.623  16.681  2.1400 -0.6484 -0.8364
 6408SOL    HW230858   2.015   0.020  16.656  1.6754  3.3741 -2.1789
 6409SOL     OW30859   0.422   0.900   7.162  0.2538  0.0101 -0.7990
 6409SOL    HW130860   0.428   0.810   7.132  2.0448 -0.6019  1.3841
 6409SOL    HW230861   0.332   0.884   7.193 -0.1393  1.1937 -1.3142
 6410SOL     OW30862   1.360   1.574  14.683  0.3341  0.0055  0.1680
 6410SOL    HW130863   1.338   1.664  14.662 -2.6797 -0.6180  0.7296
 6410SOL    HW230864   1.329   1.536  14.601 -0.0465 -1.1438  0.8401
 6411SOL     OW30865   2.962   4.500   4.181 -0.1821 -0.0477 -0.4754
 6411SOL    HW130866   3.028   4.453   4.232 -0.2699 -0.8283 -1.0894
 6411SOL    HW230867   2.920   4.426   4.138  0.2160 -0.3754 -0.3111
 6412SOL     OW30868   4.105   1.447  14.342 -0.0073  0.5840  0.1609
 6412SOL    HW130869   4.097   1.356  14.311  0.3774  0.7239 -0.3459
 6412SOL    HW230870   4.187   1.469  14.297 -0.6636  0.5032 -1.0540
 6413SOL     OW30871   2.753   3.740   7.652  0.1340  0.3085 -0.3275
 6413SOL    HW130872   2.822   3.691   7.607 -0.1924 -1.0976  0.7022
 6413SOL    HW230873   2.683   3.702   7.599 -1.6439 -1.0118  2.9235
 6414SOL     OW30874   4.437   3.403   1.963  0.5274  0.2329  0.4874
 6414SOL    HW130875   4.347   3.435   1.958 -0.5544 -2.8703  0.5035
 6414SOL    HW230876   4.435   3.335   2.030  3.2412 -1.5467 -1.2422
 6415SOL     OW30877   0.678   0.903   5.062 -0.2740 -0.4894 -0.2520
 6415SOL    HW130878   0.635   0.970   5.010  0.9948  0.9544  0.5321
 6415SOL    HW230879   0.606   0.860   5.107 -1.7177  0.7053 -1.4535
 6416SOL     OW30880   3.927   1.227  12.875  0.7249 -0.4004  0.2228
 6416SOL    HW130881   3.917   1.151  12.818  2.3840  1.4921 -2.5928
 6416SOL    HW230882   3.852   1.276  12.841  2.0627  0.9084 -0.8241
 6417SOL     OW30883   0.863   3.807  17.616 -0.0085  0.0187 -0.1933
 6417SOL    HW130884   0.773   3.818  17.587 -0.0500  0.1206 -0.0308
 6417SOL    HW230885   0.902   3.895  17.614  1.7712 -0.7026  2.9589
 6418SOL     OW30886   4.378   3.679   5.520 -0.1217  0.0726  1.1397
 6418SOL    HW130887   4.445   3.612   5.514 -1.6466 -1.4378  0.8445
 6418SOL    HW230888   4.323   3.655   5.595 -0.0278 -0.2461  1.1069
 6419SOL     OW30889   0.459   4.141   4.329 -0.4605  0.2147  0.0106
 6419SOL    HW130890   0.403   4.218   4.340 -0.2748  0.1933  1.0767
 6419SOL    HW230891   0.541   4.178   4.298 -0.2394  0.2796  0.6606
 6420SOL     OW30892   0.549   0.793   8.252 -0.3625  0.1559 -0.0646
 6420SOL    HW130893   0.643   0.780   8.261 -0.1738  2.1145  0.9191
 6420SOL    HW230894   0.530   0.871   8.305 -0.6374 -1.3124  1.9817
 6421SOL     OW30895   1.207   2.320   8.243  0.1950 -0.1190  0.0692
 6421SOL    HW130896   1.265   2.395   8.260 -1.6167  1.5919 -1.3683
 6421SOL    HW230897   1.228   2.304   8.151 -0.0005  3.6076 -0.6247
 6422SOL     OW30898   1.795   0.190   5.166 -0.2353  0.1595  0.6552
 6422SOL    HW130899   1.857   0.139   5.219  1.3930  1.8149  0.3179
 6422SOL    HW230900   1.723   0.195   5.229  1.7620  2.2144  2.7846
 6423SOL     OW30901   1.649   1.917   4.066  0.1318 -0.0859  0.1599
 6423SOL    HW130902   1.604   1.844   4.024  0.0859  0.0545 -0.0344
 6423SOL    HW230903   1.598   1.927   4.146  1.7784  3.8825  0.7322
 6424SOL     OW30904   0.776   0.627  16.319 -0.2162  0.4404 -0.2284
 6424SOL    HW130905   0.823   0.674  16.251  0.2779 -1.1280 -0.9681
 6424SOL    HW230906   0.759   0.699  16.380 -1.5349 -0.4342  0.4328
 6425SOL     OW30907   1.835   2.777   7.102  0.1105  0.9478 -0.2793
 6425SOL    HW130908   1.745   2.757   7.074  0.1279 -0.2857  0.5538
 6425SOL    HW230909   1.856   2.705   7.162 -0.9786  0.3589 -0.5970
 6426SOL     OW30910   3.111   1.619   5.621 -0.6258  0.1850 -0.4419
 6426SOL    HW130911   3.198   1.607   5.660 -0.7358 -0.0484 -0.2634
 6426SOL    HW230912   3.125   1.674   5.544  0.8956 -0.8672 -0.9191
 6427SOL     OW30913   0.126   1.167   4.603 -0.0356  0.7465 -0.0946
 6427SOL    HW130914   0.136   1.236   4.538  0.1934  0.1991 -0.6330
 6427SOL    HW230915   0.120   1.211   4.688  0.2531  0.5585  0.0221
 6428SOL     OW30916   2.991   0.924   8.312  0.2434  0.0354 -0.7645
 6428SOL    HW130917   2.943   0.997   8.271 -0.3273 -0.1843 -0.4914
 6428SOL    HW230918   3.082   0.954   8.314  0.2709 -0.0608 -0.6219
 6429SOL     OW30919   3.879   0.411   9.513  0.5170  0.1380 -0.4838
 6429SOL    HW130920   3.907   0.359   9.438  1.0688 -0.0212 -0.1708
 6429SOL    HW230921   3.849   0.494   9.479  2.6318  0.6244 -1.1738
 6430SOL     OW30922   3.077   2.925   5.910  0.1828 -0.4464 -0.6204
 6430SOL    HW130923   3.074   2.998   5.848 -0.5904 -1.2361 -1.5151
 6430SOL    HW230924   2.992   2.934   5.952  0.1977 -2.4528 -0.1436
 6431SOL     OW30925   1.014   3.044   3.234 -0.0982 -0.1427  0.5495
 6431SOL    HW130926   1.056   3.056   3.149 -0.2097 -0.6832  0.4151
 6431SOL    HW230927   1.009   3.131   3.273 -1.0630 -0.3185  0.8084
 6432SOL     OW30928   2.509   1.293   9.773 -0.1284  0.1807 -0.1444
 6432SOL    HW130929   2.434   1.351   9.766  0.3282  0.7219 -0.5803
 6432SOL    HW230930   2.555   1.320   9.693  0.5985 -1.4770 -0.2939
 6433SOL     OW30931   1.781   0.606   2.363  0.5337 -0.0573 -0.1427
 6433SOL    HW130932   1.874   0.597   2.380 -0.0765 -2.4137  1.8730
 6433SOL    HW230933   1.779   0.702   2.365  1.1702 -0.0401 -0.3779
 6434SOL     OW30934   1.978   1.473   1.942 -0.3542 -0.1693 -0.2765
 6434SOL    HW130935   2.072   1.477   1.922 -0.5715  1.3578 -1.0153
 6434SOL    HW230936   1.951   1.483   1.851 -0.3677 -0.3021 -0.2869
 6435SOL     OW30937   2.042   2.475   8.612  0.2717  0.0672 -0.1641
 6435SOL    HW130938   1.990   2.473   8.692  0.4635  2.4873  0.0203
 6435SOL    HW230939   2.091   2.552   8.640  0.3659 -0.2830  0.6134
 6436SOL     OW30940   4.382   1.430   9.995  0.0477 -0.8936  0.2456
 6436SOL    HW130941   4.362   1.509   9.944  1.2664  0.4135  1.7745
 6436SOL    HW230942   4.296   1.415  10.035 -1.2046  0.2195 -2.0182
 6437SOL     OW30943   4.104   2.366   0.244  0.0266  0.0286  0.2816
 6437SOL    HW130944   4.045   2.405   0.309 -0.3208  0.8361 -0.5124
 6437SOL    HW230945   4.115   2.439   0.182 -1.0646  1.6626  2.0073
 6438SOL     OW30946   0.059   1.943   6.136  0.9321  0.5287 -0.2882
 6438SOL    HW130947   4.738   1.873   6.117  0.4218  1.0341 -0.4779
 6438SOL    HW230948   0.006   2.004   6.187  0.6024 -0.3445  0.4015
 6439SOL     OW30949   1.865   1.299   1.331 -0.2444 -0.2539 -0.7469
 6439SOL    HW130950   1.805   1.308   1.404 -0.3366 -0.5703 -0.7839
 6439SOL    HW230951   1.951   1.335   1.353 -0.8293 -0.2068  1.4082
 6440SOL     OW30952   1.312   0.707   9.469 -0.0742 -0.0412 -0.3535
 6440SOL    HW130953   1.379   0.768   9.437  0.6631 -2.2593 -2.9151
 6440SOL    HW230954   1.229   0.746   9.442 -0.4912  0.6438  1.8777
 6441SOL     OW30955   3.005   1.616   7.777 -0.2542  0.4824  0.6081
 6441SOL    HW130956   2.913   1.640   7.767 -0.5174 -0.8592 -0.2701
 6441SOL    HW230957   3.051   1.672   7.715 -1.0143  0.5787  0.1228
 6442SOL     OW30958   2.993   3.304   3.149  0.2129  0.8094  0.6611
 6442SOL    HW130959   3.032   3.362   3.084 -4.2067 -0.2970 -2.9802
 6442SOL    HW230960   2.906   3.345   3.154 -0.7422 -0.9356 -1.5185
 6443SOL     OW30961   2.560   3.684   2.923  0.1805 -0.1552  0.2752
 6443SOL    HW130962   2.496   3.618   2.896  0.3390  1.2875 -3.6246
 6443SOL    HW230963   2.533   3.708   3.012  0.3678 -0.7817  0.5002
 6444SOL     OW30964   0.650   2.673   5.421 -0.3931 -0.2553  0.3401
 6444SOL    HW130965   0.741   2.644   5.409 -0.6503 -0.8884 -0.0736
 6444SOL    HW230966   0.649   2.702   5.512  0.2648  1.3154 -0.1464
 6445SOL     OW30967   0.832   4.139  15.889  0.7022  0.0195  0.5259
 6445SOL    HW130968   0.891   4.078  15.934 -0.7046 -0.9746  1.0391
 6445SOL    HW230969   0.866   4.140  15.799  4.1510  0.8075  1.8251
 6446SOL     OW30970   2.693   1.607   6.372  0.1668  0.2818 -0.2040
 6446SOL    HW130971   2.717   1.660   6.448  2.8752 -1.7465  0.3451
 6446SOL    HW230972   2.778   1.617   6.328 -0.3901  2.3659 -0.8233
 6447SOL     OW30973   3.668   4.269   6.176  0.0034 -0.0665  0.2121
 6447SOL    HW130974   3.665   4.230   6.264 -3.0134  0.5763  0.3886
 6447SOL    HW230975   3.733   4.337   6.194 -0.4267  1.0158 -2.3575
 6448SOL     OW30976   2.782   4.011   8.088  0.6449  0.3101  0.4523
 6448SOL    HW130977   2.749   3.922   8.104  0.6305  0.2979  0.3540
 6448SOL    HW230978   2.759   4.029   7.997 -0.0283  1.8610  0.9304
 6449SOL     OW30979   1.335   3.186   6.044  0.5863 -0.3821  0.2888
 6449SOL    HW130980   1.343   3.278   6.067 -0.0532 -0.6833  1.6944
 6449SOL    HW230981   1.315   3.186   5.950 -1.8904  2.2478  0.8338
 6450SOL     OW30982   0.997   0.685   7.991 -0.4796 -0.4862  0.7617
 6450SOL    HW130983   1.041   0.605   8.019  0.1114 -0.2697  0.4426
 6450SOL    HW230984   0.969   0.655   7.905  2.6909 -0.5412 -0.2265
 6451SOL     OW30985   2.453   3.334  13.560 -0.0226 -0.2378 -0.0023
 6451SOL    HW130986   2.488   3.373  13.480  4.6703 -0.9457  1.7265
 6451SOL    HW230987   2.469   3.409  13.617  0.8644 -0.4152 -0.0180
 6452SOL     OW30988   4.617   0.666  17.623 -0.2947 -0.7038  0.1781
 6452SOL    HW130989   4.678   0.666  17.550  0.2230  0.2601  0.6031
 6452SOL    HW230990   4.624   0.755  17.659 -2.4795 -0.7456  0.6744
 6453SOL     OW30991   1.752   4.329   7.072  0.0650 -0.1658 -0.3043
 6453SOL    HW130992   1.751   4.296   7.161 -1.4727  1.8844  0.4347
 6453SOL    HW230993   1.836   4.304   7.033  0.8655  1.4553  0.3480
 6454SOL     OW30994   1.775   3.171  10.477  0.1559 -0.3976  0.0898
 6454SOL    HW130995   1.792   3.112  10.551 -2.0903 -0.2835  0.7229
 6454SOL    HW230996   1.682   3.154  10.457  0.5509 -1.0126 -1.1917
 6455SOL     OW30997   1.748   3.255  15.153  0.5274  0.3186  1.0847
 6455SOL    HW130998   1.746   3.236  15.059 -1.8077 -1.2987  1.4872
 6455SOL    HW230999   1.665   3.224  15.187  0.0170  1.4539  0.8804
 6456SOL     OW31000   0.597   3.515   2.201  0.4455 -0.6873 -0.4991
 6456SOL    HW131001   0.575   3.588   2.144  1.1818 -0.6947 -0.7871
 6456SOL    HW231002   0.673   3.484   2.151  0.5538  0.3346 -0.9576
 6457SOL     OW31003   2.573   3.278   0.079  0.2033 -0.5166  0.1023
 6457SOL    HW131004   2.565   3.190   0.116  1.7786  0.5117  2.8817
 6457SOL    HW231005   2.493   3.297   0.030 -0.6706  0.0854  1.7769
 6458SOL     OW31006   1.673   2.495   3.589  0.0539  0.5381 -0.2213
 6458SOL    HW131007   1.744   2.462   3.534 -0.5154 -2.3853  0.8388
 6458SOL    HW231008   1.594   2.511   3.538  0.2041 -0.7027 -0.8431
 6459SOL     OW31009   0.126   1.543   3.089 -0.0884 -0.2153  0.2755
 6459SOL    HW131010   0.190   1.528   3.019  0.5260 -2.0042  1.2291
 6459SOL    HW231011   0.140   1.473   3.153 -0.9521 -0.3912  0.2782
 6460SOL     OW31012   3.074   2.160   1.615 -0.2701 -0.6732 -0.0672
 6460SOL    HW131013   3.129   2.114   1.679 -0.0458 -1.3523 -0.7520
 6460SOL    HW231014   3.082   2.254   1.633 -1.3311 -0.0792 -2.6979
 6461SOL     OW31015   1.079   1.051   4.910 -0.8225  0.2894  0.5010
 6461SOL    HW131016   1.024   0.996   4.964 -1.8349  1.3939  0.5934
 6461SOL    HW231017   1.171   1.031   4.926 -1.2109 -1.8179  0.0840
 6462SOL     OW31018   4.430   4.263  17.302 -0.5526 -0.5576 -0.3697
 6462SOL    HW131019   4.494   4.278  17.233 -1.3720 -0.1115 -1.0357
 6462SOL    HW231020   4.353   4.272  17.245 -0.2948 -1.7008 -0.9122
 6463SOL     OW31021   3.443   3.231  10.978  0.0832  0.2341  0.0660
 6463SOL    HW131022   3.418   3.269  11.062 -0.1801 -0.7829  0.4593
 6463SOL    HW231023   3.516   3.286  10.953 -0.6879  0.4095 -1.8296
 6464SOL     OW31024   3.719   2.329   4.684 -0.9244  0.8429 -0.4417
 6464SOL    HW131025   3.716   2.421   4.659 -0.2258  1.7562  2.7459
 6464SOL    HW231026   3.736   2.293   4.597 -1.8444  0.4191 -0.4447
 6465SOL     OW31027   2.063   3.232   5.522  0.4059  0.2301  0.0132
 6465SOL    HW131028   1.995   3.258   5.460  1.3230  1.5720 -0.4131
 6465SOL    HW231029   2.134   3.230   5.459 -0.2321 -0.8303 -0.6722
 6466SOL     OW31030   0.263   0.696   8.777  0.6774  0.7862 -0.0569
 6466SOL    HW131031   0.292   0.610   8.808 -1.7597  0.7983  2.2243
 6466SOL    HW231032   0.243   0.688   8.684  1.1949 -0.2530 -0.0831
 6467SOL     OW31033   0.826   2.791  11.286  0.3039  0.4682  0.6821
 6467SOL    HW131034   0.820   2.770  11.379 -2.8398 -0.1882  0.3439
 6467SOL    HW231035   0.738   2.825  11.271  0.8142  0.5264 -2.2922
 6468SOL     OW31036   4.558   2.200   3.582  0.5912 -0.2684 -0.1048
 6468SOL    HW131037   4.517   2.165   3.662 -1.2746  0.7674 -0.6272
 6468SOL    HW231038   4.587   2.286   3.611 -1.2895  0.9446 -1.8897
 6469SOL     OW31039   1.463   1.998   6.450  0.2748  0.7173  0.1030
 6469SOL    HW131040   1.502   1.917   6.484 -2.7236 -0.1206  1.5452
 6469SOL    HW231041   1.490   1.983   6.360 -0.0523  0.2570  0.0804
 6470SOL     OW31042   4.292   4.487   8.565 -0.2396  0.4313 -1.3634
 6470SOL    HW131043   4.381   4.478   8.599 -0.3389 -0.3521 -1.2921
 6470SOL    HW231044   4.265   4.570   8.603 -1.8237 -0.3536 -0.7614
 6471SOL     OW31045   2.413   0.960   0.334  0.0983 -0.0250 -0.0774
 6471SOL    HW131046   2.452   1.032   0.384  0.8382  0.9228 -2.0089
 6471SOL    HW231047   2.426   0.980   0.242  0.2391  0.0186 -0.0484
 6472SOL     OW31048   2.088   2.443  12.422 -1.0465  0.3741 -0.4306
 6472SOL    HW131049   2.109   2.531  12.393 -0.9053  2.1715  5.2230
 6472SOL    HW231050   2.006   2.430  12.374 -1.7725 -0.5013  1.0724
 6473SOL     OW31051   0.848   4.273   5.329  0.6613 -0.4698  0.1725
 6473SOL    HW131052   0.895   4.305   5.406  0.3101 -2.0872  1.0524
 6473SOL    HW231053   0.884   4.184   5.333 -1.7895 -1.4760 -0.3810
 6474SOL     OW31054   4.678   3.438  17.375 -0.0273 -0.4347 -0.3616
 6474SOL    HW131055   0.007   3.409  17.434  0.1422 -0.4730 -0.5774
 6474SOL    HW231056   4.601   3.405  17.421  0.0303  1.0650  0.8034
 6475SOL     OW31057   3.283   4.096   1.588  0.4271 -0.2279  0.0279
 6475SOL    HW131058   3.340   4.141   1.526 -0.5920  0.7353 -0.2232
 6475SOL    HW231059   3.257   4.020   1.535  3.3237 -0.4757 -1.0228
 6476SOL     OW31060   0.102   0.924   2.357 -0.1538  0.2563 -0.1255
 6476SOL    HW131061   0.037   0.980   2.314 -2.1936 -0.3710  2.1463
 6476SOL    HW231062   0.078   0.924   2.449 -1.6282 -1.6240 -0.5166
 6477SOL     OW31063   2.538   2.864   6.822 -0.3700 -0.0830  0.1461
 6477SOL    HW131064   2.595   2.787   6.826  3.2095  2.4811 -1.6917
 6477SOL    HW231065   2.516   2.856   6.915 -0.3494  0.2491  0.1796
 6478SOL     OW31066   3.138   2.843   8.170 -0.6692 -0.4611  0.1572
 6478SOL    HW131067   3.075   2.896   8.218 -0.6810 -0.5525  0.2432
 6478SOL    HW231068   3.202   2.815   8.236 -1.0368 -1.8303 -0.0528
 6479SOL     OW31069   0.784   3.587   8.510 -0.0500 -0.4139  0.3161
 6479SOL    HW131070   0.738   3.550   8.586 -0.9645  3.9470  1.8669
 6479SOL    HW231071   0.750   3.524   8.447 -0.3669 -0.5907  0.6589
 6480SOL     OW31072   3.498   3.042   5.451  0.5385 -0.0712 -0.4786
 6480SOL    HW131073   3.570   3.020   5.392  1.2072 -0.4143  0.4561
 6480SOL    HW231074   3.534   3.113   5.505 -0.1062 -0.6617  0.7254
 6481SOL     OW31075   4.081   4.385   4.182  0.0945 -0.5206  0.0430
 6481SOL    HW131076   4.039   4.434   4.252  1.3219 -0.3767  0.6823
 6481SOL    HW231077   4.174   4.382   4.204  0.2756  1.6193 -0.4562
 6482SOL     OW31078   1.053   4.608   6.838 -0.5908  0.1976  0.0495
 6482SOL    HW131079   1.031   4.515   6.847 -1.9096  0.5839  0.7887
 6482SOL    HW231080   1.087   4.635   6.923  1.6474 -0.5627 -0.6171
 6483SOL     OW31081   1.172   3.599   2.082 -0.6794 -0.1071  0.1145
 6483SOL    HW131082   1.163   3.508   2.108  0.3718 -0.3726 -0.4208
 6483SOL    HW231083   1.087   3.637   2.102  0.1670  1.8601 -0.0187
 6484SOL     OW31084   2.225   1.958   4.181 -0.2113 -0.0198  0.9197
 6484SOL    HW131085   2.134   1.988   4.186 -0.9170 -1.9448 -0.5964
 6484SOL    HW231086   2.276   2.025   4.227  1.4238 -0.3821 -0.3515
 6485SOL     OW31087   0.684   2.988   6.699  0.1662 -0.1628 -0.1952
 6485SOL    HW131088   0.740   3.065   6.691  1.8625 -1.5596 -1.7558
 6485SOL    HW231089   0.599   3.016   6.666  0.1177  0.9527  0.8656
 6486SOL     OW31090   0.970   2.957   2.537 -0.0226 -0.6755 -0.3089
 6486SOL    HW131091   0.920   2.977   2.457  1.8717 -1.4158 -1.6708
 6486SOL    HW231092   0.990   3.045   2.569  1.0788 -1.1196  0.1768
 6487SOL     OW31093   1.817   1.377   3.691  0.1346  0.8012 -0.1468
 6487SOL    HW131094   1.769   1.295   3.679 -1.6700  1.6460  1.4005
 6487SOL    HW231095   1.788   1.420   3.611 -1.1287  2.8361  1.3944
 6488SOL     OW31096   2.530   2.124   8.045 -0.6076  0.6225 -0.6969
 6488SOL    HW131097   2.504   2.034   8.024  0.0962  0.2681 -0.0416
 6488SOL    HW231098   2.465   2.171   7.992 -2.1673  1.2206  1.7659
 6489SOL     OW31099   4.340   4.505  13.438 -0.6823  0.4558 -0.5608
 6489SOL    HW131100   4.305   4.573  13.496  0.9013  0.5168  0.3247
 6489SOL    HW231101   4.281   4.434  13.462 -0.5782  0.6052  0.1297
 6490SOL     OW31102   0.320   2.076   8.539 -0.2905 -0.6584  0.3666
 6490SOL    HW131103   0.394   2.109   8.590  0.6974 -1.4506 -0.5541
 6490SOL    HW231104   0.297   2.148   8.480  0.6588 -0.4111  0.2975
 6491SOL     OW31105   2.834   3.349   0.142  0.5533 -0.4276 -0.2287
 6491SOL    HW131106   2.742   3.325   0.152  0.3302  0.5291 -0.0175
 6491SOL    HW231107   2.874   3.262   0.142  0.0102 -0.6870  1.1277
 6492SOL     OW31108   1.343   4.200   7.672  0.6403  0.4586  0.5518
 6492SOL    HW131109   1.409   4.264   7.697  1.0346 -0.0337  0.7950
 6492SOL    HW231110   1.267   4.237   7.718  1.6041  0.8092  1.8559
 6493SOL     OW31111   4.330   1.758   6.776 -0.0627  0.4333 -0.3325
 6493SOL    HW131112   4.408   1.812   6.759  0.8217 -0.2844  1.4876
 6493SOL    HW231113   4.304   1.791   6.861  0.7648 -1.7517  0.7657
 6494SOL     OW31114   4.053   0.065   7.181 -0.2865  0.0573 -0.8954
 6494SOL    HW131115   4.109   4.736   7.215 -0.9508  0.4543  1.0011
 6494SOL    HW231116   4.053   0.125   7.256  1.2620 -1.0395 -0.0133
 6495SOL     OW31117   1.092   0.254   4.889 -0.5970  0.4142 -0.1262
 6495SOL    HW131118   1.104   0.179   4.948 -1.2997  0.8282  0.5427
 6495SOL    HW231119   1.169   0.306   4.912  1.8010 -0.9588 -4.9971
 6496SOL     OW31120   2.873   1.957   3.856  0.4997 -0.2316  0.6693
 6496SOL    HW131121   2.968   1.953   3.852  0.6131  1.4177  2.0400
 6496SOL    HW231122   2.870   2.029   3.919 -0.6494  0.3652 -0.0638
 6497SOL     OW31123   3.322   0.030   2.374  0.6013  0.1739 -0.6493
 6497SOL    HW131124   3.393   0.086   2.345  2.3500 -2.4247 -1.3479
 6497SOL    HW231125   3.339   0.016   2.467 -0.2758  0.4957 -0.4306
 6498SOL     OW31126   0.317   2.031   7.485 -0.1481 -0.2841 -0.6112
 6498SOL    HW131127   0.363   2.101   7.531 -1.5652 -0.5049  1.1390
 6498SOL    HW231128   0.377   1.958   7.476 -0.9103 -0.9303 -0.4492
 6499SOL     OW31129   4.353   3.814  17.471 -0.2698 -0.2868  0.0380
 6499SOL    HW131130   4.276   3.791  17.418 -1.1583  2.6997  0.0566
 6499SOL    HW231131   4.402   3.872  17.413 -1.2576 -0.3898 -0.8997
 6500SOL     OW31132   2.507   4.025   7.659 -0.2435  0.6482  0.0193
 6500SOL    HW131133   2.492   4.056   7.748 -0.6694  0.5049 -0.0050
 6500SOL    HW231134   2.529   4.112   7.626  1.1775  1.1850  2.3206
 6501SOL     OW31135   3.528   1.149   3.381 -0.0454  0.5271 -0.0104
 6501SOL    HW131136   3.579   1.151   3.462 -1.3782 -0.8662  0.8697
 6501SOL    HW231137   3.557   1.236   3.353 -3.4862  1.6141 -0.2324
 6502SOL     OW31138   1.376   2.655   2.614 -0.3523 -0.2910 -0.1139
 6502SOL    HW131139   1.451   2.611   2.654  0.6518  0.5479 -1.0632
 6502SOL    HW231140   1.410   2.744   2.608 -1.4464  0.0433 -1.4014
 6503SOL     OW31141   3.831   4.314   7.532 -0.0292 -0.2242  0.2020
 6503SOL    HW131142   3.788   4.341   7.452 -0.0517  2.3108  1.0605
 6503SOL    HW231143   3.897   4.253   7.499  0.9389  2.4144 -2.7007
 6504SOL     OW31144   3.418   2.090   8.895  0.0709 -0.1848 -0.0797
 6504SOL    HW131145   3.336   2.137   8.910 -0.0325 -0.5895  0.5870
 6504SOL    HW231146   3.454   2.097   8.984 -0.6223 -2.4305  0.3611
 6505SOL     OW31147   2.020   3.873   0.794 -0.0656 -0.3891 -0.3001
 6505SOL    HW131148   2.113   3.894   0.784  0.8641 -2.4752  3.8584
 6505SOL    HW231149   1.983   3.935   0.731 -0.3458 -0.2850 -0.0270
 6506SOL     OW31150   1.701   0.655   4.238  0.5021 -0.2408  0.3899
 6506SOL    HW131151   1.791   0.672   4.268  0.5770  2.4904 -1.4083
 6506SOL    HW231152   1.693   0.699   4.153 -2.4415 -0.8206  0.3853
 6507SOL     OW31153   2.681   0.494   1.849  0.4946 -0.5155  0.4679
 6507SOL    HW131154   2.725   0.576   1.872 -0.0674 -0.2139  0.4772
 6507SOL    HW231155   2.619   0.480   1.921 -1.6558  1.3298 -1.0400
 6508SOL     OW31156   0.303   4.571   7.756 -0.4585 -0.0061 -0.0527
 6508SOL    HW131157   0.371   4.503   7.756 -2.1134 -1.6636 -0.2629
 6508SOL    HW231158   0.268   4.555   7.669 -2.9901  0.4924  0.8810
 6509SOL     OW31159   1.248   1.403   6.385  0.2813  0.5532 -0.1029
 6509SOL    HW131160   1.283   1.441   6.305 -0.7242  3.7570  0.9941
 6509SOL    HW231161   1.241   1.483   6.437  0.0254 -0.5024  1.4930
 6510SOL     OW31162   2.384   0.140   8.582 -0.4362 -0.0976  0.3499
 6510SOL    HW131163   2.470   0.119   8.618 -0.6284 -0.7737  0.4069
 6510SOL    HW231164   2.393   0.124   8.488 -0.6302 -2.5433  0.7419
 6511SOL     OW31165   0.394   2.551   7.258  0.5460 -1.1334  0.5398
 6511SOL    HW131166   0.350   2.620   7.308 -0.0863 -0.3951 -1.0520
 6511SOL    HW231167   0.333   2.480   7.279 -1.0368  0.3545  0.9205
 6512SOL     OW31168   0.224   1.912   8.320  0.0565  0.3153  0.1925
 6512SOL    HW131169   0.264   1.955   8.395  1.6473 -1.5273  0.4067
 6512SOL    HW231170   0.134   1.943   8.333 -0.5905 -1.6418  0.4837
 6513SOL     OW31171   2.717   4.341   5.360 -0.2833  0.3258 -0.4087
 6513SOL    HW131172   2.722   4.278   5.431 -0.1782  1.1831  0.3497
 6513SOL    HW231173   2.761   4.311   5.280  0.2795  0.5835 -0.1958
 6514SOL     OW31174   2.219   0.368   8.636  0.3789 -0.2844  0.0490
 6514SOL    HW131175   2.277   0.294   8.654  0.4960 -0.3479 -0.5672
 6514SOL    HW231176   2.210   0.367   8.541 -0.8933  1.3738  0.1612
 6515SOL     OW31177   3.846   0.273  15.498  0.9201  0.3535  0.2397
 6515SOL    HW131178   3.813   0.200  15.445 -0.4850  0.0454  1.5267
 6515SOL    HW231179   3.885   0.335  15.436 -0.7262 -0.0210 -1.1940
 6516SOL     OW31180   1.693   2.535   4.214 -0.6496  0.1998 -0.4539
 6516SOL    HW131181   1.633   2.537   4.288  0.6527 -0.1396  0.5899
 6516SOL    HW231182   1.776   2.534   4.260 -0.1918 -1.8260 -1.3462
 6517SOL     OW31183   2.384   4.044   2.688  0.0219  0.3518  0.6371
 6517SOL    HW131184   2.293   4.017   2.676  0.2684 -0.5110  0.6936
 6517SOL    HW231185   2.389   4.123   2.634 -1.7085  0.0158 -0.0258
 6518SOL     OW31186   3.807   2.380   9.300 -0.1631 -0.0688 -0.0585
 6518SOL    HW131187   3.818   2.475   9.293  3.0197 -0.3385  1.2475
 6518SOL    HW231188   3.895   2.355   9.330  0.0454  1.1592  0.3630
 6519SOL     OW31189   2.353   0.369   6.100 -0.2382 -0.0326  0.1326
 6519SOL    HW131190   2.332   0.405   6.014  0.1700  0.2114  0.1372
 6519SOL    HW231191   2.319   0.436   6.160  0.2191 -0.7220  1.1626
 6520SOL     OW31192   4.512   0.092   0.509  0.8308 -0.0300  0.1397
 6520SOL    HW131193   4.571   0.019   0.489  2.2666  1.3393 -0.6856
 6520SOL    HW231194   4.488   0.066   0.597 -2.2779  0.1472 -0.6636
 6521SOL     OW31195   0.332   3.410   6.220 -0.3412  0.3817  0.3094
 6521SOL    HW131196   0.291   3.488   6.184  0.3774  1.0273  0.9088
 6521SOL    HW231197   0.393   3.450   6.282 -0.4904 -0.3363  0.9279
 6522SOL     OW31198   1.737   1.605   4.668  0.0274  0.9344  0.7359
 6522SOL    HW131199   1.807   1.548   4.701 -0.7956 -0.6631 -0.3025
 6522SOL    HW231200   1.682   1.621   4.744 -2.3774 -0.4305 -0.7324
 6523SOL     OW31201   2.973   0.694   2.845  0.2581  0.6713 -0.6810
 6523SOL    HW131202   3.017   0.760   2.792 -0.1986  1.5143 -0.0118
 6523SOL    HW231203   3.008   0.712   2.933  1.1658  1.2150 -1.1570
 6524SOL     OW31204   1.351   1.685   6.948 -0.3997  0.2830 -0.2623
 6524SOL    HW131205   1.404   1.617   6.990  1.2630 -0.3758 -3.4233
 6524SOL    HW231206   1.371   1.759   7.005 -0.7286  0.2303 -0.0791
 6525SOL     OW31207   2.011   4.659   0.960 -0.4891  0.3945 -0.6367
 6525SOL    HW131208   2.091   4.674   0.910 -0.2975  0.8614 -0.1951
 6525SOL    HW231209   1.984   4.736   1.010 -0.7540  0.6693 -1.2074
 6526SOL     OW31210   1.262   4.235   9.077 -0.1590  0.3060  0.6647
 6526SOL    HW131211   1.174   4.268   9.096 -0.4375 -0.2408  0.3414
 6526SOL    HW231212   1.305   4.305   9.028 -1.1927 -0.2873 -1.1162
 6527SOL     OW31213   3.706   4.098  11.501 -0.3053 -0.1503 -0.1073
 6527SOL    HW131214   3.760   4.057  11.433  1.6457 -0.3681  1.5629
 6527SOL    HW231215   3.673   4.024  11.553  0.5713 -0.2346  0.3339
 6528SOL     OW31216   2.659   0.291   0.531 -0.1368  0.0542  0.0657
 6528SOL    HW131217   2.635   0.283   0.439  1.3216  0.0829 -0.3211
 6528SOL    HW231218   2.573   0.285   0.571 -0.4925  2.9359 -0.2166
 6529SOL     OW31219   0.241   0.667   7.099 -0.4899 -0.2513 -0.1632
 6529SOL    HW131220   0.178   0.730   7.062  1.9128  1.3510 -1.5067
 6529SOL    HW231221   0.201   0.638   7.181  1.7937  0.3546  1.1512
 6530SOL     OW31222   2.214   0.250  13.337 -0.3960 -0.2131  0.5435
 6530SOL    HW131223   2.217   0.339  13.370  0.4385  0.1194 -0.4320
 6530SOL    HW231224   2.124   0.225  13.315 -0.3510 -1.9663  2.2821
 6531SOL     OW31225   2.942   2.227   2.464 -0.8233 -0.0060  0.4108
 6531SOL    HW131226   2.898   2.308   2.490 -2.3116 -0.4630 -0.6604
 6531SOL    HW231227   3.035   2.244   2.476 -0.7139 -0.5921  0.4174
 6532SOL     OW31228   2.476   1.340   3.683 -0.1465 -0.2155  0.3312
 6532SOL    HW131229   2.444   1.429   3.673  0.8673  0.4585  3.0664
 6532SOL    HW231230   2.469   1.340   3.779 -0.3931 -1.9997  0.3288
 6533SOL     OW31231   1.310   3.592  11.460  0.2896  0.2390  0.1068
 6533SOL    HW131232   1.232   3.551  11.496  0.5695 -0.2781  0.1331
 6533SOL    HW231233   1.279   3.594  11.369 -1.5486 -1.8292  0.6877
 6534SOL     OW31234   3.636   3.223   7.835  0.3900 -0.0864 -0.1373
 6534SOL    HW131235   3.619   3.130   7.854  0.1755  0.1960  1.1029
 6534SOL    HW231236   3.721   3.239   7.877  0.3075 -0.2230  0.0852
 6535SOL     OW31237   3.379   3.554  10.798 -0.0737  0.0323  0.5445
 6535SOL    HW131238   3.422   3.630  10.759 -0.0283  0.4210  1.3576
 6535SOL    HW231239   3.452   3.516  10.848  0.0617  0.5125  0.7096
 6536SOL     OW31240   4.087   4.017  17.406 -0.0238 -0.1459  0.3724
 6536SOL    HW131241   4.125   3.966  17.335  0.3204  1.2970 -0.4866
 6536SOL    HW231242   3.992   4.018  17.397  0.2264  0.5480 -2.0848
 6537SOL     OW31243   4.596   2.115   3.045 -0.1811 -0.0198  0.0192
 6537SOL    HW131244   4.568   2.189   3.099  1.3367  0.8574 -0.3947
 6537SOL    HW231245   4.690   2.118   3.061 -0.3772  1.5009  0.8433
 6538SOL     OW31246   4.163   0.830   1.201  0.4523 -0.2764  0.6232
 6538SOL    HW131247   4.167   0.799   1.111 -1.2132 -1.8169  1.0787
 6538SOL    HW231248   4.069   0.822   1.212  0.5857 -2.6310  0.1043
 6539SOL     OW31249   3.046   0.637   7.358  0.5470 -0.7621  0.4886
 6539SOL    HW131250   3.077   0.704   7.297  0.7080 -0.2515  1.1328
 6539SOL    HW231251   2.974   0.601   7.307  0.4298  0.9911 -0.6081
 6540SOL     OW31252   0.073   3.778   4.556 -0.0261  0.2280  0.7836
 6540SOL    HW131253   0.111   3.853   4.510 -0.6514 -0.9749 -1.7068
 6540SOL    HW231254   0.038   3.823   4.633 -0.1283  3.3237 -1.1045
 6541SOL     OW31255   2.270   1.886   6.284 -0.7858 -0.0151  0.4028
 6541SOL    HW131256   2.334   1.825   6.247 -0.7206  0.4252 -0.2019
 6541SOL    HW231257   2.203   1.892   6.217 -0.5837 -1.0775  0.1031
 6542SOL     OW31258   3.155   4.340   5.744 -0.4725  0.1152  0.6840
 6542SOL    HW131259   3.118   4.255   5.721 -1.5987  0.8175 -0.0843
 6542SOL    HW231260   3.153   4.386   5.660 -1.7813  1.6701  1.5735
 6543SOL     OW31261   1.219   4.422   3.039 -0.0196  0.2617 -0.1532
 6543SOL    HW131262   1.219   4.518   3.033 -1.1918  0.1002 -2.7132
 6543SOL    HW231263   1.222   4.408   3.134  0.6096 -2.7940 -0.6365
 6544SOL     OW31264   2.201   4.550   2.318  0.5611  0.4404  0.0327
 6544SOL    HW131265   2.242   4.469   2.285 -1.2900 -1.4515  2.3423
 6544SOL    HW231266   2.125   4.516   2.364  1.5887  0.4947  1.7498
 6545SOL     OW31267   0.572   4.031  14.573  0.1193 -0.0438  0.0570
 6545SOL    HW131268   0.522   3.989  14.643 -0.4012  0.2472 -0.1417
 6545SOL    HW231269   0.637   3.962  14.556  2.1090  2.2574 -1.6209
 6546SOL     OW31270   3.559   0.824  15.916  0.2804 -0.4960  1.0273
 6546SOL    HW131271   3.534   0.814  15.824 -0.5413  0.8221  1.1141
 6546SOL    HW231272   3.639   0.873  15.899 -1.3660  1.1595 -1.9235
 6547SOL     OW31273   2.948   3.762   8.300 -0.3890 -0.2097 -0.1080
 6547SOL    HW131274   2.994   3.727   8.224 -0.6444 -1.1729  0.1816
 6547SOL    HW231275   2.987   3.707   8.368  2.0995 -1.4503 -2.5565
 6548SOL     OW31276   0.375   0.039  14.886 -0.2652 -0.3694  0.0042
 6548SOL    HW131277   0.283   0.060  14.868 -0.7550 -1.7421  0.9091
 6548SOL    HW231278   0.364   4.685  14.895 -0.8969 -0.2255  0.7394
 6549SOL     OW31279   1.434   0.615   5.866  0.3925  0.1672  0.1151
 6549SOL    HW131280   1.382   0.569   5.800  1.5729  0.0531 -0.7113
 6549SOL    HW231281   1.519   0.572   5.874  1.1505  1.5723 -0.6538
 6550SOL     OW31282   0.292   4.381   2.402  0.0571 -0.2898 -0.1577
 6550SOL    HW131283   0.205   4.418   2.417  0.6227  1.1296 -0.3750
 6550SOL    HW231284   0.320   4.440   2.332  0.4603  0.1069  0.3431
 6551SOL     OW31285   2.316   0.306   4.753  0.2551 -0.0632 -0.5837
 6551SOL    HW131286   2.329   0.369   4.682 -2.4396 -0.4242 -1.3848
 6551SOL    HW231287   2.409   0.305   4.776  0.9311 -0.0231 -3.3415
 6552SOL     OW31288   1.811   1.612   1.733 -0.3621 -0.1439  0.3695
 6552SOL    HW131289   1.767   1.686   1.691  2.1452  0.2964 -1.4869
 6552SOL    HW231290   1.749   1.539   1.736 -1.1678  0.5328  0.1821
 6553SOL     OW31291   2.480   3.268  17.384  0.1142  0.2453 -0.5237
 6553SOL    HW131292   2.488   3.179  17.420  3.5916  0.7286 -0.1145
 6553SOL    HW231293   2.482   3.320  17.465  0.3904 -0.7808  0.1356
 6554SOL     OW31294   1.928   2.835   3.185 -0.1866 -0.5373 -0.6840
 6554SOL    HW131295   1.896   2.801   3.102  2.8451 -1.4118 -1.4996
 6554SOL    HW231296   1.970   2.758   3.224  2.7445  1.7623  0.7683
 6555SOL     OW31297   2.502   3.574   5.808  0.0365 -0.4267 -0.1789
 6555SOL    HW131298   2.476   3.636   5.876  1.5009 -1.2083  1.1097
 6555SOL    HW231299   2.556   3.514   5.861 -0.4806 -1.2122 -0.5392
 6556SOL     OW31300   3.218   1.953  13.244  0.0455 -0.0562  0.0750
 6556SOL    HW131301   3.163   1.942  13.321 -2.0602 -2.4744 -1.7709
 6556SOL    HW231302   3.187   1.883  13.186  1.0560  0.5548 -1.2095
 6557SOL     OW31303   4.617   1.616   7.181 -0.0255 -0.4903 -0.4362
 6557SOL    HW131304   4.676   1.691   7.173 -0.7457  0.3298  1.8881
 6557SOL    HW231305   4.664   1.565   7.248 -2.3476 -0.7815  0.9943
 6558SOL     OW31306   3.091   2.402   5.046  0.0545 -0.4484 -0.4770
 6558SOL    HW131307   3.185   2.399   5.062 -0.3135 -1.2990  1.5365
 6558SOL    HW231308   3.083   2.322   4.994 -1.2065  0.5855 -1.8703
 6559SOL     OW31309   4.547   4.608   0.799 -0.6699  0.1361  0.3840
 6559SOL    HW131310   4.529   4.621   0.892  1.0952 -0.7166  0.8275
 6559SOL    HW231311   4.516   4.518   0.787  0.2450  0.2443 -2.8125
 6560SOL     OW31312   0.503   2.672   1.456  0.2832 -0.2638 -0.0745
 6560SOL    HW131313   0.499   2.666   1.360  0.3091  2.9647 -0.2551
 6560SOL    HW231314   0.582   2.725   1.465 -1.3308  2.1896 -0.5054
 6561SOL     OW31315   1.953   2.391   0.361  0.5173  0.0198  0.3443
 6561SOL    HW131316   2.042   2.404   0.328  0.5529 -1.4906 -0.1344
 6561SOL    HW231317   1.929   2.483   0.350 -1.5169 -0.4232  1.1853
 6562SOL     OW31318   4.437   3.300   2.590 -0.0574  0.1484  0.0207
 6562SOL    HW131319   4.499   3.271   2.656 -0.5271  0.0327  0.4108
 6562SOL    HW231320   4.484   3.274   2.510 -0.6617  1.1791 -0.6785
 6563SOL     OW31321   3.120   1.648   2.990 -0.0984  0.1474  0.1891
 6563SOL    HW131322   3.174   1.596   3.049 -0.0780  1.0755  0.9837
 6563SOL    HW231323   3.147   1.610   2.906 -1.5779  0.8162 -0.6088
 6564SOL     OW31324   2.588   3.007   5.359  0.4946  0.9621 -0.2345
 6564SOL    HW131325   2.681   2.985   5.357  0.1581 -0.2494 -2.0089
 6564SOL    HW231326   2.549   2.925   5.390 -0.5019  1.4993 -0.0689
 6565SOL     OW31327   3.790   3.331   1.978  0.0808  0.2257 -0.3657
 6565SOL    HW131328   3.734   3.336   2.055 -0.3290  0.0231 -0.6485
 6565SOL    HW231329   3.733   3.285   1.916 -0.4275  1.0849 -0.5386
 6566SOL     OW31330   2.361   0.060   6.981 -0.1182  0.3862 -0.0189
 6566SOL    HW131331   2.363   0.148   7.020 -0.0111  0.9784 -1.3620
 6566SOL    HW231332   2.333   0.005   7.054  0.2144 -0.2840 -0.4028
 6567SOL     OW31333   3.683   1.682   2.657 -0.0499  0.7759  0.5564
 6567SOL    HW131334   3.740   1.616   2.698 -0.3579 -1.0350 -1.9425
 6567SOL    HW231335   3.743   1.705   2.586 -0.1500  1.4072  0.6811
 6568SOL     OW31336   1.658   2.054  12.049 -0.8704  0.1652  0.0954
 6568SOL    HW131337   1.680   2.134  12.097  0.6105  1.1836 -2.3014
 6568SOL    HW231338   1.601   2.002  12.106 -0.1963 -0.5345  0.1258
 6569SOL     OW31339   3.939   3.511   9.297 -0.0682  0.2874  0.5132
 6569SOL    HW131340   3.959   3.432   9.248  0.4860 -0.0119  1.2269
 6569SOL    HW231341   3.934   3.573   9.224  0.2015 -2.4619 -1.8006
 6570SOL     OW31342   4.528   1.956   5.673 -0.1192  0.2554 -0.4219
 6570SOL    HW131343   4.525   2.050   5.693  0.1624  0.0927  0.3951
 6570SOL    HW231344   4.624   1.954   5.677 -0.1031  0.7558 -0.6158
 6571SOL     OW31345   4.064   0.414  13.896  0.1709 -0.7855  0.1980
 6571SOL    HW131346   3.971   0.438  13.906  0.5011  1.2319 -1.4614
 6571SOL    HW231347   4.097   0.415  13.986 -1.1041  0.8548  0.6565
 6572SOL     OW31348   2.951   2.240   8.685 -0.4312 -0.8013 -0.5979
 6572SOL    HW131349   2.904   2.266   8.764 -1.1482 -0.4853 -1.1250
 6572SOL    HW231350   3.007   2.172   8.723 -0.2351  0.9221  2.1863
 6573SOL     OW31351   4.141   1.909  12.022  0.2377  0.2443  0.1675
 6573SOL    HW131352   4.138   1.970  12.096  1.7391 -1.5845  1.7172
 6573SOL    HW231353   4.135   1.970  11.948  0.1509 -0.4404 -0.3893
 6574SOL     OW31354   4.195   0.798   3.166  0.0046 -0.4697  0.1385
 6574SOL    HW131355   4.280   0.760   3.187 -0.2794 -1.3344 -0.2721
 6574SOL    HW231356   4.198   0.881   3.213 -0.4717  0.0271 -0.7164
 6575SOL     OW31357   3.526   3.548   4.205 -0.1002 -0.1774 -0.0900
 6575SOL    HW131358   3.579   3.470   4.187 -0.3778 -0.7043  1.3534
 6575SOL    HW231359   3.487   3.554   4.118  0.8229  2.9515 -0.3043
 6576SOL     OW31360   4.411   1.345   8.079  0.1040  0.0060 -0.6019
 6576SOL    HW131361   4.494   1.365   8.124 -1.8110  1.2609  2.3521
 6576SOL    HW231362   4.410   1.406   8.005 -1.1994  0.7709  0.0582
 6577SOL     OW31363   0.176   4.330   0.229  0.6728  0.1523 -0.1086
 6577SOL    HW131364   0.146   4.241   0.214 -1.3763  0.4251  2.3375
 6577SOL    HW231365   0.180   4.317   0.324 -0.7836  0.9089  0.0568
 6578SOL     OW31366   3.769   0.488  14.156  0.1121 -0.0126 -0.3692
 6578SOL    HW131367   3.728   0.574  14.170  2.7939  1.5508 -2.1007
 6578SOL    HW231368   3.723   0.474  14.073  0.9382 -1.3125 -0.5975
 6579SOL     OW31369   0.647   0.404   6.916 -0.7017 -0.3058  0.1336
 6579SOL    HW131370   0.559   0.429   6.945  0.9118  2.1158  2.9289
 6579SOL    HW231371   0.666   0.349   6.991  0.9488  0.9789  0.6420
 6580SOL     OW31372   3.170   3.466   2.412  0.0329  0.2504 -0.2742
 6580SOL    HW131373   3.188   3.505   2.326 -1.1550  0.0512 -0.6026
 6580SOL    HW231374   3.111   3.395   2.387 -0.4062  0.6131 -0.2729
 6581SOL     OW31375   0.834   2.247   6.051 -0.5253 -0.0568  0.0607
 6581SOL    HW131376   0.773   2.320   6.057 -2.1637 -1.4184 -0.0075
 6581SOL    HW231377   0.892   2.269   6.124  0.7384 -0.7269 -0.7210
 6582SOL     OW31378   4.031   2.583   7.296 -0.1015 -0.4036  0.3366
 6582SOL    HW131379   4.016   2.543   7.382  2.0490  0.5729  1.1695
 6582SOL    HW231380   4.119   2.556   7.272 -0.8905  0.0045 -3.0202
 6583SOL     OW31381   2.136   3.511   5.797  0.4773 -0.0392 -0.1416
 6583SOL    HW131382   2.054   3.467   5.819  1.9517 -3.0269 -0.6351
 6583SOL    HW231383   2.202   3.453   5.834  1.2489  0.5213 -0.6299
 6584SOL     OW31384   0.200   0.196   8.058 -0.0477 -0.1324  0.1012
 6584SOL    HW131385   0.174   0.104   8.051 -0.2148 -0.2280  1.9956
 6584SOL    HW231386   0.142   0.231   8.126  2.8784  0.4242  2.3440
 6585SOL     OW31387   4.246   4.719   8.690 -0.3366 -0.4334 -0.0231
 6585SOL    HW131388   4.213   0.066   8.710  0.3292 -0.1626 -0.1180
 6585SOL    HW231389   4.252   4.677   8.775 -3.1562  1.6154  1.1986
 6586SOL     OW31390   2.862   3.023   4.981 -0.0575 -0.1062  0.0110
 6586SOL    HW131391   2.925   2.956   5.006 -1.3007 -1.0176  0.6739
 6586SOL    HW231392   2.776   2.983   4.982  0.0136 -0.2241  0.9506
 6587SOL     OW31393   4.053   3.198   9.395  0.1653 -0.1875 -0.4663
 6587SOL    HW131394   4.148   3.205   9.395  0.3758 -3.1145  0.6264
 6587SOL    HW231395   4.041   3.184   9.489  0.3717 -0.3491 -0.4667
 6588SOL     OW31396   1.810   4.738   7.871  0.1981  0.7092  0.2185
 6588SOL    HW131397   1.899   4.711   7.894 -0.5956 -0.5696  1.8750
 6588SOL    HW231398   1.781   4.676   7.804 -1.4062  0.9041  0.7271
 6589SOL     OW31399   0.206   2.335   1.934  0.3500 -0.4553  0.2665
 6589SOL    HW131400   0.184   2.309   1.844 -0.7221  1.2270  0.0301
 6589SOL    HW231401   0.122   2.311   1.973 -0.8902  0.7270 -1.6621
 6590SOL     OW31402   2.978   0.025   6.543 -0.2577  0.6304 -0.7017
 6590SOL    HW131403   2.985   4.723   6.628  1.4603  1.7898 -0.2501
 6590SOL    HW231404   3.002   4.693   6.486  0.7130  0.5132 -0.1503
 6591SOL     OW31405   3.405   1.377   1.481 -0.1161  0.5653 -0.6594
 6591SOL    HW131406   3.450   1.294   1.466  0.5371  0.9495 -0.8312
 6591SOL    HW231407   3.395   1.407   1.390 -2.2109  1.3456 -0.1634
 6592SOL     OW31408   0.311   1.840  12.004  0.1300 -0.4037  0.3835
 6592SOL    HW131409   0.230   1.818  11.958 -1.0168  3.3063  0.6124
 6592SOL    HW231410   0.365   1.761  12.010  0.6420 -0.1023 -0.3397
 6593SOL     OW31411   3.346   0.383  13.005  0.0153  0.0940  0.0208
 6593SOL    HW131412   3.368   0.335  12.925 -0.3912 -0.7724  0.4329
 6593SOL    HW231413   3.437   0.410  13.010  0.1822 -0.2890 -0.9224
 6594SOL     OW31414   1.214   0.349  11.538 -0.0446 -0.0570 -0.0992
 6594SOL    HW131415   1.263   0.349  11.455  0.5910 -1.3913  0.2691
 6594SOL    HW231416   1.257   0.280  11.589 -0.3863 -0.8195 -0.8238
 6595SOL     OW31417   2.956   1.336   2.327  0.0934  0.4163  0.0555
 6595SOL    HW131418   2.982   1.244   2.324  2.1423  1.0118  0.0895
 6595SOL    HW231419   3.043   1.374   2.319  0.1792  0.4447  1.1139
 6596SOL     OW31420   4.367   3.857   9.788  0.7371 -0.7669 -0.2323
 6596SOL    HW131421   4.457   3.885   9.810  0.2397 -0.1153  0.9774
 6596SOL    HW231422   4.323   3.910   9.854 -1.2297 -2.6496 -0.0636
 6597SOL     OW31423   2.043   0.574  13.051 -0.4265  0.2077  0.4627
 6597SOL    HW131424   2.016   0.482  13.047 -1.3776  0.5496 -1.2321
 6597SOL    HW231425   1.966   0.609  13.095 -1.4329 -0.2044 -0.9573
 6598SOL     OW31426   4.463   1.132   4.009 -0.0002 -0.0507  0.2336
 6598SOL    HW131427   4.421   1.057   4.052 -0.6252  1.4442  2.2388
 6598SOL    HW231428   4.417   1.206   4.050 -0.8738 -0.0436 -0.7493
 6599SOL     OW31429   3.939   3.525  13.299 -0.7755  0.1225 -0.6714
 6599SOL    HW131430   4.007   3.579  13.340  0.1603 -1.8289  0.3312
 6599SOL    HW231431   3.993   3.503  13.223  1.0034  2.3297 -0.0299
 6600SOL     OW31432   0.864   1.483   2.618  0.4395  0.0774  0.4150
 6600SOL    HW131433   0.957   1.467   2.603  0.1173 -1.3808 -0.0920
 6600SOL    HW231434   0.842   1.538   2.543  0.1717  0.6661  0.9301
 6601SOL     OW31435   1.002   3.422   3.127  0.6291 -0.0852 -0.2358
 6601SOL    HW131436   1.059   3.398   3.200  1.7834  0.2524 -1.0279
 6601SOL    HW231437   1.068   3.431   3.058  0.9854  0.9491  0.2481
 6602SOL     OW31438   1.441   3.157  17.574 -0.1061  0.2580  0.2865
 6602SOL    HW131439   1.425   3.139  17.481 -2.4808 -1.3556  1.0010
 6602SOL    HW231440   1.399   3.242  17.587  1.2854  0.5912  2.4675
 6603SOL     OW31441   1.729   1.242   2.817 -0.3442 -0.2885  0.5836
 6603SOL    HW131442   1.728   1.153   2.851  1.1016 -1.1503 -1.6350
 6603SOL    HW231443   1.776   1.289   2.887  1.5533 -0.1364 -0.8007
 6604SOL     OW31444   0.759   1.749   8.406  0.3749 -0.4924 -1.1004
 6604SOL    HW131445   0.715   1.705   8.333  0.7702 -1.0573 -1.0027
 6604SOL    HW231446   0.693   1.802   8.450  0.2801 -1.1287 -0.4741
 6605SOL     OW31447   0.143   2.203  10.381 -0.0509  0.0855  0.7328
 6605SOL    HW131448   0.202   2.253  10.324 -0.5127  1.9508  1.8913
 6605SOL    HW231449   0.181   2.228  10.465  2.7851  2.5054 -1.2373
 6606SOL     OW31450   2.893   0.473   7.195  0.1284 -0.5815 -0.0725
 6606SOL    HW131451   2.889   0.538   7.124 -1.8307  0.1004  0.6539
 6606SOL    HW231452   2.818   0.416   7.179 -1.2114  2.0326 -3.1898
 6607SOL     OW31453   1.259   0.445   0.328  0.3356  0.2686 -0.5651
 6607SOL    HW131454   1.184   0.388   0.345 -0.0436  0.4168 -1.7394
 6607SOL    HW231455   1.246   0.510   0.397 -2.7023  0.2180 -1.1055
 6608SOL     OW31456   2.919   1.057  12.431 -0.1713 -0.0777 -0.1697
 6608SOL    HW131457   2.831   1.025  12.410 -0.4782 -0.0153  1.0524
 6608SOL    HW231458   2.967   1.053  12.348 -0.8585 -0.4596 -0.5590
 6609SOL     OW31459   0.046   1.335  17.628  0.2979 -0.5877  0.0410
 6609SOL    HW131460   0.015   1.250  17.595  2.4569  0.8503 -5.7008
 6609SOL    HW231461   4.737   1.345  17.710  3.2576  0.4776  1.7063
 6610SOL     OW31462   2.755   4.065   4.736 -0.4320  0.2593  0.4386
 6610SOL    HW131463   2.678   4.094   4.785 -0.5943 -0.9854  0.9185
 6610SOL    HW231464   2.825   4.117   4.776 -1.1203  0.4365  1.4210
 6611SOL     OW31465   1.116   0.009   3.730 -0.2257  0.4042 -0.0795
 6611SOL    HW131466   1.164   0.082   3.692 -2.2773  0.8670 -1.8172
 6611SOL    HW231467   1.147   4.683   3.669 -0.8021 -1.0159  1.2034
 6612SOL     OW31468   0.904   4.353   1.132 -0.0516  0.6685 -0.6472
 6612SOL    HW131469   0.971   4.372   1.066  0.1397 -0.3771 -0.7527
 6612SOL    HW231470   0.947   4.313   1.207 -0.1171  1.5271 -0.1566
 6613SOL     OW31471   0.358   0.395  11.875  0.0376  0.2134 -0.1812
 6613SOL    HW131472   0.363   0.302  11.898  1.2042  0.0991 -0.9348
 6613SOL    HW231473   0.264   0.403  11.857  0.2335  1.4949 -0.5905
 6614SOL     OW31474   1.112   4.222   3.828 -0.3389 -0.5603 -0.6674
 6614SOL    HW131475   1.179   4.233   3.894 -1.2347  0.8745  0.0031
 6614SOL    HW231476   1.092   4.129   3.842 -0.6032 -0.1542  1.6438
 6615SOL     OW31477   1.572   2.594   8.544 -0.3920  0.1190 -0.1357
 6615SOL    HW131478   1.610   2.672   8.584 -1.1759  1.2534 -1.6144
 6615SOL    HW231479   1.595   2.627   8.458  0.6508 -1.6685 -0.5497
 6616SOL     OW31480   2.040   2.913   3.513 -0.5352 -0.1576 -0.1900
 6616SOL    HW131481   2.102   2.983   3.532  1.6808 -1.9043 -0.8028
 6616SOL    HW231482   1.973   2.973   3.481 -0.3499 -0.2317 -0.7283
 6617SOL     OW31483   2.340   1.294  14.431  0.3929  0.0596 -0.1787
 6617SOL    HW131484   2.398   1.352  14.480  0.2308 -1.2706  1.6224
 6617SOL    HW231485   2.306   1.244  14.505  0.9509 -0.7369 -0.4462
 6618SOL     OW31486   2.999   3.239   8.739 -0.6981  0.0545 -0.3584
 6618SOL    HW131487   3.016   3.333   8.736 -0.8307  0.1462  1.7892
 6618SOL    HW231488   2.904   3.236   8.749 -0.5618  1.7503  1.3920
 6619SOL     OW31489   3.088   0.230   4.724  0.0908  0.2840 -0.3505
 6619SOL    HW131490   3.034   0.209   4.648  0.6350  1.9230 -1.1883
 6619SOL    HW231491   3.035   0.194   4.795  0.8232 -0.5967 -0.2517
 6620SOL     OW31492   3.062   4.677   8.326  0.6037 -0.2551 -0.2543
 6620SOL    HW131493   3.057   0.003   8.257  1.6839  0.1933  0.1004
 6620SOL    HW231494   3.084   4.591   8.290 -1.9662 -2.1466  2.7563
 6621SOL     OW31495   2.796   1.036  12.684  0.1204 -0.1125 -0.4003
 6621SOL    HW131496   2.811   0.943  12.665  2.3713  0.2242 -0.2941
 6621SOL    HW231497   2.857   1.064  12.616  2.8730 -0.7502  1.7961
 6622SOL     OW31498   0.700   0.982   7.579  0.1161  0.4112  0.0753
 6622SOL    HW131499   0.627   0.929   7.612  1.8107 -1.8051  0.2516
 6622SOL    HW231500   0.768   0.931   7.622 -2.4905 -2.3603  0.8922
 6623SOL     OW31501   4.687   0.488   1.410  0.6248 -0.2733  0.8858
 6623SOL    HW131502   4.739   0.443   1.477 -0.2395 -2.1276  0.3230
 6623SOL    HW231503   4.605   0.508   1.457 -0.9552 -1.3755 -1.4025
 6624SOL     OW31504   0.141   0.772   7.811 -0.6854  0.3039 -0.4192
 6624SOL    HW131505   0.088   0.785   7.890 -0.0574  0.9037 -0.1046
 6624SOL    HW231506   0.228   0.793   7.845 -0.3189  0.5054 -1.4896
 6625SOL     OW31507   4.593   0.542   4.520 -0.7813  0.0906 -0.0494
 6625SOL    HW131508   4.584   0.594   4.440 -0.8230 -0.7897 -0.6270
 6625SOL    HW231509   4.665   0.484   4.494 -1.4418 -0.8989  0.3143
 6626SOL     OW31510   1.146   2.444   5.381  0.0206  0.0409  0.0872
 6626SOL    HW131511   1.173   2.402   5.462  0.1629  1.6422  0.8791
 6626SOL    HW231512   1.179   2.534   5.383 -1.4982  0.5970  0.0994
 6627SOL     OW31513   0.601   2.698   6.714  0.1907 -0.1725 -0.2676
 6627SOL    HW131514   0.652   2.645   6.774  0.7461  2.4805  1.6030
 6627SOL    HW231515   0.652   2.778   6.705  0.1629 -0.0609  0.5142
 6628SOL     OW31516   3.016   2.776   4.016 -0.3874  0.3032 -0.0178
 6628SOL    HW131517   3.096   2.756   4.064 -1.0459 -1.0194  0.5455
 6628SOL    HW231518   2.966   2.695   4.005  0.2933 -0.1118 -0.0054
 6629SOL     OW31519   0.938   0.986   7.929 -0.5335  0.0331 -0.3552
 6629SOL    HW131520   0.968   0.974   7.839 -1.1756  1.3330 -0.7352
 6629SOL    HW231521   0.845   0.966   7.919 -0.5443 -0.6475  1.1432
 6630SOL     OW31522   3.348   1.008  12.212 -0.5718 -0.5530  0.1044
 6630SOL    HW131523   3.426   1.050  12.177 -0.9605 -1.2960 -1.6576
 6630SOL    HW231524   3.362   0.920  12.178  0.9999 -0.9026  1.6430
 6631SOL     OW31525   2.442   4.649   1.117 -0.1508 -0.3912  0.0819
 6631SOL    HW131526   2.538   4.644   1.118 -0.0896  0.5138 -1.0381
 6631SOL    HW231527   2.425   4.738   1.148  1.3173 -0.1895  0.2994
 6632SOL     OW31528   4.614   0.638   7.182 -0.6938  0.7547 -0.3635
 6632SOL    HW131529   4.539   0.697   7.190 -0.9471  0.5649 -1.3516
 6632SOL    HW231530   4.570   0.555   7.197 -1.3961  1.3909  1.0865
 6633SOL     OW31531   1.273   3.976   9.146  0.2537  0.0055 -0.0655
 6633SOL    HW131532   1.201   3.964   9.085 -0.8733 -0.6826  1.4010
 6633SOL    HW231533   1.277   4.072   9.149  2.2048 -0.0292 -1.0386
 6634SOL     OW31534   1.160   3.318   3.311 -0.3881 -0.4365  0.4441
 6634SOL    HW131535   1.198   3.360   3.388 -0.3025  0.2204  0.0390
 6634SOL    HW231536   1.234   3.277   3.266 -0.8356 -2.0896  1.2201
 6635SOL     OW31537   2.342   2.003   3.811 -0.2212  0.4074  0.1810
 6635SOL    HW131538   2.410   2.062   3.780  1.3567 -1.6576 -0.3031
 6635SOL    HW231539   2.295   1.990   3.728 -0.1561  0.3431  0.1540
 6636SOL     OW31540   0.542   3.699   5.344  0.2203 -0.1004  0.4012
 6636SOL    HW131541   0.479   3.669   5.409 -1.5815  2.4976 -0.1590
 6636SOL    HW231542   0.514   3.659   5.262 -2.1748 -2.1401  2.1964
 6637SOL     OW31543   4.119   1.620   9.232 -0.4965 -0.4139 -0.1095
 6637SOL    HW131544   4.180   1.634   9.160 -1.2678 -1.7150 -1.0174
 6637SOL    HW231545   4.036   1.619   9.184 -0.7352 -0.0090  0.2978
 6638SOL     OW31546   2.155   2.304  14.672 -0.2171 -0.0478  0.1116
 6638SOL    HW131547   2.177   2.317  14.579 -0.6680 -3.4052 -0.4490
 6638SOL    HW231548   2.073   2.354  14.669  0.8745  1.7107 -0.5001
 6639SOL     OW31549   4.198   3.585   9.424  0.2672  0.2709  0.3214
 6639SOL    HW131550   4.103   3.593   9.430 -0.1270 -2.7468 -2.1248
 6639SOL    HW231551   4.221   3.498   9.457  0.6958  0.2576 -0.0052
 6640SOL     OW31552   4.063   2.063   2.110  0.2835  0.0355  0.0823
 6640SOL    HW131553   4.134   2.100   2.164  0.0034 -0.0689  0.5233
 6640SOL    HW231554   4.097   2.088   2.024 -0.3796 -0.5260 -0.3418
 6641SOL     OW31555   2.600   1.008  10.958 -0.1123  0.3998 -0.3320
 6641SOL    HW131556   2.508   1.025  10.939  0.0121  2.3208  0.8459
 6641SOL    HW231557   2.627   1.098  10.977 -1.4848  0.9645 -1.0214
 6642SOL     OW31558   3.494   2.525   1.563 -0.7428 -1.0432 -0.1891
 6642SOL    HW131559   3.468   2.489   1.648  0.9242  0.5626  1.0170
 6642SOL    HW231560   3.505   2.616   1.591  0.2376 -0.8731 -1.1382
 6643SOL     OW31561   0.308   1.431   2.528 -0.0976  0.1514 -0.3998
 6643SOL    HW131562   0.271   1.393   2.449  0.3353  0.1653 -0.6085
 6643SOL    HW231563   0.356   1.355   2.562  0.7070  0.6554 -0.4054
 6644SOL     OW31564   0.896   2.089   6.949 -0.1658 -0.0912 -0.5113
 6644SOL    HW131565   0.985   2.125   6.955  0.6295 -2.4169  1.3579
 6644SOL    HW231566   0.835   2.150   6.991  1.3368  0.3954  0.9584
 6645SOL     OW31567   4.627   0.888   2.999  0.2421 -0.3700 -0.1506
 6645SOL    HW131568   4.685   0.818   2.969 -0.8505 -0.3263 -2.3712
 6645SOL    HW231569   4.544   0.841   3.004 -0.4010  1.0125  2.1869
 6646SOL     OW31570   3.889   1.674  17.067 -0.2301  0.8276 -0.3996
 6646SOL    HW131571   3.815   1.682  17.128  0.6562  0.4027  0.7337
 6646SOL    HW231572   3.957   1.671  17.135  0.7218  1.5063 -1.3336
 6647SOL     OW31573   4.064   3.159   4.899  0.0477 -0.6194 -0.3682
 6647SOL    HW131574   4.012   3.079   4.888 -1.5258  0.5234 -1.1328
 6647SOL    HW231575   4.002   3.229   4.880 -1.1006 -1.6787 -0.4840
 6648SOL     OW31576   1.596   3.816   7.300  0.1604 -0.1721  0.2407
 6648SOL    HW131577   1.672   3.860   7.263  0.1203 -0.3327 -0.0284
 6648SOL    HW231578   1.573   3.868   7.377  2.6524 -2.7719  2.7203
 6649SOL     OW31579   0.988   0.090  11.787  0.0660  0.1649 -0.6871
 6649SOL    HW131580   0.985   0.184  11.776 -0.3709  0.3197  0.6883
 6649SOL    HW231581   1.024   0.077  11.875 -0.4882  0.8193 -0.3641
 6650SOL     OW31582   0.334   2.728   8.476 -0.9078 -0.3198 -0.0635
 6650SOL    HW131583   0.416   2.773   8.455  0.6795 -2.5688  1.2425
 6650SOL    HW231584   0.353   2.635   8.464 -0.1157 -0.1330 -0.2756
 6651SOL     OW31585   1.806   0.941  16.722  0.5516 -0.2293  0.0357
 6651SOL    HW131586   1.732   0.958  16.780  2.8096 -1.0799  3.1920
 6651SOL    HW231587   1.856   1.022  16.711  1.4889 -0.9386 -0.9444
 6652SOL     OW31588   3.961   2.607   3.338  0.0032  0.4346 -0.0467
 6652SOL    HW131589   3.981   2.686   3.388  1.5682 -0.2925  0.4652
 6652SOL    HW231590   4.052   2.595   3.310 -0.2580  3.9591 -2.3394
 6653SOL     OW31591   2.539   3.772  14.542  0.2026  0.1474  0.3220
 6653SOL    HW131592   2.460   3.761  14.594 -0.2698 -0.6207 -0.5703
 6653SOL    HW231593   2.529   3.685  14.504  0.6244 -0.3387  1.3223
 6654SOL     OW31594   1.450   1.222   3.941 -0.4390  0.3768  0.6517
 6654SOL    HW131595   1.510   1.200   3.870 -2.5952 -1.3608 -0.6196
 6654SOL    HW231596   1.485   1.311   3.949 -0.2053  0.5678 -2.5834
 6655SOL     OW31597   3.310   3.915  15.168  0.3660 -0.0674  0.4070
 6655SOL    HW131598   3.360   3.869  15.100  1.8151 -0.0590  1.4639
 6655SOL    HW231599   3.373   3.936  15.237  0.7319 -1.2585  0.4456
 6656SOL     OW31600   1.234   0.528  16.956 -0.4190 -0.0266 -0.0930
 6656SOL    HW131601   1.279   0.447  16.979 -1.2440 -0.6390 -0.6375
 6656SOL    HW231602   1.172   0.504  16.887  0.7680  3.0373 -2.2583
 6657SOL     OW31603   1.856   3.214   5.714 -0.2953 -0.2016 -0.0539
 6657SOL    HW131604   1.936   3.224   5.662 -1.6483 -0.4949 -2.1837
 6657SOL    HW231605   1.882   3.253   5.798 -2.0276  1.1273 -0.1319
 6658SOL     OW31606   3.122   3.298   3.399  0.0761  0.3484  0.3029
 6658SOL    HW131607   3.169   3.216   3.383  0.8028  0.1934  3.2090
 6658SOL    HW231608   3.091   3.300   3.309 -0.0062 -2.9901  0.2580
 6659SOL     OW31609   0.906   2.589  14.664 -0.4282 -0.2650 -0.4640
 6659SOL    HW131610   0.894   2.682  14.682  0.8809 -0.4006  1.0591
 6659SOL    HW231611   0.977   2.556  14.719  0.7539  0.8616 -1.3155
 6660SOL     OW31612   1.528   1.711   5.933 -1.0690  0.2213  0.2012
 6660SOL    HW131613   1.507   1.760   5.854 -2.4777  0.7813  0.9073
 6660SOL    HW231614   1.458   1.733   5.995 -0.9806 -3.0065  1.4398
 6661SOL     OW31615   1.499   4.717   8.502  0.2337  0.1759 -0.1035
 6661SOL    HW131616   1.587   4.717   8.538  0.6269  1.2450 -1.0873
 6661SOL    HW231617   1.508   4.649   8.435  0.4924 -2.6804  2.8238
 6662SOL     OW31618   3.300   0.417   4.712  0.1446  0.3589  0.5912
 6662SOL    HW131619   3.220   0.365   4.709  0.8580 -0.6387 -1.0106
 6662SOL    HW231620   3.272   0.467   4.789  2.5137  0.7245  1.2188
 6663SOL     OW31621   0.424   2.576  15.791  0.5456  0.6680 -0.2277
 6663SOL    HW131622   0.390   2.583  15.702 -0.4160 -0.0714  0.0809
 6663SOL    HW231623   0.352   2.575  15.854  1.4140 -2.8779  0.6611
 6664SOL     OW31624   3.917   1.162   3.372  0.6062  0.1887  0.3017
 6664SOL    HW131625   3.879   1.192   3.289 -1.3403 -1.0377  0.7514
 6664SOL    HW231626   3.935   1.244   3.419 -1.2819  1.5172 -1.2907
 6665SOL     OW31627   3.353   1.797   6.496 -0.1669 -0.6366  0.8286
 6665SOL    HW131628   3.350   1.709   6.458  0.1719  0.1283 -0.9731
 6665SOL    HW231629   3.389   1.840   6.418 -0.5425 -0.5197  0.7185
 6666SOL     OW31630   1.488   4.102   9.384  0.0136  0.1866 -0.2277
 6666SOL    HW131631   1.462   4.010   9.389 -1.1049  0.4397 -1.3162
 6666SOL    HW231632   1.518   4.111   9.293 -1.4531  1.2198 -0.6191
 6667SOL     OW31633   3.186   0.538   3.042  0.2469 -0.2602 -0.0051
 6667SOL    HW131634   3.137   0.480   3.101 -0.5705 -0.5821 -1.0066
 6667SOL    HW231635   3.212   0.612   3.096  2.8278  0.4290 -2.1551
 6668SOL     OW31636   2.322   3.364   4.024 -0.2494  0.3070  0.1029
 6668SOL    HW131637   2.302   3.458   4.018 -1.2031  0.0733 -0.4949
 6668SOL    HW231638   2.399   3.353   3.968  0.0043  0.9760  0.3203
 6669SOL     OW31639   0.547   2.850   4.433  0.1463  0.1797 -0.1740
 6669SOL    HW131640   0.619   2.815   4.380  1.4893  0.2991  1.5618
 6669SOL    HW231641   0.473   2.830   4.376 -0.4376 -2.2816  1.4606
 6670SOL     OW31642   3.281   2.346   2.534 -0.5142  0.1618  0.2052
 6670SOL    HW131643   3.236   2.419   2.493 -0.6421  1.0537  1.9328
 6670SOL    HW231644   3.342   2.404   2.579  0.2442  0.8586 -1.7348
 6671SOL     OW31645   2.458   2.594   4.249  0.8579  0.4458 -0.1228
 6671SOL    HW131646   2.509   2.630   4.322 -0.2182  1.4136  0.1403
 6671SOL    HW231647   2.377   2.572   4.294  0.7182 -0.3313 -0.7449
 6672SOL     OW31648   3.991   0.803   5.652  0.1125 -0.0285  0.0132
 6672SOL    HW131649   3.963   0.718   5.686  0.3957 -0.1118  0.0427
 6672SOL    HW231650   3.903   0.837   5.642  0.2787  0.4382  0.1416
 6673SOL     OW31651   1.841   2.982   1.943  0.2497  0.3961  0.3236
 6673SOL    HW131652   1.817   2.892   1.920  0.3552  0.5585 -0.4285
 6673SOL    HW231653   1.855   2.984   2.038  1.3021  0.2085  0.1676
 6674SOL     OW31654   3.445   3.055   1.962 -0.3658  0.5138  0.4061
 6674SOL    HW131655   3.409   3.143   1.976  1.9639  1.5320  0.0834
 6674SOL    HW231656   3.378   2.995   1.993  1.0582 -1.2283  0.0944
 6675SOL     OW31657   2.041   3.550   6.107  0.6563  0.3985  0.0222
 6675SOL    HW131658   2.102   3.484   6.140  0.5934  1.0634  1.4771
 6675SOL    HW231659   2.092   3.630   6.118  0.6001  0.4922 -0.3995
 6676SOL     OW31660   1.324   1.749   1.653 -0.2592 -0.3439 -0.0653
 6676SOL    HW131661   1.293   1.701   1.576  3.3312  2.0776 -3.0196
 6676SOL    HW231662   1.308   1.841   1.632 -0.1537 -0.1686  0.6053
 6677SOL     OW31663   4.724   2.298   7.535  0.2455 -0.0185  0.0640
 6677SOL    HW131664   4.694   2.209   7.516  0.8170 -0.1783 -0.1082
 6677SOL    HW231665   4.724   2.283   7.630 -1.2344  0.2799  0.1053
 6678SOL     OW31666   1.211   2.678   1.540  0.1182 -0.0759  0.4366
 6678SOL    HW131667   1.135   2.704   1.488  0.1843 -2.2441 -0.7669
 6678SOL    HW231668   1.287   2.717   1.496 -1.5193  0.6938 -1.7175
 6679SOL     OW31669   3.560   4.209  17.180  0.3861 -0.2637 -0.2490
 6679SOL    HW131670   3.557   4.205  17.275  0.6183  2.5309 -0.1446
 6679SOL    HW231671   3.543   4.300  17.156 -3.0701 -0.9514 -0.3894
 6680SOL     OW31672   0.683   1.855   4.043  0.2207  0.0460  0.0775
 6680SOL    HW131673   0.629   1.799   3.987  2.3799  0.8678 -2.8220
 6680SOL    HW231674   0.761   1.876   3.991  1.0664 -0.2075  1.2492
 6681SOL     OW31675   3.224   1.374  13.532 -0.1773  0.2572 -0.1573
 6681SOL    HW131676   3.248   1.330  13.614 -2.4797 -2.1585 -0.8109
 6681SOL    HW231677   3.188   1.304  13.478  2.0036 -1.3614  0.4846
 6682SOL     OW31678   1.114   1.934   6.846 -0.2115  0.0663  0.2826
 6682SOL    HW131679   1.058   1.898   6.778  1.1280  0.0494 -0.8168
 6682SOL    HW231680   1.050   1.940   6.917  1.2651 -0.6593  1.6934
 6683SOL     OW31681   4.007   2.514   2.922 -0.0824 -0.8576  0.0097
 6683SOL    HW131682   4.059   2.557   2.854 -0.0018  0.7908  1.1061
 6683SOL    HW231683   4.073   2.496   2.989  2.1220  0.4486 -1.7723
 6684SOL     OW31684   0.046   2.610   8.955  0.1522 -0.3499 -0.0820
 6684SOL    HW131685   0.029   2.539   9.017  1.9226 -0.4147  0.3333
 6684SOL    HW231686   4.693   2.631   8.950 -0.1729 -1.9101 -0.5380
 6685SOL     OW31687   3.230   2.861  10.712  0.1604 -0.4430  0.0302
 6685SOL    HW131688   3.250   2.818  10.629 -1.4682  1.0873 -1.1494
 6685SOL    HW231689   3.188   2.944  10.690 -0.2428 -0.2824  1.3918
 6686SOL     OW31690   2.018   4.490  11.437 -0.0690  0.1708  0.0921
 6686SOL    HW131691   1.964   4.517  11.511  1.2187  1.0809  0.7141
 6686SOL    HW231692   2.091   4.440  11.473  0.6395  0.5391 -0.8138
 6687SOL     OW31693   1.869   4.007   5.581 -0.3623 -0.0124  0.2363
 6687SOL    HW131694   1.920   3.931   5.551 -1.0519  0.5542 -2.3458
 6687SOL    HW231695   1.899   4.016   5.672 -1.3055 -0.7368  0.6130
 6688SOL     OW31696   0.762   4.306   7.816  0.0657 -0.3298 -0.5695
 6688SOL    HW131697   0.701   4.237   7.791  0.0775 -0.5973  0.1459
 6688SOL    HW231698   0.778   4.284   7.908  0.8185  1.6508 -0.2368
 6689SOL     OW31699   0.897   2.647   4.443 -0.1125  0.0535 -0.2091
 6689SOL    HW131700   0.876   2.719   4.503 -0.4958  1.7428 -2.3881
 6689SOL    HW231701   0.853   2.667   4.361 -0.3104  0.5351  0.0139
 6690SOL     OW31702   1.987   2.614  17.079  0.5985 -0.5476  0.2994
 6690SOL    HW131703   1.980   2.618  16.983 -0.8869 -1.4648  0.3712
 6690SOL    HW231704   2.050   2.685  17.093 -0.0115 -0.0332  0.4334
 6691SOL     OW31705   3.415   3.536   8.694  0.0661  0.5113 -0.6112
 6691SOL    HW131706   3.488   3.481   8.721 -0.2213  1.8627  2.9494
 6691SOL    HW231707   3.405   3.585   8.777  0.3377 -1.4652  0.5788
 6692SOL     OW31708   0.878   0.993  17.596 -0.0453 -0.0103 -0.2612
 6692SOL    HW131709   0.956   0.965  17.548  0.5800 -1.2687  1.4906
 6692SOL    HW231710   0.893   0.969  17.688 -1.9230 -0.5135 -0.0900
 6693SOL     OW31711   3.750   0.321   1.634  0.2532  0.4501 -0.2905
 6693SOL    HW131712   3.792   0.311   1.720  0.9546 -1.6951 -0.9010
 6693SOL    HW231713   3.778   0.410   1.616  1.7591  0.2282  0.9145
 6694SOL     OW31714   0.715   3.674  14.828  0.4074 -0.2678  0.0550
 6694SOL    HW131715   0.648   3.644  14.889 -0.9296 -0.2719 -1.4056
 6694SOL    HW231716   0.667   3.710  14.753 -1.3341  0.5050  1.5446
 6695SOL     OW31717   0.721   0.883   0.993  0.1783  0.4735 -0.1367
 6695SOL    HW131718   0.813   0.903   1.004  0.4592 -1.1287  0.4565
 6695SOL    HW231719   0.718   0.817   0.924 -1.2168  1.0180 -0.6062
 6696SOL     OW31720   3.376   4.732   3.399 -0.1582 -0.3304  0.1498
 6696SOL    HW131721   3.405   0.058   3.461  1.0444 -0.0285 -0.7365
 6696SOL    HW231722   3.353   0.039   3.320 -0.0749 -1.7507 -0.7248
 6697SOL     OW31723   0.029   0.153   1.490 -0.2725  0.2473  0.4952
 6697SOL    HW131724   0.002   0.179   1.401 -2.1946  0.1419  1.0443
 6697SOL    HW231725   0.123   0.139   1.485 -0.2961 -0.3102  1.8414
 6698SOL     OW31726   0.614   2.322  14.376 -0.3563  0.1453 -0.7460
 6698SOL    HW131727   0.688   2.381  14.358 -0.0494  0.3532  1.2632
 6698SOL    HW231728   0.544   2.386  14.377  0.6139  1.1940 -0.0764
 6699SOL     OW31729   0.989   4.035  12.070 -0.0138 -0.5247  0.3014
 6699SOL    HW131730   0.947   4.089  12.138  0.2328  0.2939 -0.1902
 6699SOL    HW231731   0.909   4.005  12.027  0.3448 -0.8538 -0.1238
 6700SOL     OW31732   3.546   2.105   2.480  0.3027 -0.3891 -0.3647
 6700SOL    HW131733   3.546   2.152   2.396 -1.1434 -2.0747 -1.2992
 6700SOL    HW231734   3.613   2.037   2.472 -0.6492 -1.7034  2.9524
 6701SOL     OW31735   4.288   4.654   2.983  0.5923 -0.3194  0.1739
 6701SOL    HW131736   4.354   4.678   3.048  0.2098  0.9051  0.1124
 6701SOL    HW231737   4.341   4.592   2.932 -0.0020 -2.0536  1.6750
 6702SOL     OW31738   1.380   2.338   8.758 -0.1933 -0.3637 -0.1921
 6702SOL    HW131739   1.369   2.314   8.666  2.1217 -1.8266 -0.0964
 6702SOL    HW231740   1.350   2.255   8.796  2.0294 -0.3752  1.5366
 6703SOL     OW31741   0.038   1.931   1.023  0.1439 -0.2789  0.3389
 6703SOL    HW131742   0.104   1.900   0.962 -0.0301  4.7786 -2.3960
 6703SOL    HW231743   4.710   1.865   1.008 -2.4257  2.0531  1.7617
 6704SOL     OW31744   2.598   0.898   1.286 -0.2859  0.3909 -0.6253
 6704SOL    HW131745   2.679   0.879   1.239  0.4102 -1.6079  1.4004
 6704SOL    HW231746   2.571   0.812   1.318  0.3515  0.5184  0.2477
 6705SOL     OW31747   4.249   3.148   8.357  0.0490  0.7703 -0.3483
 6705SOL    HW131748   4.231   3.179   8.446 -1.0842  1.9777 -1.0001
 6705SOL    HW231749   4.174   3.090   8.344  0.7872 -0.3444  0.3919
 6706SOL     OW31750   1.775   3.748   6.500 -0.1503 -0.1627 -0.1416
 6706SOL    HW131751   1.711   3.677   6.498  0.0062 -0.3212  0.2679
 6706SOL    HW231752   1.855   3.712   6.539  0.7359  0.8294 -1.0302
 6707SOL     OW31753   0.019   2.576   6.075 -0.2839  0.4344  0.1925
 6707SOL    HW131754   4.722   2.634   6.141 -1.4479 -0.6919  0.5096
 6707SOL    HW231755   4.680   2.527   6.053  1.2068 -2.4115  1.2508
 6708SOL     OW31756   1.956   0.447   0.892 -0.4124 -0.4965 -0.5631
 6708SOL    HW131757   1.981   0.378   0.830 -0.5900  0.0823 -1.2856
 6708SOL    HW231758   2.026   0.448   0.958 -0.6372 -0.7836 -0.3236
 6709SOL     OW31759   0.552   3.598   9.429 -0.7798  0.6679  0.0485
 6709SOL    HW131760   0.606   3.615   9.352 -1.5908  0.9869 -0.4425
 6709SOL    HW231761   0.554   3.502   9.431  1.1579  0.6730 -0.9450
 6710SOL     OW31762   1.739   3.284   5.419  0.4790 -0.6174  0.3997
 6710SOL    HW131763   1.691   3.361   5.389 -1.7193 -0.9336  3.0519
 6710SOL    HW231764   1.817   3.288   5.363  0.2316  0.4613  0.1369
 6711SOL     OW31765   4.444   3.489   2.791 -0.1400 -0.6215 -0.2638
 6711SOL    HW131766   4.393   3.487   2.710 -0.5489 -0.9477  0.0041
 6711SOL    HW231767   4.489   3.404   2.790 -0.6827 -0.9214  2.1020
 6712SOL     OW31768   0.260   4.106   3.466 -0.2327 -0.1129  0.1398
 6712SOL    HW131769   0.170   4.079   3.484 -0.0518 -0.7089  0.1338
 6712SOL    HW231770   0.277   4.153   3.548  0.3292 -0.2185  0.0797
 6713SOL     OW31771   1.779   4.488   5.617 -0.4561  0.1997 -0.5178
 6713SOL    HW131772   1.825   4.562   5.657 -1.0936  1.1600 -1.5926
 6713SOL    HW231773   1.820   4.415   5.665  0.0823  0.1336 -1.0782
 6714SOL     OW31774   0.122   0.073  14.790 -0.2414 -0.7337 -0.0368
 6714SOL    HW131775   0.146   0.063  14.698 -1.0342 -3.5824  0.0846
 6714SOL    HW231776   0.029   0.092  14.780 -1.2207 -4.3210  2.6538
 6715SOL     OW31777   1.402   0.665   1.082  0.1344 -0.2042 -0.0141
 6715SOL    HW131778   1.369   0.586   1.040  0.4945 -0.4342  0.1413
 6715SOL    HW231779   1.345   0.664   1.159  0.4974 -3.1654  0.2214
 6716SOL     OW31780   2.904   3.574   4.206  0.1202 -0.5381  0.1527
 6716SOL    HW131781   2.859   3.597   4.288  2.0135  0.8464  0.8175
 6716SOL    HW231782   2.859   3.494   4.179 -0.9610 -0.0260  0.4458
 6717SOL     OW31783   0.241   4.647   1.916 -0.5858  0.0617 -0.2879
 6717SOL    HW131784   0.208   4.704   1.985 -0.8170 -1.2205  0.6590
 6717SOL    HW231785   0.165   4.651   1.858 -0.2247 -0.9638 -0.8270
 6718SOL     OW31786   4.001   1.310  11.537 -0.0717 -0.3514  0.0626
 6718SOL    HW131787   4.065   1.381  11.533 -1.1208  0.5114 -1.0405
 6718SOL    HW231788   4.046   1.254  11.601  1.7926  0.8528 -0.1895
 6719SOL     OW31789   0.758   1.078   3.268 -0.2123 -0.8583  0.1890
 6719SOL    HW131790   0.697   1.131   3.319 -0.6919 -0.1215 -1.1438
 6719SOL    HW231791   0.712   1.063   3.185  1.8388 -0.2370 -1.0491
 6720SOL     OW31792   3.750   1.330   1.427 -0.3058 -0.1495 -0.1720
 6720SOL    HW131793   3.704   1.336   1.511  0.9438 -0.1368  0.5094
 6720SOL    HW231794   3.786   1.242   1.434 -1.4004 -0.7508 -2.3938
 6721SOL     OW31795   0.385   0.211   4.018 -0.2129 -0.1339 -0.1280
 6721SOL    HW131796   0.348   0.298   4.004 -0.3985 -0.0180  1.0269
 6721SOL    HW231797   0.313   0.172   4.068 -1.1999 -0.0524 -1.4898
 6722SOL     OW31798   1.191   1.841   2.661  0.6285  0.0558 -0.3326
 6722SOL    HW131799   1.181   1.748   2.639  2.1236  0.3261 -2.1591
 6722SOL    HW231800   1.111   1.877   2.624  1.0823  0.2608 -1.1054
 6723SOL     OW31801   0.476   3.044  14.082  0.2870  0.0556 -0.7201
 6723SOL    HW131802   0.566   3.051  14.052  0.7940  0.2615  0.8194
 6723SOL    HW231803   0.468   3.115  14.147  0.5615  0.7004 -1.3863
 6724SOL     OW31804   4.308   2.035  14.891 -0.1287  0.1967 -0.2946
 6724SOL    HW131805   4.371   2.096  14.854  1.1049  0.3768  2.0738
 6724SOL    HW231806   4.328   1.955  14.843 -2.3405 -0.7326  0.3298
 6725SOL     OW31807   4.039   3.279   7.038 -0.5528 -0.3595 -0.0342
 6725SOL    HW131808   4.013   3.187   7.041 -0.9042 -0.2715 -0.2862
 6725SOL    HW231809   4.023   3.314   7.126 -0.7580 -0.2757 -0.1040
 6726SOL     OW31810   2.963   1.160   2.079  0.4293  0.1348  0.1126
 6726SOL    HW131811   2.917   1.208   2.010  1.3589  0.6795 -0.1308
 6726SOL    HW231812   3.045   1.209   2.079  0.5576 -0.0950 -1.2010
 6727SOL     OW31813   1.818   3.943   7.103 -0.8072  0.1359  0.0825
 6727SOL    HW131814   1.870   3.863   7.112 -1.2752 -0.4373 -2.1370
 6727SOL    HW231815   1.875   3.999   7.049 -2.0415  0.0473 -1.3089
 6728SOL     OW31816   0.103   1.487   6.558 -0.6550 -0.0423  0.2610
 6728SOL    HW131817   0.177   1.427   6.562 -1.0781 -0.6370 -0.7704
 6728SOL    HW231818   0.072   1.498   6.648 -1.0813  1.5786 -0.0763
 6729SOL     OW31819   0.829   1.976  13.285 -0.4911 -0.1365 -0.5582
 6729SOL    HW131820   0.822   1.975  13.189 -0.1065  0.9772 -0.5981
 6729SOL    HW231821   0.869   2.063  13.291 -1.7881  0.3621  0.7991
 6730SOL     OW31822   1.390   2.082   8.042 -0.5280  0.3144  0.5066
 6730SOL    HW131823   1.442   2.109   7.966 -1.1169  2.0958  0.7429
 6730SOL    HW231824   1.449   2.102   8.115  0.1616 -0.1628  0.0817
 6731SOL     OW31825   4.276   0.979   4.415  0.0155  0.5018  0.3912
 6731SOL    HW131826   4.236   1.038   4.479 -0.2273  0.3809  0.3535
 6731SOL    HW231827   4.353   0.965   4.469 -0.4176 -0.3469  0.7952
 6732SOL     OW31828   4.110   3.478   1.697 -0.2862 -0.2795 -0.2409
 6732SOL    HW131829   4.046   3.426   1.650 -0.8945 -2.7370  3.2446
 6732SOL    HW231830   4.180   3.482   1.632  2.1103  3.7882  2.5646
 6733SOL     OW31831   3.037   3.535   4.732 -0.2825  0.0005  0.7357
 6733SOL    HW131832   2.991   3.543   4.815 -1.1676 -0.3793  0.2821
 6733SOL    HW231833   3.108   3.474   4.752 -0.5564  0.0649  1.9057
 6734SOL     OW31834   3.677   1.305   2.921  0.2715 -0.0997 -0.6133
 6734SOL    HW131835   3.764   1.311   2.881  0.4867  0.2426 -0.0990
 6734SOL    HW231836   3.653   1.397   2.911  2.6037  0.3806 -1.8639
 6735SOL     OW31837   4.013   3.911   5.552 -0.0376 -0.5044 -0.0673
 6735SOL    HW131838   4.106   3.915   5.532  0.2295  0.8836  1.5211
 6735SOL    HW231839   3.988   3.974   5.483  0.6607 -0.6019 -0.4129
 6736SOL     OW31840   1.771   1.619   0.070  0.1112  0.1056 -0.0682
 6736SOL    HW131841   1.731   1.706   0.059 -1.3585 -0.8081 -1.9767
 6736SOL    HW231842   1.698   1.559   0.087  0.5832  0.1648  2.1294
 6737SOL     OW31843   4.677   1.593   0.109 -0.8415  0.2191  0.4362
 6737SOL    HW131844   4.660   1.649   0.033  1.6287 -1.0111 -1.0326
 6737SOL    HW231845   0.030   1.613   0.114 -0.2436 -1.7689 -2.8712
 6738SOL     OW31846   3.423   1.836   6.751  0.2949 -0.0034 -0.1492
 6738SOL    HW131847   3.402   1.817   6.659 -1.7362 -1.2648  0.5865
 6738SOL    HW231848   3.511   1.871   6.735  0.1186  1.7669  2.8257
 6739SOL     OW31849   3.016   4.211   5.319 -0.7496 -0.6198 -0.2526
 6739SOL    HW131850   3.082   4.164   5.268 -1.7134  0.7590 -2.8073
 6739SOL    HW231851   2.959   4.237   5.246 -0.3412 -2.2138 -1.1368
 6740SOL     OW31852   1.091   2.199  14.926 -0.7904  0.0541 -0.8324
 6740SOL    HW131853   1.153   2.168  14.860 -0.6011 -2.4255  0.5111
 6740SOL    HW231854   1.011   2.202  14.874 -1.4111 -1.2663  0.0430
 6741SOL     OW31855   3.233   0.109   5.063  0.2187 -0.1358  0.0470
 6741SOL    HW131856   3.328   0.101   5.059  0.3268  2.6188 -2.3879
 6741SOL    HW231857   3.209   0.028   5.109 -1.2442  0.7482  0.8559
 6742SOL     OW31858   0.691   4.046  11.580  0.2236  0.6044 -0.0953
 6742SOL    HW131859   0.719   4.131  11.547 -0.0125  0.9528  0.6211
 6742SOL    HW231860   0.761   3.992  11.542  1.8519  2.0060  0.9094
 6743SOL     OW31861   3.715   2.894   5.315  0.3415  0.4096  0.3295
 6743SOL    HW131862   3.671   2.872   5.233 -0.4403 -0.2751  0.9344
 6743SOL    HW231863   3.780   2.824   5.324 -2.1605 -1.7990  1.1727
 6744SOL     OW31864   0.788   0.847   3.658  0.1209  0.1271 -0.5937
 6744SOL    HW131865   0.797   0.910   3.730 -1.7821 -1.0486  0.6698
 6744SOL    HW231866   0.850   0.778   3.682 -0.2532  0.0152  0.0363
 6745SOL     OW31867   2.156   3.024   1.879  0.0551  0.3148 -0.2085
 6745SOL    HW131868   2.187   2.935   1.863 -0.0163 -0.0764  1.8191
 6745SOL    HW231869   2.081   3.037   1.822 -0.1111 -0.2379 -0.1173
 6746SOL     OW31870   1.445   4.494   2.094  0.7229  0.5907  0.5765
 6746SOL    HW131871   1.408   4.557   2.031 -2.1831 -3.1075 -1.4232
 6746SOL    HW231872   1.515   4.545   2.135 -0.5644  2.0231  1.0194
 6747SOL     OW31873   4.543   2.416  16.833  0.0065 -0.4697  0.0759
 6747SOL    HW131874   4.624   2.381  16.871  1.0388  1.3183 -0.5151
 6747SOL    HW231875   4.557   2.399  16.740 -2.5622 -2.0660 -0.0055
 6748SOL     OW31876   0.125   3.101   7.964 -0.1301  0.0693 -0.1245
 6748SOL    HW131877   0.187   3.041   7.922 -0.2869  0.0097 -0.2674
 6748SOL    HW231878   0.134   3.072   8.055 -2.2667  0.7023  0.2829
 6749SOL     OW31879   1.127   0.740   3.590  0.5480 -0.0582 -0.2526
 6749SOL    HW131880   1.075   0.719   3.667  0.4716 -1.2912 -0.6544
 6749SOL    HW231881   1.125   0.836   3.601 -2.1697 -0.1295 -0.0012
 6750SOL     OW31882   0.520   0.696  13.416 -0.2735 -0.3339 -0.2908
 6750SOL    HW131883   0.591   0.654  13.368  0.4965  0.7187 -0.0752
 6750SOL    HW231884   0.530   0.787  13.389 -2.4321 -0.3142 -1.0446
 6751SOL     OW31885   2.572   3.245   6.853  0.0645 -0.3880 -0.1476
 6751SOL    HW131886   2.623   3.247   6.772 -0.7327  2.7829 -0.5437
 6751SOL    HW231887   2.492   3.279   6.814  0.5652 -1.6775 -2.3129
 6752SOL     OW31888   1.708   1.027   6.490 -0.0802  0.0800  0.1318
 6752SOL    HW131889   1.624   0.983   6.505  1.3881 -2.4622  0.9480
 6752SOL    HW231890   1.720   1.069   6.575  2.5738 -1.6008  0.5875
 6753SOL     OW31891   3.835   4.691   4.342 -0.6477 -0.2224 -0.2425
 6753SOL    HW131892   3.850   4.687   4.247 -1.5034 -2.6549 -0.2950
 6753SOL    HW231893   3.908   4.635   4.370 -1.0654 -0.1423  0.9713
 6754SOL     OW31894   1.353   2.114   5.080  0.0751  0.0703  0.0393
 6754SOL    HW131895   1.303   2.196   5.090 -1.5618 -0.7706 -1.4123
 6754SOL    HW231896   1.438   2.139   5.116 -0.9945  1.0140  1.9409
 6755SOL     OW31897   3.684   3.214   2.628 -0.1258 -0.4428  0.2886
 6755SOL    HW131898   3.756   3.274   2.647  0.7919 -1.4367 -0.0730
 6755SOL    HW231899   3.708   3.172   2.545  1.5302 -1.5745  1.3488
 6756SOL     OW31900   0.050   3.081  10.460  0.2006  0.3995 -0.4445
 6756SOL    HW131901   0.057   3.130  10.378  1.5375 -0.9753 -1.1518
 6756SOL    HW231902   4.707   3.035  10.451  1.9419 -2.9167  0.5418
 6757SOL     OW31903   2.624   4.603   2.901  0.2670  0.0920 -0.1601
 6757SOL    HW131904   2.549   4.560   2.860  0.8823 -0.7145 -0.4512
 6757SOL    HW231905   2.696   4.604   2.838 -0.6153  2.4454 -1.1339
 6758SOL     OW31906   4.090   1.432   1.407 -0.4867  0.5630 -0.3340
 6758SOL    HW131907   4.152   1.499   1.381  0.6296 -0.3420  0.0032
 6758SOL    HW231908   4.034   1.428   1.329  0.7194 -3.0247 -1.0159
 6759SOL     OW31909   2.487   2.657  12.309 -0.2215 -0.2647 -0.4176
 6759SOL    HW131910   2.517   2.605  12.383 -0.5326  0.5794  0.3024
 6759SOL    HW231911   2.399   2.620  12.298  0.1539 -1.0195 -0.8408
 6760SOL     OW31912   2.289   1.427   5.732 -0.6341 -0.2949 -0.4250
 6760SOL    HW131913   2.255   1.504   5.687 -1.1351 -0.7328 -0.8080
 6760SOL    HW231914   2.301   1.375   5.653  1.1379 -0.0492 -0.3031
 6761SOL     OW31915   1.261   0.727   1.975 -0.1054 -0.3301  0.7419
 6761SOL    HW131916   1.298   0.695   2.057  1.2656  0.0712  0.2771
 6761SOL    HW231917   1.340   0.748   1.925 -2.2553  1.5602 -1.8160
 6762SOL     OW31918   2.081   4.299   0.232 -0.2540  0.1768  0.2773
 6762SOL    HW131919   2.169   4.301   0.270 -1.0575  3.2777  1.9572
 6762SOL    HW231920   2.073   4.209   0.200  1.6622 -0.8612  2.7241
 6763SOL     OW31921   0.195   1.507   6.972 -0.2526 -0.2281  0.0293
 6763SOL    HW131922   0.263   1.497   6.905  0.7294 -2.4424  1.3681
 6763SOL    HW231923   0.217   1.594   7.004 -0.2108 -0.1071 -0.3240
 6764SOL     OW31924   2.793   4.409   5.667  0.3816  0.2637  0.4389
 6764SOL    HW131925   2.879   4.376   5.641  0.7753  1.9530 -0.3971
 6764SOL    HW231926   2.766   4.338   5.725 -0.2610 -0.5791 -0.9153
 6765SOL     OW31927   2.989   2.454   2.934 -0.2091  0.3804  0.6361
 6765SOL    HW131928   2.953   2.538   2.908  1.0455 -0.1139 -2.7769
 6765SOL    HW231929   3.032   2.476   3.017 -1.4313  1.8052  0.8912
 6766SOL     OW31930   0.784   4.104   6.277  0.0581  0.1785 -0.1947
 6766SOL    HW131931   0.733   4.178   6.311  0.9148  0.5718  0.2454
 6766SOL    HW231932   0.743   4.099   6.190 -1.6086  0.0098  0.5930
 6767SOL     OW31933   4.183   2.035   8.990 -0.1862 -0.1346  0.4625
 6767SOL    HW131934   4.158   1.950   8.954  3.0259 -1.4109  1.2511
 6767SOL    HW231935   4.271   2.050   8.955 -1.0256  1.6914 -0.8862
 6768SOL     OW31936   2.359   4.249   4.481 -0.1478  0.1443 -0.2346
 6768SOL    HW131937   2.453   4.254   4.501 -0.0175  1.7442 -1.2597
 6768SOL    HW231938   2.317   4.203   4.553  0.7679  2.9674  2.1190
 6769SOL     OW31939   1.966   4.216  16.342 -0.5528 -0.1819  0.0551
 6769SOL    HW131940   2.001   4.196  16.256 -0.3282  0.9399 -0.1135
 6769SOL    HW231941   2.045   4.229  16.395  0.3830 -1.0324 -1.1539
 6770SOL     OW31942   0.840   3.528   4.049 -0.2770 -0.2648 -0.0338
 6770SOL    HW131943   0.893   3.562   4.121  1.0954  1.6734 -1.9753
 6770SOL    HW231944   0.776   3.599   4.036  2.7236  2.6408  1.1604
 6771SOL     OW31945   1.110   0.646   0.469 -0.7073  1.0308  1.2682
 6771SOL    HW131946   1.122   0.733   0.505  0.8183  1.7158 -0.9139
 6771SOL    HW231947   1.028   0.622   0.512  0.3390 -2.2352  1.4516
 6772SOL     OW31948   1.930   1.725   6.274  0.2105 -0.0266 -0.2638
 6772SOL    HW131949   1.851   1.709   6.222  1.2865  0.2945 -1.9671
 6772SOL    HW231950   1.994   1.727   6.204  1.4995 -0.2276  0.9198
 6773SOL     OW31951   1.288   3.142   2.334 -0.0913 -0.3545 -0.2660
 6773SOL    HW131952   1.295   3.048   2.351 -0.3408 -0.6383 -1.7027
 6773SOL    HW231953   1.381   3.163   2.341 -0.8551  4.0841 -3.5145
 6774SOL     OW31954   0.696   4.462   1.328 -0.3774 -0.4402 -0.4734
 6774SOL    HW131955   0.647   4.442   1.408  1.9312 -0.3661  0.9823
 6774SOL    HW231956   0.722   4.372   1.307 -0.5964 -0.0619 -2.3389
 6775SOL     OW31957   2.615   1.708   4.765 -0.0145  0.0043  0.0496
 6775SOL    HW131958   2.539   1.654   4.744 -0.4777  0.5114  0.4328
 6775SOL    HW231959   2.635   1.752   4.682  0.4740  0.6377  0.5034
 6776SOL     OW31960   3.630   2.480   8.518  0.2740  0.4210 -0.2783
 6776SOL    HW131961   3.686   2.403   8.503 -1.4696 -0.9527  0.1942
 6776SOL    HW231962   3.583   2.444   8.594  1.9254  0.2165  0.6437
 6777SOL     OW31963   3.313   2.995  10.282 -0.3384 -0.1616 -0.0399
 6777SOL    HW131964   3.355   2.938  10.217  0.6147 -0.0127  0.4340
 6777SOL    HW231965   3.326   2.950  10.365 -0.3413  0.8680  0.5191
 6778SOL     OW31966   2.353   3.807   6.052 -0.4000  0.7179  0.0324
 6778SOL    HW131967   2.391   3.894   6.046  2.6773 -0.4689  2.1139
 6778SOL    HW231968   2.344   3.781   6.144 -0.6278  0.5141 -0.0463
 6779SOL     OW31969   1.833   0.629   3.033 -0.2587 -0.1525 -0.0430
 6779SOL    HW131970   1.888   0.558   3.065 -1.4406 -1.4665 -0.9239
 6779SOL    HW231971   1.743   0.601   3.050 -0.1428  1.5074  3.4380
 6780SOL     OW31972   2.096   1.567  12.109  0.0470 -0.2063 -0.2356
 6780SOL    HW131973   2.074   1.496  12.049 -1.5640 -1.8878  2.3476
 6780SOL    HW231974   2.043   1.634  12.065  2.0002  1.4700 -0.0563
 6781SOL     OW31975   2.459   1.136   5.679  0.0983  0.5168 -0.4443
 6781SOL    HW131976   2.542   1.166   5.643  0.3855 -0.3218 -0.4630
 6781SOL    HW231977   2.409   1.160   5.600 -0.2285  1.5826  0.0880
 6782SOL     OW31978   0.523   1.777  10.900  0.3922 -0.0188 -0.3170
 6782SOL    HW131979   0.576   1.804  10.975 -0.8927 -0.1700  0.6494
 6782SOL    HW231980   0.513   1.860  10.854  0.6640  0.7470  1.0119
 6783SOL     OW31981   2.542   0.620   1.347 -0.4982  0.1041  0.0969
 6783SOL    HW131982   2.455   0.583   1.335 -0.8954  0.8248  0.6680
 6783SOL    HW231983   2.552   0.612   1.442 -2.1623  0.0713  0.2577
 6784SOL     OW31984   0.353   2.263   4.977  0.2607 -0.9776  0.1974
 6784SOL    HW131985   0.399   2.252   4.895 -0.0703  0.4673 -0.1956
 6784SOL    HW231986   0.408   2.209   5.034 -0.9007 -1.2518  1.0714
 6785SOL     OW31987   0.630   2.316   3.437  0.1762  0.1664  0.1866
 6785SOL    HW131988   0.686   2.240   3.450  0.2691  0.4310  1.3728
 6785SOL    HW231989   0.605   2.344   3.526  0.2089  2.7890 -0.6329
 6786SOL     OW31990   1.156   0.765   5.657 -0.2254 -0.4951 -0.4152
 6786SOL    HW131991   1.126   0.812   5.735  1.1085  2.2899 -1.5989
 6786SOL    HW231992   1.224   0.821   5.622 -2.8752  3.3601  0.5719
 6787SOL     OW31993   3.144   3.681   7.066 -0.4658  0.2320  0.2587
 6787SOL    HW131994   3.120   3.595   7.031  0.1481 -0.1610  0.8157
 6787SOL    HW231995   3.171   3.649   7.152  0.3882 -1.1377 -0.5173
 6788SOL     OW31996   1.761   4.672  10.691 -0.3667 -0.4055  0.2014
 6788SOL    HW131997   1.691   4.737  10.681 -1.5928 -1.6840  0.4003
 6788SOL    HW231998   1.845   4.714  10.672  0.0384 -0.0333  2.9031
 6789SOL     OW31999   0.963   0.519   7.026 -0.0946 -0.3774  0.5306
 6789SOL    HW132000   0.954   0.473   6.943 -1.0451  2.1985 -0.8230
 6789SOL    HW232001   0.874   0.551   7.042  0.9046  1.4229  2.5476
 6790SOL     OW32002   1.583   0.331   8.811 -0.5635  0.0968  0.0363
 6790SOL    HW132003   1.549   0.323   8.721  0.6026 -3.3357 -0.0894
 6790SOL    HW232004   1.531   0.405   8.842  0.2515 -0.6341  3.1482
 6791SOL     OW32005   1.874   2.418   6.674 -0.3929 -0.3894  0.1004
 6791SOL    HW132006   1.831   2.494   6.634  1.7129  0.1884 -1.0523
 6791SOL    HW232007   1.938   2.398   6.607 -0.2531 -3.0121  1.0418
 6792SOL     OW32008   0.500   0.836   7.634  0.2625 -0.0536  0.1391
 6792SOL    HW132009   0.465   0.754   7.600  1.8352 -0.4678 -0.4926
 6792SOL    HW232010   0.427   0.883   7.674 -0.7792  1.0820 -3.1055
 6793SOL     OW32011   1.604   3.363   5.744  0.0793 -0.0774 -0.4362
 6793SOL    HW132012   1.625   3.324   5.829  0.1678  0.7697 -0.0670
 6793SOL    HW232013   1.641   3.297   5.686 -3.3250 -2.3445 -0.0454
 6794SOL     OW32014   0.929   4.647   3.178 -0.9993 -0.1458  0.0442
 6794SOL    HW132015   0.987   4.638   3.102 -1.4664  0.1174 -0.3452
 6794SOL    HW232016   1.003   4.653   3.239  0.5152 -1.0105 -1.6930
 6795SOL     OW32017   3.848   1.773   2.925  0.2506 -0.1718 -0.3544
 6795SOL    HW132018   3.824   1.861   2.956 -1.4340 -0.5047 -0.7232
 6795SOL    HW232019   3.890   1.792   2.841 -0.2970 -1.2089 -0.8618
 6796SOL     OW32020   1.992   4.173   7.071  0.6362 -0.0580 -0.0499
 6796SOL    HW132021   2.047   4.251   7.079  0.2791  0.2239 -0.3666
 6796SOL    HW232022   2.032   4.108   7.128  0.9915 -0.8885 -1.2505
 6797SOL     OW32023   1.062   4.375   9.148 -0.5028 -0.0399  0.6132
 6797SOL    HW132024   1.063   4.402   9.240 -1.1533  1.4184  0.1933
 6797SOL    HW232025   1.037   4.460   9.110 -3.2236 -1.1705 -0.1137
 6798SOL     OW32026   3.037   2.464  12.616 -0.0023 -0.3660 -0.4453
 6798SOL    HW132027   2.969   2.397  12.610  1.3440 -1.8725  1.0103
 6798SOL    HW232028   3.028   2.497  12.705  1.3796  3.4810 -1.7233
 6799SOL     OW32029   4.492   2.625   8.929  0.3778 -0.3278  0.4401
 6799SOL    HW132030   4.445   2.605   8.848 -2.5215 -1.2408  2.3824
 6799SOL    HW232031   4.419   2.650   8.985 -0.1299 -3.2881  1.0684
 6800SOL     OW32032   4.222   2.115   0.272  0.0577 -0.6277  0.4141
 6800SOL    HW132033   4.180   2.201   0.261  0.5829 -0.4202  0.0609
 6800SOL    HW232034   4.288   2.104   0.203  1.5636 -0.4785  1.8310
 6801SOL     OW32035   3.949   4.006   9.058 -0.2593  0.1274  0.1844
 6801SOL    HW132036   3.940   3.965   8.972  2.2898  2.2143 -1.0743
 6801SOL    HW232037   3.858   4.032   9.072 -1.2037 -2.3524 -1.1772
 6802SOL     OW32038   3.880   2.363   4.956  0.0130  0.0148  0.2942
 6802SOL    HW132039   3.825   2.303   4.906  0.5822 -0.5639  0.3756
 6802SOL    HW232040   3.951   2.362   4.893  1.1200  3.4872  1.5026
 6803SOL     OW32041   2.755   1.298   0.893 -0.3404 -0.2203 -0.1729
 6803SOL    HW132042   2.747   1.241   0.969  4.0961 -3.1511 -1.9412
 6803SOL    HW232043   2.761   1.241   0.816  0.1327  0.8931 -0.9608
 6804SOL     OW32044   1.006   3.440  10.396  0.5323  0.4388  0.2355
 6804SOL    HW132045   1.064   3.423  10.470 -2.3057  1.1724  2.6629
 6804SOL    HW232046   1.004   3.536  10.390  1.1473  0.7177  4.2818
 6805SOL     OW32047   2.979   1.653  14.291 -0.2227 -0.4603 -0.1925
 6805SOL    HW132048   3.022   1.686  14.370 -1.9692  0.5794  0.3206
 6805SOL    HW232049   2.885   1.664  14.304 -0.1546 -1.0856  0.9281
 6806SOL     OW32050   4.308   1.845   5.737  0.1643 -0.1176  0.4417
 6806SOL    HW132051   4.396   1.862   5.704 -0.7939  2.5834 -0.7975
 6806SOL    HW232052   4.315   1.897   5.817 -1.2999 -0.8744  1.0621
 6807SOL     OW32053   4.039   2.728  15.968  0.4316  0.4520  0.6192
 6807SOL    HW132054   4.130   2.744  15.945  0.7130 -2.0169  0.0890
 6807SOL    HW232055   4.012   2.652  15.917  2.1738 -0.5658  1.2191
 6808SOL     OW32056   4.157   0.711  16.954  0.1096 -0.3976  0.0632
 6808SOL    HW132057   4.083   0.659  16.923 -0.5751  0.4487  0.2482
 6808SOL    HW232058   4.222   0.681  16.891 -0.0459  0.7572 -0.6458
 6809SOL     OW32059   3.551   0.002   3.979  0.2025  0.3646 -0.2162
 6809SOL    HW132060   3.470   0.051   3.964  0.9601  1.3969 -0.9289
 6809SOL    HW232061   3.570   4.710   3.891 -2.8420 -1.6733 -0.0998
 6810SOL     OW32062   4.611   0.874  16.509  0.5960  0.2045 -0.1299
 6810SOL    HW132063   4.630   0.794  16.559  1.0786 -0.4650 -1.3937
 6810SOL    HW232064   4.522   0.900  16.533  0.5212  1.1072 -1.3727
 6811SOL     OW32065   4.722   3.400   5.872 -0.3911  0.2843 -0.5352
 6811SOL    HW132066   4.659   3.339   5.833 -0.4330  0.5556 -0.8904
 6811SOL    HW232067   0.046   3.331   5.857 -0.4394 -0.2682  1.9135
 6812SOL     OW32068   0.442   0.523   1.865 -0.2148  0.4307 -0.0987
 6812SOL    HW132069   0.505   0.593   1.847 -1.5459  1.5727 -0.3337
 6812SOL    HW232070   0.373   0.563   1.813 -0.2956  0.2201 -0.1533
 6813SOL     OW32071   1.170   2.811   0.806  0.6883 -0.4389 -0.2209
 6813SOL    HW132072   1.132   2.864   0.875  0.2625  0.2273 -0.9725
 6813SOL    HW232073   1.099   2.764   0.763 -0.1290  0.6193 -0.0136
 6814SOL     OW32074   3.231   1.102   2.748  0.1500 -0.6049  0.3246
 6814SOL    HW132075   3.146   1.113   2.791 -0.2941  0.4208 -0.8244
 6814SOL    HW232076   3.289   1.118   2.823 -1.3404 -0.0938  1.3665
 6815SOL     OW32077   1.722   4.411  10.439  0.2012  0.3197  0.4700
 6815SOL    HW132078   1.699   4.318  10.449 -2.2546  0.9392  0.6995
 6815SOL    HW232079   1.800   4.423  10.493  2.1071 -1.1457 -2.0048
 6816SOL     OW32080   4.495   1.387   3.458 -0.0955  0.5072  0.3205
 6816SOL    HW132081   4.517   1.379   3.365  0.9977 -0.5280  0.6722
 6816SOL    HW232082   4.563   1.451   3.478  0.4245  0.2219 -0.5375
 6817SOL     OW32083   2.815   1.951   9.804  0.0692 -0.2051  0.1776
 6817SOL    HW132084   2.860   2.031   9.778  0.7017 -1.9992 -4.2056
 6817SOL    HW232085   2.777   1.966   9.891  0.0247  1.7525 -0.1820
 6818SOL     OW32086   3.829   0.143   9.666 -0.4232 -0.3064 -0.0651
 6818SOL    HW132087   3.903   0.100   9.709 -1.3345 -2.5780 -0.7548
 6818SOL    HW232088   3.868   0.228   9.648 -0.8017  0.4586  2.8317
 6819SOL     OW32089   3.641   3.906   1.866 -0.1482 -0.1761 -0.4846
 6819SOL    HW132090   3.617   3.934   1.954 -1.5101  1.2366 -1.2960
 6819SOL    HW232091   3.590   3.827   1.848  0.1674 -0.7302  1.0926
 6820SOL     OW32092   1.677   2.464   7.179 -0.0488 -0.2554  0.0489
 6820SOL    HW132093   1.636   2.504   7.102 -1.1855  1.3125  1.4665
 6820SOL    HW232094   1.602   2.418   7.217  1.3241 -2.0517  0.5345
 6821SOL     OW32095   3.545   2.879   9.450  0.4440  0.8561  0.3809
 6821SOL    HW132096   3.505   2.943   9.510 -1.4865 -0.4290  0.4513
 6821SOL    HW232097   3.513   2.917   9.368 -3.4657  1.2594  2.0721
 6822SOL     OW32098   3.186   0.734   3.245  0.1964  0.2761  0.1386
 6822SOL    HW132099   3.106   0.750   3.295  1.3077  2.4553  1.1745
 6822SOL    HW232100   3.216   0.824   3.234 -1.8675  0.8893 -0.4723
 6823SOL     OW32101   0.863   3.309  10.873  0.5210 -0.4248  0.0656
 6823SOL    HW132102   0.824   3.331  10.957 -0.3306  1.4413 -0.8133
 6823SOL    HW232103   0.859   3.214  10.865  3.4555 -0.5292 -0.2777
 6824SOL     OW32104   4.089   2.502   2.533  0.1994  0.0764 -0.2190
 6824SOL    HW132105   4.067   2.566   2.466 -0.9899  1.2892  1.3288
 6824SOL    HW232106   4.108   2.564   2.604  0.9470  0.2685 -0.5920
 6825SOL     OW32107   0.759   4.598   6.464  0.0855 -0.0412  0.2899
 6825SOL    HW132108   0.842   4.589   6.417 -0.3554 -2.0300 -0.1125
 6825SOL    HW232109   0.759   4.692   6.449  0.2385 -0.1250 -0.2543
 6826SOL     OW32110   0.898   4.515   2.458  0.3962 -0.5464  0.2180
 6826SOL    HW132111   0.860   4.504   2.371  0.2289 -1.9722  0.4698
 6826SOL    HW232112   0.921   4.607   2.444 -0.7422 -0.3859 -0.6383
 6827SOL     OW32113   2.323   4.052   6.785  0.0977 -0.3617  0.6789
 6827SOL    HW132114   2.350   4.104   6.860 -1.0033  2.6773 -1.0322
 6827SOL    HW232115   2.231   4.077   6.777 -0.1954 -2.0344 -1.0727
 6828SOL     OW32116   2.238   2.047  10.160 -0.3712  0.0350  0.2761
 6828SOL    HW132117   2.232   2.133  10.118 -1.7150 -0.9607 -1.5352
 6828SOL    HW232118   2.329   2.047  10.191  0.8936 -0.1756 -3.5182
 6829SOL     OW32119   0.144   2.950   2.315 -0.5837 -0.2247  0.1736
 6829SOL    HW132120   0.051   2.961   2.332 -0.3387  0.6433  0.9891
 6829SOL    HW232121   0.136   2.856   2.297  1.0471 -0.7966  2.4177
 6830SOL     OW32122   1.404   4.597   5.525 -0.1624 -0.2865 -0.5902
 6830SOL    HW132123   1.407   4.558   5.437  2.0533 -0.1537 -0.5793
 6830SOL    HW232124   1.377   4.517   5.571 -1.4864 -0.2212 -1.2488
 6831SOL     OW32125   2.149   2.625  10.106  0.1111  0.0418 -0.4689
 6831SOL    HW132126   2.165   2.706  10.155  1.8925  0.5163 -1.8589
 6831SOL    HW232127   2.227   2.625  10.051  0.0477 -0.1815 -0.5594
 6832SOL     OW32128   0.998   0.717   3.823  0.2127  0.3282 -0.2646
 6832SOL    HW132129   0.914   0.682   3.850  0.7835 -0.9528 -0.1557
 6832SOL    HW232130   1.012   0.767   3.903  1.4250 -0.6232  0.1110
 6833SOL     OW32131   4.648   4.653   7.448 -0.1562  0.3560  0.3688
 6833SOL    HW132132   4.641   4.707   7.528  1.4360  1.6425 -0.3506
 6833SOL    HW232133   4.692   4.581   7.492  0.1402 -0.7373 -1.7765
 6834SOL     OW32134   1.196   2.288  13.333  0.1225 -0.1424 -0.6252
 6834SOL    HW132135   1.261   2.309  13.400 -0.1335  0.3629 -0.5341
 6834SOL    HW232136   1.118   2.336  13.361 -0.0911 -0.8374 -0.0110
 6835SOL     OW32137   2.115   1.020   4.444 -0.2419 -0.0671 -0.2475
 6835SOL    HW132138   2.172   0.956   4.485  1.3685  0.5590 -1.4895
 6835SOL    HW232139   2.093   0.969   4.366 -1.0462 -1.0748  0.6314
 6836SOL     OW32140   0.322   2.676   5.280 -0.1373  0.0870  0.4960
 6836SOL    HW132141   0.351   2.612   5.214 -0.7031  0.7117 -0.3516
 6836SOL    HW232142   0.251   2.631   5.325 -1.4868  1.0614 -0.6862
 6837SOL     OW32143   3.957   0.203   5.629  0.0301  0.7009  0.0851
 6837SOL    HW132144   4.039   0.243   5.600 -0.3057  1.6284  0.4178
 6837SOL    HW232145   3.977   0.112   5.608  1.1366  1.1482 -0.7805
 6838SOL     OW32146   3.240   2.223  13.213 -0.5674 -0.1255 -0.4622
 6838SOL    HW132147   3.146   2.227  13.196 -0.1394 -1.5787 -3.1439
 6838SOL    HW232148   3.244   2.131  13.239  0.4556 -0.6939 -2.6803
 6839SOL     OW32149   2.490   0.807   5.239  0.5418  0.0266  0.0052
 6839SOL    HW132150   2.460   0.849   5.159 -2.4811 -1.4841  0.3557
 6839SOL    HW232151   2.581   0.836   5.237  0.6840 -0.4945 -1.3736
 6840SOL     OW32152   1.439   1.566   4.310 -0.0577 -0.0076  0.8079
 6840SOL    HW132153   1.523   1.538   4.273 -0.0572  1.8514 -0.6375
 6840SOL    HW232154   1.446   1.660   4.328 -0.0418 -0.1378  1.4757
 6841SOL     OW32155   1.837   1.718   7.900  0.0534  0.5275  0.0774
 6841SOL    HW132156   1.918   1.764   7.923  0.7137 -0.5015 -0.2177
 6841SOL    HW232157   1.792   1.713   7.985  0.0972 -0.8196  0.0142
 6842SOL     OW32158   0.240   3.396   9.654  0.0828  0.0607 -0.2104
 6842SOL    HW132159   0.309   3.380   9.588 -1.2516 -1.8315 -1.1604
 6842SOL    HW232160   0.170   3.444   9.610  0.9366 -0.4278 -2.1220
 6843SOL     OW32161   3.189   2.607   2.278  0.4059 -0.2229  0.3107
 6843SOL    HW132162   3.169   2.698   2.295 -0.4568 -0.0594 -1.5603
 6843SOL    HW232163   3.177   2.590   2.371  2.7959  0.5858  0.7779
 6844SOL     OW32164   4.184   3.929   4.597 -0.1040  0.0094  0.9488
 6844SOL    HW132165   4.145   3.870   4.661  2.0049 -0.8504  1.4245
 6844SOL    HW232166   4.146   3.894   4.517 -0.5753  3.6089 -0.4012
 6845SOL     OW32167   3.538   2.225   6.716  0.1755  0.3768 -0.5126
 6845SOL    HW132168   3.521   2.202   6.808 -3.7180  2.4021 -0.7156
 6845SOL    HW232169   3.565   2.315   6.734  0.1282  0.4689 -0.9167
 6846SOL     OW32170   4.444   2.602   9.467 -0.4088 -0.0066 -0.1260
 6846SOL    HW132171   4.442   2.553   9.550  4.0247  0.6788  0.3672
 6846SOL    HW232172   4.522   2.655   9.477 -0.8751  0.5635  0.4844
 6847SOL     OW32173   4.146   1.554   8.031  0.2674  0.0766 -0.2370
 6847SOL    HW132174   4.167   1.468   7.994  1.3377  0.5869 -0.8129
 6847SOL    HW232175   4.172   1.544   8.122 -0.9792  0.7878  0.1931
 6848SOL     OW32176   2.770   0.395   5.745 -0.0969 -0.0638  0.3868
 6848SOL    HW132177   2.739   0.326   5.804 -2.0368 -0.9313 -1.6639
 6848SOL    HW232178   2.788   0.346   5.665  0.4700  0.5339  0.1492
 6849SOL     OW32179   4.182   1.395  11.778  0.0576 -0.1831 -0.2442
 6849SOL    HW132180   4.144   1.308  11.779  2.4720 -1.2705 -2.1275
 6849SOL    HW232181   4.164   1.421  11.868 -0.7752 -0.6731 -0.2727
 6850SOL     OW32182   1.963   1.155   1.601  0.0077  0.2843  0.3666
 6850SOL    HW132183   1.904   1.191   1.535  2.5758  0.4452 -1.8047
 6850SOL    HW232184   2.003   1.231   1.643  1.6143  0.5254 -1.6536
 6851SOL     OW32185   0.047   1.940  12.786 -0.2341 -0.2715 -0.6007
 6851SOL    HW132186   0.113   1.875  12.809  1.8792  2.3005  0.6692
 6851SOL    HW232187   0.055   1.930  12.691  3.2948 -1.7435 -0.1131
 6852SOL     OW32188   4.490   2.733   8.599  0.1971 -0.6628 -0.6713
 6852SOL    HW132189   4.498   2.764   8.509  1.8927  1.9411  0.3642
 6852SOL    HW232190   4.516   2.643   8.581 -1.0197 -2.0595  4.4657
 6853SOL     OW32191   4.527   2.204   5.778 -0.2386 -0.0352  0.4085
 6853SOL    HW132192   4.535   2.154   5.859  0.9685  2.2850  1.7064
 6853SOL    HW232193   4.532   2.293   5.812 -0.6885 -0.5868  1.9023
 6854SOL     OW32194   0.860   4.129   4.731 -0.6192  0.1049 -0.2410
 6854SOL    HW132195   0.770   4.157   4.748 -0.9104 -1.5401  0.8582
 6854SOL    HW232196   0.849   4.040   4.763 -1.1001  1.1951  2.6092
 6855SOL     OW32197   0.332   3.218  15.723  0.0537  0.1732 -0.1957
 6855SOL    HW132198   0.271   3.146  15.709  0.0396  0.1102  0.1894
 6855SOL    HW232199   0.399   3.182  15.664  1.5044  0.3220  1.3481
 6856SOL     OW32200   0.455   0.795  13.120  0.0969  0.1871  0.2103
 6856SOL    HW132201   0.465   0.884  13.085  4.0139  0.6109  2.3250
 6856SOL    HW232202   0.360   0.784  13.117  0.1191 -0.1693  0.9792
 6857SOL     OW32203   4.500   1.957   2.809 -0.0013  0.0828  0.1339
 6857SOL    HW132204   4.509   1.984   2.900 -1.1191 -1.3305  0.6692
 6857SOL    HW232205   4.510   1.862   2.804 -1.4113  0.0783 -2.5410
 6858SOL     OW32206   3.968   3.940   6.005 -0.4607  0.3399 -0.1960
 6858SOL    HW132207   3.901   3.984   6.056 -1.0001 -1.2866  0.4964
 6858SOL    HW232208   4.040   4.003   6.011 -0.7708  0.5510  1.2875
 6859SOL     OW32209   3.192   3.839   2.816  0.1357  0.8336  0.1590
 6859SOL    HW132210   3.097   3.830   2.810  0.1400  0.7827  0.1702
 6859SOL    HW232211   3.210   3.932   2.830 -0.4574  1.1373 -1.0532
 6860SOL     OW32212   1.608   3.166   2.674 -0.2774  0.0669  0.2511
 6860SOL    HW132213   1.644   3.253   2.690  2.2091 -0.9197 -0.0543
 6860SOL    HW232214   1.550   3.194   2.603 -0.7317  0.3764  0.7405
 6861SOL     OW32215   2.632   0.886   3.817 -0.1965  0.2523 -0.3467
 6861SOL    HW132216   2.552   0.900   3.868  0.3347  0.9226  0.3124
 6861SOL    HW232217   2.666   0.974   3.801 -0.0349 -0.0719 -1.7681
 6862SOL     OW32218   1.576   0.739  14.695 -0.1291  0.0134 -0.4004
 6862SOL    HW132219   1.638   0.757  14.766 -1.5982 -0.5854  1.0403
 6862SOL    HW232220   1.625   0.684  14.635 -1.5542  0.4193 -1.9372
 6863SOL     OW32221   1.336   4.166   4.030 -0.0307  0.3123 -0.0321
 6863SOL    HW132222   1.344   4.104   4.103  0.2930 -0.6468 -0.8913
 6863SOL    HW232223   1.387   4.124   3.961 -2.1571 -2.5886  0.1582
 6864SOL     OW32224   3.674   2.800   4.744  0.0835 -0.0206  0.3062
 6864SOL    HW132225   3.757   2.753   4.737 -1.3013 -2.4884  0.6019
 6864SOL    HW232226   3.627   2.730   4.788  0.2993  0.5945  1.5181
 6865SOL     OW32227   1.695   1.963   5.770  0.3295 -0.0988  0.0450
 6865SOL    HW132228   1.613   1.923   5.741 -0.2819  1.1076  0.0893
 6865SOL    HW232229   1.658   2.041   5.812 -1.0502 -1.2983  1.0557
 6866SOL     OW32230   2.343   1.733   5.999 -0.5547 -0.4460  0.9928
 6866SOL    HW132231   2.418   1.736   6.058  1.0938  1.0841 -1.1553
 6866SOL    HW232232   2.373   1.670   5.934 -0.2553  1.6007 -0.8713
 6867SOL     OW32233   3.674   2.290   3.549 -0.7787  0.0474  0.2534
 6867SOL    HW132234   3.671   2.283   3.644  2.3196 -0.6856  0.3153
 6867SOL    HW232235   3.760   2.330   3.535  0.2732 -1.9500  1.0112
 6868SOL     OW32236   3.048   4.066  17.285 -0.3016 -0.0228  0.2783
 6868SOL    HW132237   3.045   4.109  17.371  0.8085  0.6327 -0.0197
 6868SOL    HW232238   3.077   4.144  17.238 -1.1414 -0.9096 -1.6933
 6869SOL     OW32239   3.479   4.406   5.858  0.0805 -0.7829 -0.2578
 6869SOL    HW132240   3.535   4.341   5.815  1.3608 -0.8050  1.4371
 6869SOL    HW232241   3.437   4.344   5.917  1.6635 -2.6939 -1.1173
 6870SOL     OW32242   2.848   1.307   1.882 -0.3461 -0.4389 -0.4851
 6870SOL    HW132243   2.755   1.322   1.866 -0.4078 -1.3092 -0.9459
 6870SOL    HW232244   2.882   1.396   1.883 -1.6920  0.0606  0.1754
 6871SOL     OW32245   3.297   3.713   5.405  0.6393  0.2200 -0.1608
 6871SOL    HW132246   3.213   3.680   5.436  0.8688  0.7673  1.0310
 6871SOL    HW232247   3.347   3.635   5.380 -1.6156 -0.7259 -1.8042
 6872SOL     OW32248   3.760   4.409  13.240  0.2835 -0.5963 -0.3103
 6872SOL    HW132249   3.669   4.398  13.268  0.2702  0.0900 -0.0915
 6872SOL    HW232250   3.792   4.322  13.216  0.6546 -0.8620  1.1032
 6873SOL     OW32251   2.859   1.999  15.478  0.1551  0.4035  0.3371
 6873SOL    HW132252   2.825   1.911  15.462 -0.5306  0.5906  0.7738
 6873SOL    HW232253   2.944   1.962  15.500  0.9735  0.8422 -2.0683
 6874SOL     OW32254   0.343   4.688   6.500  0.6102  0.1246  0.0655
 6874SOL    HW132255   0.263   4.648   6.534  1.3119 -1.4063 -0.0868
 6874SOL    HW232256   0.369   4.619   6.440  1.7032  0.8547 -0.3002
 6875SOL     OW32257   0.946   1.401   3.697 -0.1252  0.7850  0.0858
 6875SOL    HW132258   1.011   1.343   3.736 -1.0842  0.6635  1.4948
 6875SOL    HW232259   0.905   1.340   3.636 -1.3827  2.2135 -0.5156
 6876SOL     OW32260   1.945   2.608   7.901  0.7999  0.1422 -0.9372
 6876SOL    HW132261   1.977   2.611   7.992  0.6258 -0.5667 -0.8537
 6876SOL    HW232262   1.854   2.635   7.912  0.7000 -1.4287  2.0228
 6877SOL     OW32263   1.206   2.714  12.631 -0.1072 -0.4623  0.6674
 6877SOL    HW132264   1.134   2.750  12.684  1.0426  0.1864  1.7988
 6877SOL    HW232265   1.279   2.765  12.665  0.0863 -0.7459  0.6825
 6878SOL     OW32266   0.582   1.123   4.940  0.0529  0.0014  0.0576
 6878SOL    HW132267   0.506   1.178   4.960 -1.8478 -1.8559 -1.9228
 6878SOL    HW232268   0.615   1.161   4.859 -0.8535 -1.1119 -0.8420
 6879SOL     OW32269   3.482   4.192   8.403  0.6408  0.8452 -0.1300
 6879SOL    HW132270   3.417   4.221   8.339  1.0341 -0.2955 -1.0493
 6879SOL    HW232271   3.467   4.097   8.406  1.2165  0.7954  1.1228
 6880SOL     OW32272   3.511   4.138   4.797 -0.2542  0.7758  0.5494
 6880SOL    HW132273   3.514   4.173   4.708  1.4665  0.0933  0.3487
 6880SOL    HW232274   3.586   4.185   4.833  1.5193 -0.8232 -1.0672
 6881SOL     OW32275   1.075   1.177   9.491  0.1464 -0.1610  0.1266
 6881SOL    HW132276   0.987   1.146   9.473 -1.0258  4.7338 -2.5491
 6881SOL    HW232277   1.062   1.265   9.528  0.3667  0.0299 -0.2463
 6882SOL     OW32278   1.654   3.942  16.990  0.3972  0.1247  1.1305
 6882SOL    HW132279   1.568   3.903  17.008 -0.0807  0.7691  0.2291
 6882SOL    HW232280   1.644   3.964  16.898  1.7077 -0.3588  0.8779
 6883SOL     OW32281   0.442   4.435   2.199 -0.0025  0.3458 -0.0340
 6883SOL    HW132282   0.408   4.400   2.117  1.8159 -0.3215 -0.5128
 6883SOL    HW232283   0.474   4.347   2.221 -0.7463  0.1157  0.1248
 6884SOL     OW32284   4.661   3.771   9.994 -0.4613 -0.0419  0.0738
 6884SOL    HW132285   4.622   3.837   9.938  0.9289  2.6240  2.2621
 6884SOL    HW232286   4.611   3.697   9.961 -0.6725 -0.4810  1.3546
 6885SOL     OW32287   2.577   2.694   8.880 -0.2883  0.2619  0.2986
 6885SOL    HW132288   2.546   2.715   8.792 -0.5352 -0.5031  0.2005
 6885SOL    HW232289   2.657   2.746   8.885 -0.5279  0.6059  0.5105
 6886SOL     OW32290   4.084   4.013  16.796  0.2221  0.7723 -0.3231
 6886SOL    HW132291   4.073   4.106  16.816  1.6267  0.5673  1.3529
 6886SOL    HW232292   4.123   4.014  16.708 -0.0711  0.2008 -0.4575
 6887SOL     OW32293   3.050   0.355   1.907  0.7799 -0.1914 -0.1414
 6887SOL    HW132294   2.979   0.292   1.917 -0.6263  1.7375  2.1582
 6887SOL    HW232295   3.100   0.310   1.839  0.5821  0.3699 -0.6627
 6888SOL     OW32296   1.908   2.691  14.013 -0.5314  0.8913 -0.2250
 6888SOL    HW132297   1.932   2.731  13.930 -0.0305 -0.4547 -0.7396
 6888SOL    HW232298   1.936   2.755  14.079 -0.3461 -0.8317  1.3779
 6889SOL     OW32299   2.895   2.238   5.857 -0.1639 -0.1203 -1.0940
 6889SOL    HW132300   2.928   2.304   5.797 -1.6648  0.4323 -1.2974
 6889SOL    HW232301   2.899   2.291   5.936 -1.6287  1.1427 -1.8730
 6890SOL     OW32302   4.351   2.573   6.819  0.3790  0.0622  1.0333
 6890SOL    HW132303   4.362   2.654   6.769  0.7593  0.2324  1.3955
 6890SOL    HW232304   4.259   2.581   6.845 -0.6934 -2.0381 -2.1611
 6891SOL     OW32305   1.680   1.488   9.665 -0.0780  0.4653  0.0413
 6891SOL    HW132306   1.775   1.496   9.665 -0.1309  1.1853 -1.7631
 6891SOL    HW232307   1.664   1.583   9.657  0.9004  0.8369  2.5916
 6892SOL     OW32308   4.525   3.803   7.418  0.3564  0.0304 -0.0960
 6892SOL    HW132309   4.536   3.795   7.513  0.4410  2.0617  0.0575
 6892SOL    HW232310   4.463   3.730   7.411 -1.6883  1.6561  1.2109
 6893SOL     OW32311   1.260   0.228   7.905 -0.4175  0.1180  0.3452
 6893SOL    HW132312   1.281   0.138   7.929  0.4478 -0.4800 -2.6293
 6893SOL    HW232313   1.310   0.270   7.974  0.2274 -0.2403  0.0934
 6894SOL     OW32314   2.772   1.494   0.070  0.7913 -0.4093  0.2300
 6894SOL    HW132315   2.819   1.555   0.013 -2.4296  1.0002 -0.9130
 6894SOL    HW232316   2.844   1.437   0.097  2.3563  2.5884  2.2541
 6895SOL     OW32317   1.549   1.970   4.873 -0.4829 -0.4114  0.2505
 6895SOL    HW132318   1.633   1.939   4.907 -1.1909  1.0145  3.2798
 6895SOL    HW232319   1.480   1.968   4.939  2.1128 -1.4412  2.8841
 6896SOL     OW32320   3.422   2.133  15.867  0.7483  0.2805 -0.3897
 6896SOL    HW132321   3.462   2.215  15.840  3.1342 -0.0397  2.0908
 6896SOL    HW232322   3.492   2.076  15.901  0.6319  1.2956  1.5566
 6897SOL     OW32323   1.898   0.934   9.394 -0.1440  0.0363 -0.3309
 6897SOL    HW132324   1.903   0.896   9.306  0.0978 -1.1190  0.1798
 6897SOL    HW232325   1.941   1.018   9.376 -1.2167  0.4722 -0.8096
 6898SOL     OW32326   2.349   0.596   8.294 -0.5364 -0.0891  0.6859
 6898SOL    HW132327   2.354   0.670   8.233  1.2846 -1.9901 -1.4493
 6898SOL    HW232328   2.371   0.641   8.376  0.5014 -1.1356  0.9744
 6899SOL     OW32329   1.317   3.179   3.578  0.0072  0.0076  0.3279
 6899SOL    HW132330   1.350   3.217   3.497 -0.8632  2.0126  0.9201
 6899SOL    HW232331   1.399   3.150   3.617  0.9526  1.3051 -0.7151
 6900SOL     OW32332   2.817   1.711   5.798  0.4248 -0.2767  0.0521
 6900SOL    HW132333   2.820   1.617   5.816  1.3260 -0.0773  0.9055
 6900SOL    HW232334   2.819   1.745   5.888 -0.1593  0.6778 -0.2887
 6901SOL     OW32335   0.542   2.062   6.323 -0.2000 -0.1856 -0.2634
 6901SOL    HW132336   0.581   2.111   6.395 -1.1655 -0.7517  0.6297
 6901SOL    HW232337   0.492   2.134   6.284  0.4454  1.0622  1.1814
 6902SOL     OW32338   4.582   3.980   3.789  0.0934  0.0207 -0.0803
 6902SOL    HW132339   4.502   4.016   3.750 -0.5247 -1.4618 -0.1909
 6902SOL    HW232340   4.614   4.059   3.832 -1.1521 -0.3341  1.4891
 6903SOL     OW32341   1.352   2.656   0.950 -0.3564  0.3010  0.0189
 6903SOL    HW132342   1.283   2.706   0.907 -0.3102  0.0250 -0.3778
 6903SOL    HW232343   1.343   2.684   1.041 -0.7128 -0.0302  0.0813
 6904SOL     OW32344   0.695   4.271   0.110 -0.1405 -0.5365  0.0996
 6904SOL    HW132345   0.694   4.249   0.017  0.8138  1.2146 -0.3400
 6904SOL    HW232346   0.604   4.297   0.124 -0.1394 -0.0770 -0.7678
 6905SOL     OW32347   0.467   2.161  12.989  0.2098  0.2208  0.1392
 6905SOL    HW132348   0.526   2.148  13.063  1.9689  2.2721 -0.9210
 6905SOL    HW232349   0.402   2.091  12.993  1.2182 -0.6795  0.5452
 6906SOL     OW32350   4.293   2.342   4.524  0.1630  0.4573  0.1406
 6906SOL    HW132351   4.271   2.288   4.601 -1.3183 -0.8841 -1.2342
 6906SOL    HW232352   4.358   2.405   4.555  2.1646 -1.2083 -0.6571
 6907SOL     OW32353   0.759   3.231   1.451  0.4333 -0.7088 -0.2909
 6907SOL    HW132354   0.815   3.194   1.383  1.2127  0.2571 -0.1747
 6907SOL    HW232355   0.674   3.197   1.424  0.7016  0.1313 -2.2024
 6908SOL     OW32356   2.447   1.749   5.546  0.2615 -0.0011 -0.3692
 6908SOL    HW132357   2.533   1.782   5.520 -0.2096 -0.0607 -2.0463
 6908SOL    HW232358   2.464   1.694   5.622 -0.0921  0.0291 -0.2716
 6909SOL     OW32359   1.461   0.324   7.193 -0.3410 -0.2464  0.2251
 6909SOL    HW132360   1.466   0.231   7.211  0.1417  0.4550  3.6600
 6909SOL    HW232361   1.500   0.319   7.105 -0.0489 -0.9996  0.4016
 6910SOL     OW32362   1.532   1.602   7.200 -0.4103  0.3775 -0.4147
 6910SOL    HW132363   1.450   1.601   7.250 -0.3888 -0.6650 -0.3912
 6910SOL    HW232364   1.564   1.687   7.229  0.4045 -0.1349  0.2075
 6911SOL     OW32365   2.120   4.230  11.386  0.0535 -0.1123  0.1852
 6911SOL    HW132366   2.153   4.286  11.315  0.5657 -1.2066 -0.4538
 6911SOL    HW232367   2.160   4.143  11.377 -0.4803 -0.0131 -3.1387
 6912SOL     OW32368   1.754   1.516   4.267  0.0412  0.2224  0.1229
 6912SOL    HW132369   1.838   1.537   4.227  0.6149 -3.1144 -0.3844
 6912SOL    HW232370   1.782   1.553   4.351  2.0391  0.1016 -0.4975
 6913SOL     OW32371   1.803   1.890   8.675 -0.6035 -0.1679 -0.3135
 6913SOL    HW132372   1.854   1.955   8.627 -1.8020  1.8265  1.1457
 6913SOL    HW232373   1.766   1.927   8.755  0.6293  0.9744 -0.2656
 6914SOL     OW32374   1.123   4.657   0.431  0.0555  0.0416  0.2929
 6914SOL    HW132375   1.168   4.672   0.348 -0.5450  1.3602  0.2174
 6914SOL    HW232376   1.055   4.723   0.432 -0.2492 -0.2918  1.7408
 6915SOL     OW32377   1.862   0.218   5.821 -0.1453 -0.1989  0.6798
 6915SOL    HW132378   1.954   0.237   5.808 -0.2271 -0.7681 -0.6989
 6915SOL    HW232379   1.872   0.123   5.825 -0.9608 -0.2941  0.4319
 6916SOL     OW32380   2.145   2.608   8.900 -0.0028 -0.1657  0.1093
 6916SOL    HW132381   2.064   2.557   8.900  0.1908 -0.4743 -0.0405
 6916SOL    HW232382   2.140   2.652   8.816 -1.4750 -2.7724 -1.1492
 6917SOL     OW32383   1.117   2.973   8.505 -0.3970  0.2421 -0.4114
 6917SOL    HW132384   1.104   3.068   8.507  1.1433  0.4764 -2.3571
 6917SOL    HW232385   1.062   2.947   8.579 -0.3864 -1.2132 -0.9084
 6918SOL     OW32386   2.806   1.952   3.590  0.0639  0.1352  0.1653
 6918SOL    HW132387   2.812   1.968   3.684 -0.1228 -1.2394  0.4170
 6918SOL    HW232388   2.867   1.880   3.577  0.1694 -0.1815  2.3398
 6919SOL     OW32389   1.038   1.634   6.945  0.2173 -0.8870  0.5469
 6919SOL    HW132390   1.125   1.668   6.964 -0.0457  1.3132 -2.1828
 6919SOL    HW232391   0.985   1.711   6.966 -0.8322 -1.5954  0.5471
 6920SOL     OW32392   4.195   4.404   3.390  0.1798  0.1790 -0.3396
 6920SOL    HW132393   4.184   4.476   3.328  0.0876 -1.1821 -1.8958
 6920SOL    HW232394   4.291   4.410   3.390  0.2235 -0.4699 -0.7417
 6921SOL     OW32395   4.033   2.445   4.521  0.5832  0.0163 -0.2785
 6921SOL    HW132396   4.118   2.417   4.487  0.1966 -0.1537 -1.0952
 6921SOL    HW232397   4.044   2.445   4.617 -2.3042  1.6558  0.0448
 6922SOL     OW32398   1.556   1.272   7.494 -0.2886 -0.3370 -0.4810
 6922SOL    HW132399   1.493   1.326   7.541  0.9063  0.2515  0.4527
 6922SOL    HW232400   1.531   1.286   7.403 -0.1579 -2.6546 -0.8715
 6923SOL     OW32401   2.904   0.182   6.314 -0.0828  0.5299 -0.4602
 6923SOL    HW132402   2.935   0.147   6.397  2.3124  1.2949 -1.0291
 6923SOL    HW232403   2.961   0.258   6.302 -0.4255  0.9111  0.3433
 6924SOL     OW32404   0.846   3.185  11.143  0.0234 -0.1752 -0.5089
 6924SOL    HW132405   0.872   3.166  11.233  0.0022 -0.6692 -0.6052
 6924SOL    HW232406   0.852   3.099  11.102  1.6038 -1.9969  3.5426
 6925SOL     OW32407   0.403   3.395   7.515  0.1677  0.5190 -0.3132
 6925SOL    HW132408   0.315   3.432   7.520 -0.7430 -1.5335 -0.7960
 6925SOL    HW232409   0.433   3.428   7.430  0.3289 -1.3070 -0.9692
 6926SOL     OW32410   4.241   4.594   4.812 -0.4613  0.1620  0.3717
 6926SOL    HW132411   4.251   4.549   4.896  0.1631 -0.9671 -0.3154
 6926SOL    HW232412   4.199   4.676   4.838  2.1273  1.0224  1.8415
 6927SOL     OW32413   2.738   2.326   0.122  0.8867 -0.7378  0.7450
 6927SOL    HW132414   2.676   2.295   0.189 -0.5624  0.3936 -0.0719
 6927SOL    HW232415   2.712   2.415   0.099 -0.8244 -2.4921 -4.1754
 6928SOL     OW32416   4.735   1.143   2.061 -0.3835  0.0510  0.4380
 6928SOL    HW132417   0.039   1.059   2.064 -0.2545  0.0939 -0.3731
 6928SOL    HW232418   4.666   1.125   2.126  1.8381 -1.1536  2.4441
 6929SOL     OW32419   1.972   2.198  15.070 -0.0614 -0.2751 -0.0001
 6929SOL    HW132420   2.044   2.254  15.039 -0.0324 -0.3425 -0.0531
 6929SOL    HW232421   1.893   2.248  15.046  1.8153  2.1672 -1.0950
 6930SOL     OW32422   3.362   0.545   2.062 -0.7308 -0.1525  0.5491
 6930SOL    HW132423   3.355   0.459   2.019  0.0909 -0.4261  0.9559
 6930SOL    HW232424   3.382   0.603   1.989 -2.1830 -0.4486 -0.0926
 6931SOL     OW32425   3.066   4.361  14.828  0.1751  0.4840  0.2655
 6931SOL    HW132426   3.027   4.368  14.915 -0.6974  1.4580 -0.2043
 6931SOL    HW232427   3.152   4.397  14.850 -0.3759  1.7549  0.3559
 6932SOL     OW32428   1.024   2.503   4.108  0.5650 -0.4909 -0.2415
 6932SOL    HW132429   0.989   2.416   4.088 -3.0868  0.8335  0.4764
 6932SOL    HW232430   0.977   2.567   4.055  3.1048  1.6617  0.1062
 6933SOL     OW32431   3.778   3.321   3.408  0.4764  0.0152  0.3117
 6933SOL    HW132432   3.821   3.283   3.331  1.3637 -0.2358  0.9349
 6933SOL    HW232433   3.716   3.379   3.362 -3.1207 -3.3937  0.9442
 6934SOL     OW32434   0.262   0.685   1.740 -0.7502 -0.0312  0.3312
 6934SOL    HW132435   0.190   0.719   1.793 -1.7932 -0.8969 -0.5149
 6934SOL    HW232436   0.232   0.730   1.660 -1.0504 -0.4453  0.2076
 6935SOL     OW32437   4.300   1.610   9.008  0.0524 -0.4035 -0.1421
 6935SOL    HW132438   4.263   1.604   8.920 -2.5242  0.4710  0.8956
 6935SOL    HW232439   4.389   1.640   8.987 -0.4017  1.5755  0.6811
 6936SOL     OW32440   2.793   1.696   5.376 -0.0154 -0.0734 -0.6665
 6936SOL    HW132441   2.886   1.712   5.364  0.0488 -0.0363 -0.1460
 6936SOL    HW232442   2.762   1.752   5.448  2.0884  0.9865 -0.6019
 6937SOL     OW32443   4.728   0.228  13.304  0.0597 -0.1345  0.3157
 6937SOL    HW132444   4.708   0.154  13.362  0.5853 -1.8391 -1.7093
 6937SOL    HW232445   0.030   0.288  13.366  0.3037  0.2541 -0.2372
 6938SOL     OW32446   4.216   1.206   3.142 -0.2014 -0.0260 -0.7176
 6938SOL    HW132447   4.139   1.150   3.134 -0.1421 -0.2711  0.3435
 6938SOL    HW232448   4.173   1.287   3.171  0.4003 -0.0974  0.3799
 6939SOL     OW32449   3.096   1.777   7.538 -0.7364  0.3675  0.1594
 6939SOL    HW132450   3.130   1.826   7.612 -0.1907  1.0031 -0.5191
 6939SOL    HW232451   3.038   1.838   7.492 -1.4552  1.4131  2.4415
 6940SOL     OW32452   0.044   2.945   8.654  0.4110 -0.3948 -0.3620
 6940SOL    HW132453   0.049   3.037   8.679 -2.0101 -0.3623 -0.0036
 6940SOL    HW232454   4.702   2.946   8.606  0.0238 -1.3515  0.2829
 6941SOL     OW32455   0.918   0.693   2.411  0.0165 -0.3714 -0.2211
 6941SOL    HW132456   0.833   0.733   2.394 -0.7329 -2.9910 -2.8675
 6941SOL    HW232457   0.907   0.661   2.500  0.1098  0.5124  0.1047
 6942SOL     OW32458   0.378   4.521   6.288  0.0451  0.6820 -0.1734
 6942SOL    HW132459   0.457   4.551   6.242  1.0121 -2.2764 -0.4146
 6942SOL    HW232460   0.329   4.486   6.214  0.5812 -0.4164 -0.0079
 6943SOL     OW32461   1.687   1.778   2.081  0.3882  0.3707 -0.3169
 6943SOL    HW132462   1.774   1.809   2.055  0.9672 -2.2503 -1.4092
 6943SOL    HW232463   1.686   1.798   2.175 -0.2034 -4.2527  0.6520
 6944SOL     OW32464   4.686   1.591   6.811 -0.0255 -0.3644  0.9387
 6944SOL    HW132465   4.694   1.684   6.790  0.7942 -1.4119 -3.3410
 6944SOL    HW232466   4.706   1.572   6.903  4.3746  0.2569  0.1046
 6945SOL     OW32467   1.343   1.800   7.798  0.2487 -0.2265 -0.1206
 6945SOL    HW132468   1.327   1.767   7.886 -0.8592  1.9599  0.4898
 6945SOL    HW232469   1.435   1.775   7.786  0.8144  1.1531  1.3779
 6946SOL     OW32470   2.798   4.434  17.542 -0.3061 -0.2877  0.1687
 6946SOL    HW132471   2.794   4.370  17.471 -3.5230  0.1600 -0.0318
 6946SOL    HW232472   2.892   4.453  17.544 -0.2052 -0.6352 -1.0119
 6947SOL     OW32473   3.104   3.620   6.179 -0.0237  0.4461 -0.5078
 6947SOL    HW132474   3.161   3.595   6.107  1.4827 -0.2125  0.9116
 6947SOL    HW232475   3.025   3.607   6.127 -0.0319 -1.2976 -0.0323
 6948SOL     OW32476   1.953   4.451   6.720 -0.6006  0.9048  0.2360
 6948SOL    HW132477   1.998   4.469   6.637 -0.9093  2.2311  0.3645
 6948SOL    HW232478   2.014   4.495   6.778 -0.2889  2.5762 -1.3487
 6949SOL     OW32479   0.971   1.839   3.307 -0.1364  0.0656 -0.0348
 6949SOL    HW132480   0.972   1.781   3.383 -0.4517 -0.2476 -0.2732
 6949SOL    HW232481   1.063   1.836   3.282  0.0267 -0.8908  0.7069
 6950SOL     OW32482   3.946   4.325   5.658  0.5475  0.7834 -0.1220
 6950SOL    HW132483   3.908   4.368   5.582 -2.9037 -0.1829  1.0743
 6950SOL    HW232484   4.038   4.350   5.651  0.9813 -0.5154  0.9164
 6951SOL     OW32485   4.560   0.679   2.334 -0.3299  0.4555 -0.4912
 6951SOL    HW132486   4.571   0.763   2.289 -1.1527  0.8461  0.0386
 6951SOL    HW232487   4.495   0.638   2.276  0.5873 -0.2181 -1.0532
 6952SOL     OW32488   2.151   3.322   3.125 -0.0244  0.2316  0.3135
 6952SOL    HW132489   2.119   3.395   3.072  0.9042  1.1845  1.0539
 6952SOL    HW232490   2.086   3.254   3.111 -0.2560 -0.0075  2.5849
 6953SOL     OW32491   0.946   0.533   9.337  0.0627 -0.3040  0.0599
 6953SOL    HW132492   0.917   0.464   9.396  1.5792  0.8994  2.1781
 6953SOL    HW232493   1.013   0.492   9.283 -1.9684 -2.3928 -0.8518
 6954SOL     OW32494   0.848   0.646   1.888 -0.2541 -0.4540 -0.5738
 6954SOL    HW132495   0.908   0.593   1.837 -1.0977 -2.2746  0.3220
 6954SOL    HW232496   0.792   0.678   1.817 -2.9263 -0.6037  1.4525
 6955SOL     OW32497   4.091   4.402   7.015  0.2230  0.5523 -0.0458
 6955SOL    HW132498   4.180   4.398   6.980  0.9981  1.2187  1.8859
 6955SOL    HW232499   4.067   4.495   7.019 -0.1340  0.4976 -0.7874
 6956SOL     OW32500   3.289   2.426   8.916 -0.0136  0.6522 -0.2750
 6956SOL    HW132501   3.231   2.351   8.906  0.9716 -0.1691  0.1132
 6956SOL    HW232502   3.331   2.412   9.001  2.6097 -1.7373 -1.9586
 6957SOL     OW32503   0.054   4.490   2.490  0.0620 -0.6286  0.0849
 6957SOL    HW132504   0.002   4.538   2.426  0.0986 -0.4568  0.1846
 6957SOL    HW232505   0.112   4.554   2.532 -1.7125 -1.1906  3.3705
 6958SOL     OW32506   3.479   3.906   9.357 -0.0578  0.1599  0.4349
 6958SOL    HW132507   3.431   3.941   9.282  0.1594  2.5891  1.4410
 6958SOL    HW232508   3.460   3.980   9.414 -0.5318 -0.8082  1.5455
 6959SOL     OW32509   0.058   1.558   8.394 -0.1175 -0.7016  0.0715
 6959SOL    HW132510   4.721   1.562   8.339  0.4413 -0.5605 -0.7093
 6959SOL    HW232511   0.037   1.637   8.445  2.1428  0.5654 -0.9729
 6960SOL     OW32512   0.595   2.096   7.227  0.0122  0.0052 -0.0538
 6960SOL    HW132513   0.679   2.082   7.272 -0.7033 -0.6595  1.0615
 6960SOL    HW232514   0.558   2.153   7.294  2.7788 -0.4249  1.8709
 6961SOL     OW32515   3.182   4.729   3.928 -0.1410  0.3376 -0.2475
 6961SOL    HW132516   3.089   4.719   3.907 -0.3905  2.4445 -0.0887
 6961SOL    HW232517   3.182   0.043   4.006 -5.1119 -0.5057  0.3986
 6962SOL     OW32518   2.290   0.124  11.578 -0.5282 -0.4306  0.2765
 6962SOL    HW132519   2.283   0.051  11.517  0.9004 -0.4090  0.0750
 6962SOL    HW232520   2.360   0.101  11.640 -1.2034 -0.0253  1.1801
 6963SOL     OW32521   2.250   0.390   8.149 -0.2247  0.3423  0.1758
 6963SOL    HW132522   2.211   0.434   8.073 -1.4832  0.6001  0.9638
 6963SOL    HW232523   2.286   0.462   8.201  1.5847 -1.2903  1.1957
 6964SOL     OW32524   4.165   4.568   5.073  0.6432 -0.0437 -0.0961
 6964SOL    HW132525   4.136   4.633   5.138 -1.4948 -1.7552  0.6809
 6964SOL    HW232526   4.121   4.491   5.109  1.8410 -0.4000  0.6076
 6965SOL     OW32527   3.652   4.632   5.995  0.0871  0.2238 -0.0643
 6965SOL    HW132528   3.675   4.720   5.966 -0.7064  0.9416  1.4692
 6965SOL    HW232529   3.566   4.616   5.956  0.6197 -0.7847 -0.8065
 6966SOL     OW32530   1.486   4.342   0.341  0.0234  0.1628 -0.1998
 6966SOL    HW132531   1.428   4.405   0.300 -2.3173 -2.5088 -1.0080
 6966SOL    HW232532   1.575   4.364   0.312 -0.1693  0.5003 -0.5353
 6967SOL     OW32533   0.717   1.755  14.077 -0.8400  0.2477 -0.1330
 6967SOL    HW132534   0.753   1.832  14.034  1.5505 -0.0265  1.3688
 6967SOL    HW232535   0.721   1.687  14.010 -1.7303 -1.3496  1.4414
 6968SOL     OW32536   0.556   3.248  11.577  0.3955  0.4469  0.0235
 6968SOL    HW132537   0.647   3.273  11.595  1.0385 -1.1930 -0.8894
 6968SOL    HW232538   0.560   3.232  11.482 -0.7523 -1.1230  0.2506
 6969SOL     OW32539   0.075   2.749   4.371  0.5357 -0.0537 -0.0092
 6969SOL    HW132540   0.036   2.807   4.437 -0.4668 -0.6237 -0.0952
 6969SOL    HW232541   4.733   2.718   4.335  1.4415 -0.6963 -1.5256
 6970SOL     OW32542   2.350   2.300   2.420  0.4368  0.3827 -0.2874
 6970SOL    HW132543   2.340   2.222   2.474 -0.6929  1.0762  0.4881
 6970SOL    HW232544   2.280   2.298   2.355 -1.0401  0.0715  1.3263
 6971SOL     OW32545   1.126   4.046   2.675  0.0369 -0.9620  0.5445
 6971SOL    HW132546   1.089   4.113   2.733  0.0990  1.3324 -2.0368
 6971SOL    HW232547   1.214   4.078   2.694 -0.4671 -1.1319  3.1289
 6972SOL     OW32548   0.554   1.216   3.361  0.0411  0.3540 -0.8236
 6972SOL    HW132549   0.514   1.219   3.448  3.0226 -0.8993  0.6107
 6972SOL    HW232550   0.527   1.299   3.322 -1.7773  0.1982  0.1037
 6973SOL     OW32551   0.364   2.351   6.592  0.3117  0.0491  0.1064
 6973SOL    HW132552   0.419   2.349   6.671  1.1727 -2.7552 -0.5454
 6973SOL    HW232553   0.427   2.320   6.526 -0.1104 -2.1383  0.7301
 6974SOL     OW32554   2.303   0.889   2.854 -0.3857  0.3923  0.4573
 6974SOL    HW132555   2.212   0.903   2.826  0.0868  1.2895 -0.6365
 6974SOL    HW232556   2.295   0.937   2.936 -2.2592 -1.3663  1.3262
 6975SOL     OW32557   4.400   3.044  16.210  0.2324 -0.4023 -0.3688
 6975SOL    HW132558   4.341   3.105  16.166 -2.5786 -1.5100  1.8544
 6975SOL    HW232559   4.472   3.061  16.149 -0.9724 -0.7612 -1.8656
 6976SOL     OW32560   1.025   4.571  11.688  0.2139  0.0010 -0.5858
 6976SOL    HW132561   1.024   4.645  11.749 -3.2791  0.0266 -0.6340
 6976SOL    HW232562   1.003   4.618  11.607 -1.5600  1.0980  0.5236
 6977SOL     OW32563   4.019   3.302   6.260 -0.1757 -0.6060  0.1799
 6977SOL    HW132564   3.995   3.327   6.349  1.5712 -1.4912  0.9023
 6977SOL    HW232565   4.044   3.210   6.270 -0.3615 -0.6874 -0.0932
 6978SOL     OW32566   1.636   3.028  15.828  0.5251  0.1007  0.0680
 6978SOL    HW132567   1.556   3.076  15.849  0.4133  1.0397 -2.4968
 6978SOL    HW232568   1.656   2.987  15.913  3.3599  0.5038 -0.3981
 6979SOL     OW32569   0.864   4.176   5.051  0.1911 -0.3189 -0.8446
 6979SOL    HW132570   0.853   4.114   5.123  1.7945  1.2950  0.7693
 6979SOL    HW232571   0.803   4.247   5.068  0.1728 -0.7092  0.7180
 6980SOL     OW32572   1.487   1.318   7.250 -0.4968  0.0820  0.6693
 6980SOL    HW132573   1.391   1.317   7.248 -0.4610 -1.4726 -0.3966
 6980SOL    HW232574   1.513   1.336   7.159 -1.4704  4.9555  1.3839
 6981SOL     OW32575   3.045   2.494  11.673 -0.5954  0.4668  0.0014
 6981SOL    HW132576   3.039   2.423  11.608  3.2438  0.1760 -0.0390
 6981SOL    HW232577   3.003   2.453  11.749  0.1443 -0.7575 -0.2469
 6982SOL     OW32578   2.187   0.979   5.608 -0.0506 -0.1982 -0.3198
 6982SOL    HW132579   2.217   0.952   5.694 -0.1796 -0.2511 -0.2919
 6982SOL    HW232580   2.101   1.011   5.637  0.2542  0.2467  0.0844
 6983SOL     OW32581   3.988   2.855   5.755  0.3402  0.4932 -0.1323
 6983SOL    HW132582   4.068   2.894   5.722 -0.3783  0.0422 -2.3696
 6983SOL    HW232583   3.924   2.889   5.692  1.5625  2.9626  0.0016
 6984SOL     OW32584   0.792   1.949   3.119  0.2437 -0.2237  0.0549
 6984SOL    HW132585   0.722   1.899   3.162  0.9186  1.8239  3.5025
 6984SOL    HW232586   0.875   1.905   3.138 -0.1930 -0.4366  1.4313
 6985SOL     OW32587   1.215   1.736   3.218  0.0361  0.2286 -0.4523
 6985SOL    HW132588   1.186   1.757   3.129 -1.8635  3.1023  0.8370
 6985SOL    HW232589   1.205   1.642   3.204  1.0517  0.5254 -3.2521
 6986SOL     OW32590   2.052   0.650   4.824  0.5878 -0.5876 -0.0071
 6986SOL    HW132591   2.106   0.623   4.898 -0.5155 -0.5382  0.8068
 6986SOL    HW232592   1.980   0.685   4.876  0.1693 -0.2539 -0.8238
 6987SOL     OW32593   0.384   3.869   2.728  0.2588  0.1197  0.0713
 6987SOL    HW132594   0.304   3.833   2.764 -0.7772  1.5044 -0.8579
 6987SOL    HW232595   0.353   3.921   2.654 -0.0546 -0.0041  0.1186
 6988SOL     OW32596   1.528   3.067   4.164  0.1270  0.6242  0.2497
 6988SOL    HW132597   1.555   3.125   4.094 -0.5378 -0.1983 -0.6818
 6988SOL    HW232598   1.610   3.021   4.182 -1.2199 -1.7153  0.5777
 6989SOL     OW32599   3.695   3.221   5.538  0.4965 -0.4630 -0.2202
 6989SOL    HW132600   3.712   3.300   5.589 -3.0444  0.4327 -0.4171
 6989SOL    HW232601   3.698   3.253   5.448 -0.9186  1.8945  0.5805
 6990SOL     OW32602   1.025   1.858   2.969  0.7875  0.2353  0.1263
 6990SOL    HW132603   1.003   1.790   2.905 -1.0798  0.6390  0.3287
 6990SOL    HW232604   0.962   1.925   2.944  1.8334  2.1367  2.5972
 6991SOL     OW32605   4.730   4.640   7.198 -0.1262 -0.0999  0.0710
 6991SOL    HW132606   0.015   4.722   7.157  0.6396 -0.8946 -1.0394
 6991SOL    HW232607   4.713   4.662   7.290 -1.7998 -0.4403 -0.1545
 6992SOL     OW32608   0.139   2.856   4.073 -0.2656 -0.6583 -1.1336
 6992SOL    HW132609   0.108   2.770   4.042 -2.6734 -0.4210  0.5799
 6992SOL    HW232610   0.066   2.889   4.125  0.2582 -0.1506 -0.7297
 6993SOL     OW32611   2.897   2.885   7.818 -0.7184  0.4314  0.1561
 6993SOL    HW132612   2.820   2.909   7.869  0.6439 -2.1372  3.4159
 6993SOL    HW232613   2.925   2.970   7.785 -1.4448  0.4311 -0.4645
 6994SOL     OW32614   3.466   0.896   4.587  0.4664 -0.5561 -0.6302
 6994SOL    HW132615   3.459   0.976   4.640  1.7789 -0.6407 -0.3463
 6994SOL    HW232616   3.388   0.904   4.532 -0.8513 -0.7736  1.2145
 6995SOL     OW32617   0.742   3.599   2.414  0.0107 -0.4865  0.7391
 6995SOL    HW132618   0.833   3.579   2.389  0.8470  3.2291  0.7928
 6995SOL    HW232619   0.708   3.552   2.338  1.4013  0.3977 -0.4373
 6996SOL     OW32620   4.670   2.571   2.988 -0.2641  0.1170  0.5719
 6996SOL    HW132621   4.637   2.597   2.902 -0.5699  0.4110  0.7797
 6996SOL    HW232622   0.019   2.603   2.987 -1.4757  3.5129  0.5978
 6997SOL     OW32623   4.101   2.239   7.529  0.0457 -0.4632  0.5091
 6997SOL    HW132624   4.140   2.209   7.447  2.2637 -0.2901  1.4951
 6997SOL    HW232625   4.055   2.164   7.566  2.5758 -1.3969  1.8001
 6998SOL     OW32626   1.933   4.050   3.434  0.5162 -0.0600  0.3235
 6998SOL    HW132627   1.908   4.039   3.525  0.2553  1.3884  0.4149
 6998SOL    HW232628   1.965   3.961   3.419  0.4097 -0.0157 -0.1757
 6999SOL     OW32629   2.450   4.054   5.960 -0.1773  0.2095  0.2733
 6999SOL    HW132630   2.459   4.042   5.865 -1.2141 -0.7299  0.2967
 6999SOL    HW232631   2.513   4.125   5.973 -0.0921 -0.1065  1.5157
 7000SOL     OW32632   0.093   1.919   7.572  1.3877 -0.5996  0.3011
 7000SOL    HW132633   0.164   1.958   7.521  1.9233 -1.2758  0.5202
 7000SOL    HW232634   0.018   1.971   7.545  1.2348 -0.9259  0.1060
 7001SOL     OW32635   4.216   0.306   4.166 -1.0437 -0.0333  0.3962
 7001SOL    HW132636   4.248   0.302   4.256  1.1770  1.6962 -0.3020
 7001SOL    HW232637   4.285   0.270   4.110  0.9696 -2.3201  4.3575
 7002SOL     OW32638   1.847   3.017   4.507 -0.2566  0.0038 -0.3564
 7002SOL    HW132639   1.777   2.971   4.461 -1.9059 -1.7291  3.8161
 7002SOL    HW232640   1.917   3.017   4.442 -1.9928  0.6316 -2.2345
 7003SOL     OW32641   3.953   4.531   8.934  0.0342 -0.1549  0.3129
 7003SOL    HW132642   3.963   4.622   8.906  0.6862 -1.0923 -2.5954
 7003SOL    HW232643   3.861   4.521   8.907 -0.2357 -1.0945  1.5994
 7004SOL     OW32644   3.552   4.028   2.689  0.0001  0.3974  0.5566
 7004SOL    HW132645   3.481   4.088   2.710  0.8617  1.0669  1.5182
 7004SOL    HW232646   3.507   3.955   2.645  1.2565  0.1941 -0.3913
 7005SOL     OW32647   2.077   3.262   8.736 -0.0009  0.4467  0.4735
 7005SOL    HW132648   2.102   3.312   8.814 -0.8683  2.1026 -0.3090
 7005SOL    HW232649   2.134   3.306   8.674  1.7191  2.0358  3.1610
 7006SOL     OW32650   0.659   0.666   1.687 -0.5136  0.2499  0.3401
 7006SOL    HW132651   0.629   0.757   1.677  2.4900  1.2723  0.6943
 7006SOL    HW232652   0.616   0.623   1.613  1.3841 -0.0372 -0.5822
 7007SOL     OW32653   0.224   4.282   6.904  0.1005 -0.1502  0.1346
 7007SOL    HW132654   0.294   4.313   6.846 -0.9643  1.0095 -0.5233
 7007SOL    HW232655   0.238   4.343   6.976 -1.0508 -0.3117  0.4924
 7008SOL     OW32656   1.005   1.505   4.429  0.4622  0.3931  0.3973
 7008SOL    HW132657   1.071   1.508   4.360 -1.3431 -0.2506 -1.3582
 7008SOL    HW232658   0.981   1.598   4.433  0.7734  0.4658  0.5523
 7009SOL     OW32659   2.446   2.385   6.998  0.1368 -0.0491  0.0445
 7009SOL    HW132660   2.361   2.344   7.013  1.1069 -1.8352  0.6620
 7009SOL    HW232661   2.495   2.303   6.999  0.9553  0.4309 -2.7653
 7010SOL     OW32662   2.553   2.036  10.287 -0.7964  0.0843 -0.4889
 7010SOL    HW132663   2.593   1.971  10.344 -0.1969  1.5774  0.8199
 7010SOL    HW232664   2.502   2.085  10.352  1.5835 -0.5435  1.8248
 7011SOL     OW32665   4.421   1.250   9.176  0.0423  0.2998 -0.2454
 7011SOL    HW132666   4.396   1.286   9.260  0.0472  1.2998 -0.6698
 7011SOL    HW232667   4.344   1.271   9.123 -0.0815  1.9659  0.5988
 7012SOL     OW32668   0.968   1.510   8.795 -0.2179  0.1919 -0.2918
 7012SOL    HW132669   0.961   1.490   8.701 -1.9216  1.4706 -0.4219
 7012SOL    HW232670   0.948   1.421   8.826  2.1017 -1.7326 -4.2831
 7013SOL     OW32671   3.445   4.588   8.914  0.3882  0.3888  0.2658
 7013SOL    HW132672   3.390   4.658   8.879  1.3803  1.7297  1.3959
 7013SOL    HW232673   3.382   4.530   8.957 -0.3569  1.3039  0.4086
 7014SOL     OW32674   0.371   1.912  16.678  0.5155  0.0117 -0.0205
 7014SOL    HW132675   0.314   1.984  16.652 -1.7399 -1.8254 -0.0874
 7014SOL    HW232676   0.374   1.929  16.772  1.2539  3.1763 -0.6153
 7015SOL     OW32677   4.642   0.507   0.213 -0.5443 -0.0183 -0.2208
 7015SOL    HW132678   4.682   0.557   0.284 -0.1553 -1.8558  0.8506
 7015SOL    HW232679   4.605   0.429   0.254 -1.7878 -0.4586 -2.2031
 7016SOL     OW32680   4.433   4.655   7.304 -0.4292 -0.2122  0.2417
 7016SOL    HW132681   4.444   4.565   7.276  1.3682 -0.1731  0.8467
 7016SOL    HW232682   4.513   4.665   7.355 -0.6583 -0.0001  0.5649
 7017SOL     OW32683   1.257   2.369  16.512  0.0496  0.0578 -0.1953
 7017SOL    HW132684   1.298   2.300  16.460 -0.5715 -0.6398  0.2338
 7017SOL    HW232685   1.301   2.450  16.489  2.1252 -1.2374 -0.7578
 7018SOL     OW32686   3.182   4.244   3.039  0.3223 -0.1699  0.2537
 7018SOL    HW132687   3.108   4.283   3.086  2.6707  2.0338  2.0921
 7018SOL    HW232688   3.249   4.258   3.106  1.6003  0.9550 -1.2738
 7019SOL     OW32689   1.971   3.108   3.212 -0.3313 -0.0985 -0.1643
 7019SOL    HW132690   1.927   3.023   3.201 -0.6491 -0.1470  1.3741
 7019SOL    HW232691   1.905   3.154   3.264 -0.0484 -1.3172  1.2950
 7020SOL     OW32692   2.434   3.153  16.816  0.0880  0.1454  0.1668
 7020SOL    HW132693   2.498   3.218  16.844  0.7657  0.5549 -2.3342
 7020SOL    HW232694   2.372   3.216  16.779 -2.1940 -2.4428 -0.4187
 7021SOL     OW32695   3.377   1.455   7.660 -0.1426  0.3268  0.0270
 7021SOL    HW132696   3.309   1.393   7.685  1.2186 -0.0849  2.6471
 7021SOL    HW232697   3.354   1.463   7.567  1.1709 -0.4038 -0.3603
 7022SOL     OW32698   2.582   2.480   8.157 -0.0380  0.2335  0.0704
 7022SOL    HW132699   2.604   2.535   8.081 -1.5746  1.0878  0.2360
 7022SOL    HW232700   2.513   2.422   8.124  0.7146 -0.5442 -0.1408
 7023SOL     OW32701   1.409   3.584  10.185  0.0678  0.2624  0.3093
 7023SOL    HW132702   1.461   3.506  10.206  0.9834  1.0420  0.8746
 7023SOL    HW232703   1.347   3.587  10.257 -0.5657 -0.3077 -0.2004
 7024SOL     OW32704   1.592   0.581   2.652  0.1821  0.1740  0.4830
 7024SOL    HW132705   1.566   0.635   2.727  0.7863 -1.0974  1.6220
 7024SOL    HW232706   1.672   0.622   2.619  0.0507 -0.6666 -0.8853
 7025SOL     OW32707   4.371   1.149   1.403 -0.3674  0.2974 -0.3865
 7025SOL    HW132708   4.341   1.122   1.490 -2.1653 -0.9068 -1.3859
 7025SOL    HW232709   4.385   1.243   1.409  0.5168  0.2572 -1.8903
 7026SOL     OW32710   0.077   3.390   9.316  0.2226 -0.4973 -0.3274
 7026SOL    HW132711   0.036   3.332   9.380  0.1802  1.6144  1.5339
 7026SOL    HW232712   0.070   3.471   9.366  0.6669 -0.1838 -0.7674
 7027SOL     OW32713   2.879   0.312   7.747  0.8233  0.4563 -0.2574
 7027SOL    HW132714   2.909   0.393   7.706 -0.3091  2.1248  2.1957
 7027SOL    HW232715   2.891   0.254   7.672  0.2060 -0.3928  0.2998
 7028SOL     OW32716   0.370   1.358   8.867 -0.7045  0.7036  0.0290
 7028SOL    HW132717   0.369   1.407   8.785  3.1305 -1.6880 -1.4898
 7028SOL    HW232718   0.308   1.411   8.917 -0.4400  0.3886  0.6938
 7029SOL     OW32719   0.814   2.062   3.415  0.0529 -0.5754 -0.1294
 7029SOL    HW132720   0.832   1.987   3.358 -2.5959  0.1547 -1.9157
 7029SOL    HW232721   0.905   2.092   3.413 -0.4836  0.7555 -3.6980
 7030SOL     OW32722   0.609   1.175   9.094  0.6059  0.1001 -0.2891
 7030SOL    HW132723   0.671   1.128   9.039  0.3223  0.6836 -1.1176
 7030SOL    HW232724   0.610   1.119   9.171  0.8622  1.7856  0.9313
 7031SOL     OW32725   2.047   4.280   3.020 -0.7007  0.5036  0.3296
 7031SOL    HW132726   1.990   4.234   3.082  1.2638 -2.8413 -0.3532
 7031SOL    HW232727   2.021   4.370   3.039  0.5259  1.0250 -0.4683
 7032SOL     OW32728   2.916   1.779   2.585  0.3468  0.1945 -0.0795
 7032SOL    HW132729   2.991   1.824   2.623  0.6253  0.7977 -1.3487
 7032SOL    HW232730   2.891   1.849   2.524  0.7399  0.2524 -0.1742
 7033SOL     OW32731   2.780   2.480   9.146  0.6676 -0.4325  0.2979
 7033SOL    HW132732   2.736   2.432   9.216  0.2791 -0.3037  0.1404
 7033SOL    HW232733   2.703   2.527   9.114  2.4321  0.2268 -3.0435
 7034SOL     OW32734   1.534   1.319   9.509 -0.4229  0.5216  0.6750
 7034SOL    HW132735   1.594   1.371   9.562  0.0475 -0.3761  1.0240
 7034SOL    HW232736   1.593   1.246   9.492 -1.7013 -0.1259 -0.9805
 7035SOL     OW32737   4.489   3.064   3.984 -0.2458  0.2458 -0.6201
 7035SOL    HW132738   4.507   3.137   4.043  1.7973  1.3855 -2.7103
 7035SOL    HW232739   4.400   3.044   4.014 -0.0198  0.4292  0.1871
 7036SOL     OW32740   2.983   2.061   6.079  0.1672 -0.0970  0.2376
 7036SOL    HW132741   3.044   2.128   6.110 -0.9168 -0.0100  2.2066
 7036SOL    HW232742   2.955   2.092   5.993  0.1992 -1.8579 -0.4150
 7037SOL     OW32743   0.554   1.953   3.555 -0.2634  0.2302  0.1181
 7037SOL    HW132744   0.521   1.863   3.550  0.1068  0.1608 -1.0778
 7037SOL    HW232745   0.637   1.938   3.509  0.0098 -1.0139  1.0264
 7038SOL     OW32746   4.052   0.610   4.575  0.5160  0.0371 -0.3640
 7038SOL    HW132747   4.008   0.594   4.658  1.2413  2.1949  0.4448
 7038SOL    HW232748   4.006   0.549   4.517 -0.2414  0.9979 -0.7807
 7039SOL     OW32749   3.523   0.361   3.937 -0.3801 -0.1945  0.2973
 7039SOL    HW132750   3.471   0.321   3.867  0.5277 -1.1902  0.1938
 7039SOL    HW232751   3.577   0.428   3.896  0.9223 -0.5158  1.4443
 7040SOL     OW32752   3.307   1.998   3.937 -0.1474 -0.1879 -0.3641
 7040SOL    HW132753   3.241   1.928   3.934  2.4158 -2.6474  0.2568
 7040SOL    HW232754   3.341   1.983   3.848  0.0844  2.3802 -0.7171
 7041SOL     OW32755   1.231   4.427   0.809  0.0861 -0.7596  0.2259
 7041SOL    HW132756   1.154   4.441   0.754  0.9578 -2.1030 -1.3230
 7041SOL    HW232757   1.212   4.495   0.874 -2.9640 -1.8028  0.4419
 7042SOL     OW32758   2.507   3.521   7.257  0.0877 -0.1604 -0.2433
 7042SOL    HW132759   2.550   3.452   7.206  0.3386 -0.1023 -0.1120
 7042SOL    HW232760   2.424   3.521   7.209 -0.1653 -0.8687  0.2025
 7043SOL     OW32761   3.696   3.988   4.083 -0.0753 -0.6689 -0.0890
 7043SOL    HW132762   3.791   3.987   4.088 -0.0145  1.7469 -0.8904
 7043SOL    HW232763   3.687   4.031   3.998 -2.4587  1.2223  1.1382
 7044SOL     OW32764   0.705   2.031  15.003  0.2688  0.3570 -0.2283
 7044SOL    HW132765   0.649   1.968  15.048  1.0280 -0.2055 -0.0871
 7044SOL    HW232766   0.642   2.102  14.988 -0.5046 -0.0243  1.1810
 7045SOL     OW32767   1.505   3.063   4.692 -0.0575 -0.1908  0.3013
 7045SOL    HW132768   1.524   2.969   4.695 -2.3567 -0.6842 -0.1734
 7045SOL    HW232769   1.477   3.059   4.600  1.8519 -0.6404 -0.2527
 7046SOL     OW32770   3.120   3.461   2.961  0.1750 -0.4123 -0.1645
 7046SOL    HW132771   3.200   3.511   2.976  0.4062 -0.9098  0.2546
 7046SOL    HW232772   3.146   3.410   2.884 -2.6173 -0.7108 -0.9298
 7047SOL     OW32773   2.482   2.449   8.630  0.3225 -0.7266 -0.1490
 7047SOL    HW132774   2.545   2.425   8.562 -1.4818 -0.5413 -1.8485
 7047SOL    HW232775   2.474   2.542   8.610 -0.5810 -0.8102 -0.1426
 7048SOL     OW32776   1.871   3.009  10.688  0.1048 -0.1003 -0.1769
 7048SOL    HW132777   1.839   2.921  10.709 -1.2456  0.0398 -1.6892
 7048SOL    HW232778   1.929   3.022  10.763  1.5756 -1.6229 -1.0672
 7049SOL     OW32779   1.797   4.017   5.202  0.2560 -0.5480  0.2699
 7049SOL    HW132780   1.779   4.060   5.285  0.5105 -1.7083  0.9193
 7049SOL    HW232781   1.857   4.074   5.153 -0.5286 -1.2044 -1.4567
 7050SOL     OW32782   2.755   1.321  12.027 -0.2334  0.3367 -0.4615
 7050SOL    HW132783   2.788   1.360  11.946 -3.1243  1.6267 -1.0247
 7050SOL    HW232784   2.765   1.393  12.091  1.3574 -0.4304  0.1495
 7051SOL     OW32785   1.814   3.206   1.337  0.5751 -0.0012 -0.7234
 7051SOL    HW132786   1.876   3.159   1.392 -3.2941  0.5523  4.0974
 7051SOL    HW232787   1.732   3.226   1.383  0.9703 -0.3394  0.1227
 7052SOL     OW32788   1.808   1.842  12.922  1.0137  0.2791  0.0010
 7052SOL    HW132789   1.862   1.786  12.978  0.4093 -1.9819 -1.6490
 7052SOL    HW232790   1.741   1.861  12.988 -1.9217 -0.4265 -2.7444
 7053SOL     OW32791   0.287   1.451   5.067  0.1744  0.1350 -0.6971
 7053SOL    HW132792   0.356   1.392   5.101  0.3454  3.0567  4.0586
 7053SOL    HW232793   0.291   1.518   5.136 -1.4219  1.2736 -1.7313
 7054SOL     OW32794   2.062   3.629  12.161  0.5629 -0.0720 -0.2136
 7054SOL    HW132795   2.146   3.603  12.198  0.0537  1.7296  2.2173
 7054SOL    HW232796   2.073   3.724  12.163 -0.4864 -0.0184  2.4781
 7055SOL     OW32797   0.936   3.181   5.818  0.4254 -0.1789  0.8529
 7055SOL    HW132798   0.865   3.229   5.861  0.9823 -1.3850  3.1612
 7055SOL    HW232799   1.006   3.246   5.815 -1.4110  1.7974  1.0286
 7056SOL     OW32800   4.414   0.409   4.699  0.0052  0.2026 -0.0376
 7056SOL    HW132801   4.490   0.429   4.644  1.0615  0.4616  1.5272
 7056SOL    HW232802   4.373   0.494   4.687 -1.0173  0.1374  3.1074
 7057SOL     OW32803   2.582   1.046  13.823 -0.3049  0.1856 -0.1206
 7057SOL    HW132804   2.583   1.097  13.904 -0.1025  2.4807 -1.5492
 7057SOL    HW232805   2.534   0.968  13.849  0.2601 -0.8371 -2.0828
 7058SOL     OW32806   2.098   2.426   9.557  0.0837 -1.2427  0.1972
 7058SOL    HW132807   2.150   2.436   9.477  1.5398  0.7644  1.3762
 7058SOL    HW232808   2.164   2.453   9.621  0.9172 -1.2411 -0.6621
 7059SOL     OW32809   4.532   1.888   9.142 -0.4028  0.2754 -0.3830
 7059SOL    HW132810   4.570   1.803   9.166  0.7066  0.7829 -0.3455
 7059SOL    HW232811   4.594   1.955   9.171 -2.1173  1.9635 -0.6240
 7060SOL     OW32812   1.243   1.483   7.868  0.0789 -0.5383 -0.3673
 7060SOL    HW132813   1.197   1.564   7.890  0.9082 -0.6792  1.9528
 7060SOL    HW232814   1.175   1.422   7.896 -1.4748  0.7950 -1.2650
 7061SOL     OW32815   2.281   2.669   9.165  0.1360 -0.0442  0.1780
 7061SOL    HW132816   2.237   2.637   9.087  1.1048  0.1430 -0.4412
 7061SOL    HW232817   2.267   2.763   9.153  0.4872  0.1848  1.5485
 7062SOL     OW32818   3.427   4.435  17.711 -0.0345 -0.1699 -0.1504
 7062SOL    HW132819   3.339   4.410  17.740 -0.7697  2.6504  0.0805
 7062SOL    HW232820   3.481   4.358  17.727 -0.4566 -0.4429 -0.0394
 7063SOL     OW32821   0.664   2.568   9.726 -0.6297  0.2650  0.2925
 7063SOL    HW132822   0.634   2.488   9.682  2.0892  0.0093 -1.1426
 7063SOL    HW232823   0.585   2.591   9.775 -0.6546 -0.6184  0.6708
 7064SOL     OW32824   2.351   2.052   8.488 -0.0585  0.3393  0.5912
 7064SOL    HW132825   2.410   2.091   8.423 -0.1879  0.9583  0.8441
 7064SOL    HW232826   2.318   2.134   8.525  0.9556  1.4983 -1.0630
 7065SOL     OW32827   3.715   2.565   4.561  0.1592  0.7351 -0.3576
 7065SOL    HW132828   3.802   2.574   4.599  0.7199  1.1898 -1.7774
 7065SOL    HW232829   3.708   2.647   4.512 -1.6998  0.6621 -0.2474
 7066SOL     OW32830   3.841   4.617   3.354 -0.0163  0.2873 -0.2171
 7066SOL    HW132831   3.923   4.656   3.384  0.5286 -1.2328  0.2730
 7066SOL    HW232832   3.786   4.695   3.346 -1.7488 -1.0015 -0.7954
 7067SOL     OW32833   4.035   3.128   6.697 -1.0892  0.0497 -0.0059
 7067SOL    HW132834   4.022   3.216   6.734  0.6126 -0.1218  1.0086
 7067SOL    HW232835   3.986   3.132   6.615 -2.2840 -0.9776  0.6497
 7068SOL     OW32836   3.112   4.231  12.622  0.0962 -0.8757  0.1649
 7068SOL    HW132837   3.179   4.300  12.620  0.5849 -1.3496  0.0575
 7068SOL    HW232838   3.082   4.226  12.713  1.3647 -0.8289  0.5929
 7069SOL     OW32839   3.855   1.077   5.726 -0.1713 -0.3575 -0.6199
 7069SOL    HW132840   3.933   1.112   5.684  0.0819  1.3287  1.2799
 7069SOL    HW232841   3.822   1.019   5.657 -0.0165 -1.2441  0.0417
 7070SOL     OW32842   3.686   0.387  14.490 -0.2899  0.1579 -0.1188
 7070SOL    HW132843   3.762   0.442  14.469 -0.1322 -0.6917 -1.7006
 7070SOL    HW232844   3.643   0.442  14.556 -1.3430  2.1282 -2.4712
 7071SOL     OW32845   1.696   0.317   9.777  0.3858 -0.0132  0.5714
 7071SOL    HW132846   1.747   0.314   9.858  0.1521  0.2965  0.7326
 7071SOL    HW232847   1.687   0.412   9.766 -0.9018 -0.1638  0.3353
 7072SOL     OW32848   2.129   3.245   7.922 -0.6196 -0.2921  0.0031
 7072SOL    HW132849   2.065   3.315   7.930 -0.7293 -0.3492 -0.3605
 7072SOL    HW232850   2.185   3.294   7.861 -1.9362  2.2108  0.7803
 7073SOL     OW32851   3.046   0.180   2.534 -0.4975 -0.9431 -0.0669
 7073SOL    HW132852   3.070   0.272   2.548 -1.1132 -0.7951 -0.0022
 7073SOL    HW232853   2.971   0.185   2.474 -0.6182  0.7236  0.2274
 7074SOL     OW32854   1.323   0.200   0.581  0.0249  0.3421  0.4140
 7074SOL    HW132855   1.351   0.108   0.582 -1.9325 -0.2932 -2.2695
 7074SOL    HW232856   1.281   0.214   0.496 -0.6056 -0.4004  0.6046
 7075SOL     OW32857   1.041   2.889   9.952 -0.0227 -0.1334  0.4684
 7075SOL    HW132858   1.017   2.918   9.864  1.8224 -1.7573 -0.5577
 7075SOL    HW232859   0.969   2.831   9.979  0.8481 -2.1477 -1.6174
 7076SOL     OW32860   1.574   2.764   2.911 -0.3941  0.0085 -0.2845
 7076SOL    HW132861   1.566   2.695   2.845  0.8782 -0.4588  0.0583
 7076SOL    HW232862   1.506   2.827   2.888 -0.3756  0.1141 -0.0461
 7077SOL     OW32863   4.523   0.252   8.015  0.2309  0.9903 -0.1383
 7077SOL    HW132864   4.488   0.172   7.975  2.1007 -0.2098  0.6231
 7077SOL    HW232865   4.539   0.307   7.939  2.1384 -0.1576 -0.5675
 7078SOL     OW32866   2.746   2.451   7.864  0.1121 -0.6768  0.1665
 7078SOL    HW132867   2.769   2.529   7.814 -2.2547  0.2904  0.5917
 7078SOL    HW232868   2.681   2.405   7.812  2.1622 -1.1160 -1.9980
 7079SOL     OW32869   2.351   3.337   8.625 -0.1174 -0.6596 -0.1667
 7079SOL    HW132870   2.394   3.353   8.709 -1.7570  3.0681 -0.0625
 7079SOL    HW232871   2.384   3.404   8.566  0.3929  1.0415  2.0437
 7080SOL     OW32872   4.682   1.054   3.438 -0.2224  0.4585 -0.0513
 7080SOL    HW132873   4.608   1.006   3.475 -0.6506  1.4991  0.4171
 7080SOL    HW232874   4.674   1.044   3.343  0.2569  0.4587 -0.0923
 7081SOL     OW32875   3.579   4.607   8.576 -0.4491 -0.1829  0.2595
 7081SOL    HW132876   3.606   4.686   8.625  2.6178  0.0036 -1.7308
 7081SOL    HW232877   3.496   4.630   8.535  1.1945  0.8126 -2.5194
 7082SOL     OW32878   4.535   3.548   3.458 -0.7499  0.3739  0.4692
 7082SOL    HW132879   4.445   3.517   3.453  0.5494 -2.9698 -1.9247
 7082SOL    HW232880   4.535   3.614   3.388 -0.6960  1.8375  1.8555
 7083SOL     OW32881   2.794   4.125   3.741 -1.0295  0.0063  0.4300
 7083SOL    HW132882   2.860   4.189   3.768 -0.8041  0.1249 -0.3978
 7083SOL    HW232883   2.836   4.044   3.768  1.0446  1.0158  0.1983
 7084SOL     OW32884   0.727   0.228   3.242 -0.0759 -0.1361  0.2601
 7084SOL    HW132885   0.764   0.140   3.231  0.3840  0.4713 -3.0569
 7084SOL    HW232886   0.690   0.226   3.330  1.1091  0.0569  0.7715
 7085SOL     OW32887   1.808   4.663   2.077  0.3098 -0.3326 -0.0215
 7085SOL    HW132888   1.812   4.666   1.981  1.6586  0.5953  0.0724
 7085SOL    HW232889   1.897   4.637   2.100  0.0014 -1.6263 -0.2643
 7086SOL     OW32890   2.213   3.128   8.227  0.0715 -0.5516  0.2300
 7086SOL    HW132891   2.226   3.167   8.313  0.8535 -0.2676 -0.0264
 7086SOL    HW232892   2.123   3.162   8.222  0.5282  0.6166  0.0664
 7087SOL     OW32893   3.015   3.920  17.543 -0.0306  0.0337 -0.1601
 7087SOL    HW132894   3.076   3.898  17.473 -0.9121 -0.5012 -0.7699
 7087SOL    HW232895   2.935   3.913  17.491  0.7266  2.3756 -1.6234
 7088SOL     OW32896   0.564   4.537   3.701  0.0883 -0.2513 -0.1780
 7088SOL    HW132897   0.557   4.492   3.786 -0.8273  2.1476  1.0087
 7088SOL    HW232898   0.659   4.541   3.688  0.2313 -0.2741  0.7878
 7089SOL     OW32899   0.728   2.429  15.085 -0.3707 -0.3403 -0.8227
 7089SOL    HW132900   0.730   2.365  15.157  2.3628  0.2064 -0.4266
 7089SOL    HW232901   0.679   2.379  15.020  0.6515  0.4048 -2.1460
 7090SOL     OW32902   3.787   0.519   1.312  0.3801 -0.1391 -0.1356
 7090SOL    HW132903   3.704   0.481   1.282  1.6001 -0.3579 -3.1941
 7090SOL    HW232904   3.797   0.582   1.241 -1.5225 -1.2150 -1.3690
 7091SOL     OW32905   4.085   2.027   4.342  0.4720  0.5205  0.5829
 7091SOL    HW132906   4.067   2.066   4.257 -2.0633  0.9813  1.3313
 7091SOL    HW232907   4.153   1.965   4.316 -1.1611 -0.4247 -1.4102
 7092SOL     OW32908   0.568   1.817   3.197 -0.0233  0.1338  0.4272
 7092SOL    HW132909   0.523   1.797   3.279 -0.5784 -0.1044  0.0684
 7092SOL    HW232910   0.525   1.760   3.133 -0.3850 -0.2845  1.0405
 7093SOL     OW32911   0.581   4.383   5.435 -0.1983  0.2062  0.3784
 7093SOL    HW132912   0.640   4.459   5.441  3.0905 -2.3536  0.7568
 7093SOL    HW232913   0.639   4.309   5.415 -2.4221 -0.9521 -1.7331
 7094SOL     OW32914   1.178   1.816   1.933 -0.1922  0.4605  0.3994
 7094SOL    HW132915   1.216   1.770   1.858 -1.1491 -0.7653  0.6757
 7094SOL    HW232916   1.187   1.753   2.004  1.6461 -1.9621 -2.0258
 7095SOL     OW32917   2.767   4.259  17.336  0.4593  0.1351 -0.2951
 7095SOL    HW132918   2.814   4.214  17.265 -0.9865 -0.8619 -0.6090
 7095SOL    HW232919   2.753   4.189  17.400  1.1490 -1.1546 -1.5327
 7096SOL     OW32920   4.426   0.022   7.876 -0.3699  0.3803 -0.5043
 7096SOL    HW132921   4.426   4.682   7.927 -0.2022  0.3700 -0.5184
 7096SOL    HW232922   4.331   0.030   7.875 -0.3396  0.7525 -0.4696
 7097SOL     OW32923   2.331   2.052   2.514 -0.1792  0.4019  0.2053
 7097SOL    HW132924   2.294   2.045   2.602  1.0287  1.0554  0.7750
 7097SOL    HW232925   2.406   1.994   2.528  0.6700  1.7009  1.0466
 7098SOL     OW32926   3.102   1.213   8.051  0.2434 -0.0034 -0.3778
 7098SOL    HW132927   3.162   1.286   8.067  0.2031 -0.9755  4.0314
 7098SOL    HW232928   3.038   1.259   7.996  1.0204  0.2139 -1.1037
 7099SOL     OW32929   0.652   3.364   9.204  0.0123 -0.3099 -0.1850
 7099SOL    HW132930   0.584   3.303   9.234 -0.2080  0.2141  0.3774
 7099SOL    HW232931   0.722   3.301   9.186  0.1710  0.8963 -3.7371
 7100SOL     OW32932   4.207   2.735   8.277  0.3214 -0.5566 -0.0550
 7100SOL    HW132933   4.287   2.745   8.225 -0.3520 -0.4599 -1.0680
 7100SOL    HW232934   4.143   2.720   8.207 -0.3781 -0.1664  0.4981
 7101SOL     OW32935   2.059   1.235  16.469 -0.2106  0.6630  0.2421
 7101SOL    HW132936   1.967   1.254  16.453 -0.1426  0.5626 -0.2695
 7101SOL    HW232937   2.092   1.324  16.467  0.6840  0.2994 -1.3869
 7102SOL     OW32938   2.684   1.949   6.259  0.2001  0.4227 -0.4657
 7102SOL    HW132939   2.623   1.966   6.331 -0.7384  0.7755 -1.3367
 7102SOL    HW232940   2.765   1.976   6.302  1.0758 -0.6341 -1.4534
 7103SOL     OW32941   2.865   1.952  17.027  0.3211  0.0089 -0.3220
 7103SOL    HW132942   2.898   1.956  16.937  1.2334 -1.7953 -0.0861
 7103SOL    HW232943   2.938   1.923  17.082  0.1274  1.0436  0.4725
 7104SOL     OW32944   1.355   3.582   4.958  0.0399  0.4274 -0.1094
 7104SOL    HW132945   1.447   3.567   4.981 -0.4605 -0.2590  1.4359
 7104SOL    HW232946   1.311   3.521   5.017  0.3025 -1.2306 -1.6001
 7105SOL     OW32947   1.398   3.839  11.457 -0.6177  0.0723  0.0548
 7105SOL    HW132948   1.419   3.747  11.468  1.8028  0.4857 -1.2426
 7105SOL    HW232949   1.309   3.830  11.422 -1.0362 -1.5907  1.5253
 7106SOL     OW32950   1.052   1.528   1.538 -0.3616  0.1556 -1.1006
 7106SOL    HW132951   1.116   1.581   1.492  1.0453 -0.0905  0.5908
 7106SOL    HW232952   1.085   1.445   1.504 -0.7533 -0.1175 -0.8076
 7107SOL     OW32953   1.678   2.356   6.148  0.0158 -0.4151  0.0790
 7107SOL    HW132954   1.746   2.324   6.206 -0.5088  0.2769  1.0933
 7107SOL    HW232955   1.674   2.447   6.179  0.4583  0.0724 -1.2703
 7108SOL     OW32956   1.131   2.076  12.988  0.1726 -0.1846 -0.0076
 7108SOL    HW132957   1.175   2.161  12.999 -1.3223  0.2813  2.4296
 7108SOL    HW232958   1.118   2.081  12.893  0.6839  0.7896 -0.0320
 7109SOL     OW32959   3.807   1.690   4.916  0.0910 -0.0123  0.4958
 7109SOL    HW132960   3.894   1.664   4.888 -0.8481  1.4658 -3.8082
 7109SOL    HW232961   3.751   1.644   4.854 -0.8498  1.6794  0.0806
 7110SOL     OW32962   2.718   1.059   4.327  0.2841 -0.2504 -0.1389
 7110SOL    HW132963   2.750   1.004   4.256 -0.2469  0.3917 -0.8836
 7110SOL    HW232964   2.646   1.110   4.290  0.0960  0.2028  0.8531
 7111SOL     OW32965   2.577   1.932   0.812 -0.0507 -0.2188  0.4592
 7111SOL    HW132966   2.568   1.844   0.777  0.3007  0.4135 -1.2011
 7111SOL    HW232967   2.657   1.931   0.864 -1.0098 -0.4909  1.9397
 7112SOL     OW32968   4.195   2.624   2.743 -0.4092  0.3248 -0.2014
 7112SOL    HW132969   4.219   2.713   2.716 -0.2807  0.3657  0.0448
 7112SOL    HW232970   4.265   2.590   2.799 -0.0996  1.0844 -0.1273
 7113SOL     OW32971   2.792   4.355   8.735 -0.0999  0.3018  0.2842
 7113SOL    HW132972   2.702   4.337   8.707 -0.4401  2.5952 -0.1405
 7113SOL    HW232973   2.814   4.299   8.809 -0.7869  1.0788  1.0883
 7114SOL     OW32974   0.111   2.831   9.489 -0.0787 -0.0939 -0.9479
 7114SOL    HW132975   0.175   2.790   9.430  1.4549  2.4128 -1.0040
 7114SOL    HW232976   0.171   2.897   9.525  0.8367 -1.7584  0.6040
 7115SOL     OW32977   1.017   0.269  13.171  0.3546  0.1150  0.1122
 7115SOL    HW132978   1.091   0.255  13.231 -2.2226 -0.3004  3.1428
 7115SOL    HW232979   0.939   0.281  13.224  0.1000  0.6640 -0.3872
 7116SOL     OW32980   1.560   1.768  16.928 -0.8428 -0.2832 -0.4619
 7116SOL    HW132981   1.473   1.795  16.958 -1.0625 -0.8430 -0.5938
 7116SOL    HW232982   1.576   1.819  16.849  2.7457  1.0979  1.1450
 7117SOL     OW32983   0.885   3.978   4.196 -0.0365  0.3800  0.3185
 7117SOL    HW132984   0.911   4.061   4.157  0.3646  1.2230  2.3714
 7117SOL    HW232985   0.873   4.022   4.280 -1.2165  0.9387 -0.1523
 7118SOL     OW32986   3.519   2.451   7.182 -0.4845  0.5959 -0.2935
 7118SOL    HW132987   3.441   2.466   7.128  1.0056  1.0822 -2.3232
 7118SOL    HW232988   3.493   2.371   7.227  1.3692  0.8506  1.2122
 7119SOL     OW32989   4.506   0.253   2.137  0.5215  0.9823 -0.0171
 7119SOL    HW132990   4.542   0.269   2.224  1.0362  1.0826 -0.2498
 7119SOL    HW232991   4.473   0.166   2.159  1.0918  0.4463 -1.3051
 7120SOL     OW32992   2.915   2.397   4.053  0.3612 -0.1732 -0.0053
 7120SOL    HW132993   2.982   2.351   4.003 -0.0114 -0.8800  0.1454
 7120SOL    HW232994   2.865   2.321   4.082  1.5702 -0.2881  1.7972
 7121SOL     OW32995   2.179   0.200   4.054 -0.3828 -0.8364  0.6644
 7121SOL    HW132996   2.130   0.275   4.085  1.0715 -0.9299  3.2439
 7121SOL    HW232997   2.112   0.149   4.009 -1.2800  1.1347 -0.2292
 7122SOL     OW32998   0.499   3.993   8.190  0.1233  0.3276 -0.4714
 7122SOL    HW132999   0.403   3.999   8.190  0.2552  2.8019  0.5756
 7122SOL    HW233000   0.518   3.926   8.255 -0.2259  1.9432  1.3314
 7123SOL     OW33001   3.551   1.197   2.537 -0.9592  0.3944 -0.2293
 7123SOL    HW133002   3.640   1.164   2.524 -1.4242 -0.4762 -1.1612
 7123SOL    HW233003   3.566   1.288   2.512 -1.4314  0.0658 -1.7435
 7124SOL     OW33004   4.432   0.431   7.156 -0.3315 -0.3038 -0.2546
 7124SOL    HW133005   4.436   0.355   7.213  2.0114  0.5199  0.6854
 7124SOL    HW233006   4.365   0.487   7.194 -1.0181 -1.7488  0.6754
 7125SOL     OW33007   3.538   1.580   0.374 -0.0836 -0.3601 -0.1044
 7125SOL    HW133008   3.607   1.593   0.439 -0.7545 -0.5065  0.6347
 7125SOL    HW233009   3.469   1.538   0.424  0.1382  1.8167  2.0209
 7126SOL     OW33010   0.478   1.360   4.277 -0.7308  0.1523 -0.5561
 7126SOL    HW133011   0.472   1.397   4.365 -2.4042  3.3092 -1.9781
 7126SOL    HW233012   0.510   1.273   4.297 -0.3424  0.0444 -1.6288
 7127SOL     OW33013   0.377   0.386   8.107  0.8218 -0.4472 -0.2222
 7127SOL    HW133014   0.439   0.334   8.159 -0.5324 -0.5389  1.3094
 7127SOL    HW233015   0.317   0.316   8.084  1.3759 -0.6991 -0.8948
 7128SOL     OW33016   2.587   2.143   2.282  0.2250  0.6997  0.5948
 7128SOL    HW133017   2.650   2.190   2.228  0.0819  1.7418  1.3390
 7128SOL    HW233018   2.535   2.218   2.312 -0.5714  1.1061 -1.8195
 7129SOL     OW33019   2.702   2.539  16.529  0.0403  0.3415  0.0176
 7129SOL    HW133020   2.750   2.527  16.610  3.1458  0.1907 -1.8344
 7129SOL    HW233021   2.743   2.617  16.491 -2.5289  1.3565 -0.6788
 7130SOL     OW33022   3.931   2.589   8.699 -0.0366  0.2285 -0.4612
 7130SOL    HW133023   3.985   2.666   8.714 -1.6211  1.2132  0.1829
 7130SOL    HW233024   3.976   2.528   8.758  0.1236  0.9060  0.1138
 7131SOL     OW33025   0.747   2.549   6.863 -0.0381 -0.6702  0.1356
 7131SOL    HW133026   0.837   2.522   6.844 -0.5907 -1.9661 -0.6497
 7131SOL    HW233027   0.743   2.522   6.955 -0.7324  3.4762  1.3430
 7132SOL     OW33028   0.933   0.111   7.692 -0.7494 -0.1898  0.1917
 7132SOL    HW133029   0.945   0.177   7.624 -2.1141 -1.2737 -1.1073
 7132SOL    HW233030   1.008   0.054   7.680 -0.7291 -0.4579  1.5961
 7133SOL     OW33031   1.243   2.286   5.597 -0.1105 -0.1809 -0.6714
 7133SOL    HW133032   1.320   2.339   5.616 -1.7898  2.2046 -0.5253
 7133SOL    HW233033   1.289   2.230   5.534  0.8383 -0.4170  0.2273
 7134SOL     OW33034   1.053   3.463   8.439 -0.5099 -0.3726 -0.3291
 7134SOL    HW133035   1.048   3.446   8.344 -0.4893  0.3804 -0.4624
 7134SOL    HW233036   0.979   3.523   8.448 -0.5516 -0.7669  1.9461
 7135SOL     OW33037   2.998   4.128   2.337  0.0345  0.6274  0.1926
 7135SOL    HW133038   3.038   4.090   2.415 -1.7873  0.0506  0.8455
 7135SOL    HW233039   3.076   4.132   2.282  0.5247  0.9095  0.9131
 7136SOL     OW33040   3.787   2.496   7.088 -0.2072  0.1798  0.5552
 7136SOL    HW133041   3.705   2.471   7.131  0.2051 -1.7324  0.2132
 7136SOL    HW233042   3.843   2.472   7.161  0.6586  0.0172 -0.1573
 7137SOL     OW33043   0.598   4.341   4.901 -0.0341  0.1533 -0.4722
 7137SOL    HW133044   0.652   4.350   4.980  2.2683  2.5994 -2.2909
 7137SOL    HW233045   0.605   4.428   4.860 -1.5217 -0.5382 -2.1909
 7138SOL     OW33046   0.341   3.581  12.740 -0.5855  0.6828 -0.5945
 7138SOL    HW133047   0.434   3.562  12.740 -0.5631  0.7644  0.5989
 7138SOL    HW233048   0.331   3.571  12.645  0.4226 -1.7328 -0.4298
 7139SOL     OW33049   2.536   3.649   9.666 -0.0363 -0.7545  0.4082
 7139SOL    HW133050   2.620   3.684   9.637  0.5743 -2.4627  0.1124
 7139SOL    HW233051   2.566   3.588   9.733  0.7207  0.0197  0.7581
 7140SOL     OW33052   0.834   2.042  13.019  0.0102 -0.7550  0.2763
 7140SOL    HW133053   0.916   2.091  13.012 -1.0598  1.2265  1.6943
 7140SOL    HW233054   0.792   2.059  12.935 -0.7435 -2.3692  0.3155
 7141SOL     OW33055   2.035   1.106   5.276 -0.4853 -0.5181 -0.0796
 7141SOL    HW133056   2.105   1.156   5.318  0.9711 -2.0565 -0.6425
 7141SOL    HW233057   2.084   1.056   5.210 -1.0166  0.0739 -0.9091
 7142SOL     OW33058   0.653   0.747   4.511  0.1678 -0.2698  0.3091
 7142SOL    HW133059   0.614   0.834   4.505  0.0932 -0.2190  1.4557
 7142SOL    HW233060   0.671   0.738   4.605 -2.2489 -1.3377  0.6806
 7143SOL     OW33061   1.354   4.503  14.215  0.0525 -0.2060  0.2790
 7143SOL    HW133062   1.293   4.574  14.194 -0.0338  0.3813  2.5048
 7143SOL    HW233063   1.321   4.429  14.164 -2.0496  1.9426 -1.4858
 7144SOL     OW33064   1.258   4.314  14.063  0.0318  0.0628  0.0480
 7144SOL    HW133065   1.277   4.221  14.055 -0.2777 -0.1462  1.8946
 7144SOL    HW233066   1.167   4.302  14.088  0.0720  2.7276  1.4732
 7145SOL     OW33067   1.521   1.463   9.120 -0.4194 -0.2638 -0.1744
 7145SOL    HW133068   1.531   1.535   9.057 -0.9372  0.1586  0.2249
 7145SOL    HW233069   1.525   1.510   9.203 -0.7630  0.3007 -0.4728
 7146SOL     OW33070   1.285   2.342   4.497 -0.0370  0.0489  0.7923
 7146SOL    HW133071   1.277   2.270   4.560 -3.2277  0.6395  1.0517
 7146SOL    HW233072   1.217   2.401   4.531 -0.6887 -2.0686  3.1954
 7147SOL     OW33073   2.894   1.171   1.603  0.0857 -0.2228  0.0180
 7147SOL    HW133074   2.868   1.223   1.679  0.2465  1.7680 -1.2927
 7147SOL    HW233075   2.815   1.135   1.563  0.6113 -1.9545  0.5476
 7148SOL     OW33076   4.648   2.617  14.790 -0.1344 -0.5271 -0.1390
 7148SOL    HW133077   4.598   2.699  14.784 -1.9225 -1.5906  0.0641
 7148SOL    HW233078   4.586   2.557  14.748  0.4628 -0.2322 -1.4686
 7149SOL     OW33079   2.047   0.456   5.324 -0.4351  0.8021 -0.6202
 7149SOL    HW133080   1.957   0.463   5.292 -1.6921 -1.5768  2.3488
 7149SOL    HW233081   2.062   0.551   5.327  0.0623  0.7256 -0.6794
 7150SOL     OW33082   4.129   0.200   3.101  0.2587 -0.1682  0.6352
 7150SOL    HW133083   4.133   0.207   3.196  0.9669 -0.6733  0.6461
 7150SOL    HW233084   4.110   0.290   3.077  0.9272  0.2250  1.5882
 7151SOL     OW33085   1.283   4.667   8.004 -0.6920  0.3006 -0.0732
 7151SOL    HW133086   1.273   4.693   8.095  0.5603  1.7702 -0.3611
 7151SOL    HW233087   1.217   4.597   8.002 -1.0513  0.6515 -0.3585
 7152SOL     OW33088   3.096   1.934   2.709  0.1051 -0.2457  0.3900
 7152SOL    HW133089   3.087   2.028   2.727 -1.3168 -0.6245  1.7124
 7152SOL    HW233090   3.188   1.932   2.684  0.2520 -2.0713  1.0400
 7153SOL     OW33091   3.040   1.526  15.703 -0.0265  0.2254 -0.1017
 7153SOL    HW133092   2.955   1.543  15.744  0.4802  0.1483  0.9717
 7153SOL    HW233093   3.084   1.610  15.718  0.1088  0.4660 -1.8055
 7154SOL     OW33094   1.519   2.725  12.004  0.1876 -0.1309  0.1297
 7154SOL    HW133095   1.596   2.679  11.971 -0.7163 -0.5071 -1.4535
 7154SOL    HW233096   1.517   2.813  11.967 -0.4060 -0.3536 -0.3671
 7155SOL     OW33097   3.695   4.504   8.881 -0.3145  0.6763 -0.4405
 7155SOL    HW133098   3.661   4.439   8.819 -0.5100  1.6118 -1.3035
 7155SOL    HW233099   3.611   4.544   8.903  0.1079  1.3898 -0.1151
 7156SOL     OW33100   1.643   2.698   3.752  0.4312  0.2720  0.4453
 7156SOL    HW133101   1.658   2.627   3.690  0.3367  0.5023  0.1573
 7156SOL    HW233102   1.618   2.648   3.830  0.2461  0.4960  0.5305
 7157SOL     OW33103   1.744   2.158   6.631 -0.4570 -0.4709 -0.0068
 7157SOL    HW133104   1.665   2.178   6.681 -1.5707 -1.2309 -1.4635
 7157SOL    HW233105   1.796   2.232   6.661 -0.1063 -0.0708 -1.6282
 7158SOL     OW33106   3.084   0.323  13.023 -0.3103  0.0279  0.0377
 7158SOL    HW133107   3.072   0.301  13.115 -1.5757  2.2612  0.3861
 7158SOL    HW233108   3.172   0.361  13.024  0.7588 -2.4285  0.2595
 7159SOL     OW33109   3.555   3.277   6.313  0.4015  0.2482 -0.1555
 7159SOL    HW133110   3.640   3.260   6.272  1.2201 -1.4188  2.2854
 7159SOL    HW233111   3.584   3.353   6.364  0.9180  0.9102 -1.4339
 7160SOL     OW33112   2.657   3.889   2.740 -0.2272 -0.0008 -0.1885
 7160SOL    HW133113   2.584   3.950   2.728 -0.6054 -0.2182  1.0869
 7160SOL    HW233114   2.607   3.812   2.766 -1.6174  0.9723 -0.0149
 7161SOL     OW33115   0.585   0.180   1.671  0.2007  0.6829 -0.9066
 7161SOL    HW133116   0.636   0.245   1.623  3.3847 -0.9278  0.2969
 7161SOL    HW233117   0.640   0.107   1.644  2.1089  1.1827  1.6384
 7162SOL     OW33118   0.857   3.460   4.405 -0.3023 -0.2682 -0.1217
 7162SOL    HW133119   0.888   3.551   4.412  0.3034 -0.4010 -1.1252
 7162SOL    HW233120   0.803   3.451   4.484  0.6712 -0.0462  0.5678
 7163SOL     OW33121   2.762   0.919  14.737 -0.3707  0.0302  0.8963
 7163SOL    HW133122   2.692   0.874  14.690 -0.8914 -1.5568  3.1809
 7163SOL    HW233123   2.799   0.980  14.672 -0.8228  0.2312  0.8244
 7164SOL     OW33124   2.436   0.166   8.279 -0.8020  0.4081 -0.2479
 7164SOL    HW133125   2.374   0.220   8.231 -1.0317  0.6597  0.3394
 7164SOL    HW233126   2.513   0.214   8.248  0.2165  0.2208  1.9653
 7165SOL     OW33127   4.263   1.362   4.555  0.2374 -0.0359 -0.1317
 7165SOL    HW133128   4.247   1.325   4.641 -1.0480 -1.1410 -0.8440
 7165SOL    HW233129   4.199   1.318   4.499 -0.5440 -1.8169  2.1570
 7166SOL     OW33130   1.975   3.849  13.537 -0.1318  0.0414 -0.4751
 7166SOL    HW133131   1.983   3.831  13.631 -1.2940  2.0224  0.0081
 7166SOL    HW233132   2.048   3.793  13.511  0.1396 -0.3625  1.1519
 7167SOL     OW33133   0.491   2.395   0.353 -0.2504  0.3785 -0.4286
 7167SOL    HW133134   0.451   2.419   0.269  1.7922  0.4383 -1.3791
 7167SOL    HW233135   0.580   2.370   0.329  0.3749  2.6220 -0.4087
 7168SOL     OW33136   3.126   3.504   8.731 -0.1566  0.1750 -0.4404
 7168SOL    HW133137   3.216   3.472   8.720  0.1363  0.5322  0.9558
 7168SOL    HW233138   3.142   3.598   8.738 -0.9302  0.1234  1.9029
 7169SOL     OW33139   1.520   3.066   7.536 -0.3575 -0.5254  0.7729
 7169SOL    HW133140   1.443   3.122   7.521 -0.8276 -1.0131  1.3245
 7169SOL    HW233141   1.555   3.040   7.451 -2.1381 -2.0309  0.5122
 7170SOL     OW33142   3.138   1.753  15.819  1.0548  0.2287  0.1803
 7170SOL    HW133143   3.061   1.771  15.874  0.4250 -0.7486 -0.3884
 7170SOL    HW233144   3.194   1.829  15.836 -0.6429  1.3666  0.8087
 7171SOL     OW33145   0.234   1.736   6.202  0.4981 -0.1581  0.1837
 7171SOL    HW133146   0.191   1.728   6.287 -0.9847 -0.9472 -0.6507
 7171SOL    HW233147   0.208   1.825   6.179  2.1977  0.2829 -0.0720
 7172SOL     OW33148   3.777   4.242   3.655 -0.3594 -0.3002 -0.4939
 7172SOL    HW133149   3.805   4.322   3.698  0.7635 -1.3269  0.6975
 7172SOL    HW233150   3.746   4.279   3.572  1.5214  2.3003 -0.0201
 7173SOL     OW33151   2.565   4.250   6.227  0.1039  0.8713 -0.0406
 7173SOL    HW133152   2.609   4.209   6.301  1.8108  0.4475 -1.2757
 7173SOL    HW233153   2.472   4.232   6.239  0.0973 -0.3389 -1.8799
 7174SOL     OW33154   1.009   1.660   7.289  0.4662 -0.0657  1.1237
 7174SOL    HW133155   0.951   1.709   7.231  1.0360 -1.7831 -0.9059
 7174SOL    HW233156   0.981   1.579   7.247 -0.7853  0.1388  1.5709
 7175SOL     OW33157   0.042   1.794   8.904 -0.0829 -0.0314 -0.4690
 7175SOL    HW133158   4.716   1.786   8.836 -1.5393  0.3827  0.9127
 7175SOL    HW233159   0.110   1.842   8.857  0.3540 -0.1621  0.0274
 7176SOL     OW33160   2.624   2.427  11.737 -0.3090  0.0609 -0.0826
 7176SOL    HW133161   2.595   2.349  11.690  0.1599  0.7215 -1.4830
 7176SOL    HW233162   2.667   2.391  11.814 -1.2877  0.5863  0.7157
 7177SOL     OW33163   2.302   3.051  17.097 -0.5807 -0.6566 -0.3179
 7177SOL    HW133164   2.330   2.973  17.143  1.8634  0.1647 -0.4390
 7177SOL    HW233165   2.348   3.053  17.013  1.6022  1.3704  0.9211
 7178SOL     OW33166   0.173   2.682   5.838  0.0340  0.2048  0.2930
 7178SOL    HW133167   0.201   2.595   5.808  0.8972  0.9237 -0.9948
 7178SOL    HW233168   0.106   2.675   5.906  1.0045  0.8441  1.3128
 7179SOL     OW33169   3.770   3.819  17.204 -0.4190 -0.1597  0.4594
 7179SOL    HW133170   3.795   3.842  17.115  0.4247  2.5206  1.3662
 7179SOL    HW233171   3.789   3.903  17.247 -0.2159  0.6745 -1.2885
 7180SOL     OW33172   2.228   4.136   1.498 -0.2198  0.2073 -0.7081
 7180SOL    HW133173   2.267   4.063   1.450  1.4571  2.2829 -2.4812
 7180SOL    HW233174   2.303   4.168   1.547  1.7452 -1.6089 -2.5370
 7181SOL     OW33175   3.320   3.452   4.016  0.3582 -0.0841 -0.4660
 7181SOL    HW133176   3.290   3.522   3.958 -1.2314  0.2253  0.7267
 7181SOL    HW233177   3.236   3.411   4.036 -0.0840  0.8814 -0.3093
 7182SOL     OW33178   0.212   0.943   6.785 -0.0211 -0.7106 -0.4072
 7182SOL    HW133179   0.228   1.037   6.794  0.4059 -0.9171  0.9829
 7182SOL    HW233180   0.187   0.927   6.876 -1.8549  0.3531 -0.7196
 7183SOL     OW33181   1.507   0.035   7.223  0.3293  0.4021 -0.2310
 7183SOL    HW133182   1.510   4.705   7.158  2.4387  1.7104 -1.5646
 7183SOL    HW233183   1.575   0.003   7.281  0.0285 -1.9050 -1.1715
 7184SOL     OW33184   4.497   0.927  15.679  0.0365  0.5770 -0.2484
 7184SOL    HW133185   4.551   0.903  15.604 -3.3019  0.6319 -2.6599
 7184SOL    HW233186   4.409   0.895  15.658  0.3365 -1.1977  1.2041
 7185SOL     OW33187   1.823   0.526   8.695 -0.2935 -0.7289  0.0233
 7185SOL    HW133188   1.849   0.452   8.752  1.4025 -0.7662 -0.7879
 7185SOL    HW233189   1.912   0.547   8.665 -0.8674  1.1642 -0.3041
 7186SOL     OW33190   0.441   1.362  15.948 -0.1975 -0.0656 -0.4401
 7186SOL    HW133191   0.363   1.314  15.920  0.0478  0.3037 -1.7375
 7186SOL    HW233192   0.446   1.413  15.867 -1.3987 -0.3387 -0.6789
 7187SOL     OW33193   0.398   1.788   4.486  0.3263  0.4364  0.2913
 7187SOL    HW133194   0.434   1.842   4.414 -1.4102  0.8579 -0.2664
 7187SOL    HW233195   0.306   1.801   4.464  0.4291 -1.5298 -1.2874
 7188SOL     OW33196   0.832   2.844   1.931  0.7548  0.3430 -0.3560
 7188SOL    HW133197   0.869   2.778   1.873  0.2751  0.0305 -0.3060
 7188SOL    HW233198   0.737   2.842   1.917  0.2025  1.2614  3.3213
 7189SOL     OW33199   2.759   3.717  15.617  0.0642 -0.2983 -0.3234
 7189SOL    HW133200   2.751   3.657  15.542 -0.5667  0.0368 -0.5296
 7189SOL    HW233201   2.838   3.767  15.596  1.0706 -1.7830 -0.0752
 7190SOL     OW33202   1.775   2.621   6.514 -0.0645  0.0337 -0.2496
 7190SOL    HW133203   1.713   2.598   6.444 -2.1124  2.3703  0.8074
 7190SOL    HW233204   1.742   2.707   6.538 -2.2831 -1.9018  3.5958
 7191SOL     OW33205   0.610   2.945  17.687 -0.3779 -0.1939 -0.7802
 7191SOL    HW133206   0.560   2.956   0.008  1.5417  1.0600  0.2036
 7191SOL    HW233207   0.547   2.985  17.626 -0.5679 -0.2201 -0.6024
 7192SOL     OW33208   0.599   3.375   5.814  0.0522  0.0828 -0.0771
 7192SOL    HW133209   0.507   3.382   5.840 -0.2305 -0.2620 -0.9888
 7192SOL    HW233210   0.625   3.465   5.798 -0.0903 -0.0727 -1.1754
 7193SOL     OW33211   2.008   4.591  11.181  0.4067  0.1329  0.2661
 7193SOL    HW133212   2.019   4.681  11.209 -1.3841  0.3850  0.1112
 7193SOL    HW233213   1.997   4.549  11.267 -0.7601  2.9728  1.4992
 7194SOL     OW33214   1.506   0.638   7.202 -0.0290 -0.3502  0.2560
 7194SOL    HW133215   1.466   0.689   7.132  0.8897  1.4213  1.0063
 7194SOL    HW233216   1.481   0.546   7.198  2.8553 -1.1012 -0.6063
 7195SOL     OW33217   0.039   3.543   7.264  0.3356  0.0349 -0.4232
 7195SOL    HW133218   4.737   3.496   7.192 -0.6675  1.5270 -0.8063
 7195SOL    HW233219   0.126   3.556   7.226  0.5976  1.8978  0.8154
 7196SOL     OW33220   1.618   1.592  14.074  0.2203  0.2945 -0.5314
 7196SOL    HW133221   1.527   1.564  14.068  0.3927 -0.5595  0.7698
 7196SOL    HW233222   1.617   1.669  14.017  0.0464 -0.2836 -1.3092
 7197SOL     OW33223   0.402   2.070   6.771  0.0800 -0.0549  0.3995
 7197SOL    HW133224   0.496   2.088   6.774  0.0356 -0.0774  1.7444
 7197SOL    HW233225   0.393   2.072   6.866  0.6562 -0.7583  0.4665
 7198SOL     OW33226   3.574   0.075   2.084 -0.0633 -0.7739  0.4736
 7198SOL    HW133227   3.657   0.075   2.036  2.0295 -1.7191  4.1613
 7198SOL    HW233228   3.521   0.033   2.016 -1.8512  1.5624  0.4241
 7199SOL     OW33229   4.365   0.080   0.758  0.1675 -0.0935  0.2522
 7199SOL    HW133230   4.275   0.097   0.784  0.5292 -0.0313  1.4671
 7199SOL    HW233231   4.370   4.725   0.758 -1.1569 -0.1568 -0.5300
 7200SOL     OW33232   3.405   2.499   6.656 -0.2792  0.2573  0.7655
 7200SOL    HW133233   3.373   2.411   6.674 -0.5506 -0.1338 -1.5705
 7200SOL    HW233234   3.341   2.533   6.593 -0.8873 -0.6234  0.9125
 7201SOL     OW33235   2.990   3.179   6.874  0.5021  0.5322  0.0581
 7201SOL    HW133236   2.987   3.125   6.795 -0.7231  4.0011 -2.2906
 7201SOL    HW233237   2.923   3.145   6.933  0.7727  1.4259  0.8838
 7202SOL     OW33238   1.772   4.701   5.020  0.4131 -0.0776 -0.2438
 7202SOL    HW133239   1.837   4.670   5.083 -1.6601 -1.2802  1.2898
 7202SOL    HW233240   1.775   0.053   5.045  2.8710 -0.2989  0.3553
 7203SOL     OW33241   4.182   2.907   2.901  0.5929 -0.1819 -0.0432
 7203SOL    HW133242   4.221   2.864   2.825 -0.5910  0.3791 -0.9760
 7203SOL    HW233243   4.094   2.914   2.864  1.4936 -0.9597 -2.3042
 7204SOL     OW33244   2.616   2.392   9.656  0.6215  0.3380 -0.0198
 7204SOL    HW133245   2.649   2.372   9.569 -0.0372 -1.4679  0.1325
 7204SOL    HW233246   2.543   2.331   9.673  0.4101  0.3836 -0.7636
 7205SOL     OW33247   2.430   2.828  16.321  0.4584 -0.6495 -0.0707
 7205SOL    HW133248   2.361   2.763  16.309  0.4144 -0.8176  1.0530
 7205SOL    HW233249   2.388   2.895  16.376 -1.1603 -0.4303 -1.5938
 7206SOL     OW33250   2.826   2.745   9.506 -0.2871 -0.1709  0.4646
 7206SOL    HW133251   2.889   2.673   9.504 -0.7299 -0.5638  0.7032
 7206SOL    HW233252   2.746   2.705   9.471  0.1351 -1.3718  0.8847
 7207SOL     OW33253   1.336   3.430   6.101  1.1100  0.1164  0.1456
 7207SOL    HW133254   1.331   3.485   6.179  1.2208 -3.4826  2.6880
 7207SOL    HW233255   1.303   3.490   6.034 -2.2231 -1.4837  0.3175
 7208SOL     OW33256   0.449   1.331   6.968 -0.3597  0.5052 -0.0368
 7208SOL    HW133257   0.444   1.274   7.044  0.4902 -1.0441 -1.1442
 7208SOL    HW233258   0.526   1.296   6.924 -1.2782 -4.2318  2.1067
 7209SOL     OW33259   4.374   4.015  16.592  0.3733  0.5505  0.6125
 7209SOL    HW133260   4.306   3.983  16.533  1.1529  0.3388 -0.1768
 7209SOL    HW233261   4.414   3.933  16.620  0.6986  2.1162  4.7198
 7210SOL     OW33262   0.110   0.136   7.111 -0.3325 -0.0036  0.1413
 7210SOL    HW133263   0.200   0.168   7.118 -0.4257  0.4156 -0.5363
 7210SOL    HW233264   0.111   0.124   7.016 -0.4487 -0.0912  0.1511
 7211SOL     OW33265   1.164   2.029  13.257 -0.7601  0.1032 -0.2170
 7211SOL    HW133266   1.179   2.051  13.165  0.6309 -2.1526 -0.5132
 7211SOL    HW233267   1.170   2.114  13.302  0.7048  1.3501 -2.7214
 7212SOL     OW33268   2.618   0.576   6.678 -0.1595  0.0905  0.3187
 7212SOL    HW133269   2.522   0.581   6.680 -0.1347  0.3245  0.9948
 7212SOL    HW233270   2.637   0.615   6.593 -0.8799  1.6290  0.8545
 7213SOL     OW33271   0.999   4.585   1.980 -0.6471  0.6126  0.1360
 7213SOL    HW133272   0.943   4.549   1.911 -0.3634  0.5685 -0.0697
 7213SOL    HW233273   1.051   4.650   1.932 -0.1512 -1.3969 -1.9904
 7214SOL     OW33274   3.119   3.748  13.414  0.5383 -0.2999 -0.1834
 7214SOL    HW133275   3.129   3.841  13.396  1.0942 -0.8091 -2.5145
 7214SOL    HW233276   3.128   3.719  13.323  3.0717  0.3957 -0.1457
 7215SOL     OW33277   0.039   2.265  15.558  0.4973  0.1916  0.2671
 7215SOL    HW133278   4.684   2.268  15.559  0.4727 -0.5292 -1.3422
 7215SOL    HW233279   0.057   2.172  15.568  1.6298  0.3860  0.0768
 7216SOL     OW33280   1.250   4.045   3.033 -0.2166 -0.0338  0.1697
 7216SOL    HW133281   1.237   4.118   3.093 -1.0647 -1.1114  1.2975
 7216SOL    HW233282   1.251   4.089   2.948 -1.5431  0.6695  0.5138
 7217SOL     OW33283   2.735   1.845  15.087  0.5816 -1.2291 -0.2161
 7217SOL    HW133284   2.656   1.799  15.060  0.3222 -0.4688 -0.7551
 7217SOL    HW233285   2.799   1.826  15.019  2.4221  0.5581  1.0343
 7218SOL     OW33286   3.373   4.057  12.731  0.3814  0.6716 -0.2166
 7218SOL    HW133287   3.358   4.149  12.754 -1.8156  0.1458  0.4022
 7218SOL    HW233288   3.371   4.078  12.637  1.0210 -0.7257 -0.5347
 7219SOL     OW33289   3.022   1.598  17.181  0.7381 -0.0479  0.2774
 7219SOL    HW133290   3.045   1.691  17.187  0.3530  0.0416  0.4325
 7219SOL    HW233291   3.084   1.561  17.119 -1.3110  0.4201 -2.0596
 7220SOL     OW33292   3.133   4.696   1.857 -0.2729  0.0924 -0.0136
 7220SOL    HW133293   3.176   4.677   1.941  0.3161  2.8790  0.3082
 7220SOL    HW233294   3.128   4.605   1.828 -0.1777 -0.0444  0.3914
 7221SOL     OW33295   3.656   1.019   4.118 -0.3703  0.6707 -0.3010
 7221SOL    HW133296   3.702   1.047   4.039 -0.0635 -1.2443 -0.8047
 7221SOL    HW233297   3.711   0.951   4.158 -0.8718  0.3576 -0.1511
 7222SOL     OW33298   4.138   2.706  14.730  0.0468  0.4625  0.0834
 7222SOL    HW133299   4.091   2.783  14.763 -2.5182 -0.2802 -1.9063
 7222SOL    HW233300   4.207   2.721  14.795 -0.8157  1.6146  0.7451
 7223SOL     OW33301   1.091   3.920   3.559  0.1603  0.5895  0.0116
 7223SOL    HW133302   1.168   3.865   3.543  0.7980  1.8463 -1.1836
 7223SOL    HW233303   1.031   3.847   3.575 -0.4296  1.1115  0.1704
 7224SOL     OW33304   3.849   3.486   8.916 -0.2390 -0.1147  0.5093
 7224SOL    HW133305   3.799   3.546   8.972 -0.1114  0.3976  0.0757
 7224SOL    HW233306   3.857   3.414   8.978 -0.9141 -0.6804 -0.0625
 7225SOL     OW33307   1.534   1.276   4.720  0.7767 -0.4915 -0.5778
 7225SOL    HW133308   1.626   1.301   4.729  0.3086  0.2659  2.2206
 7225SOL    HW233309   1.499   1.319   4.642  3.0784 -1.0522 -1.9069
 7226SOL     OW33310   3.242   0.237   8.670 -0.1893 -0.2152  0.5744
 7226SOL    HW133311   3.189   0.315   8.687  0.6573  0.2954  0.8970
 7226SOL    HW233312   3.253   0.243   8.575  3.3843 -0.2169  0.9802
 7227SOL     OW33313   0.681   4.100   7.206  0.5272 -0.0406  0.7340
 7227SOL    HW133314   0.732   4.175   7.177  2.2172 -0.1995  3.2283
 7227SOL    HW233315   0.669   4.125   7.298  0.3538 -1.0086  0.9788
 7228SOL     OW33316   2.181   4.233  15.495 -0.5063  0.4502 -0.4930
 7228SOL    HW133317   2.114   4.263  15.557  1.0033  0.4190  1.1380
 7228SOL    HW233318   2.128   4.173  15.443  0.2644 -1.6180  1.0727
 7229SOL     OW33319   4.025   1.363   3.556  0.0316  0.2009  0.2442
 7229SOL    HW133320   4.095   1.300   3.569 -0.9822 -1.4806 -2.4937
 7229SOL    HW233321   4.016   1.394   3.646 -0.1569  0.9717 -0.0365
 7230SOL     OW33322   2.459   3.451   8.412 -0.1035 -0.4612 -0.7736
 7230SOL    HW133323   2.431   3.469   8.322  0.7456  0.9422 -0.7516
 7230SOL    HW233324   2.503   3.533   8.434  1.8881 -1.6185 -0.4972
 7231SOL     OW33325   3.796   1.918  11.548  0.0684 -0.3711 -0.5638
 7231SOL    HW133326   3.783   2.001  11.595 -0.3710 -0.0279 -1.2946
 7231SOL    HW233327   3.872   1.882  11.593 -0.1330  0.4780  0.4637
 7232SOL     OW33328   2.089   3.151  13.916  0.3300  0.6710  0.5798
 7232SOL    HW133329   2.120   3.070  13.874 -1.7434  0.6498 -0.9629
 7232SOL    HW233330   2.138   3.220  13.871 -0.2737 -0.2557 -1.5261
 7233SOL     OW33331   1.568   0.831   5.578 -0.1960  0.6331 -0.4478
 7233SOL    HW133332   1.547   0.875   5.495  1.1740  2.0013 -0.0611
 7233SOL    HW233333   1.574   0.738   5.556  1.0053  0.8339 -0.9968
 7234SOL     OW33334   4.366   0.383   2.639  0.6036  0.1348 -0.3411
 7234SOL    HW133335   4.326   0.367   2.553  0.6453  0.5236 -0.4322
 7234SOL    HW233336   4.449   0.420   2.612  1.8515 -1.9459  0.6234
 7235SOL     OW33337   2.964   3.042  12.602 -0.0682  0.1250 -0.1201
 7235SOL    HW133338   3.059   3.047  12.595  0.0889 -0.3698  1.8880
 7235SOL    HW233339   2.944   3.056  12.509 -1.2044 -1.2979 -0.0852
 7236SOL     OW33340   2.790   1.485   6.707  0.5740 -0.4124  0.0786
 7236SOL    HW133341   2.718   1.431   6.673  0.6783  0.2760 -1.2254
 7236SOL    HW233342   2.803   1.442   6.792  0.6925 -2.9463 -1.2212
 7237SOL     OW33343   1.298   0.669   4.444 -0.1451  0.5478  0.2714
 7237SOL    HW133344   1.394   0.675   4.447 -0.0903  1.0299 -2.6597
 7237SOL    HW233345   1.272   0.662   4.536  0.0331 -0.0802  0.2800
 7238SOL     OW33346   2.087   0.691   2.673  0.5373 -0.3657 -0.8312
 7238SOL    HW133347   2.104   0.633   2.598 -0.1580 -0.5834 -0.8168
 7238SOL    HW233348   2.172   0.678   2.715 -0.6719 -1.5371  1.2231
 7239SOL     OW33349   2.969   3.760   8.977 -0.1071  0.3874  0.5403
 7239SOL    HW133350   2.877   3.781   8.989 -0.7063 -0.9305 -1.7106
 7239SOL    HW233351   2.984   3.738   9.069  2.1901  0.7975  0.2889
 7240SOL     OW33352   0.715   0.395   2.320 -0.5181 -0.3193  0.4736
 7240SOL    HW133353   0.667   0.459   2.267 -0.3758  1.1504  2.1332
 7240SOL    HW233354   0.776   0.367   2.252 -1.1813 -2.2272  0.6538
 7241SOL     OW33355   0.518   0.282  14.887 -0.2019  0.1435 -0.1807
 7241SOL    HW133356   0.599   0.244  14.923 -0.4932 -2.0024 -1.7544
 7241SOL    HW233357   0.466   0.201  14.893  1.4943 -1.0981 -2.0727
 7242SOL     OW33358   3.638   0.744   4.773  0.3076 -0.5110 -0.1265
 7242SOL    HW133359   3.704   0.798   4.729  0.3256 -1.0188 -0.7055
 7242SOL    HW233360   3.558   0.773   4.731 -0.6342  0.3369  2.2280
 7243SOL     OW33361   4.341   0.722   1.406 -0.0823  0.2086  0.4050
 7243SOL    HW133362   4.303   0.755   1.325  0.4229 -0.3643 -0.0725
 7243SOL    HW233363   4.288   0.643   1.415  0.8112 -0.2933  1.2674
 7244SOL     OW33364   1.099   0.564   7.295 -0.7382 -0.6273  0.0196
 7244SOL    HW133365   1.143   0.479   7.298  0.3922 -0.0230  0.8328
 7244SOL    HW233366   1.062   0.572   7.207 -0.7398  1.9485  0.2437
 7245SOL     OW33367   1.400   0.090   6.048 -0.0959 -0.0193  0.0240
 7245SOL    HW133368   1.469   0.026   6.032 -0.4189  0.2068 -2.2072
 7245SOL    HW233369   1.446   0.137   6.118 -1.1408  2.0667 -0.6905
 7246SOL     OW33370   1.823   4.241   7.759  0.0467 -0.2094 -0.3100
 7246SOL    HW133371   1.728   4.253   7.755  0.0573  0.2546  0.7534
 7246SOL    HW233372   1.847   4.243   7.666  0.8544 -0.8693 -0.1176
 7247SOL     OW33373   4.322   2.870   2.661 -0.5864 -0.2120 -0.3979
 7247SOL    HW133374   4.338   2.879   2.567  1.0051  0.1822 -0.1014
 7247SOL    HW233375   4.409   2.881   2.700 -1.0263 -0.4936  0.6768
 7248SOL     OW33376   2.158   4.154   8.735 -0.5835 -0.2284 -0.0802
 7248SOL    HW133377   2.109   4.075   8.757  0.5829 -1.0227 -0.3231
 7248SOL    HW233378   2.092   4.220   8.713 -1.5588 -1.8272 -1.9136
 7249SOL     OW33379   2.006   3.290   7.560 -0.2288  0.1367  0.2225
 7249SOL    HW133380   1.945   3.319   7.628  0.6853  0.4590  0.9068
 7249SOL    HW233381   2.087   3.306   7.610  1.2758  2.8658 -3.0309
 7250SOL     OW33382   2.958   3.128   7.694  0.5937 -0.9405 -0.2750
 7250SOL    HW133383   2.931   3.127   7.602  0.7761 -0.3128 -0.3352
 7250SOL    HW233384   3.053   3.120   7.691  0.7641  1.2214 -0.9627
 7251SOL     OW33385   0.534   3.962   3.871 -0.0812 -0.2413 -0.4153
 7251SOL    HW133386   0.609   3.916   3.834 -1.0138 -0.3002 -2.2142
 7251SOL    HW233387   0.579   4.036   3.912  2.4147 -2.5800  1.0576
 7252SOL     OW33388   2.167   2.114   9.638 -0.6316  0.2037 -0.6338
 7252SOL    HW133389   2.110   2.126   9.562  1.1791 -1.7383 -2.2804
 7252SOL    HW233390   2.106   2.087   9.707  1.0484  0.0889  0.8196
 7253SOL     OW33391   4.630   1.330   0.137 -0.2658  0.4636 -0.1154
 7253SOL    HW133392   4.647   1.315   0.230 -0.8881 -2.0092 -0.4182
 7253SOL    HW233393   4.644   1.424   0.129 -2.0415  0.6983 -0.4675
 7254SOL     OW33394   1.741   3.205   7.203  0.7258 -0.3886  0.5901
 7254SOL    HW133395   1.804   3.236   7.138  0.9487 -1.7138  0.1589
 7254SOL    HW233396   1.686   3.155   7.142 -0.1788  1.1724  0.1323
 7255SOL     OW33397   4.407   3.441   7.623 -0.8571 -0.2474  0.1143
 7255SOL    HW133398   4.415   3.347   7.611  1.3132 -0.0641  0.1055
 7255SOL    HW233399   4.346   3.445   7.697  0.4611  2.6266  1.0643
 7256SOL     OW33400   2.678   2.701  16.234 -0.4203 -0.2584  0.4449
 7256SOL    HW133401   2.606   2.738  16.284  1.2653  0.9592  1.9519
 7256SOL    HW233402   2.628   2.642  16.177  3.1719 -3.7507  0.8691
 7257SOL     OW33403   0.301   3.242   2.403  0.6526 -0.1834  0.0810
 7257SOL    HW133404   0.323   3.149   2.396 -2.2460 -0.9062  0.4310
 7257SOL    HW233405   0.307   3.278   2.314  0.7037  0.4025  0.3223
 7258SOL     OW33406   0.021   0.898   5.931 -0.4031 -0.4986  0.1401
 7258SOL    HW133407   0.059   0.824   5.884  0.5446 -0.0621  0.2241
 7258SOL    HW233408   0.074   0.898   6.011 -1.1673  0.0372  0.6423
 7259SOL     OW33409   3.108   1.541   4.785  0.4917  0.1265 -0.3693
 7259SOL    HW133410   3.043   1.544   4.715  1.6131  0.7185 -1.3945
 7259SOL    HW233411   3.127   1.448   4.773  0.2793  0.3233 -2.3240
 7260SOL     OW33412   0.430   4.279   0.044 -0.0576  0.7785  0.5306
 7260SOL    HW133413   0.383   4.356   0.075 -0.9185 -1.0408  3.7767
 7260SOL    HW233414   0.377   4.260  17.726  0.8793 -1.7324  0.5015
 7261SOL     OW33415   2.738   0.747   1.970  0.0055  0.7155 -0.0519
 7261SOL    HW133416   2.823   0.760   2.011  0.4671 -0.4708 -0.6396
 7261SOL    HW233417   2.679   0.731   2.044  0.0256 -1.3884 -0.4955
 7262SOL     OW33418   3.886   4.324   1.357 -0.2544 -0.0532 -0.3322
 7262SOL    HW133419   3.842   4.409   1.348  0.2845  0.1792 -0.7918
 7262SOL    HW233420   3.940   4.326   1.436  1.3314 -1.1874 -1.3817
 7263SOL     OW33421   1.842   0.154   7.074  0.0596  0.0618 -0.1228
 7263SOL    HW133422   1.771   0.207   7.037 -0.2095 -0.4557 -0.3529
 7263SOL    HW233423   1.843   0.079   7.016  0.0744 -0.4552  0.5481
 7264SOL     OW33424   2.332   1.547  13.228  0.1787  0.0745 -0.4166
 7264SOL    HW133425   2.267   1.570  13.295  0.0072  1.4262 -1.0457
 7264SOL    HW233426   2.404   1.569  13.286 -0.1410  0.7001 -0.2475
 7265SOL     OW33427   1.051   3.651   9.316  0.0725 -0.3223 -0.3460
 7265SOL    HW133428   1.137   3.634   9.278  0.6280  0.1027  0.7178
 7265SOL    HW233429   1.065   3.739   9.351 -0.3469 -0.4722  0.1935
 7266SOL     OW33430   3.368   1.220  12.421  0.3546 -0.2143  0.6678
 7266SOL    HW133431   3.349   1.155  12.354 -0.9709 -2.3827  3.1543
 7266SOL    HW233432   3.278   1.243  12.444 -0.0604  0.7818 -1.9994
 7267SOL     OW33433   4.407   0.322   3.396  0.3237 -0.2581 -0.2596
 7267SOL    HW133434   4.382   0.270   3.472 -1.0188 -1.7803 -1.7187
 7267SOL    HW233435   4.479   0.268   3.362 -0.1330 -0.5838 -0.7054
 7268SOL     OW33436   2.309   3.808   4.978  0.2838  0.0539 -0.0445
 7268SOL    HW133437   2.381   3.746   4.982  0.0539 -0.0948  1.4945
 7268SOL    HW233438   2.336   3.881   5.033  0.6407  1.4819 -2.0964
 7269SOL     OW33439   1.689   1.257   4.357 -0.2306  0.1402 -0.5742
 7269SOL    HW133440   1.770   1.256   4.409  0.8836 -2.3077 -2.3874
 7269SOL    HW233441   1.680   1.351   4.346  0.1364  0.2179 -0.2282
 7270SOL     OW33442   4.433   4.330   7.616 -0.1124  0.0723  0.2795
 7270SOL    HW133443   4.487   4.271   7.562 -1.3902 -1.2373  0.4469
 7270SOL    HW233444   4.361   4.337   7.553 -1.0840 -1.4341  1.2444
 7271SOL     OW33445   1.288   2.874   8.791  0.0211 -0.3566 -0.0780
 7271SOL    HW133446   1.302   2.780   8.800  1.8820 -0.2522 -1.9638
 7271SOL    HW233447   1.213   2.865   8.734 -2.1577  0.9617  2.5592
 7272SOL     OW33448   2.999   4.431  11.717 -0.1524 -0.3451 -0.4807
 7272SOL    HW133449   3.068   4.365  11.711  1.2872  1.0703  0.6262
 7272SOL    HW233450   2.986   4.451  11.624  1.0292 -1.1241 -0.8181
 7273SOL     OW33451   2.501   2.764   7.090  0.4632  0.6890 -0.3548
 7273SOL    HW133452   2.563   2.692   7.081  0.3656  0.4805  0.6272
 7273SOL    HW233453   2.418   2.722   7.113  1.1415 -0.9746 -0.9786
 7274SOL     OW33454   4.367   0.195   2.836 -0.2696 -0.2402 -0.2773
 7274SOL    HW133455   4.378   0.255   2.762  0.7958 -2.1119 -1.6371
 7274SOL    HW233456   4.433   0.221   2.900  0.1254 -0.9124 -0.4179
 7275SOL     OW33457   2.740   3.396   3.149 -0.1106 -0.3127 -0.8550
 7275SOL    HW133458   2.659   3.432   3.183  0.1589  0.1730 -0.7336
 7275SOL    HW233459   2.731   3.300   3.151  0.7693 -0.3865  0.1517
 7276SOL     OW33460   2.508   1.761   7.013 -0.5661 -0.5051  0.3555
 7276SOL    HW133461   2.596   1.725   7.006  0.1041  1.5566 -1.5546
 7276SOL    HW233462   2.496   1.782   7.106 -2.8468 -0.4160  0.0526
 7277SOL     OW33463   0.008   4.333  14.965  0.0139 -0.1121  0.1745
 7277SOL    HW133464   0.062   4.346  14.887  0.5304  2.0527  0.8718
 7277SOL    HW233465   4.738   4.424  14.995  2.5931  0.1750  0.1692
 7278SOL     OW33466   3.795   1.813   4.205 -0.5452  0.6883  0.0088
 7278SOL    HW133467   3.741   1.750   4.157  1.3622 -0.1967 -0.9791
 7278SOL    HW233468   3.862   1.832   4.139  0.4724  1.6209  1.3286
 7279SOL     OW33469   2.446   1.488   5.073  0.4819 -0.3050 -0.2809
 7279SOL    HW133470   2.527   1.509   5.120  1.1497 -0.3856 -1.4063
 7279SOL    HW233471   2.489   1.468   4.990 -1.1836  2.6290 -1.8821
 7280SOL     OW33472   4.024   3.521   6.085  0.2162 -0.2424 -0.0272
 7280SOL    HW133473   3.986   3.598   6.128 -0.6719  0.5141 -2.1295
 7280SOL    HW233474   4.043   3.455   6.151 -2.0711 -1.8227 -0.9483
 7281SOL     OW33475   2.823   2.605   3.911  0.1699  0.3198 -0.1833
 7281SOL    HW133476   2.830   2.533   3.974 -3.1237 -0.3402 -0.5762
 7281SOL    HW233477   2.867   2.568   3.834 -2.8937  1.4210 -2.5003
 7282SOL     OW33478   1.657   2.109   2.065  0.1320 -0.2791 -0.0326
 7282SOL    HW133479   1.616   2.109   2.151  1.1988 -0.4313  0.4738
 7282SOL    HW233480   1.645   2.201   2.043 -0.7551  0.0486  1.8344
 7283SOL     OW33481   3.435   4.692  17.585  0.0004 -0.2187 -0.2472
 7283SOL    HW133482   3.372   0.006  17.538 -1.7762 -0.9614  1.2659
 7283SOL    HW233483   3.403   4.602  17.577 -0.1855 -0.2209  0.5184
 7284SOL     OW33484   4.071   3.664  16.982 -0.2821  0.0818 -0.5320
 7284SOL    HW133485   4.136   3.651  16.912  1.8205 -2.1577  1.8146
 7284SOL    HW233486   3.988   3.630  16.950 -0.0520 -1.9480  1.0151
 7285SOL     OW33487   3.497   2.607   4.843  0.3743 -0.2420  0.1773
 7285SOL    HW133488   3.407   2.621   4.873 -0.0697  0.2565 -1.3791
 7285SOL    HW233489   3.481   2.588   4.751 -0.2506 -1.4751  0.5448
 7286SOL     OW33490   0.980   0.789   9.406  0.8216 -0.1549 -0.6751
 7286SOL    HW133491   1.026   0.811   9.325  1.4228 -0.3791 -0.3947
 7286SOL    HW233492   0.963   0.698   9.381  1.3519 -0.1781 -0.9485
 7287SOL     OW33493   4.690   4.480   8.432  0.2032 -0.5055 -0.0475
 7287SOL    HW133494   4.640   4.486   8.514 -1.4283 -2.7333 -0.8846
 7287SOL    HW233495   4.635   4.529   8.372  1.2342 -0.3525 -0.8564
 7288SOL     OW33496   0.674   3.025   7.426 -0.2018  0.4671 -0.0674
 7288SOL    HW133497   0.766   3.044   7.407  1.1485 -2.8011  3.1012
 7288SOL    HW233498   0.633   3.039   7.341  3.1255 -1.2460 -1.9494
 7289SOL     OW33499   1.232   3.402  12.233 -0.2690 -0.0073 -0.1908
 7289SOL    HW133500   1.188   3.476  12.190 -1.7506  0.3895  1.9957
 7289SOL    HW233501   1.163   3.351  12.275 -2.7265  2.8213 -0.7561
 7290SOL     OW33502   2.987   1.321   7.403 -0.3392  0.0055  0.0991
 7290SOL    HW133503   2.904   1.365   7.382  0.3287  0.4488 -1.5561
 7290SOL    HW233504   3.043   1.397   7.392  2.0119 -1.5809  1.1568
 7291SOL     OW33505   1.732   2.041   7.719 -0.0075 -0.2235  0.7197
 7291SOL    HW133506   1.645   2.007   7.696 -0.1498  0.6129  0.0282
 7291SOL    HW233507   1.715   2.047   7.813 -5.5250 -1.0286 -0.1837
 7292SOL     OW33508   2.840   1.187   7.896 -0.1760 -0.2028  0.5113
 7292SOL    HW133509   2.851   1.162   7.804  1.4007  0.7528  0.4449
 7292SOL    HW233510   2.746   1.170   7.904  0.1075 -2.2751 -0.4923
 7293SOL     OW33511   3.543   3.718  10.657 -0.3760  0.0626  0.2176
 7293SOL    HW133512   3.624   3.760  10.625 -0.4119 -0.6239 -0.7743
 7293SOL    HW233513   3.480   3.786  10.633  0.8752  1.6486  1.4151
 7294SOL     OW33514   1.836   1.029   6.267 -0.7927 -0.3405 -0.0228
 7294SOL    HW133515   1.798   1.027   6.355 -0.5679 -1.3973  0.0466
 7294SOL    HW233516   1.888   1.108   6.282 -0.9267 -0.2602  0.0139
 7295SOL     OW33517   2.994   2.834   2.074  0.9732  0.3982 -0.3859
 7295SOL    HW133518   2.910   2.877   2.061  0.9007 -0.4621 -2.7806
 7295SOL    HW233519   2.991   2.804   2.165  0.2468  0.8209 -0.2720
 7296SOL     OW33520   4.396   1.478   6.165 -0.0528  0.0334  0.6540
 7296SOL    HW133521   4.364   1.542   6.101 -0.5040 -1.3491 -0.5134
 7296SOL    HW233522   4.463   1.451   6.102 -1.1129 -0.1156 -0.4062
 7297SOL     OW33523   1.969   2.762   2.187 -0.2142  1.3765  0.2209
 7297SOL    HW133524   1.908   2.750   2.114 -1.5323  0.4584  1.4758
 7297SOL    HW233525   1.930   2.836   2.233 -1.5944 -0.1840  1.5838
 7298SOL     OW33526   3.187   2.587   5.515  0.6501 -0.1630 -0.3855
 7298SOL    HW133527   3.213   2.495   5.528 -1.3453 -1.2752 -4.1802
 7298SOL    HW233528   3.267   2.629   5.483 -0.1510  0.4802 -1.5621
 7299SOL     OW33529   0.719   3.237   4.294  0.1282  0.1223  0.1112
 7299SOL    HW133530   0.762   3.320   4.313  2.2056 -0.4990 -1.8468
 7299SOL    HW233531   0.631   3.264   4.321 -0.4106 -0.4289 -1.0748
 7300SOL     OW33532   2.000   2.260   9.993 -0.1140  0.2046  0.0334
 7300SOL    HW133533   1.969   2.304   9.914  1.3203 -0.7593 -1.0627
 7300SOL    HW233534   2.084   2.305   9.999 -0.5296  1.4158 -3.4317
 7301SOL     OW33535   2.681   1.859   5.564  0.2530  0.3256  0.0076
 7301SOL    HW133536   2.733   1.918   5.619  1.4783 -0.5198 -0.2450
 7301SOL    HW233537   2.694   1.788   5.626  2.3740 -0.0640 -0.8680
 7302SOL     OW33538   1.333   0.501  14.608  0.5768  0.1252 -0.3365
 7302SOL    HW133539   1.400   0.535  14.668  2.5173 -1.5333 -1.5403
 7302SOL    HW233540   1.274   0.459  14.670  0.8075  0.4072  0.0798
 7303SOL     OW33541   2.774   0.416  11.336 -0.5267  0.0904  0.6729
 7303SOL    HW133542   2.777   0.507  11.308  1.0340 -0.1884 -0.0970
 7303SOL    HW233543   2.732   0.373  11.261 -0.4483  0.7961  0.2214
 7304SOL     OW33544   2.683   3.645  12.111 -0.5236  0.6274  0.5280
 7304SOL    HW133545   2.731   3.645  12.193  0.0820 -2.6402  0.2018
 7304SOL    HW233546   2.592   3.621  12.127 -0.1058 -0.5137  1.1732
 7305SOL     OW33547   4.288   4.314   0.515  0.2564 -0.6754 -0.2549
 7305SOL    HW133548   4.251   4.227   0.534 -0.3044  0.3853  3.4754
 7305SOL    HW233549   4.241   4.337   0.434  1.2335  3.4069  0.3643
 7306SOL     OW33550   3.073   3.314  13.812 -0.2130  0.3972 -0.1203
 7306SOL    HW133551   3.166   3.336  13.818 -0.6157  1.3620  2.3737
 7306SOL    HW233552   3.068   3.229  13.857 -1.4011  0.8077  0.5224
 7307SOL     OW33553   1.756   0.210   6.104 -0.2148 -0.0442  0.2836
 7307SOL    HW133554   1.820   0.214   6.033 -0.3493 -1.8200  0.0682
 7307SOL    HW233555   1.809   0.169   6.172  0.0877 -2.0381 -1.1482
 7308SOL     OW33556   2.425   2.743   3.955  0.0657 -0.4784  0.2536
 7308SOL    HW133557   2.399   2.709   4.040  1.5163 -0.1821  0.8209
 7308SOL    HW233558   2.508   2.783   3.982 -0.1427  1.1820 -1.5999
 7309SOL     OW33559   0.202   1.927  11.522 -0.0074 -0.3698  0.0265
 7309SOL    HW133560   0.281   1.874  11.532  0.9852  1.2490  0.6212
 7309SOL    HW233561   0.143   1.852  11.533 -0.8374  0.0242 -1.6882
 7310SOL     OW33562   4.526   1.805   1.693 -0.0391  0.0495 -0.0669
 7310SOL    HW133563   4.450   1.859   1.671  0.7343  0.8218 -0.8819
 7310SOL    HW233564   4.544   1.763   1.609 -1.8573 -1.4908  0.3174
 7311SOL     OW33565   2.173   4.076   4.630 -0.1421 -0.4104  0.0894
 7311SOL    HW133566   2.180   4.010   4.562  1.7269 -0.2663  0.1528
 7311SOL    HW233567   2.140   4.021   4.702 -2.9196 -0.1109 -0.9597
 7312SOL     OW33568   4.379   0.520   4.025  0.0168  0.2087  0.2197
 7312SOL    HW133569   4.361   0.485   3.938 -0.2288  1.8638 -0.3921
 7312SOL    HW233570   4.294   0.508   4.066  0.1472 -0.0453  0.4144
 7313SOL     OW33571   3.518   4.535   3.289 -0.4156  0.0122 -0.1569
 7313SOL    HW133572   3.587   4.600   3.284  0.1528 -0.4833  1.3820
 7313SOL    HW233573   3.440   4.585   3.312  0.4762  0.2287  2.3803
 7314SOL     OW33574   0.640   1.471  10.984 -0.0466 -0.4418 -0.3743
 7314SOL    HW133575   0.698   1.411  10.937 -0.1750 -0.9458  0.1130
 7314SOL    HW233576   0.654   1.455  11.077 -0.5822 -1.6765 -0.5091
 7315SOL     OW33577   1.924   3.559   7.301 -0.3024 -0.3695 -0.3330
 7315SOL    HW133578   2.000   3.610   7.331 -0.3676  0.4908 -1.6617
 7315SOL    HW233579   1.908   3.500   7.375 -3.0269  2.4117  1.3142
 7316SOL     OW33580   2.907   0.797   6.407 -0.4330  0.2825  0.3980
 7316SOL    HW133581   2.868   0.799   6.320 -0.1488 -0.9817  0.2515
 7316SOL    HW233582   2.917   0.703   6.417  0.5164  0.2235 -0.9948
 7317SOL     OW33583   0.251   4.255   0.466  0.4175 -0.2644 -0.3813
 7317SOL    HW133584   0.316   4.187   0.448 -1.1243 -1.2598 -2.1303
 7317SOL    HW233585   0.243   4.250   0.561 -2.0422 -0.0231 -0.5838
 7318SOL     OW33586   0.847   0.328   5.683 -0.3945 -0.3479 -1.0519
 7318SOL    HW133587   0.834   0.302   5.593  1.9625 -1.3132 -1.1305
 7318SOL    HW233588   0.932   0.373   5.678 -0.4425 -0.0724  0.4238
 7319SOL     OW33589   1.145   4.707   2.946  0.0042 -0.0274 -0.4644
 7319SOL    HW133590   1.184   0.053   2.955 -0.2517  0.2464 -1.8651
 7319SOL    HW233591   1.092   4.731   2.869 -1.4287 -2.2771 -0.1870
 7320SOL     OW33592   4.523   2.225  15.493 -0.3819 -0.1588  0.1554
 7320SOL    HW133593   4.528   2.152  15.431  1.6917 -0.2601  0.4491
 7320SOL    HW233594   4.432   2.247  15.473  0.2027  1.6870 -0.5213
 7321SOL     OW33595   1.580   2.178  10.977 -0.2732  0.2180  0.2792
 7321SOL    HW133596   1.628   2.104  11.015 -1.0185 -0.4169 -0.0178
 7321SOL    HW233597   1.595   2.159  10.885  0.0728 -1.3284  0.6537
 7322SOL     OW33598   4.511   0.223  17.128 -0.0164  0.0967 -0.1883
 7322SOL    HW133599   4.422   0.191  17.115 -1.2479  2.6010  2.3066
 7322SOL    HW233600   4.502   0.285  17.200  2.5538  0.6127 -0.2912
 7323SOL     OW33601   4.397   2.019   3.300  0.2587  0.4836  0.4112
 7323SOL    HW133602   4.305   2.005   3.275  0.4111  1.4548 -0.6471
 7323SOL    HW233603   4.442   2.037   3.218  0.6643 -0.9830  0.3117
 7324SOL     OW33604   1.468   1.326   5.184  0.2677  0.0795  0.3012
 7324SOL    HW133605   1.451   1.399   5.244  0.3581  0.4832 -0.1659
 7324SOL    HW233606   1.396   1.327   5.121  0.2572 -0.7458  0.3072
 7325SOL     OW33607   2.526   2.157   3.670 -0.5089 -0.1264  0.3703
 7325SOL    HW133608   2.539   2.247   3.640  1.3467 -1.3488 -2.5451
 7325SOL    HW233609   2.537   2.114   3.585 -1.0221  3.1933 -1.3935
 7326SOL     OW33610   2.613   4.406   4.536  0.2946  0.2203  0.3881
 7326SOL    HW133611   2.579   4.434   4.620 -0.0660  1.8145 -0.2913
 7326SOL    HW233612   2.612   4.487   4.485  1.9029  0.8278  1.3306
 7327SOL     OW33613   4.519   3.278   9.598 -0.6145  0.4730 -0.3440
 7327SOL    HW133614   4.564   3.297   9.681 -1.7187 -0.5150  0.4678
 7327SOL    HW233615   4.544   3.186   9.592 -1.0673  0.3405 -0.1667
 7328SOL     OW33616   1.900   2.273   4.159 -1.0035  0.3953 -0.3968
 7328SOL    HW133617   1.921   2.337   4.227  1.0296 -1.2137  0.4972
 7328SOL    HW233618   1.920   2.323   4.081 -0.2587 -0.7319 -0.9325
 7329SOL     OW33619   4.085   1.658   7.302 -0.0763 -0.0559  0.0245
 7329SOL    HW133620   4.044   1.629   7.220 -3.3989  0.7601  1.4033
 7329SOL    HW233621   4.074   1.580   7.355 -1.4490 -1.3178 -2.0981
 7330SOL     OW33622   4.185   2.131   6.853  0.1593  0.0058 -0.4296
 7330SOL    HW133623   4.167   2.054   6.906  0.1081  0.0438 -0.3925
 7330SOL    HW233624   4.120   2.188   6.893 -1.5089 -0.3870 -2.6149
 7331SOL     OW33625   2.821   2.387  15.010  0.3619 -0.3466 -0.2678
 7331SOL    HW133626   2.888   2.321  14.993  0.6123 -0.3051  0.5687
 7331SOL    HW233627   2.743   2.332  15.021 -0.1457  0.5629  0.6640
 7332SOL     OW33628   0.898   2.115   5.011 -0.1758  0.0971  0.2672
 7332SOL    HW133629   0.951   2.145   4.937  1.4663 -1.6104  0.7476
 7332SOL    HW233630   0.960   2.123   5.083  1.0212 -0.3307 -0.7238
 7333SOL     OW33631   0.875   2.578   8.637  0.3649 -0.0437  0.2001
 7333SOL    HW133632   0.844   2.533   8.715 -1.9290 -2.5257 -2.1348
 7333SOL    HW233633   0.798   2.628   8.609  1.5879  1.8145  0.1338
 7334SOL     OW33634   2.897   0.510   6.459 -0.4815  0.2302 -0.6652
 7334SOL    HW133635   2.916   0.485   6.368 -0.0948 -1.0119 -0.2449
 7334SOL    HW233636   2.851   0.440   6.504 -1.7202  0.8887 -0.9134
 7335SOL     OW33637   2.494   2.371   4.063  0.1867 -0.1551  0.4288
 7335SOL    HW133638   2.511   2.458   4.102 -0.4703  0.4786 -0.7142
 7335SOL    HW233639   2.552   2.378   3.987  0.2940  0.3823  0.5597
 7336SOL     OW33640   0.161   3.694   9.822  0.0924  0.2002  0.4798
 7336SOL    HW133641   0.167   3.762   9.889 -0.2741  2.9592 -2.3218
 7336SOL    HW233642   0.250   3.660   9.828 -0.3976 -1.2618 -0.4835
 7337SOL     OW33643   1.368   0.944   5.721  0.4144 -0.4628  0.0428
 7337SOL    HW133644   1.323   0.996   5.654  0.4600  0.4540  0.7231
 7337SOL    HW233645   1.446   0.910   5.678  0.1083 -0.3277 -0.6107
 7338SOL     OW33646   0.186   0.904   7.325  0.4640  0.3185  0.5259
 7338SOL    HW133647   0.236   0.973   7.370  2.2017 -1.5436  1.4170
 7338SOL    HW233648   0.152   0.854   7.399  0.5446 -0.4991  0.0012
 7339SOL     OW33649   1.493   1.884   5.334  0.4696  0.5296  0.1406
 7339SOL    HW133650   1.550   1.847   5.402  1.1065 -0.7099 -1.0745
 7339SOL    HW233651   1.553   1.906   5.263 -0.3130  0.6526 -0.4814
 7340SOL     OW33652   3.682   0.202   5.693  0.0521 -0.1412  0.6466
 7340SOL    HW133653   3.673   0.297   5.688  0.9080 -0.2223 -2.7229
 7340SOL    HW233654   3.743   0.173   5.625 -0.2451 -0.9054  0.7009
 7341SOL     OW33655   4.685   0.156   5.614 -0.1371 -0.1813 -0.0503
 7341SOL    HW133656   4.713   0.072   5.650 -1.3508 -0.2626  0.7131
 7341SOL    HW233657   0.015   0.165   5.550 -0.1752  2.3737  0.2505
 7342SOL     OW33658   3.922   3.882   3.692  0.0168 -0.3177  0.1319
 7342SOL    HW133659   3.966   3.880   3.607  3.1098  1.1525  1.6972
 7342SOL    HW233660   3.870   3.801   3.693 -1.5963  0.7070 -0.3367
 7343SOL     OW33661   1.051   4.268   7.737 -0.0954  0.0323  0.3307
 7343SOL    HW133662   1.041   4.219   7.819 -0.7910  0.0623  0.2703
 7343SOL    HW233663   0.960   4.299   7.734  0.0706  0.8937  3.7497
 7344SOL     OW33664   0.153   1.622   4.835  0.2291 -0.9924  0.1755
 7344SOL    HW133665   0.199   1.564   4.896  2.2131 -1.4857 -1.8088
 7344SOL    HW233666   0.195   1.707   4.847 -0.7672 -0.3473 -0.8561
 7345SOL     OW33667   3.674   2.094   5.704 -0.0351  0.2129 -0.1800
 7345SOL    HW133668   3.725   2.045   5.640 -1.6492 -2.0175  0.2325
 7345SOL    HW233669   3.652   2.027   5.769  0.1051  0.8909  0.5799
 7346SOL     OW33670   3.075   3.836   2.237 -0.1060 -0.2486  0.6543
 7346SOL    HW133671   3.090   3.803   2.326 -2.2107 -1.6992  0.4753
 7346SOL    HW233672   3.063   3.752   2.194  1.7131  0.8202 -1.9518
 7347SOL     OW33673   1.741   4.304   4.321 -0.4687 -0.0762  0.4334
 7347SOL    HW133674   1.744   4.390   4.363  0.0669  0.4444 -0.6846
 7347SOL    HW233675   1.775   4.324   4.234 -0.6736 -0.0494  0.3589
 7348SOL     OW33676   3.856   0.446   4.452 -0.4646 -0.1168 -0.4776
 7348SOL    HW133677   3.763   0.463   4.435 -0.2010  0.3475 -1.4704
 7348SOL    HW233678   3.885   0.376   4.393  1.3812  0.1036  0.1859
 7349SOL     OW33679   1.286   0.754  10.053 -0.5418 -0.1905 -0.6851
 7349SOL    HW133680   1.294   0.849  10.039 -2.6961 -0.0535 -1.0552
 7349SOL    HW233681   1.322   0.731   9.967  0.0674 -0.5592 -0.3324
 7350SOL     OW33682   0.513   4.493  15.299 -0.0274  0.0596 -0.0281
 7350SOL    HW133683   0.458   4.475  15.376  2.5404  0.0257  1.7898
 7350SOL    HW233684   0.484   4.583  15.280 -0.7421 -0.3580 -0.9081
 7351SOL     OW33685   3.654   3.548   5.035 -0.3330  0.5996 -0.3554
 7351SOL    HW133686   3.580   3.501   5.075  1.4268 -1.1770  0.7643
 7351SOL    HW233687   3.684   3.592   5.115  1.1529  1.0097 -1.1560
 7352SOL     OW33688   4.608   0.907   7.343 -0.4078 -0.0999  0.5699
 7352SOL    HW133689   4.628   0.856   7.422 -3.3071  0.3421  1.5812
 7352SOL    HW233690   4.526   0.871   7.310  0.0489 -0.6749  0.0814
 7353SOL     OW33691   4.599   1.437   3.206 -0.1562  0.1281  0.0710
 7353SOL    HW133692   4.607   1.524   3.167  4.1007 -0.2711  0.0774
 7353SOL    HW233693   4.676   1.403   3.161  0.1463  2.0782 -0.8659
 7354SOL     OW33694   0.422   0.027  13.358  0.4287 -0.0172  0.0081
 7354SOL    HW133695   0.511   0.048  13.328 -0.5937  2.2034 -1.4782
 7354SOL    HW233696   0.411   0.087  13.431  0.5420  1.0904 -0.8916
 7355SOL     OW33697   2.545   1.813  14.903 -0.2313  0.0680 -0.1693
 7355SOL    HW133698   2.479   1.744  14.891  1.3796 -1.6749  0.9076
 7355SOL    HW233699   2.543   1.869  14.825  0.0663 -0.3514 -0.4761
 7356SOL     OW33700   2.039   0.497   2.481 -0.6707 -0.1457 -0.1900
 7356SOL    HW133701   2.119   0.525   2.436  0.2500  0.5341  1.8828
 7356SOL    HW233702   2.030   0.411   2.440 -1.6963  0.1526 -0.6006
 7357SOL     OW33703   1.994   3.001   7.537  0.2640 -0.4478 -0.4245
 7357SOL    HW133704   2.040   3.073   7.494 -1.3906  0.3298 -0.8880
 7357SOL    HW233705   1.999   3.031   7.628  0.8093 -0.7582 -0.3549
 7358SOL     OW33706   2.610   1.176  14.410  0.3457  0.6848 -0.4272
 7358SOL    HW133707   2.619   1.218  14.496 -1.9537  0.2458  0.0320
 7358SOL    HW233708   2.516   1.178  14.392  0.3986 -1.5993 -0.9641
 7359SOL     OW33709   1.209   3.005  16.773 -0.0068 -0.1056 -0.1608
 7359SOL    HW133710   1.285   3.026  16.719 -0.0133  1.5694  0.4826
 7359SOL    HW233711   1.217   2.910  16.784 -0.4216 -0.2570 -1.1085
 7360SOL     OW33712   2.934   3.662  12.011  0.4249 -0.0860  0.1199
 7360SOL    HW133713   2.922   3.567  12.002 -0.1357 -0.1066  1.1485
 7360SOL    HW233714   2.853   3.684  12.056  0.2416  0.0981 -0.3007
 7361SOL     OW33715   3.708   2.477   8.984 -0.3821 -0.1630 -0.1627
 7361SOL    HW133716   3.791   2.467   8.938 -1.4328  0.4139 -2.2023
 7361SOL    HW233717   3.744   2.460   9.071 -1.1000  0.8895  0.3370
 7362SOL     OW33718   1.048   4.476   0.604  0.1279  0.0785 -0.2284
 7362SOL    HW133719   0.957   4.472   0.634  0.7867 -1.2938  1.5903
 7362SOL    HW233720   1.044   4.533   0.527  2.3114 -1.4573 -1.4787
 7363SOL     OW33721   3.699   2.514   1.816 -0.1059 -0.0458  0.1463
 7363SOL    HW133722   3.737   2.585   1.869  1.3909  0.1422 -1.1621
 7363SOL    HW233723   3.604   2.523   1.823 -0.3197 -2.4570  0.5951
 7364SOL     OW33724   0.030   3.675   3.892  0.4222  0.2775  0.5203
 7364SOL    HW133725   4.739   3.728   3.966  0.2765  2.3975 -1.0677
 7364SOL    HW233726   4.691   3.678   3.839 -1.0306  0.9663  2.7130
 7365SOL     OW33727   4.153   1.489   3.193 -0.0982  0.2744  0.0982
 7365SOL    HW133728   4.239   1.521   3.165  0.2362 -0.8468 -0.1464
 7365SOL    HW233729   4.102   1.541   3.130  2.6903  1.0376 -1.5080
 7366SOL     OW33730   3.787   4.656   6.875  0.3672 -0.1948  0.3419
 7366SOL    HW133731   3.849   4.728   6.890  1.6764 -1.9473  3.3377
 7366SOL    HW233732   3.844   4.598   6.824  0.8398  0.5019  0.0741
 7367SOL     OW33733   2.464   1.478  13.572 -0.0382  0.1556  0.3962
 7367SOL    HW133734   2.451   1.458  13.664  2.1076 -1.5781  0.3203
 7367SOL    HW233735   2.381   1.516  13.543  0.5434  1.2698  0.2042
 7368SOL     OW33736   2.342   1.161  17.625  0.7796  0.3958 -0.3531
 7368SOL    HW133737   2.394   1.178  17.547 -1.2074  1.5323 -1.4309
 7368SOL    HW233738   2.258   1.165  17.578  0.3171 -1.4535  0.2933
 7369SOL     OW33739   2.059   0.947   3.791  0.5019 -0.2484 -0.1350
 7369SOL    HW133740   2.093   1.030   3.826 -1.4689 -0.6870  2.8208
 7369SOL    HW233741   1.965   0.961   3.788  0.3717 -0.9518  0.4562
 7370SOL     OW33742   3.147   2.701   0.035 -0.1185  0.0594  0.6875
 7370SOL    HW133743   3.190   2.725   0.117 -0.2935  0.8310  0.5536
 7370SOL    HW233744   3.207   2.749  17.738 -0.5325  0.3612  0.5056
 7371SOL     OW33745   3.494   0.638   5.414 -0.4717  0.1825 -0.2120
 7371SOL    HW133746   3.581   0.640   5.374 -0.7520  0.3887 -0.8009
 7371SOL    HW233747   3.446   0.610   5.336 -0.8295  0.9241 -0.2490
 7372SOL     OW33748   3.677   1.471   8.683 -0.3328  0.3604 -0.3514
 7372SOL    HW133749   3.759   1.427   8.705  0.0534  2.0477  1.5201
 7372SOL    HW233750   3.719   1.555   8.663  0.3588  0.4890  1.6534
 7373SOL     OW33751   2.449   0.605  16.298  0.0536 -0.3343 -0.1628
 7373SOL    HW133752   2.539   0.638  16.294 -0.3530  0.6224 -1.5935
 7373SOL    HW233753   2.453   0.609  16.393  3.0586  0.7067 -0.3203
 7374SOL     OW33754   3.390   2.949   0.108 -0.9552  0.5465 -0.6082
 7374SOL    HW133755   3.361   2.877   0.165 -0.1811  2.0772  1.7319
 7374SOL    HW233756   3.401   3.019   0.173 -0.9693  1.1460 -1.2473
 7375SOL     OW33757   0.243   1.562   2.800 -0.7499  0.1289  0.3975
 7375SOL    HW133758   0.314   1.503   2.825 -0.3409 -0.6421 -2.6009
 7375SOL    HW233759   0.215   1.527   2.716  2.5673  1.2518 -1.1847
 7376SOL     OW33760   4.107   4.605   3.182  0.0581 -0.0946  0.3606
 7376SOL    HW133761   4.182   4.617   3.124  0.5544  0.8792  1.1973
 7376SOL    HW233762   4.041   4.659   3.139  0.5121  0.8778  0.8759
 7377SOL     OW33763   1.422   2.915   7.200 -0.5292 -0.4492 -0.0893
 7377SOL    HW133764   1.346   2.936   7.254 -0.1047 -0.6667  0.5972
 7377SOL    HW233765   1.457   2.845   7.255  0.8997  0.3328 -0.0111
 7378SOL     OW33766   1.783   4.036   2.426  0.2805  0.1948 -0.0867
 7378SOL    HW133767   1.795   4.122   2.386 -1.2653 -0.0956 -1.1523
 7378SOL    HW233768   1.706   4.005   2.380  0.6257 -1.2684  0.3322
 7379SOL     OW33769   3.192   0.946   4.409 -0.0219  0.5267 -0.0580
 7379SOL    HW133770   3.133   0.978   4.477  0.2341 -0.1583  0.4777
 7379SOL    HW233771   3.130   0.906   4.348 -0.3875  2.6117 -1.0552
 7380SOL     OW33772   2.053   1.572   4.391 -0.3429  0.0144  0.2460
 7380SOL    HW133773   2.118   1.581   4.321  0.7626 -1.0590  1.1294
 7380SOL    HW233774   2.028   1.664   4.396 -1.2662 -0.3834  3.0625
 7381SOL     OW33775   3.003   0.928   4.601 -0.1223 -0.1759 -0.3329
 7381SOL    HW133776   2.973   1.005   4.650  0.7940  0.8144 -1.3160
 7381SOL    HW233777   2.929   0.901   4.546 -0.3949 -0.8803  0.3840
 7382SOL     OW33778   0.942   0.881   3.276 -0.0368  0.0106 -0.3069
 7382SOL    HW133779   1.031   0.905   3.251  0.0454 -1.3023 -1.2698
 7382SOL    HW233780   0.886   0.957   3.262  0.1377 -0.0269 -1.2426
 7383SOL     OW33781   1.759   1.749   0.666  0.2923  0.2386  0.3864
 7383SOL    HW133782   1.744   1.743   0.571  0.4170 -1.8465  0.5076
 7383SOL    HW233783   1.748   1.845   0.667  0.7179  0.3309 -2.1210
 7384SOL     OW33784   1.931   1.109  11.380 -0.5499  0.2812  0.0537
 7384SOL    HW133785   1.980   1.119  11.462 -1.7743  0.8472  0.7135
 7384SOL    HW233786   1.946   1.194  11.339  0.1435 -0.2137 -0.7043
 7385SOL     OW33787   2.768   0.037  13.802 -0.3164  1.0323 -0.3016
 7385SOL    HW133788   2.819   0.070  13.876 -0.0649  1.5276 -0.6935
 7385SOL    HW233789   2.759   0.113  13.745  0.2077  0.3327 -1.3201
 7386SOL     OW33790   2.103   3.159   9.079  0.2813 -0.1050 -0.0390
 7386SOL    HW133791   2.107   3.174   9.174 -0.0572  0.0339 -0.0448
 7386SOL    HW233792   2.180   3.205   9.047 -1.8639  2.1755 -1.9182
 7387SOL     OW33793   0.398   4.592   1.327 -0.4900 -0.4308  0.4515
 7387SOL    HW133794   0.463   4.546   1.379  0.0158 -0.1257  0.0836
 7387SOL    HW233795   0.330   4.526   1.311  1.1735 -1.8205 -0.8055
 7388SOL     OW33796   4.030   0.224   3.761  0.4155  0.1103  0.2796
 7388SOL    HW133797   3.941   0.259   3.753  0.4378  0.1411  0.1684
 7388SOL    HW233798   4.010   0.152   3.821  0.5155 -0.2592 -0.1314
 7389SOL     OW33799   2.687   4.652  10.792 -0.6096 -0.0036 -0.4094
 7389SOL    HW133800   2.706   4.676  10.883 -1.8896 -1.6760  0.2877
 7389SOL    HW233801   2.668   4.735  10.748 -0.9384 -0.2887 -0.8077
 7390SOL     OW33802   0.597   4.368   2.766 -0.1734  0.2198 -0.0239
 7390SOL    HW133803   0.535   4.340   2.699  1.4248  1.5393 -2.0450
 7390SOL    HW233804   0.587   4.463   2.759 -1.5449 -0.1865 -3.7141
 7391SOL     OW33805   4.727   1.826   5.052 -0.0322 -0.0547  0.2393
 7391SOL    HW133806   0.013   1.743   5.011 -0.3758 -0.3032  0.5097
 7391SOL    HW233807   4.638   1.811   5.086  0.4761 -1.1620  1.0877
 7392SOL     OW33808   2.690   2.129  14.965  0.2826  0.2960  0.1744
 7392SOL    HW133809   2.690   2.087  14.879 -0.7163  0.0377  0.3005
 7392SOL    HW233810   2.701   2.056  15.025  0.5703  0.0050 -0.2381
 7393SOL     OW33811   3.423   0.527   1.318 -0.4000 -0.6282  0.1135
 7393SOL    HW133812   3.388   0.606   1.275  0.6441 -0.9780 -1.3906
 7393SOL    HW233813   3.342   0.498   1.359 -0.2691 -1.1371  0.0083
 7394SOL     OW33814   2.906   2.614   8.684  0.1007 -0.2424  0.2148
 7394SOL    HW133815   2.914   2.559   8.762 -3.1257  0.7896  1.2881
 7394SOL    HW233816   2.996   2.646   8.686 -0.0563  0.0988  1.5836
 7395SOL     OW33817   4.399   3.326  11.868 -0.4876 -0.3668 -0.0316
 7395SOL    HW133818   4.400   3.235  11.840 -2.5346 -0.7698  1.2278
 7395SOL    HW233819   4.364   3.362  11.786  0.8917  0.6867 -0.1644
 7396SOL     OW33820   1.884   0.363  12.246  0.5178  0.3772 -0.2469
 7396SOL    HW133821   1.941   0.437  12.227  1.1491 -0.1974 -0.6112
 7396SOL    HW233822   1.952   0.303  12.278  1.2149  0.4146 -1.6762
 7397SOL     OW33823   1.246   0.089   9.728 -0.5414 -0.2109  0.0834
 7397SOL    HW133824   1.240   0.184   9.720  0.8190 -0.2527 -1.2517
 7397SOL    HW233825   1.213   0.072   9.817  0.6155 -0.6301  0.4237
 7398SOL     OW33826   3.054   3.799   3.703 -0.6889 -0.0945  0.8561
 7398SOL    HW133827   3.094   3.823   3.619 -0.3476  0.9662  1.3207
 7398SOL    HW233828   2.995   3.730   3.674 -0.1067 -0.2056 -0.0541
 7399SOL     OW33829   0.338   1.098  14.196  0.2266  0.4422  0.4188
 7399SOL    HW133830   0.266   1.037  14.211  2.3310 -2.1571 -0.1056
 7399SOL    HW233831   0.399   1.047  14.250  0.6999  1.2849  0.6885
 7400SOL     OW33832   3.314   2.156   7.723 -0.3142 -0.8680 -0.3419
 7400SOL    HW133833   3.325   2.062   7.736 -0.6241 -0.6765  1.3363
 7400SOL    HW233834   3.267   2.187   7.800  0.9136  0.8359 -0.2676
 7401SOL     OW33835   3.955   2.360   6.105  0.3043  0.6499  0.9691
 7401SOL    HW133836   3.881   2.318   6.150 -0.5898  1.5020  0.2759
 7401SOL    HW233837   3.905   2.427   6.059 -0.4053 -0.5478  0.0025
 7402SOL     OW33838   0.079   4.437   1.060 -0.0154  0.3866 -0.0323
 7402SOL    HW133839   0.019   4.363   1.056 -0.8067  1.0429 -0.1596
 7402SOL    HW233840   0.019   4.507   1.086 -1.1740 -0.4381 -0.4988
 7403SOL     OW33841   2.359   1.128   8.225 -0.0556 -0.6301 -0.4418
 7403SOL    HW133842   2.441   1.174   8.210  0.5161 -1.8271 -0.9728
 7403SOL    HW233843   2.356   1.072   8.148 -0.7920 -2.8321  1.2015
 7404SOL     OW33844   1.223   0.829   6.774  0.6271 -0.2306  0.3419
 7404SOL    HW133845   1.229   0.895   6.704  2.3387  1.5541  2.1856
 7404SOL    HW233846   1.158   0.866   6.832  0.7069  0.9890 -0.3473
 7405SOL     OW33847   3.362   3.353   7.509 -0.0283  0.6547  0.3051
 7405SOL    HW133848   3.290   3.333   7.448 -0.7418 -1.1746  1.7299
 7405SOL    HW233849   3.436   3.363   7.450  1.9584  0.8865  2.8675
 7406SOL     OW33850   0.820   4.577   8.185  0.0369 -0.2969  0.4390
 7406SOL    HW133851   0.908   4.577   8.148 -0.7601  1.3164 -1.4233
 7406SOL    HW233852   0.823   4.661   8.231 -1.6234  0.2881 -0.5185
 7407SOL     OW33853   0.873   3.801   6.713  0.4829 -0.4534 -0.1107
 7407SOL    HW133854   0.911   3.779   6.798 -0.3995 -0.9456  0.1565
 7407SOL    HW233855   0.852   3.894   6.724 -1.6665 -0.5254 -3.4604
 7408SOL     OW33856   4.637   0.041  13.490 -0.1673 -0.0232  0.2650
 7408SOL    HW133857   4.579   0.005  13.557  0.4248  0.1663  0.8809
 7408SOL    HW233858   4.678   4.699  13.463  1.0660  0.2546  1.2573
 7409SOL     OW33859   1.046   4.444   2.699  0.4218 -0.3993 -0.1018
 7409SOL    HW133860   1.132   4.479   2.676  1.0068 -1.1010  0.9775
 7409SOL    HW233861   0.999   4.467   2.619  1.7461  0.2035 -0.7081
 7410SOL     OW33862   2.558   0.985   4.530  0.5440 -0.0735 -0.6305
 7410SOL    HW133863   2.605   1.005   4.449  0.3871  3.3641  0.1234
 7410SOL    HW233864   2.608   0.911   4.563  0.3525 -0.8119 -1.9990
 7411SOL     OW33865   2.661   0.577   2.425  0.1544 -0.2997 -0.0326
 7411SOL    HW133866   2.739   0.561   2.371  0.6364 -2.4363  1.2856
 7411SOL    HW233867   2.693   0.631   2.498  1.6531 -1.1975 -0.0144
 7412SOL     OW33868   0.683   0.333   2.590 -1.0429 -0.1714 -0.0762
 7412SOL    HW133869   0.730   0.396   2.645 -2.6978  1.7676 -0.8730
 7412SOL    HW233870   0.659   0.389   2.516  1.6193 -0.9668 -1.5674
 7413SOL     OW33871   0.900   0.883  16.272  0.4544  0.5996 -0.4945
 7413SOL    HW133872   0.938   0.970  16.269  0.2852  0.6496 -1.1255
 7413SOL    HW233873   0.824   0.910  16.324  0.1105 -0.3103 -0.5253
 7414SOL     OW33874   1.427   1.595   8.773 -0.8467  0.3099 -0.6046
 7414SOL    HW133875   1.353   1.650   8.799 -1.5268  0.1400 -2.1329
 7414SOL    HW233876   1.488   1.629   8.838 -1.0630  0.0183 -0.2464
 7415SOL     OW33877   4.525   0.180  15.224 -0.0418 -0.1584 -0.7425
 7415SOL    HW133878   4.476   0.115  15.174 -0.6341  0.5128 -1.0399
 7415SOL    HW233879   4.581   0.125  15.279 -0.3718  0.1462 -0.1144
 7416SOL     OW33880   0.328   0.179  16.933 -0.1009 -0.4968  0.2562
 7416SOL    HW133881   0.355   0.255  16.881 -0.6748 -1.0875 -0.8877
 7416SOL    HW233882   0.412   0.136  16.942  0.9497  1.1889 -1.4326
 7417SOL     OW33883   1.561   0.210   4.875  0.3740 -0.0958 -0.3111
 7417SOL    HW133884   1.545   0.238   4.965 -2.7369 -0.2332 -0.8145
 7417SOL    HW233885   1.477   0.174   4.849  0.3905 -0.3527 -0.0119
 7418SOL     OW33886   4.516   2.076  17.233  0.6563 -0.4574  0.0252
 7418SOL    HW133887   4.575   2.110  17.300 -0.5714  1.4925  0.1282
 7418SOL    HW233888   4.561   1.993  17.216  0.6741 -0.8539  2.0143
 7419SOL     OW33889   3.371   3.835   1.444  0.9242  0.1854 -0.2156
 7419SOL    HW133890   3.456   3.838   1.401  0.5562  2.2505 -0.7767
 7419SOL    HW233891   3.398   3.792   1.525 -0.7217 -2.3665 -1.0181
 7420SOL     OW33892   3.554   1.702   2.312 -0.2100 -0.3313 -0.0428
 7420SOL    HW133893   3.537   1.727   2.221 -2.3453 -2.0258 -0.1306
 7420SOL    HW233894   3.635   1.750   2.330 -1.5476  2.0540 -0.3412
 7421SOL     OW33895   0.793   2.893   9.096 -0.5108  0.6333  0.4494
 7421SOL    HW133896   0.778   2.812   9.144 -1.7574  0.2407 -0.5813
 7421SOL    HW233897   0.835   2.867   9.014 -0.6147 -1.4768  1.0762
 7422SOL     OW33898   4.666   1.228   5.260  0.0854  0.8658 -0.1217
 7422SOL    HW133899   4.651   1.231   5.166  1.6126  0.6403 -0.3808
 7422SOL    HW233900   0.021   1.227   5.261  0.0988  2.4821 -0.4129
 7423SOL     OW33901   3.204   4.105   4.095  0.3551 -0.0622 -0.3959
 7423SOL    HW133902   3.213   4.085   4.002  1.8712 -0.7975 -0.0952
 7423SOL    HW233903   3.114   4.098   4.127  0.0780  1.2014 -0.9380
 7424SOL     OW33904   3.000   4.228   6.368 -0.6504 -0.1385 -0.5439
 7424SOL    HW133905   3.022   4.143   6.331  0.1508 -1.3352  2.7503
 7424SOL    HW233906   2.945   4.197   6.440  0.3967  0.7450  0.6526
 7425SOL     OW33907   0.430   3.498  11.492  0.0006  0.2254  0.0813
 7425SOL    HW133908   0.510   3.551  11.499  0.6798 -0.7092 -0.5368
 7425SOL    HW233909   0.455   3.429  11.553  0.1605 -1.2869 -1.6980
 7426SOL     OW33910   2.754   3.797   4.704  0.4317  0.0121  0.0904
 7426SOL    HW133911   2.762   3.884   4.743 -0.4505 -1.6077  3.8496
 7426SOL    HW233912   2.830   3.795   4.646  2.2882 -1.0190  2.5506
 7427SOL     OW33913   1.669   2.383  11.407 -0.1349  0.4628 -0.0211
 7427SOL    HW133914   1.675   2.477  11.422  0.3791  0.6878 -1.6258
 7427SOL    HW233915   1.664   2.398  11.313  1.1490 -1.3341 -0.3803
 7428SOL     OW33916   4.308   4.364   5.344  0.1867 -0.6064 -0.4675
 7428SOL    HW133917   4.230   4.419   5.356  1.1100  0.3386  1.1571
 7428SOL    HW233918   4.369   4.405   5.405 -1.1031  0.0168  0.4088
 7429SOL     OW33919   0.217   3.373   4.323 -0.6834 -0.0439 -0.0266
 7429SOL    HW133920   0.177   3.428   4.255 -1.3150  0.4944  0.7856
 7429SOL    HW233921   0.310   3.394   4.318 -1.1831  1.9725 -0.9698
 7430SOL     OW33922   3.439   3.876  12.928 -0.2844 -0.1413  0.8642
 7430SOL    HW133923   3.412   3.918  12.846  0.1039  0.6566  1.1554
 7430SOL    HW233924   3.410   3.939  12.994  0.4335 -0.0307  1.0707
 7431SOL     OW33925   4.405   1.838   2.402 -0.2488 -0.3549 -0.3631
 7431SOL    HW133926   4.320   1.798   2.420 -0.8032 -0.5626 -3.4185
 7431SOL    HW233927   4.398   1.927   2.437 -2.1458 -0.5914 -0.1548
 7432SOL     OW33928   4.260   4.729  17.520 -0.0948 -0.1387 -0.7956
 7432SOL    HW133929   4.226   0.060  17.574 -0.7819 -0.0013 -1.4093
 7432SOL    HW233930   4.347   0.028  17.518  0.0777 -0.3638  2.5980
 7433SOL     OW33931   2.061   0.211   6.119  0.1506 -0.1329 -0.9147
 7433SOL    HW133932   2.044   0.279   6.184 -0.6924 -1.2513  0.0437
 7433SOL    HW233933   2.116   0.258   6.057  1.7973 -0.6263  0.1648
 7434SOL     OW33934   0.169   1.161  11.155 -0.0932 -0.1443  1.2227
 7434SOL    HW133935   0.199   1.094  11.217 -0.8439 -2.9914 -1.5140
 7434SOL    HW233936   0.116   1.110  11.094  1.1559  0.4169 -0.3045
 7435SOL     OW33937   1.141   3.867   4.399  0.4901 -0.0163  0.0932
 7435SOL    HW133938   1.180   3.826   4.476  0.0922  3.2013  2.0022
 7435SOL    HW233939   1.086   3.940   4.428 -0.1263 -0.2964 -0.3697
 7436SOL     OW33940   3.240   1.915  12.922 -0.3396  0.2422  0.4675
 7436SOL    HW133941   3.333   1.932  12.931 -0.0963 -0.8702  0.0474
 7436SOL    HW233942   3.221   1.834  12.969 -0.5473 -1.2120 -2.1310
 7437SOL     OW33943   4.472   0.522  15.077 -0.0954  0.1633  0.0972
 7437SOL    HW133944   4.528   0.446  15.066 -0.2018 -0.3268  2.8784
 7437SOL    HW233945   4.457   0.550  14.986  0.5583 -0.1245 -0.0932
 7438SOL     OW33946   0.024   3.620  16.960  0.4984  0.2194 -0.0665
 7438SOL    HW133947   0.043   3.580  17.045 -0.7359 -1.1090 -0.4242
 7438SOL    HW233948   0.104   3.667  16.939  1.1544 -0.5812  0.6634
 7439SOL     OW33949   1.535   2.636   1.997  0.1120 -0.5561  0.1485
 7439SOL    HW133950   1.492   2.615   1.914 -0.3479 -2.3790  0.8624
 7439SOL    HW233951   1.459   2.669   2.044  0.6043  2.1248 -0.9163
 7440SOL     OW33952   2.959   1.456   2.573 -0.0540 -0.7306 -0.2780
 7440SOL    HW133953   2.940   1.541   2.535  2.6940 -0.3199 -0.6953
 7440SOL    HW233954   2.940   1.398   2.499  2.6479 -1.1791 -0.6203
 7441SOL     OW33955   3.018   4.651   6.884  0.4905 -0.3279  0.2857
 7441SOL    HW133956   3.100   4.677   6.843  0.2642 -0.0729 -0.0066
 7441SOL    HW233957   3.016   4.716   6.954 -0.9668  0.4742 -0.4827
 7442SOL     OW33958   3.420   2.715   5.387  0.8602  0.1776  0.0745
 7442SOL    HW133959   3.488   2.737   5.324 -0.7464  1.5968 -1.1503
 7442SOL    HW233960   3.479   2.684   5.456  0.5963  0.2336  0.3263
 7443SOL     OW33961   2.509   1.734   6.208  0.5656  0.1883  0.0447
 7443SOL    HW133962   2.575   1.801   6.192  0.8116 -0.2055 -0.6207
 7443SOL    HW233963   2.560   1.679   6.268 -0.6116  0.2662  1.1114
 7444SOL     OW33964   3.171   4.475   3.807  0.3438  0.2068  0.2405
 7444SOL    HW133965   3.227   4.508   3.737  0.1321  0.3006  0.1148
 7444SOL    HW233966   3.183   4.545   3.871 -0.5625  0.3247  0.2925
 7445SOL     OW33967   0.560   2.505   1.765 -0.0004  0.5762 -0.0860
 7445SOL    HW133968   0.546   2.411   1.774  2.7473  0.3542  1.9439
 7445SOL    HW233969   0.575   2.518   1.671 -2.0719  1.6594 -0.2685
 7446SOL     OW33970   4.044   3.817   3.469 -0.1985 -0.3120 -0.2159
 7446SOL    HW133971   4.075   3.807   3.379 -0.2275  1.6140 -0.4429
 7446SOL    HW233972   4.093   3.750   3.515 -1.2210  0.8734  2.5959
 7447SOL     OW33973   1.590   4.638   6.017 -0.5870  0.3902 -0.5990
 7447SOL    HW133974   1.686   4.634   6.020 -0.4916  2.8221 -0.1337
 7447SOL    HW233975   1.572   4.630   5.924 -0.8927  0.5059 -0.5475
 7448SOL     OW33976   1.640   1.747   8.498  0.4144  0.1020  0.0861
 7448SOL    HW133977   1.667   1.656   8.511 -0.6833 -0.5524 -2.1870
 7448SOL    HW233978   1.700   1.802   8.549  1.0526 -0.4545 -0.0687
 7449SOL     OW33979   3.797   2.003   8.795 -0.1776  0.0401 -0.2863
 7449SOL    HW133980   3.728   2.050   8.748  1.3001  1.1785 -1.3236
 7449SOL    HW233981   3.810   2.060   8.871  1.0732  0.9615 -1.1973
 7450SOL     OW33982   2.714   4.143   4.475  0.3135  0.2838 -0.2207
 7450SOL    HW133983   2.692   4.234   4.494 -2.3358 -0.4863  0.4008
 7450SOL    HW233984   2.744   4.124   4.564  1.5282  1.0471 -0.4678
 7451SOL     OW33985   2.590   0.421   8.450  0.1720 -0.1776 -0.4006
 7451SOL    HW133986   2.653   0.493   8.454 -0.7433  0.6841 -1.4041
 7451SOL    HW233987   2.540   0.447   8.372 -0.7369 -0.5805  0.0413
 7452SOL     OW33988   2.612   1.614  10.082 -0.2317 -0.2889  0.2231
 7452SOL    HW133989   2.674   1.614  10.009  0.0219  1.3241  0.4371
 7452SOL    HW233990   2.637   1.528  10.115 -0.4756  0.6157  2.7608
 7453SOL     OW33991   4.482   2.449   6.401  0.0211 -0.0296 -0.1599
 7453SOL    HW133992   4.439   2.363   6.404 -0.7427  0.4118  1.5513
 7453SOL    HW233993   4.504   2.456   6.494 -0.8606 -0.2451  0.0634
 7454SOL     OW33994   0.182   0.633   8.514  0.3890 -0.2513  0.2506
 7454SOL    HW133995   0.235   0.625   8.435 -1.0433 -1.1575 -0.6264
 7454SOL    HW233996   0.125   0.700   8.476 -0.8411 -0.7747  1.1666
 7455SOL     OW33997   1.588   3.268   9.348  0.5276 -0.1951 -0.7614
 7455SOL    HW133998   1.585   3.264   9.253  0.3323  2.2488 -0.8508
 7455SOL    HW233999   1.520   3.207   9.379 -1.5219  3.8350  2.6058
 7456SOL     OW34000   0.986   0.773   4.095  0.5321 -0.4328 -0.0189
 7456SOL    HW134001   1.040   0.848   4.119 -0.7962  0.5761 -0.1944
 7456SOL    HW234002   0.924   0.760   4.167 -0.1976 -0.1076 -0.5827
 7457SOL     OW34003   3.812   2.978   5.590  0.0288  0.2626 -0.2836
 7457SOL    HW134004   3.782   2.953   5.502  0.6586  3.7000 -1.4829
 7457SOL    HW234005   3.787   3.070   5.596  1.5726  0.4861  2.6562
 7458SOL     OW34006   3.818   3.438   4.848 -0.4596 -0.0336  0.2829
 7458SOL    HW134007   3.750   3.481   4.900 -0.3516  1.2032 -0.6200
 7458SOL    HW234008   3.762   3.376   4.802  0.8693 -3.0263  2.6625
 7459SOL     OW34009   2.723   3.873   9.263  0.2036 -0.0539  0.0884
 7459SOL    HW134010   2.762   3.815   9.329 -0.5320  0.5864  1.0794
 7459SOL    HW234011   2.769   3.951   9.293 -1.2410  0.9992 -0.4499
 7460SOL     OW34012   0.173   2.905   5.294 -0.5500  0.2066  0.3116
 7460SOL    HW134013   0.240   2.837   5.295 -0.8008 -0.0170  1.7125
 7460SOL    HW234014   0.093   2.853   5.284 -0.9057  0.6458  0.8753
 7461SOL     OW34015   0.686   2.076   6.740 -0.3784  0.0091  0.2979
 7461SOL    HW134016   0.736   2.046   6.664 -0.9946 -0.2978  0.0162
 7461SOL    HW234017   0.755   2.071   6.806  0.1697 -2.7051 -0.4724
 7462SOL     OW34018   2.300   4.402  13.709  0.1564  0.1386  0.1420
 7462SOL    HW134019   2.386   4.366  13.732  1.0969  2.0314 -0.3308
 7462SOL    HW234020   2.247   4.394  13.788 -1.9071  0.7367 -1.1697
 7463SOL     OW34021   3.444   0.261   1.374 -0.3202  0.0265 -0.0174
 7463SOL    HW134022   3.468   0.221   1.290  2.0612  2.3846 -0.4824
 7463SOL    HW234023   3.457   0.355   1.359  1.2843 -0.1956 -0.0346
 7464SOL     OW34024   2.936   2.050   8.150  0.0692  0.0780 -0.0848
 7464SOL    HW134025   2.860   2.086   8.105 -0.2594  1.2042  1.3722
 7464SOL    HW234026   2.924   2.078   8.240 -0.8866 -0.4886 -0.0494
 7465SOL     OW34027   0.088   1.718  11.896 -0.1258  0.3200 -0.9419
 7465SOL    HW134028   0.054   1.631  11.878 -5.1492  1.7002  1.9701
 7465SOL    HW234029   0.006   1.766  11.895 -0.9457 -1.0312  1.2382
 7466SOL     OW34030   0.805   0.257  14.007 -0.1538 -0.6144 -0.1593
 7466SOL    HW134031   0.763   0.280  14.090 -0.3304 -0.9279 -0.1607
 7466SOL    HW234032   0.730   0.253  13.948 -1.9439  3.5328  1.8494
 7467SOL     OW34033   3.749   1.534  16.587 -0.2015  0.2057 -0.2193
 7467SOL    HW134034   3.749   1.554  16.680  0.5396 -0.5751 -0.0487
 7467SOL    HW234035   3.715   1.614  16.549 -1.5043 -0.8761 -1.3528
 7468SOL     OW34036   1.955   4.328   8.679  0.2735 -0.2125 -0.0326
 7468SOL    HW134037   2.013   4.381   8.623  2.3490 -1.3549  1.0438
 7468SOL    HW234038   1.875   4.381   8.683 -0.4655 -1.4398  1.2944
 7469SOL     OW34039   2.699   0.683  13.814 -0.2558  0.1247  0.0906
 7469SOL    HW134040   2.684   0.720  13.726 -1.6127 -1.8098 -0.4994
 7469SOL    HW234041   2.764   0.617  13.792 -0.0310  0.1716  0.6353
 7470SOL     OW34042   3.582   1.361   6.601 -0.2595  0.1592  0.6607
 7470SOL    HW134043   3.509   1.300   6.598 -0.3804  0.3409 -0.0169
 7470SOL    HW234044   3.659   1.306   6.611  0.0098  0.3037 -0.6694
 7471SOL     OW34045   3.754   4.650   7.570 -0.6004 -0.0868  0.7450
 7471SOL    HW134046   3.786   4.739   7.581  0.0286 -0.5482  2.6817
 7471SOL    HW234047   3.833   4.599   7.589 -1.1403 -1.2611 -0.1576
 7472SOL     OW34048   1.159   3.804   5.701 -0.2039  0.4580 -0.2087
 7472SOL    HW134049   1.155   3.897   5.680 -3.6656  0.3009 -0.3105
 7472SOL    HW234050   1.252   3.792   5.719 -0.1556  0.4684 -0.4524
 7473SOL     OW34051   1.787   2.829   4.222 -0.3316  0.0341  0.1279
 7473SOL    HW134052   1.718   2.810   4.286 -0.9637  0.7193 -0.3486
 7473SOL    HW234053   1.857   2.790   4.274  1.4682  0.4068 -2.0494
 7474SOL     OW34054   2.578   2.938  10.438 -0.7092  0.1351 -0.5951
 7474SOL    HW134055   2.648   2.910  10.379  1.6912  2.0065  1.3685
 7474SOL    HW234056   2.620   2.991  10.506 -0.9678  0.6903 -0.8721
 7475SOL     OW34057   2.573   4.287   3.966 -0.4194 -0.5648 -0.2653
 7475SOL    HW134058   2.544   4.227   4.034  0.4026  0.3645  0.9146
 7475SOL    HW234059   2.492   4.306   3.919 -1.1450 -0.6576  0.9502
 7476SOL     OW34060   2.416   2.061  13.711 -0.1106 -0.8069 -0.3334
 7476SOL    HW134061   2.324   2.087  13.713 -0.7575 -2.9618 -2.0380
 7476SOL    HW234062   2.428   2.067  13.806  0.0361  1.4259 -0.4959
 7477SOL     OW34063   2.240   3.325  10.087  0.3879  0.2119 -0.6520
 7477SOL    HW134064   2.257   3.239  10.123 -0.7946 -0.1021 -0.8291
 7477SOL    HW234065   2.188   3.372  10.153  0.3103  0.1464 -0.6663
 7478SOL     OW34066   3.565   4.038   5.568 -0.1643  0.2548  0.2101
 7478SOL    HW134067   3.647   4.054   5.521 -0.3831 -2.8638 -1.2417
 7478SOL    HW234068   3.572   4.093   5.646 -0.5966  0.1192  0.3396
 7479SOL     OW34069   3.884   2.641   4.218 -0.1006 -0.2929  0.0636
 7479SOL    HW134070   3.797   2.669   4.191 -0.5446 -2.6190 -0.9071
 7479SOL    HW234071   3.886   2.546   4.231  1.0893 -0.3296 -0.3934
 7480SOL     OW34072   3.429   1.132   7.471  0.0855 -0.1637  0.2149
 7480SOL    HW134073   3.419   1.223   7.444  0.8944 -0.1114  0.1170
 7480SOL    HW234074   3.477   1.145   7.553  1.3364  0.2909 -0.5985
 7481SOL     OW34075   1.633   2.023  15.241  0.1206  0.2663  0.4483
 7481SOL    HW134076   1.548   2.065  15.232  0.3653  0.7415  0.2974
 7481SOL    HW234077   1.625   1.928  15.232 -1.5505  0.3887  0.7178
 7482SOL     OW34078   3.519   4.314   1.658 -0.3625  0.1125 -0.2062
 7482SOL    HW134079   3.431   4.339   1.686 -0.7458 -1.5173  0.0219
 7482SOL    HW234080   3.559   4.397   1.633  0.0873  0.1965  0.8008
 7483SOL     OW34081   4.572   0.366   6.924 -0.5750 -0.4263 -0.4510
 7483SOL    HW134082   4.580   0.275   6.952 -0.7413 -0.6520 -1.1233
 7483SOL    HW234083   4.529   0.408   6.998 -0.1411  0.7916 -0.8747
 7484SOL     OW34084   0.415   3.228  14.526 -0.4033 -0.0821 -0.3285
 7484SOL    HW134085   0.442   3.307  14.572  1.6706 -1.0665  0.1461
 7484SOL    HW234086   0.445   3.155  14.579 -1.2081 -2.6990 -3.4337
 7485SOL     OW34087   0.517   0.181  14.210  0.0405 -0.4217  0.3170
 7485SOL    HW134088   0.493   0.271  14.190  0.9821 -0.2607 -0.1105
 7485SOL    HW234089   0.541   0.159  14.120  1.3345  1.0170  0.3098
 7486SOL     OW34090   3.589   1.137   5.754 -0.1694 -0.0738 -0.0179
 7486SOL    HW134091   3.684   1.151   5.753 -0.0629 -0.6843  1.6655
 7486SOL    HW234092   3.580   1.089   5.672  0.9074 -1.3083  0.5856
 7487SOL     OW34093   4.709   0.976  17.084 -0.3737 -0.2444 -0.0047
 7487SOL    HW134094   4.679   1.031  17.012  2.4749  1.7185  0.3144
 7487SOL    HW234095   0.032   1.036  17.122  2.0914 -2.6283 -0.3570
 7488SOL     OW34096   4.286   4.232   6.260  0.2538 -0.4819  0.2920
 7488SOL    HW134097   4.276   4.223   6.166  2.3199  0.7432 -0.0364
 7488SOL    HW234098   4.211   4.289   6.272 -1.0617 -1.8511 -1.5061
 7489SOL     OW34099   2.642   0.869   7.495  0.0327  0.0443 -0.0944
 7489SOL    HW134100   2.648   0.910   7.409 -2.4381 -0.6665 -0.6070
 7489SOL    HW234101   2.721   0.906   7.533 -0.8869  1.5094  0.3869
 7490SOL     OW34102   3.558   0.417   2.810 -0.2004 -0.3937 -0.3682
 7490SOL    HW134103   3.505   0.482   2.762 -1.5468 -0.8010  0.5853
 7490SOL    HW234104   3.520   0.431   2.896 -0.6091 -1.0224 -0.4475
 7491SOL     OW34105   3.236   4.111   2.811 -0.1578 -0.5705 -0.4810
 7491SOL    HW134106   3.187   4.176   2.863  0.1995 -1.0023  0.3997
 7491SOL    HW234107   3.307   4.159   2.769  1.4402 -1.8709  0.7235
 7492SOL     OW34108   0.606   3.840   0.200 -0.0409  0.3471 -0.5471
 7492SOL    HW134109   0.589   3.929   0.230 -0.7298 -0.3129  1.0184
 7492SOL    HW234110   0.701   3.839   0.197 -0.1145 -1.5570 -2.2904
 7493SOL     OW34111   2.009   0.509   7.942 -0.0869 -0.0422 -0.0322
 7493SOL    HW134112   1.951   0.472   8.009 -2.0210 -0.7603 -2.0928
 7493SOL    HW234113   1.964   0.593   7.935 -0.5098 -0.1309  1.4637
 7494SOL     OW34114   0.531   1.068   1.416  0.1850  0.3849 -0.1174
 7494SOL    HW134115   0.563   1.024   1.337  1.8408  0.2618  0.6196
 7494SOL    HW234116   0.436   1.067   1.404  0.2747  0.1167 -0.8237
 7495SOL     OW34117   4.133   0.895   1.895 -0.1611 -0.4515 -0.0456
 7495SOL    HW134118   4.045   0.867   1.872 -0.8487  0.3048  1.6837
 7495SOL    HW234119   4.150   0.966   1.833  0.3581 -0.5539 -0.0233
 7496SOL     OW34120   0.807   4.258   2.515  0.4983  0.0513 -0.7973
 7496SOL    HW134121   0.826   4.227   2.426  0.2284  0.5561 -1.0338
 7496SOL    HW234122   0.827   4.351   2.507  0.7935  0.0176 -0.4185
 7497SOL     OW34123   1.114   4.586   4.280 -0.1219  0.1774  0.1849
 7497SOL    HW134124   1.021   4.587   4.300  0.1289  1.0220  1.2884
 7497SOL    HW234125   1.128   4.507   4.227 -1.6522 -1.3615  2.0727
 7498SOL     OW34126   0.708   2.659   2.452  0.2176 -0.0154 -0.4437
 7498SOL    HW134127   0.786   2.687   2.404  0.0624  1.9327  0.4563
 7498SOL    HW234128   0.709   2.725   2.521  0.7985  0.3413 -0.7921
 7499SOL     OW34129   3.641   4.441   2.835 -0.4409  0.7053  0.1039
 7499SOL    HW134130   3.695   4.372   2.873 -1.7892  0.2953  1.2792
 7499SOL    HW234131   3.649   4.498   2.912  1.5726  0.3748  0.1562
 7500SOL     OW34132   3.536   0.175   8.640 -0.5584 -0.3299 -0.6110
 7500SOL    HW134133   3.448   0.168   8.675 -0.8729  1.7670 -0.9841
 7500SOL    HW234134   3.537   0.158   8.545  0.4943  1.7997 -0.9842
 7501SOL     OW34135   4.623   0.163   3.296  0.0560  0.0346  0.4185
 7501SOL    HW134136   4.665   0.095   3.349  0.7491 -0.4325 -0.7418
 7501SOL    HW234137   4.699   0.217   3.272  2.2432 -2.3509  1.8835
 7502SOL     OW34138   3.927   3.242   8.766  0.8040 -0.3513  0.6504
 7502SOL    HW134139   3.883   3.308   8.820  0.5823  0.9168 -1.1187
 7502SOL    HW234140   3.859   3.175   8.760  0.3108  0.1428  0.7601
 7503SOL     OW34141   3.721   4.163   1.734 -0.4548 -0.1820 -0.5781
 7503SOL    HW134142   3.707   4.076   1.770 -0.5566  1.0895  2.4631
 7503SOL    HW234143   3.634   4.188   1.704 -1.3141 -0.0497  2.1051
 7504SOL     OW34144   2.300   2.547   0.463 -0.2561  0.1761 -0.0874
 7504SOL    HW134145   2.386   2.507   0.469 -0.2473  0.4160  1.4368
 7504SOL    HW234146   2.259   2.495   0.393 -0.4931  1.8251 -1.1739
 7505SOL     OW34147   4.204   0.950   1.534  0.1233 -0.3067 -0.4803
 7505SOL    HW134148   4.205   0.872   1.478  1.2369 -0.1169 -0.7269
 7505SOL    HW234149   4.122   0.995   1.514 -0.8383 -1.6833  0.3929
 7506SOL     OW34150   4.580   3.406  10.336 -0.2849 -0.1235  0.2029
 7506SOL    HW134151   4.512   3.457  10.380 -0.0952  2.7469 -2.8139
 7506SOL    HW234152   4.536   3.388  10.253  1.8215 -3.6451 -0.1348
 7507SOL     OW34153   1.412   0.374   9.936  0.6970  0.2595  0.1803
 7507SOL    HW134154   1.363   0.318   9.996 -0.4722  1.0429 -0.0430
 7507SOL    HW234155   1.441   0.449   9.988 -3.0153  0.3125  2.2104
 7508SOL     OW34156   3.656   2.423   4.320 -0.3059  0.0431 -0.0850
 7508SOL    HW134157   3.662   2.483   4.395 -2.3471 -1.4627  1.2782
 7508SOL    HW234158   3.749   2.401   4.313 -0.8646 -1.7639 -1.5543
 7509SOL     OW34159   2.645   1.095   1.510  0.1657 -0.0942 -0.2124
 7509SOL    HW134160   2.562   1.109   1.555 -0.4813 -4.2248 -0.0845
 7509SOL    HW234161   2.625   1.032   1.441 -1.4656  1.6428 -1.3231
 7510SOL     OW34162   0.406   4.321  12.293 -0.3837  0.0674  0.9486
 7510SOL    HW134163   0.434   4.374  12.218 -2.8243 -2.0034 -1.4062
 7510SOL    HW234164   0.468   4.361  12.355  1.4772 -0.2940 -0.6644
 7511SOL     OW34165   0.878   0.530  10.511 -0.3517 -0.3300  0.5670
 7511SOL    HW134166   0.783   0.518  10.510 -0.3181 -0.3799 -1.1604
 7511SOL    HW234167   0.917   0.508  10.427  2.4165  0.4201  1.6630
 7512SOL     OW34168   1.076   3.139  12.269 -0.0482 -0.0673  0.0921
 7512SOL    HW134169   1.023   3.113  12.344 -2.1219 -1.2984 -1.7849
 7512SOL    HW234170   1.151   3.080  12.276  0.0625  0.3251  2.2241
 7513SOL     OW34171   1.946   1.779   5.296  0.0134  0.5527 -0.2961
 7513SOL    HW134172   1.949   1.731   5.378  2.6060  0.2202 -0.5917
 7513SOL    HW234173   1.999   1.718   5.245 -1.1603 -0.3668 -0.4267
 7514SOL     OW34174   1.245   2.904   9.553 -0.0860 -0.0627  0.0608
 7514SOL    HW134175   1.318   2.845   9.535  2.3612  3.7292 -2.4363
 7514SOL    HW234176   1.208   2.869   9.634 -0.0376  0.8767  0.4832
 7515SOL     OW34177   1.004   2.144   9.060  0.5681  0.9076  0.1340
 7515SOL    HW134178   1.032   2.226   9.020 -0.1114  1.7544  1.3881
 7515SOL    HW234179   0.916   2.174   9.083  0.4988  0.2968  0.6762
 7516SOL     OW34180   4.722   3.517   9.542 -0.3475  0.0120 -0.3877
 7516SOL    HW134181   4.719   3.599   9.592 -0.0616 -2.1808  3.2678
 7516SOL    HW234182   4.630   3.494   9.528 -0.4735  0.8146 -0.8715
 7517SOL     OW34183   1.097   3.700   3.938 -0.1540  0.0564 -0.2588
 7517SOL    HW134184   1.065   3.622   3.891 -0.2780  0.5936 -1.0734
 7517SOL    HW234185   1.088   3.678   4.031  1.9860 -1.4398 -0.3967
 7518SOL     OW34186   2.070   3.845   5.473  0.5724 -0.2319  0.5336
 7518SOL    HW134187   2.142   3.878   5.526  1.3631  1.5523 -1.6717
 7518SOL    HW234188   2.115   3.780   5.420  0.4519  0.9042 -0.9491
 7519SOL     OW34189   3.768   2.644   5.808  0.0414 -0.0427  1.3045
 7519SOL    HW134190   3.756   2.736   5.834  1.6576  0.3888  0.5199
 7519SOL    HW234191   3.740   2.614   5.894  1.5364 -0.0635  1.7822
 7520SOL     OW34192   3.878   2.256   2.941  0.2868 -0.1164  0.0098
 7520SOL    HW134193   3.913   2.341   2.914  0.6479 -0.0122  0.8280
 7520SOL    HW234194   3.904   2.204   2.864  0.1798  1.5530 -1.1411
 7521SOL     OW34195   1.377   3.642   3.972 -0.3575 -0.6832  0.5290
 7521SOL    HW134196   1.341   3.720   4.014 -0.2127 -0.3210 -0.0182
 7521SOL    HW234197   1.316   3.569   3.981  1.7592 -2.3628  1.2860
 7522SOL     OW34198   2.527   1.513   3.157  0.3864  0.2282 -0.1033
 7522SOL    HW134199   2.479   1.447   3.106 -3.3527  4.1528 -1.6593
 7522SOL    HW234200   2.580   1.546   3.085  2.3145 -1.5437  0.5060
 7523SOL     OW34201   1.574   0.395   4.189 -0.0232 -0.0359 -0.1937
 7523SOL    HW134202   1.601   0.484   4.215  3.2922 -0.5911 -1.6184
 7523SOL    HW234203   1.486   0.413   4.156  0.7387  2.9062 -0.6603
 7524SOL     OW34204   3.892   3.237   4.295 -0.2738 -0.4813  0.1793
 7524SOL    HW134205   3.900   3.155   4.248 -2.2142  0.6230 -2.0734
 7524SOL    HW234206   3.966   3.295   4.276 -0.8746 -0.4002 -1.9581
 7525SOL     OW34207   0.043   4.084   6.755  0.0526 -0.4401 -0.7473
 7525SOL    HW134208   0.086   4.047   6.677  1.1829 -0.9197  0.1043
 7525SOL    HW234209   0.111   4.149   6.773 -2.2188  2.3537 -2.3122
 7526SOL     OW34210   2.645   1.339   6.349 -0.7790 -0.1462  0.1034
 7526SOL    HW134211   2.659   1.433   6.359  2.4384 -0.6103  0.0838
 7526SOL    HW234212   2.581   1.332   6.279 -1.3758  2.0701  0.4279
 7527SOL     OW34213   2.630   3.158   5.749 -0.4293  0.4565  0.5052
 7527SOL    HW134214   2.722   3.185   5.756  0.5417 -2.6912 -0.1905
 7527SOL    HW234215   2.622   3.138   5.843 -0.0248  2.5481  0.9934
 7528SOL     OW34216   2.656   3.224   4.931  0.4154 -0.3249 -0.2798
 7528SOL    HW134217   2.718   3.156   4.906 -0.0847 -1.1745  0.8055
 7528SOL    HW234218   2.622   3.255   4.847  0.6233  1.3195  0.2411
 7529SOL     OW34219   4.328   2.543  15.163 -0.1299 -0.1430  0.0449
 7529SOL    HW134220   4.293   2.607  15.102 -0.0774 -0.5591 -0.4138
 7529SOL    HW234221   4.261   2.475  15.156  0.6742 -0.8850 -0.3914
 7530SOL     OW34222   3.797   4.454   8.418 -0.2072  0.0610 -0.4171
 7530SOL    HW134223   3.866   4.520   8.414 -0.0063 -0.1633 -0.6382
 7530SOL    HW234224   3.727   4.500   8.464  0.5227  0.1483  0.5931
 7531SOL     OW34225   3.698   2.582   7.389 -0.0635  0.2564 -0.2126
 7531SOL    HW134226   3.646   2.549   7.316  0.4057  0.7647 -0.7751
 7531SOL    HW234227   3.771   2.520   7.384 -1.9287 -1.8554 -0.7433
 7532SOL     OW34228   4.340   1.588   3.589 -0.4091  0.3620  0.4774
 7532SOL    HW134229   4.357   1.509   3.537  2.9589  2.3903 -1.5301
 7532SOL    HW234230   4.330   1.656   3.522 -1.8700 -0.4580 -0.1371
 7533SOL     OW34231   4.451   1.127   7.743 -0.0337 -0.3431  0.1159
 7533SOL    HW134232   4.368   1.174   7.758  0.7006  1.9494 -2.8839
 7533SOL    HW234233   4.409   1.046   7.713 -1.0614  1.1107 -2.3901
 7534SOL     OW34234   4.608   4.032   9.419 -0.5592  0.0504 -0.0004
 7534SOL    HW134235   4.670   4.061   9.485 -1.3592 -1.3139  1.3579
 7534SOL    HW234236   4.641   4.068   9.337  1.8160  0.0082  0.9605
 7535SOL     OW34237   1.489   0.744   9.148  0.3368 -0.1137  0.3919
 7535SOL    HW134238   1.462   0.835   9.161  0.3862 -0.1109  0.4749
 7535SOL    HW234239   1.452   0.729   9.061 -1.6487  0.9646  1.0604
 7536SOL     OW34240   2.907   3.842   1.898 -0.1691  0.5478 -0.0482
 7536SOL    HW134241   2.921   3.770   1.837  2.8289  2.4191 -1.5310
 7536SOL    HW234242   2.969   3.905   1.862  0.2865  0.8396  1.2378
 7537SOL     OW34243   2.330   4.282   6.392  0.3536 -0.2482  0.4055
 7537SOL    HW134244   2.276   4.317   6.321 -0.4900 -1.8036  0.2862
 7537SOL    HW234245   2.377   4.362   6.414  1.0861 -0.3295 -0.9098
 7538SOL     OW34246   0.015   0.542   8.740  0.4512  0.4983 -0.4371
 7538SOL    HW134247   0.091   0.591   8.771 -0.4267  0.4410  1.8674
 7538SOL    HW234248   0.023   0.548   8.645 -1.0502  1.2024 -0.5201
 7539SOL     OW34249   2.020   0.051   8.206 -0.2850 -0.4707 -0.1223
 7539SOL    HW134250   1.928   0.047   8.231 -0.2667  1.8283  0.3361
 7539SOL    HW234251   2.067   0.047   8.290  0.1591  3.1282 -0.2045
 7540SOL     OW34252   1.408   3.150   5.422  0.4438  0.4700 -0.0573
 7540SOL    HW134253   1.453   3.150   5.338 -0.5103  2.2691 -0.5711
 7540SOL    HW234254   1.478   3.174   5.482  1.1692  0.2200 -0.7977
 7541SOL     OW34255   1.943   1.622   4.084 -0.2015 -0.4579 -0.1108
 7541SOL    HW134256   2.035   1.645   4.095 -0.3676  0.1232  0.0972
 7541SOL    HW234257   1.915   1.687   4.018  0.6089 -0.6132 -0.6096
 7542SOL     OW34258   1.046   1.947   8.894 -0.1416 -0.2407 -0.2071
 7542SOL    HW134259   1.029   2.005   8.968 -1.2727 -1.3579  0.4098
 7542SOL    HW234260   0.993   1.993   8.829 -1.6936 -1.5835  0.1092
 7543SOL     OW34261   3.541   3.586   4.785  0.0320  0.2048  0.3601
 7543SOL    HW134262   3.553   3.614   4.876  4.1842  1.0181 -0.4429
 7543SOL    HW234263   3.511   3.668   4.748  0.5627 -0.4601 -1.5356
 7544SOL     OW34264   1.000   0.773  17.081 -0.4393  0.0447  1.0815
 7544SOL    HW134265   0.977   0.862  17.057 -2.2017 -0.8074 -0.3919
 7544SOL    HW234266   1.096   0.779  17.077 -0.3862 -1.0759  0.5193
 7545SOL     OW34267   1.598   2.528  11.673  0.4066 -0.1015  0.4572
 7545SOL    HW134268   1.520   2.581  11.684 -1.4289 -2.2226 -2.2675
 7545SOL    HW234269   1.658   2.570  11.734 -1.5286  1.0244  1.5690
 7546SOL     OW34270   2.817   0.052   3.249 -0.2176  0.3804 -0.2362
 7546SOL    HW134271   2.745   4.737   3.220 -0.0958 -0.7346  1.6240
 7546SOL    HW234272   2.855   4.735   3.315  0.0636 -0.4746 -1.1445
 7547SOL     OW34273   4.472   2.435   6.107  0.2646  0.3184  0.2850
 7547SOL    HW134274   4.404   2.495   6.075 -1.6113 -1.2346  1.3942
 7547SOL    HW234275   4.463   2.449   6.201 -1.4479 -1.2803  0.3521
 7548SOL     OW34276   3.130   4.572   8.551  0.6362  0.4003  0.0514
 7548SOL    HW134277   3.075   4.596   8.477  1.8766  0.3254 -0.9123
 7548SOL    HW234278   3.214   4.616   8.534  2.1994 -2.9116 -0.8756
 7549SOL     OW34279   1.068   2.171  16.011  0.5058 -0.4321 -0.1324
 7549SOL    HW134280   0.977   2.165  16.042  0.0743  0.4609 -1.1852
 7549SOL    HW234281   1.103   2.255  16.040 -3.6079  1.2741 -0.0096
 7550SOL     OW34282   3.020   1.013  13.625 -0.7707  0.6395  0.2835
 7550SOL    HW134283   2.997   0.930  13.669 -0.3411  0.4535  0.1519
 7550SOL    HW234284   3.076   1.052  13.692  0.8575 -0.2317 -0.5907
 7551SOL     OW34285   4.613   1.417   5.957  0.1194 -0.6237  0.3663
 7551SOL    HW134286   4.556   1.352   5.915 -1.1564  0.9924 -0.3905
 7551SOL    HW234287   4.693   1.364   5.959  0.6029  0.0592 -1.4774
 7552SOL     OW34288   2.656   2.193  12.429 -0.0028  0.2574  0.1932
 7552SOL    HW134289   2.572   2.203  12.383 -1.7097 -3.7390  2.3608
 7552SOL    HW234290   2.646   2.108  12.472  0.6442  0.5091  0.8377
 7553SOL     OW34291   3.811   2.078  12.996 -0.3892 -0.0278 -0.4207
 7553SOL    HW134292   3.767   1.994  13.003  0.8352 -0.8325 -2.2655
 7553SOL    HW234293   3.796   2.097  12.903  0.1680 -0.3126 -0.5751
 7554SOL     OW34294   1.617   1.731   7.745 -0.2048 -0.2445 -0.0546
 7554SOL    HW134295   1.696   1.756   7.793  0.2992 -1.9996  0.0197
 7554SOL    HW234296   1.650   1.656   7.697 -2.4656 -2.5345  1.9500
 7555SOL     OW34297   2.016   2.620  12.964 -1.2567  0.8289 -0.3131
 7555SOL    HW134298   2.082   2.551  12.968 -1.3774  0.6897 -0.7034
 7555SOL    HW234299   2.028   2.647  12.873 -1.5194  0.3861 -0.4811
 7556SOL     OW34300   1.554   0.651   8.124 -0.7627  0.1142  0.1861
 7556SOL    HW134301   1.530   0.677   8.213 -2.6686 -1.4708  0.1492
 7556SOL    HW234302   1.515   0.726   8.081 -1.1793  0.0877  0.5190
 7557SOL     OW34303   1.410   4.735   3.423 -0.3428  0.5494  0.1151
 7557SOL    HW134304   1.446   0.071   3.377  0.2755  0.9610  1.2692
 7557SOL    HW234305   1.447   4.659   3.378  0.8374  0.0042  2.0338
 7558SOL     OW34306   3.499   1.019   5.527 -0.2351 -0.1325  0.5460
 7558SOL    HW134307   3.415   1.056   5.500  1.4711  2.2780 -1.4737
 7558SOL    HW234308   3.469   0.935   5.563  1.9224 -0.8730  0.5938
 7559SOL     OW34309   1.625   1.285   1.816  0.1421 -0.1857  0.3243
 7559SOL    HW134310   1.617   1.370   1.860  2.8783 -1.2986  2.9780
 7559SOL    HW234311   1.610   1.229   1.892  0.3062  0.2699  0.6985
 7560SOL     OW34312   2.468   3.988   5.681 -0.1034  0.1800 -0.1561
 7560SOL    HW134313   2.405   3.949   5.621  0.3889  0.1037 -0.6213
 7560SOL    HW234314   2.472   4.078   5.648  0.6459  0.1543 -0.1256
 7561SOL     OW34315   0.694   3.229   6.084  0.1526 -0.0263 -0.2814
 7561SOL    HW134316   0.643   3.293   6.034  2.0018  3.0574  1.7369
 7561SOL    HW234317   0.733   3.285   6.151 -0.2366 -1.1873  0.9276
 7562SOL     OW34318   2.270   4.256   2.500  0.2859  0.8281 -0.1203
 7562SOL    HW134319   2.262   4.308   2.580  0.2072  0.6504 -0.0131
 7562SOL    HW234320   2.357   4.281   2.471  1.0457 -0.3036  1.1825
 7563SOL     OW34321   4.158   3.918   0.351 -0.0363 -0.4258  0.3488
 7563SOL    HW134322   4.144   4.007   0.319 -1.2293 -0.8466 -0.2876
 7563SOL    HW234323   4.228   3.927   0.416  1.4691  1.1923 -1.4781
 7564SOL     OW34324   4.089   0.436   5.878 -0.1449 -0.4248 -0.5636
 7564SOL    HW134325   4.001   0.404   5.897 -0.7715  1.4347 -0.3522
 7564SOL    HW234326   4.069   0.525   5.847 -0.7052 -0.6776 -0.9318
 7565SOL     OW34327   4.334   2.841   6.736  0.2041 -0.2770 -0.1072
 7565SOL    HW134328   4.243   2.856   6.713 -0.0772  0.0309  1.2016
 7565SOL    HW234329   4.373   2.923   6.706 -3.2466  2.4020  2.7118
 7566SOL     OW34330   2.401   2.602   6.087 -0.0210  0.1484  0.2006
 7566SOL    HW134331   2.370   2.648   6.166 -2.2764  0.6631 -0.9986
 7566SOL    HW234332   2.330   2.613   6.025  1.7610  0.8368 -1.7144
 7567SOL     OW34333   0.627   3.179   2.511 -0.0019  0.1470 -1.0298
 7567SOL    HW134334   0.660   3.262   2.543  0.4314 -0.7903  0.9524
 7567SOL    HW234335   0.543   3.197   2.470  0.6078  2.9098 -1.0263
 7568SOL     OW34336   4.214   1.593   8.754  0.0669 -0.6790  0.1176
 7568SOL    HW134337   4.168   1.541   8.687 -0.4207  3.3348 -2.6549
 7568SOL    HW234338   4.274   1.639   8.696 -0.2259  0.1881  0.5041
 7569SOL     OW34339   3.154   4.032   8.623 -0.2779  0.2674  0.4548
 7569SOL    HW134340   3.128   4.116   8.584 -0.9065 -0.0494  0.1773
 7569SOL    HW234341   3.237   4.048   8.667  0.6400  1.4637 -1.7212
 7570SOL     OW34342   0.873   3.138   8.342 -0.2377  1.1304  0.3269
 7570SOL    HW134343   0.969   3.138   8.335 -0.3432  0.1023 -1.1121
 7570SOL    HW234344   0.853   3.079   8.415  0.3041  0.4470 -0.0673
 7571SOL     OW34345   0.650   4.241   8.694  0.3316 -0.0821 -0.1452
 7571SOL    HW134346   0.725   4.277   8.647 -0.7882  1.8550 -0.4554
 7571SOL    HW234347   0.587   4.225   8.623 -1.9935  2.0805  1.4355
 7572SOL     OW34348   0.899   1.446  16.399  0.5156  0.0674 -0.0096
 7572SOL    HW134349   0.869   1.401  16.320  1.6215  0.9901 -0.9470
 7572SOL    HW234350   0.835   1.517  16.397  1.4280  0.9143  0.5309
 7573SOL     OW34351   3.857   4.007   6.262  0.8224 -0.1974  0.5838
 7573SOL    HW134352   3.890   4.090   6.297  0.4120  0.0667  0.3434
 7573SOL    HW234353   3.769   4.003   6.299 -0.1777 -1.9505 -1.9786
 7574SOL     OW34354   2.130   1.754   9.634 -0.8063 -0.5271  0.6746
 7574SOL    HW134355   2.081   1.804   9.569  0.7454  1.9390  1.4215
 7574SOL    HW234356   2.195   1.709   9.579 -0.5894  0.5223  0.0668
 7575SOL     OW34357   1.811   4.090   8.777  0.6866  0.7085 -0.0081
 7575SOL    HW134358   1.803   4.033   8.700  0.9596  0.4905  0.1221
 7575SOL    HW234359   1.837   4.169   8.730 -0.2383  0.5626 -0.7739
 7576SOL     OW34360   2.179   2.436   5.664 -0.0362  0.1229 -0.1119
 7576SOL    HW134361   2.270   2.436   5.633  0.3975  0.1309  1.1805
 7576SOL    HW234362   2.131   2.477   5.592 -0.1292 -0.3891 -0.3463
 7577SOL     OW34363   0.209   4.283   3.918 -0.4631 -0.0046 -0.0362
 7577SOL    HW134364   0.181   4.234   3.995 -1.2887 -1.1357 -1.0524
 7577SOL    HW234365   0.236   4.208   3.866  0.2027 -0.0088  0.3289
 7578SOL     OW34366   2.431   2.964   4.411 -0.1983 -0.1483  0.0185
 7578SOL    HW134367   2.358   2.934   4.356 -1.9052  0.9851  1.7032
 7578SOL    HW234368   2.490   3.004   4.347 -1.1186 -0.1004 -0.8107
 7579SOL     OW34369   3.032   4.054  14.442 -0.3530  0.9374  0.2809
 7579SOL    HW134370   3.084   4.100  14.507 -0.4019 -0.1435  1.0862
 7579SOL    HW234371   2.947   4.094  14.460 -0.6378  0.2215  0.5471
 7580SOL     OW34372   3.481   4.373  16.631 -0.3004  0.1073  0.3303
 7580SOL    HW134373   3.446   4.383  16.543  0.2619  1.4298  0.2607
 7580SOL    HW234374   3.576   4.379  16.624 -0.4196  1.2223 -0.2645
 7581SOL     OW34375   1.778   3.057  14.716 -0.0392 -0.2861  0.1499
 7581SOL    HW134376   1.691   3.018  14.716 -0.1243 -0.0906  2.0797
 7581SOL    HW234377   1.821   3.017  14.792 -0.2878 -0.6447  0.0991
 7582SOL     OW34378   2.254   2.956  12.969 -1.3595 -0.2239 -0.5907
 7582SOL    HW134379   2.347   2.978  12.970 -1.8974  1.9874 -0.3177
 7582SOL    HW234380   2.238   2.979  12.878 -0.3276 -1.0573 -0.9877
 7583SOL     OW34381   3.637   0.990   6.061 -0.5226 -0.4130 -0.0187
 7583SOL    HW134382   3.703   0.988   6.130 -2.8122  2.4109  2.2782
 7583SOL    HW234383   3.567   0.940   6.102 -0.8458  0.9700  1.1371
 7584SOL     OW34384   0.481   0.994   4.607  0.5768 -0.0413  0.0856
 7584SOL    HW134385   0.421   0.932   4.565 -0.0178 -0.2590  1.2506
 7584SOL    HW234386   0.447   0.982   4.696  1.4722 -0.6227  0.3469
 7585SOL     OW34387   1.906   2.779   3.715  0.0294 -0.2548  0.0291
 7585SOL    HW134388   1.812   2.794   3.701  0.3402 -0.0745 -1.8234
 7585SOL    HW234389   1.948   2.807   3.634  0.3970 -2.8792 -0.6810
 7586SOL     OW34390   2.977   4.557   7.428  0.0105 -0.4071 -0.0458
 7586SOL    HW134391   2.986   4.514   7.343 -0.3106 -1.0045  0.2192
 7586SOL    HW234392   2.917   4.625   7.398  0.8737 -0.2217 -1.3629
 7587SOL     OW34393   3.092   3.744   6.576 -0.4285  0.2815 -0.4092
 7587SOL    HW134394   3.024   3.690   6.617  0.9845 -1.5092 -0.4424
 7587SOL    HW234395   3.092   3.823   6.630  2.3649  0.4061 -0.6275
 7588SOL     OW34396   2.093   1.458   3.631  0.1834 -0.5351 -0.3875
 7588SOL    HW134397   2.008   1.430   3.666 -0.6657  0.7033 -1.4907
 7588SOL    HW234398   2.065   1.492   3.547  2.4750  3.2990  0.3856
 7589SOL     OW34399   2.608   4.659   5.640 -0.8133 -0.3706 -0.4510
 7589SOL    HW134400   2.585   4.600   5.568 -2.3740 -0.9747  0.5567
 7589SOL    HW234401   2.692   4.633   5.678 -0.6004 -1.3184 -1.5725
 7590SOL     OW34402   0.502   1.287   5.135 -0.2900 -0.2249  0.5230
 7590SOL    HW134403   0.522   1.333   5.216  1.0672 -1.4857  0.9137
 7590SOL    HW234404   0.588   1.246   5.121 -0.3071 -0.0333 -0.1463
 7591SOL     OW34405   2.811   1.665  16.058  0.0442  0.4503  0.6549
 7591SOL    HW134406   2.904   1.678  16.073  0.4552  0.2780 -1.7736
 7591SOL    HW234407   2.785   1.678  16.149 -1.2372  0.5345  0.2857
 7592SOL     OW34408   2.343   1.493  15.292 -0.2999 -0.6943  0.0009
 7592SOL    HW134409   2.336   1.585  15.319 -2.4759 -0.0177 -2.8411
 7592SOL    HW234410   2.358   1.448  15.375  0.5663 -0.9846 -0.3167
 7593SOL     OW34411   1.356   3.126   5.747 -0.2628 -0.0151  0.0396
 7593SOL    HW134412   1.450   3.132   5.728 -0.4857  2.9341 -0.1845
 7593SOL    HW234413   1.349   3.033   5.730 -0.5433  0.2837 -1.4916
 7594SOL     OW34414   4.054   2.795   8.995 -0.4810 -0.0011 -0.5811
 7594SOL    HW134415   4.030   2.866   9.056  1.9463 -0.9431  1.4434
 7594SOL    HW234416   4.042   2.845   8.914 -0.7434  1.9011  0.6336
 7595SOL     OW34417   3.491   3.167   3.955 -0.5812 -0.0544 -0.4457
 7595SOL    HW134418   3.408   3.209   3.978 -0.6991  0.5617 -1.9566
 7595SOL    HW234419   3.454   3.098   3.898 -0.2150  1.8643 -3.0147
 7596SOL     OW34420   2.656   2.168  17.069  0.4060  0.4955 -0.6601
 7596SOL    HW134421   2.742   2.135  17.045  0.1273 -0.6025 -0.1364
 7596SOL    HW234422   2.593   2.114  17.021  3.3694 -2.4652 -1.1967
 7597SOL     OW34423   1.522   4.212   5.261 -0.5418 -0.5227  0.1609
 7597SOL    HW134424   1.600   4.207   5.316 -0.7983 -1.7147  0.4306
 7597SOL    HW234425   1.459   4.247   5.325  1.2739  0.8947  1.1562
 7598SOL     OW34426   1.735   3.392   2.637 -0.6929 -0.1124  0.1604
 7598SOL    HW134427   1.812   3.384   2.694  0.6943 -0.3871 -1.7397
 7598SOL    HW234428   1.775   3.386   2.550  2.9040  2.5747  1.6263
 7599SOL     OW34429   2.304   0.225   7.931 -0.0091  0.0148 -0.1374
 7599SOL    HW134430   2.360   0.255   7.859  1.0208 -0.4901  0.4499
 7599SOL    HW234431   2.352   0.257   8.007 -0.6156 -1.3149  0.7951
 7600SOL     OW34432   3.242   2.155   8.230 -0.0119 -0.2783  0.1501
 7600SOL    HW134433   3.196   2.142   8.313  1.1415  1.5309  1.0893
 7600SOL    HW234434   3.325   2.187   8.266  0.3157  0.0426 -0.8963
 7601SOL     OW34435   2.365   1.606  14.823 -0.2998  0.0643  0.5729
 7601SOL    HW134436   2.298   1.674  14.812  0.2545  0.6147  0.6376
 7601SOL    HW234437   2.330   1.559  14.899 -0.0106  0.1945  0.7845
 7602SOL     OW34438   0.787   2.552   3.016  0.1795  0.1826  0.0855
 7602SOL    HW134439   0.825   2.464   3.017 -0.3475 -0.0110  1.9569
 7602SOL    HW234440   0.867   2.605   3.019 -1.8368  3.2149  0.9711
 7603SOL     OW34441   0.723   3.419  17.579 -0.0182 -0.7356  0.5953
 7603SOL    HW134442   0.803   3.470  17.579 -1.6280  1.7969  0.6392
 7603SOL    HW234443   0.661   3.491  17.593  1.2746  0.0698  2.0969
 7604SOL     OW34444   4.739   4.163  17.607 -0.0245 -0.2293 -0.3367
 7604SOL    HW134445   0.020   4.070  17.595 -0.4616 -0.4770  0.8008
 7604SOL    HW234446   4.659   4.160  17.659 -0.5771 -1.5100 -1.2523
 7605SOL     OW34447   0.498   0.562  12.026 -0.5831  0.0116  0.5762
 7605SOL    HW134448   0.490   0.512  12.107  1.6388 -1.3154 -0.0225
 7605SOL    HW234449   0.449   0.498  11.976 -0.1566 -0.3189  0.5827
 7606SOL     OW34450   1.591   1.925  11.303 -0.1147  0.3593  0.6114
 7606SOL    HW134451   1.515   1.892  11.253  0.5759 -1.6650  0.8855
 7606SOL    HW234452   1.658   1.936  11.235 -1.0006  2.4493  0.0801
 7607SOL     OW34453   2.180   3.558  15.004 -0.0732  0.2106  0.6032
 7607SOL    HW134454   2.100   3.505  14.995 -0.2754  1.1477 -3.1771
 7607SOL    HW234455   2.227   3.518  14.931 -2.6741 -2.0754  0.1583
 7608SOL     OW34456   4.384   1.464  14.309 -0.1844  0.5689  0.0228
 7608SOL    HW134457   4.456   1.523  14.333  1.7970 -1.1382 -1.6140
 7608SOL    HW234458   4.422   1.376  14.300  0.5283  0.5727  3.0706
 7609SOL     OW34459   2.707   4.022   2.297 -0.0744  0.1596 -0.2666
 7609SOL    HW134460   2.673   3.940   2.332  3.3010 -0.1011  2.4637
 7609SOL    HW234461   2.800   3.999   2.306 -0.0718  0.0125 -0.6673
 7610SOL     OW34462   1.090   1.808   9.289 -0.1501  0.4153  0.2775
 7610SOL    HW134463   1.033   1.784   9.216  0.0694  1.0754 -0.1085
 7610SOL    HW234464   1.165   1.752   9.270  0.1246  0.9648 -0.2586
 7611SOL     OW34465   4.675   2.097   8.931 -0.5121 -0.4476 -0.6065
 7611SOL    HW134466   4.683   2.003   8.948 -0.9511 -0.7264 -1.9535
 7611SOL    HW234467   0.027   2.120   8.920 -0.8271  0.9790 -0.3551
 7612SOL     OW34468   2.650   0.221   7.522 -0.0681  0.1392  0.2794
 7612SOL    HW134469   2.689   0.133   7.524 -0.3753 -0.0070 -0.0106
 7612SOL    HW234470   2.733   0.265   7.502  0.4205 -0.9260 -0.0789
 7613SOL     OW34471   0.666   4.209   3.925  0.0758  0.0628 -0.0413
 7613SOL    HW134472   0.587   4.261   3.910  0.6845  1.7697  2.7495
 7613SOL    HW234473   0.719   4.269   3.978  1.3716 -1.1812  0.0703
 7614SOL     OW34474   3.386   3.059   8.930  0.3519 -0.2634  0.5771
 7614SOL    HW134475   3.398   2.969   8.960  1.1800 -0.4944 -0.4485
 7614SOL    HW234476   3.312   3.087   8.984  0.9396  1.5814  0.4288
 7615SOL     OW34477   3.508   1.223   7.956 -0.9318  0.2290  0.1861
 7615SOL    HW134478   3.504   1.210   8.051  0.6418 -3.3249 -0.1926
 7615SOL    HW234479   3.503   1.132   7.926 -0.3911  0.0492  0.6357
 7616SOL     OW34480   2.100   4.392   1.454  0.7609 -0.2921 -0.2604
 7616SOL    HW134481   2.095   4.428   1.366  1.3514  1.2653  0.3437
 7616SOL    HW234482   2.142   4.307   1.441 -0.8842 -1.2428  0.6212
 7617SOL     OW34483   1.109   3.951   3.829  0.7452 -0.1233  0.0836
 7617SOL    HW134484   1.109   3.928   3.736  1.1825 -0.1342  0.0868
 7617SOL    HW234485   1.085   3.865   3.864 -1.2297  1.6183  3.0515
 7618SOL     OW34486   2.428   4.597   1.931  0.5059 -0.4544 -0.1250
 7618SOL    HW134487   2.418   4.521   1.988 -0.6370 -0.4782 -0.3487
 7618SOL    HW234488   2.519   4.600   1.902  0.9739  0.2371  1.4527
 7619SOL     OW34489   3.076   0.939   1.230  0.4134  0.5280  0.0890
 7619SOL    HW134490   3.039   0.903   1.311  2.3485  0.2468  0.8402
 7619SOL    HW234491   3.094   1.031   1.249  1.0734 -0.1962  3.0214
 7620SOL     OW34492   0.414   1.767  14.521 -0.5296  0.0434 -0.0854
 7620SOL    HW134493   0.488   1.780  14.461  0.0827 -3.1857 -0.0619
 7620SOL    HW234494   0.454   1.722  14.596  1.5994  2.1094 -0.0083
 7621SOL     OW34495   1.464   0.354   3.210 -0.0631  0.3033 -0.1592
 7621SOL    HW134496   1.389   0.339   3.152  0.0391 -2.3251  0.3721
 7621SOL    HW234497   1.497   0.264   3.216  0.6626  0.6000  0.2462
 7622SOL     OW34498   3.983   1.174   3.958  0.5408  0.2191  0.1165
 7622SOL    HW134499   4.010   1.089   3.924 -2.3756 -0.0821 -1.4399
 7622SOL    HW234500   3.910   1.140   4.011  0.0165  0.8889 -0.1880
 7623SOL     OW34501   0.814   0.432  13.774  0.4475 -0.0388  0.0858
 7623SOL    HW134502   0.838   0.396  13.859  0.1484 -2.1175 -0.6990
 7623SOL    HW234503   0.859   0.368  13.718  0.3208 -0.5443  0.5633
 7624SOL     OW34504   2.243   3.422   6.308 -0.0585 -0.0488 -0.0227
 7624SOL    HW134505   2.182   3.349   6.319  1.7482 -1.4477  0.7097
 7624SOL    HW234506   2.301   3.400   6.381 -0.3468  1.2274  0.5879
 7625SOL     OW34507   1.078   4.734  12.034 -0.1432 -0.3335 -0.0241
 7625SOL    HW134508   1.170   4.721  12.013  0.3277  1.0664  1.1890
 7625SOL    HW234509   1.078   4.683  12.115  0.7839  0.7315  0.6360
 7626SOL     OW34510   2.616   3.535   9.335  0.4220 -0.2065 -0.3095
 7626SOL    HW134511   2.629   3.470   9.405  1.6586  0.0099 -0.3406
 7626SOL    HW234512   2.700   3.526   9.291  1.2267  1.5772  0.8754
 7627SOL     OW34513   0.781   1.860   5.127 -0.1533 -0.5069  0.5125
 7627SOL    HW134514   0.689   1.878   5.146  0.1906  0.2049  1.4789
 7627SOL    HW234515   0.799   1.943   5.082 -1.4359 -0.6891 -0.3376
 7628SOL     OW34516   1.472   0.328  13.873  0.0709 -0.2523 -0.1537
 7628SOL    HW134517   1.495   0.253  13.927 -0.2603  0.3260  0.8001
 7628SOL    HW234518   1.382   0.308  13.847  0.2688 -0.4020 -0.7255
 7629SOL     OW34519   0.340   2.157   2.795  0.7873 -0.4034  0.4608
 7629SOL    HW134520   0.245   2.152   2.808  1.1035 -0.2596  2.9740
 7629SOL    HW234521   0.355   2.075   2.749 -2.1523 -0.3166 -0.6598
 7630SOL     OW34522   2.787   0.678  11.232  0.4013 -0.1043  0.5974
 7630SOL    HW134523   2.701   0.688  11.190 -0.0012 -1.1807  1.1639
 7630SOL    HW234524   2.833   0.750  11.189 -1.7731 -0.8382 -2.9981
 7631SOL     OW34525   2.514   1.860   0.119 -0.2872  0.3172 -0.3610
 7631SOL    HW134526   2.449   1.892   0.056 -0.1005  2.2563  0.4419
 7631SOL    HW234527   2.523   1.768   0.096  0.1455  0.7484 -1.8749
 7632SOL     OW34528   4.510   2.133  12.123  0.7170 -0.0625  0.7210
 7632SOL    HW134529   4.462   2.125  12.206 -0.3372  0.2706  0.1461
 7632SOL    HW234530   4.455   2.203  12.088 -0.3402 -1.8290 -1.1808
 7633SOL     OW34531   0.989   1.342   3.243 -0.2816 -0.1396 -0.1750
 7633SOL    HW134532   0.908   1.375   3.281  0.3920  1.2324  0.0641
 7633SOL    HW234533   1.013   1.270   3.302  1.2617  0.1217 -0.4833
 7634SOL     OW34534   4.363   0.342   1.414 -0.0712 -0.1784  0.2083
 7634SOL    HW134535   4.434   0.305   1.362  2.5035  1.5469  2.5482
 7634SOL    HW234536   4.418   0.386   1.478 -0.2542  0.2191  0.0926
 7635SOL     OW34537   3.150   1.561  11.191 -0.3981 -0.0690 -0.0528
 7635SOL    HW134538   3.130   1.489  11.251 -0.0848  0.3227  0.5314
 7635SOL    HW234539   3.080   1.616  11.228 -1.8356 -2.3335  0.5560
 7636SOL     OW34540   0.512   2.645  14.168  1.0515 -0.0269  0.6731
 7636SOL    HW134541   0.485   2.735  14.185  1.0383 -0.1974  1.5517
 7636SOL    HW234542   0.454   2.602  14.231 -1.6458  4.1225  0.9881
 7637SOL     OW34543   2.983   2.484   5.372 -0.1478  0.2136 -0.1533
 7637SOL    HW134544   3.055   2.526   5.419 -0.8166 -1.1453  2.1094
 7637SOL    HW234545   2.997   2.394   5.399  0.9837  0.1430 -1.0202
 7638SOL     OW34546   0.325   3.088   4.372 -0.2487  0.1773  0.4244
 7638SOL    HW134547   0.330   3.075   4.277  3.6066 -1.6251  0.8947
 7638SOL    HW234548   0.311   3.183   4.378 -0.0776  0.1734  0.8943
 7639SOL     OW34549   0.005   1.450   7.404 -0.2394 -0.1295  0.1738
 7639SOL    HW134550   4.733   1.357   7.422 -2.0901 -0.1970 -1.4170
 7639SOL    HW234551   4.684   1.490   7.464  0.3521 -0.3362  0.9182
 7640SOL     OW34552   2.226   4.237  17.200 -0.5624 -0.0143 -0.2182
 7640SOL    HW134553   2.179   4.292  17.136 -1.1627 -0.6870 -0.3587
 7640SOL    HW234554   2.186   4.265  17.282  1.8416 -1.4547  1.4410
 7641SOL     OW34555   0.978   3.381   8.113 -0.5641 -0.1900  0.0352
 7641SOL    HW134556   0.943   3.350   8.029 -0.0675 -0.7066  0.0225
 7641SOL    HW234557   0.937   3.467   8.101  1.7950  1.0928  1.2940
 7642SOL     OW34558   4.527   3.732   3.254 -0.1346  0.2972 -0.4798
 7642SOL    HW134559   4.613   3.721   3.212 -0.8138 -0.1278 -1.7759
 7642SOL    HW234560   4.477   3.748   3.174  0.1311  1.0234 -0.4994
 7643SOL     OW34561   0.630   4.620  13.040 -0.6586  0.3382 -0.0765
 7643SOL    HW134562   0.554   4.658  12.996  0.5148  1.4156 -1.2027
 7643SOL    HW234563   0.609   4.531  13.014  2.5653 -0.7057  0.8613
 7644SOL     OW34564   4.571   3.636  13.334  0.6168 -0.1220 -0.3754
 7644SOL    HW134565   4.663   3.636  13.362  0.6676  2.0442 -0.5170
 7644SOL    HW234566   4.577   3.719  13.286 -0.4298  0.0212 -0.2579
 7645SOL     OW34567   0.460   2.428  12.994 -0.1399 -0.6130  0.5354
 7645SOL    HW134568   0.479   2.337  13.016  1.4319 -0.4648 -0.2736
 7645SOL    HW234569   0.424   2.431  12.906 -0.4811 -0.3201  0.6822
 7646SOL     OW34570   1.946   0.835   0.672  0.4575  0.1526  0.0722
 7646SOL    HW134571   1.881   0.875   0.615  2.2530  4.7801  1.3211
 7646SOL    HW234572   1.938   0.902   0.740  2.5244 -1.6057  2.0366
 7647SOL     OW34573   4.489   3.538   4.236 -1.0004 -0.2106  0.1204
 7647SOL    HW134574   4.527   3.563   4.320 -0.7210 -0.0342 -0.0605
 7647SOL    HW234575   4.402   3.576   4.226 -1.2845 -0.7105  0.6978
 7648SOL     OW34576   2.860   3.598   6.084  0.4191 -0.1849 -0.1554
 7648SOL    HW134577   2.788   3.660   6.071 -0.0586 -1.1446 -2.0769
 7648SOL    HW234578   2.823   3.525   6.036 -1.4986  1.3883 -1.0504
 7649SOL     OW34579   0.107   2.051   4.681 -0.2620 -0.3284  0.3479
 7649SOL    HW134580   0.060   2.106   4.618  3.7674  0.4525 -1.9356
 7649SOL    HW234581   0.189   2.097   4.696 -0.8800  2.0091 -3.3963
 7650SOL     OW34582   0.619   0.669   7.948 -0.3679  0.3629 -0.5333
 7650SOL    HW134583   0.526   0.668   7.972 -0.9615 -0.9398 -2.9065
 7650SOL    HW234584   0.637   0.608   8.021 -1.3526  2.9293  1.8506
 7651SOL     OW34585   3.989   0.635   1.741  0.2248  0.3686  0.1400
 7651SOL    HW134586   4.022   0.580   1.812  3.0226  0.4907 -1.0638
 7651SOL    HW234587   3.971   0.569   1.674  1.2113  0.4020 -0.1596
 7652SOL     OW34588   3.359   3.619  15.345 -0.0521  0.4560 -0.5778
 7652SOL    HW134589   3.286   3.654  15.293  0.8891  0.4153 -1.9222
 7652SOL    HW234590   3.309   3.569  15.410 -1.2663 -0.5542 -2.2554
 7653SOL     OW34591   0.208   3.834   6.161 -0.2669  0.1679  0.1018
 7653SOL    HW134592   0.151   3.827   6.238  0.1736  2.1933  0.6061
 7653SOL    HW234593   0.151   3.799   6.093 -2.6061 -3.5224  3.9346
 7654SOL     OW34594   2.074   4.060   4.228  0.3282 -0.4598 -0.0650
 7654SOL    HW134595   2.129   4.007   4.285  0.0204  0.2751  0.9133
 7654SOL    HW234596   1.989   4.018   4.242  0.5933  0.0469  3.0950
 7655SOL     OW34597   4.145   0.706   0.956 -0.5475  0.2384 -0.4264
 7655SOL    HW134598   4.161   0.611   0.958  1.8042  0.5728 -2.9865
 7655SOL    HW234599   4.193   0.738   0.880  0.4682 -0.0596  0.0878
 7656SOL     OW34600   1.351   0.725   3.249  1.2513  0.0961  0.0793
 7656SOL    HW134601   1.304   0.679   3.179  1.9567 -0.4468 -0.0408
 7656SOL    HW234602   1.306   0.810   3.249  3.2916  1.1730  0.4699
 7657SOL     OW34603   3.351   0.168  12.189 -0.0454  0.7588 -0.3903
 7657SOL    HW134604   3.443   0.189  12.173 -0.1042  1.9799  0.9017
 7657SOL    HW234605   3.334   0.211  12.273  2.0324  0.7002  0.0569
 7658SOL     OW34606   2.785   0.389   5.094 -0.1039 -0.0698  0.0350
 7658SOL    HW134607   2.873   0.354   5.109 -1.5812 -3.3269  1.1650
 7658SOL    HW234608   2.804   0.483   5.101  3.0542 -0.7841  1.0918
 7659SOL     OW34609   1.335   2.553  12.061 -0.3041  0.2429 -0.2741
 7659SOL    HW134610   1.419   2.599  12.053  0.6150 -1.0945  1.4924
 7659SOL    HW234611   1.279   2.628  12.080  1.7976  1.9597 -0.7948
 7660SOL     OW34612   1.276   4.535   2.580  0.3797 -0.0367  0.2004
 7660SOL    HW134613   1.276   4.479   2.502 -2.5787  1.9995 -1.2637
 7660SOL    HW234614   1.285   4.624   2.546  1.0960 -0.1676  0.0520
 7661SOL     OW34615   3.773   1.023   8.187  0.1464  0.4646  0.5316
 7661SOL    HW134616   3.702   1.087   8.195 -1.0008 -0.9383  1.7001
 7661SOL    HW234617   3.781   1.007   8.281 -0.0564 -0.6143  0.3691
 7662SOL     OW34618   3.363   1.408   5.057  0.7199 -0.1502  0.2847
 7662SOL    HW134619   3.437   1.354   5.030  0.7467  1.2642 -2.5132
 7662SOL    HW234620   3.399   1.460   5.128  0.5774 -0.5771  0.6753
 7663SOL     OW34621   1.722   1.294   6.647 -0.1338  0.0439 -0.3716
 7663SOL    HW134622   1.701   1.282   6.554  1.5865  0.8305 -0.8657
 7663SOL    HW234623   1.725   1.390   6.653  0.8077  0.0688 -1.2476
 7664SOL     OW34624   0.287   1.565   5.755 -0.6603 -0.2531 -0.0013
 7664SOL    HW134625   0.331   1.538   5.836 -0.0151  0.5248 -0.0947
 7664SOL    HW234626   0.242   1.649   5.761 -0.4360 -0.0743 -0.7789
 7665SOL     OW34627   0.060   0.654   5.177 -0.1887 -0.3485  0.0401
 7665SOL    HW134628   0.064   0.720   5.246  0.1481 -3.0750  2.6377
 7665SOL    HW234629   0.142   0.609   5.198  0.3069 -0.0079 -1.1621
 7666SOL     OW34630   0.920   3.623   8.834 -0.1697  0.2911  0.0469
 7666SOL    HW134631   0.838   3.576   8.819  0.8912 -1.4708 -0.2561
 7666SOL    HW234632   0.896   3.698   8.889  0.8331 -0.0867  0.9868
 7667SOL     OW34633   0.247   0.649  17.163 -0.0075 -0.4725  0.5453
 7667SOL    HW134634   0.278   0.640  17.073  1.3284  2.3535  0.7026
 7667SOL    HW234635   0.250   0.557  17.190  1.8909 -1.2173 -2.1593
 7668SOL     OW34636   1.493   1.392   3.539  0.2144  0.1999  0.0139
 7668SOL    HW134637   1.548   1.461   3.501 -1.0551  1.3223  0.1864
 7668SOL    HW234638   1.408   1.390   3.493  1.3262 -0.7852 -1.9976
 7669SOL     OW34639   0.624   1.542  11.754  0.4517 -0.2852  0.3226
 7669SOL    HW134640   0.622   1.497  11.839 -2.8542  1.0680  0.9921
 7669SOL    HW234641   0.606   1.632  11.781  2.6840  1.0173 -2.6142
 7670SOL     OW34642   2.515   2.044  12.877 -0.1442 -0.4402  0.1568
 7670SOL    HW134643   2.481   2.027  12.964  1.2371 -0.7083  0.6392
 7670SOL    HW234644   2.561   1.964  12.852 -0.2613  0.1750 -2.0531
 7671SOL     OW34645   2.472   0.470   4.001  0.2035 -0.1460 -0.3274
 7671SOL    HW134646   2.384   0.494   3.972  0.2380  2.0599  1.3793
 7671SOL    HW234647   2.453   0.414   4.076 -3.7707  0.7761 -0.6729
 7672SOL     OW34648   0.607   0.025  10.018 -0.1675 -0.1095  0.5511
 7672SOL    HW134649   0.516   0.016   9.990 -0.1188 -3.2988  1.4065
 7672SOL    HW234650   0.608   0.120  10.021  0.3463 -0.0720 -0.7376
 7673SOL     OW34651   0.083   2.857   9.830 -0.1201 -0.0495 -0.3686
 7673SOL    HW134652   0.056   2.877   9.920 -1.0143 -1.0022 -0.4184
 7673SOL    HW234653   0.119   2.942   9.807 -0.0204  0.1906  0.6630
 7674SOL     OW34654   0.255   4.275   1.635  0.6085 -0.1001 -0.5802
 7674SOL    HW134655   0.177   4.328   1.620  1.5333  1.9303  1.6774
 7674SOL    HW234656   0.219   4.187   1.640  0.9542 -0.0832  2.4316
 7675SOL     OW34657   0.872   0.128   6.725  0.5365  0.5727  1.0594
 7675SOL    HW134658   0.802   0.064   6.722  0.9315  0.1091  1.9371
 7675SOL    HW234659   0.945   0.070   6.745  0.3116  0.5626  1.8350
 7676SOL     OW34660   0.798   3.468   2.007  0.0564 -0.0874  0.4850
 7676SOL    HW134661   0.864   3.399   2.010 -0.3242 -0.4037  1.7551
 7676SOL    HW234662   0.856   3.542   1.989  1.0704 -0.7622  1.0301
 7677SOL     OW34663   4.045   3.005   5.197  0.5763  0.3393  0.2206
 7677SOL    HW134664   3.994   3.085   5.183 -0.8372 -0.7959 -1.1382
 7677SOL    HW234665   3.980   2.951   5.243 -1.6555  0.6430 -2.5601
 7678SOL     OW34666   0.746   0.392   3.008 -0.1684  0.5549  0.4700
 7678SOL    HW134667   0.768   0.396   3.101  1.8928 -0.2956  0.0315
 7678SOL    HW234668   0.664   0.344   3.004 -0.0511  0.3572  0.4474
 7679SOL     OW34669   3.812   3.931   1.168  0.2163 -0.4647 -0.6364
 7679SOL    HW134670   3.891   3.983   1.155  0.4142 -0.4439  0.6462
 7679SOL    HW234671   3.806   3.945   1.263 -1.9286  1.4649 -1.0366
 7680SOL     OW34672   3.502   4.072   3.205  0.0963 -0.0461  0.1445
 7680SOL    HW134673   3.470   4.162   3.204  1.6535  0.4948 -1.3243
 7680SOL    HW234674   3.563   4.075   3.279  0.2113 -0.9837  0.0842
 7681SOL     OW34675   4.506   2.669  16.340 -0.2302  0.3422  0.2050
 7681SOL    HW134676   4.582   2.722  16.317 -1.0683  1.2653 -0.4234
 7681SOL    HW234677   4.462   2.733  16.395  0.5854 -0.1994  1.4995
 7682SOL     OW34678   3.441   2.145   5.945  0.2265 -0.0727 -0.0338
 7682SOL    HW134679   3.498   2.081   5.988  1.2335 -0.1309 -1.4695
 7682SOL    HW234680   3.470   2.229   5.981 -2.0901  1.3200 -1.4048
 7683SOL     OW34681   3.679   4.445   3.987  0.4508  0.0111  0.2527
 7683SOL    HW134682   3.734   4.403   3.921  1.6131  3.9932 -1.3314
 7683SOL    HW234683   3.587   4.431   3.965  0.2628  2.0078 -0.2485
 7684SOL     OW34684   0.871   4.389   5.856 -0.1987  0.2509  0.1122
 7684SOL    HW134685   0.942   4.376   5.920 -0.7625 -0.3489  0.6151
 7684SOL    HW234686   0.872   4.484   5.842 -2.4443  0.4172  1.0713
 7685SOL     OW34687   3.028   1.036   0.087 -0.0545 -0.0566 -0.3385
 7685SOL    HW134688   3.121   1.015   0.091 -0.2676 -0.7607  0.9988
 7685SOL    HW234689   3.015   1.086   0.167  0.5767 -0.8755  0.2767
 7686SOL     OW34690   1.161   3.041  17.033  1.0019  0.3851 -0.4218
 7686SOL    HW134691   1.153   3.136  17.037 -0.8498  0.3110 -2.8748
 7686SOL    HW234692   1.198   3.029  16.946  1.0864 -0.5793 -0.2580
 7687SOL     OW34693   1.842   0.913   5.244  0.2102  0.0256  0.0037
 7687SOL    HW134694   1.884   0.999   5.248  1.0973 -0.4572  1.1704
 7687SOL    HW234695   1.910   0.863   5.289 -0.7893 -1.5450 -0.2546
 7688SOL     OW34696   3.839   3.800   7.483 -0.4930 -0.1690  0.0259
 7688SOL    HW134697   3.891   3.778   7.405 -0.1023  1.7975 -0.2824
 7688SOL    HW234698   3.756   3.755   7.468  0.0607 -0.9746 -0.6304
 7689SOL     OW34699   2.183   1.034   3.056  0.1862 -1.2830  0.7083
 7689SOL    HW134700   2.189   1.074   3.142 -0.2602 -0.4835  0.3624
 7689SOL    HW234701   2.090   1.014   3.048  0.1008 -0.6371  0.0776
 7690SOL     OW34702   3.206   3.214  12.201  0.6572  0.2620 -0.9362
 7690SOL    HW134703   3.284   3.206  12.146  0.7462 -4.1117 -0.1517
 7690SOL    HW234704   3.250   3.269  12.266  0.2120  0.5380 -0.8738
 7691SOL     OW34705   3.690   1.881   6.654 -0.4448 -0.3674 -0.0203
 7691SOL    HW134706   3.689   1.911   6.563 -1.6687  0.1545  0.1590
 7691SOL    HW234707   3.694   1.786   6.642 -3.0603 -0.5125  0.1134
 7692SOL     OW34708   1.142   2.578   6.376 -0.5705 -0.5203  0.4319
 7692SOL    HW134709   1.076   2.636   6.412 -0.0497  0.1675  0.2768
 7692SOL    HW234710   1.170   2.623   6.296  0.0093  0.1631  1.0262
 7693SOL     OW34711   4.733   2.263   4.008 -0.4626  0.4014  0.3365
 7693SOL    HW134712   0.070   2.255   4.064  1.2366 -1.5284 -2.3184
 7693SOL    HW234713   4.718   2.354   4.033  2.8543  0.5704  1.7424
 7694SOL     OW34714   4.634   1.304   9.455 -0.4456  0.1641  0.0771
 7694SOL    HW134715   4.539   1.288   9.453 -0.3368 -0.3118 -0.9221
 7694SOL    HW234716   4.632   1.378   9.515 -0.5409  0.1572  0.0832
 7695SOL     OW34717   4.408   0.009  10.085 -0.7222  0.4656 -0.4486
 7695SOL    HW134718   4.408   4.725   9.992  1.4182  2.5927 -1.0103
 7695SOL    HW234719   4.465   0.086  10.082 -0.5914  0.3564 -0.8092
 7696SOL     OW34720   0.073   4.365  15.961 -1.2661  0.1987  0.2601
 7696SOL    HW134721   0.101   4.355  16.052  1.9373 -0.0759 -0.7780
 7696SOL    HW234722   0.004   4.429  15.974 -0.3293  1.0153  1.1545
 7697SOL     OW34723   0.800   4.259   9.500  0.0737 -0.3582 -0.0952
 7697SOL    HW134724   0.831   4.188   9.557 -0.8507 -0.5278  0.1985
 7697SOL    HW234725   0.707   4.236   9.501  0.0699 -0.3786 -1.0669
 7698SOL     OW34726   2.212   1.579   7.702 -0.9872  0.0113  0.0524
 7698SOL    HW134727   2.219   1.613   7.791 -1.0178  2.0210 -0.7171
 7698SOL    HW234728   2.117   1.592   7.698 -0.8290  0.9563 -0.6294
 7699SOL     OW34729   3.048   0.256  11.887 -0.3880  0.3834  0.3577
 7699SOL    HW134730   3.069   0.173  11.929 -1.7354  0.0748  0.4207
 7699SOL    HW234731   2.977   0.228  11.829  0.1613 -0.7449  0.2389
 7700SOL     OW34732   3.390   1.686   2.913 -0.2876 -0.6322  0.4424
 7700SOL    HW134733   3.455   1.616   2.917 -0.5876 -1.0658 -2.3909
 7700SOL    HW234734   3.331   1.657   2.843  0.9574  0.5317 -1.1014
 7701SOL     OW34735   0.811   4.534   7.663 -0.0684  0.3765  0.1167
 7701SOL    HW134736   0.721   4.560   7.643 -0.4008 -0.7720  0.1364
 7701SOL    HW234737   0.788   4.480   7.738 -2.1896  0.5765 -0.3867
 7702SOL     OW34738   0.701   2.276  15.325 -0.2547 -0.4302 -0.3700
 7702SOL    HW134739   0.642   2.209  15.361 -0.2774 -0.9608 -1.3823
 7702SOL    HW234740   0.790   2.247  15.345 -0.7320 -1.4262  0.3479
 7703SOL     OW34741   1.388   4.150  15.662  0.1260  0.1184  0.3930
 7703SOL    HW134742   1.460   4.093  15.634  1.1660  2.6908 -2.2388
 7703SOL    HW234743   1.374   4.126  15.753 -1.8826 -2.1611 -0.5039
 7704SOL     OW34744   2.823   3.668   3.364 -0.1166 -0.2500  0.2855
 7704SOL    HW134745   2.825   3.683   3.269 -0.8305  0.9212  0.4633
 7704SOL    HW234746   2.917   3.652   3.366 -0.4034 -2.2080 -1.2983
 7705SOL     OW34747   3.941   1.521  14.107 -0.3684  0.3492 -0.1478
 7705SOL    HW134748   3.949   1.540  14.200  1.5042  0.0575 -0.2380
 7705SOL    HW234749   3.866   1.462  14.101 -0.0694  0.0326 -0.7974
 7706SOL     OW34750   3.672   3.354   9.557 -0.3733  0.2635  0.9061
 7706SOL    HW134751   3.719   3.436   9.542  1.6459 -1.0979 -0.2100
 7706SOL    HW234752   3.738   3.317   9.616  0.5879  0.0723 -0.2847
 7707SOL     OW34753   2.140   3.981   6.161  0.4477  0.1812 -0.1748
 7707SOL    HW134754   2.172   3.892   6.175  0.8152  0.3153 -0.1756
 7707SOL    HW234755   2.052   3.964   6.194  0.1883 -0.2696 -1.0867
 7708SOL     OW34756   0.251   1.198   6.829 -0.0111  0.4728 -0.0758
 7708SOL    HW134757   0.311   1.269   6.852 -1.3653  1.0638  1.5690
 7708SOL    HW234758   0.162   1.233   6.829 -0.3238 -0.3382  1.1263
 7709SOL     OW34759   0.346   4.032   5.501 -0.0592  0.8090 -0.2110
 7709SOL    HW134760   0.393   3.970   5.557  0.4447  0.0387 -1.4745
 7709SOL    HW234761   0.261   3.990   5.484  1.9635 -2.6851 -1.8059
 7710SOL     OW34762   3.542   3.149  12.624 -0.2562  0.1853  0.0140
 7710SOL    HW134763   3.612   3.123  12.683  0.7412  0.1527 -1.1898
 7710SOL    HW234764   3.501   3.214  12.681 -0.1977  0.2039  0.0342
 7711SOL     OW34765   3.845   3.767   8.355 -0.3776  0.0111 -0.1886
 7711SOL    HW134766   3.755   3.757   8.386 -0.1524 -2.2002 -0.1935
 7711SOL    HW234767   3.876   3.826   8.424  0.0981  0.5396 -0.8670
 7712SOL     OW34768   2.423   1.324  11.202 -0.0943  0.2358  0.5576
 7712SOL    HW134769   2.431   1.295  11.293 -0.4219  1.0133  0.8346
 7712SOL    HW234770   2.407   1.241  11.157  0.3971  0.9715 -0.9935
 7713SOL     OW34771   4.221   2.961   5.678  0.1514  0.8875 -0.2588
 7713SOL    HW134772   4.281   2.934   5.608  0.7858 -0.3332  0.7595
 7713SOL    HW234773   4.222   3.055   5.660 -0.9187  0.5143 -2.2549
 7714SOL     OW34774   0.254   0.634  13.428  0.5509 -0.4735 -0.3741
 7714SOL    HW134775   0.347   0.651  13.437 -0.0191  1.3480  2.0653
 7714SOL    HW234776   0.246   0.604  13.337 -1.0561  0.3502 -0.5007
 7715SOL     OW34777   1.355   3.280   8.800  0.0152  0.3416 -0.1818
 7715SOL    HW134778   1.399   3.217   8.743 -0.1561 -0.3484  0.4397
 7715SOL    HW234779   1.368   3.357   8.745  1.7943 -1.4263 -2.2257
 7716SOL     OW34780   1.246   0.404   2.849  0.1652  0.0576 -0.1070
 7716SOL    HW134781   1.318   0.392   2.788  0.4113 -0.2491  0.2447
 7716SOL    HW234782   1.174   0.353   2.813 -1.0639  1.6081  0.1378
 7717SOL     OW34783   1.778   3.384  11.068 -0.1116  0.0230 -0.0844
 7717SOL    HW134784   1.822   3.315  11.118  2.2591 -0.5847 -3.0089
 7717SOL    HW234785   1.843   3.454  11.063 -0.6970  0.5469 -0.2578
 7718SOL     OW34786   1.874   3.238   6.540  0.2728 -0.1859 -0.4999
 7718SOL    HW134787   1.928   3.186   6.599 -0.3295 -0.9842 -0.6586
 7718SOL    HW234788   1.794   3.217   6.588  1.4290 -2.1492  0.5480
 7719SOL     OW34789   3.485   1.124  17.708 -0.9161  0.3750 -0.8737
 7719SOL    HW134790   3.561   1.084  17.751 -0.7508 -0.2523 -1.7375
 7719SOL    HW234791   3.512   1.116  17.616 -0.9404  0.2319 -0.8683
 7720SOL     OW34792   2.409   2.713   9.963 -0.0556  0.3334  0.1925
 7720SOL    HW134793   2.328   2.752   9.929  0.2996 -0.0193 -1.0619
 7720SOL    HW234794   2.468   2.788   9.967 -0.2173  0.5304 -1.0053
 7721SOL     OW34795   4.037   4.374  17.300 -0.1990 -0.1935 -0.0717
 7721SOL    HW134796   3.968   4.331  17.350 -1.1190 -0.3459 -1.4920
 7721SOL    HW234797   4.107   4.374  17.365 -0.0580 -0.5831 -0.2207
 7722SOL     OW34798   2.857   3.805  13.602  0.3990  0.6019  0.2042
 7722SOL    HW134799   2.929   3.743  13.599  1.2346  1.5217  1.1358
 7722SOL    HW234800   2.818   3.768  13.681  0.5850  0.2575  0.1344
 7723SOL     OW34801   1.079   4.407   5.505 -0.3812 -0.4018 -0.3013
 7723SOL    HW134802   1.162   4.407   5.553 -0.4584 -0.4446 -0.1648
 7723SOL    HW234803   1.018   4.382   5.575 -1.8863  2.6935 -0.5058
 7724SOL     OW34804   3.165   3.795   4.806 -0.0933  0.1935 -0.4460
 7724SOL    HW134805   3.115   3.713   4.815 -1.6101  1.0995 -0.6302
 7724SOL    HW234806   3.103   3.850   4.854  0.7464  0.2865  0.5241
 7725SOL     OW34807   4.608   3.205  17.750 -0.0263 -0.1996 -0.2248
 7725SOL    HW134808   4.683   3.176  17.698  0.2777  1.8579 -0.9693
 7725SOL    HW234809   4.643   3.186   0.076 -1.3043  0.5119  0.4532
 7726SOL     OW34810   2.489   0.248  11.393 -0.2207  0.1514 -0.3373
 7726SOL    HW134811   2.472   0.164  11.352 -1.1762 -0.6960  1.7951
 7726SOL    HW234812   2.420   0.259  11.459 -0.4006 -0.9338 -0.3520
 7727SOL     OW34813   2.525   2.391   0.526 -0.0967  0.6534 -0.4393
 7727SOL    HW134814   2.598   2.379   0.586 -0.9613 -0.8095  0.3242
 7727SOL    HW234815   2.452   2.360   0.580 -0.4568  1.4389 -0.4667
 7728SOL     OW34816   2.751   1.692   8.013 -0.6456  0.1303  0.0051
 7728SOL    HW134817   2.674   1.739   8.043 -0.0083 -0.6129  2.8158
 7728SOL    HW234818   2.741   1.682   7.918 -0.8943  1.0400 -0.0650
 7729SOL     OW34819   1.526   0.262   6.203  0.2445  0.6706 -0.0054
 7729SOL    HW134820   1.613   0.253   6.164 -0.0656 -0.0047 -0.5404
 7729SOL    HW234821   1.530   0.348   6.245  0.6797  1.0293 -0.7802
 7730SOL     OW34822   0.244   1.627  10.816 -0.3639 -0.5124  0.3355
 7730SOL    HW134823   0.288   1.643  10.733 -2.8818  1.5748 -0.5584
 7730SOL    HW234824   0.204   1.711  10.836  1.3708  1.0019 -2.5693
 7731SOL     OW34825   3.312   2.782   6.812 -0.1485  0.0275 -0.1191
 7731SOL    HW134826   3.403   2.754   6.814  0.9240  3.4910  0.3961
 7731SOL    HW234827   3.286   2.778   6.904  2.1338  1.8414  0.6136
 7732SOL     OW34828   0.405   2.517   5.073 -0.2533 -0.3361 -0.2395
 7732SOL    HW134829   0.368   2.431   5.049 -0.2642 -1.0422  2.3539
 7732SOL    HW234830   0.381   2.572   4.999  0.4973 -0.2096 -0.3956
 7733SOL     OW34831   2.265   0.415  10.714  0.2694 -0.0849 -0.1856
 7733SOL    HW134832   2.358   0.436  10.722 -0.4475  4.0788 -2.8553
 7733SOL    HW234833   2.230   0.434  10.801  2.2413 -1.4300  0.8834
 7734SOL     OW34834   1.420   1.436   5.869  0.2356 -0.1173 -0.2383
 7734SOL    HW134835   1.492   1.378   5.841  0.2253 -0.4986  0.5102
 7734SOL    HW234836   1.448   1.522   5.840 -0.9724  0.2329 -0.3366
 7735SOL     OW34837   0.019   1.770  14.285  0.9719 -0.3181 -0.4890
 7735SOL    HW134838   4.671   1.743  14.308  1.4907 -0.1689  1.7225
 7735SOL    HW234839   0.067   1.748  14.365  0.0976 -1.8457 -0.3989
 7736SOL     OW34840   1.068   1.840   2.292  0.5567 -0.2396  0.1007
 7736SOL    HW134841   1.024   1.855   2.376 -2.6188  0.5471 -1.7219
 7736SOL    HW234842   1.101   1.930   2.280 -0.4268 -0.0130 -0.9107
 7737SOL     OW34843   1.808   3.084   5.142 -0.5642 -0.0408 -0.0154
 7737SOL    HW134844   1.862   3.127   5.209  1.2530  0.9549 -2.1263
 7737SOL    HW234845   1.811   3.145   5.068  3.6082  1.6370  1.5588
 7738SOL     OW34846   0.925   0.031   5.974 -0.1054  0.5028 -0.0331
 7738SOL    HW134847   0.991   4.712   6.009 -2.6032 -0.9796  2.1616
 7738SOL    HW234848   0.931   0.094   6.045  1.7129  2.9836 -2.4064
 7739SOL     OW34849   0.892   3.612  15.095 -0.1654  0.0611  0.1173
 7739SOL    HW134850   0.914   3.551  15.165  1.1018 -0.7435 -0.9852
 7739SOL    HW234851   0.799   3.590  15.088  0.4485 -2.4360 -0.4349
 7740SOL     OW34852   1.594   0.854  14.019 -0.2156 -0.0851 -0.5073
 7740SOL    HW134853   1.612   0.878  13.928 -2.7828  0.5372 -0.8680
 7740SOL    HW234854   1.564   0.763  14.008  1.4005 -0.4516 -1.8793
 7741SOL     OW34855   0.585   0.354   3.705  0.1852 -0.0882 -0.2456
 7741SOL    HW134856   0.529   0.406   3.647 -0.5986  0.0902  0.6789
 7741SOL    HW234857   0.527   0.343   3.780  0.9184  0.2320  0.3638
 7742SOL     OW34858   4.327   2.281   5.187 -0.0838  0.3938 -0.0108
 7742SOL    HW134859   4.396   2.298   5.251  0.9361 -0.8675 -0.7742
 7742SOL    HW234860   4.388   2.263   5.116 -1.4199 -0.8477 -0.8314
 7743SOL     OW34861   1.855   3.790   9.958  0.3257  0.5258  0.6642
 7743SOL    HW134862   1.843   3.858   9.892  2.9155 -1.0486 -1.4142
 7743SOL    HW234863   1.949   3.797   9.971  0.6540 -1.9288 -0.3637
 7744SOL     OW34864   0.373   4.418   8.195 -0.8154 -0.2918 -0.0867
 7744SOL    HW134865   0.322   4.364   8.134 -1.8378  1.6930 -0.9856
 7744SOL    HW234866   0.364   4.356   8.267 -1.2422 -0.7284 -0.5125
 7745SOL     OW34867   1.682   3.958   0.799 -0.5770  0.1310  0.5727
 7745SOL    HW134868   1.657   3.905   0.723  2.7222 -1.8464  0.8442
 7745SOL    HW234869   1.716   3.890   0.858 -1.6072 -0.2632  0.7119
 7746SOL     OW34870   3.911   4.016   3.331  0.2512  0.2340 -0.1324
 7746SOL    HW134871   3.943   4.090   3.382  2.5292 -0.9805  0.1964
 7746SOL    HW234872   3.937   3.934   3.374  0.6240  0.8986  0.9076
 7747SOL     OW34873   3.495   2.503  12.151  0.0745  0.3604  0.8717
 7747SOL    HW134874   3.515   2.411  12.165  0.3713  0.2487 -0.2836
 7747SOL    HW234875   3.418   2.511  12.207  3.0440  0.4509  4.9658
 7748SOL     OW34876   0.025   0.072   2.049 -0.3193  0.1540 -0.6083
 7748SOL    HW134877   0.042   0.160   2.016  0.0087 -0.9237 -3.3218
 7748SOL    HW234878   4.702   0.049   1.981 -1.2003  0.0958  0.2350
 7749SOL     OW34879   4.211   1.758   2.909 -0.1057 -0.2165  0.6640
 7749SOL    HW134880   4.193   1.709   2.829 -1.1024 -1.7774  1.8453
 7749SOL    HW234881   4.180   1.844   2.881  0.4494 -0.3021 -0.2033
 7750SOL     OW34882   2.834   1.407   6.966  0.2150 -0.3641  0.6280
 7750SOL    HW134883   2.831   1.317   6.998 -0.6247 -0.5815 -0.0449
 7750SOL    HW234884   2.890   1.450   7.030 -0.7244 -0.4045  1.4762
 7751SOL     OW34885   2.773   1.998   2.418  0.2633 -0.0037  0.3085
 7751SOL    HW134886   2.833   2.071   2.434  2.0047 -0.9930 -1.7132
 7751SOL    HW234887   2.707   2.044   2.366 -0.0802 -2.5655 -1.5196
 7752SOL     OW34888   3.074   2.707   4.378 -0.1723 -0.5197 -0.4745
 7752SOL    HW134889   3.089   2.635   4.316 -0.3160 -0.4187 -0.6265
 7752SOL    HW234890   2.981   2.715   4.358 -0.3845  0.7585  1.0356
 7753SOL     OW34891   1.337   0.804  16.717  0.0046 -0.4773 -0.0575
 7753SOL    HW134892   1.264   0.847  16.673 -0.2630 -0.4709  0.3867
 7753SOL    HW234893   1.338   0.721  16.670 -1.3110 -0.6481  0.2068
 7754SOL     OW34894   0.503   3.671   4.416 -0.4168 -0.7747  0.0379
 7754SOL    HW134895   0.453   3.733   4.363 -1.0408  0.0651  1.6247
 7754SOL    HW234896   0.590   3.708   4.429 -0.6693 -0.7736  1.7135
 7755SOL     OW34897   1.327   0.469   5.234  1.1194  0.3947 -0.3104
 7755SOL    HW134898   1.395   0.526   5.271  0.7420 -0.0479  1.0934
 7755SOL    HW234899   1.247   0.485   5.284  0.9776  2.8339 -1.3233
 7756SOL     OW34900   4.094   0.776   6.708  0.0343  0.3746 -0.2748
 7756SOL    HW134901   4.098   0.868   6.684 -3.1333  0.1754 -1.4948
 7756SOL    HW234902   4.163   0.745   6.648  0.7977 -1.7674  1.7043
 7757SOL     OW34903   3.450   0.431   6.082 -0.4787 -0.2634 -0.7308
 7757SOL    HW134904   3.453   0.404   6.173  1.2686  2.1403 -0.0773
 7757SOL    HW234905   3.521   0.495   6.083  0.1826 -0.9353 -2.7826
 7758SOL     OW34906   0.205   4.044   6.516 -0.3274 -0.2888 -0.6550
 7758SOL    HW134907   0.292   4.080   6.536 -2.3872  4.2757  0.1165
 7758SOL    HW234908   0.228   3.959   6.477  0.8439 -1.9678  3.7790
 7759SOL     OW34909   0.374   3.671   8.728  0.0570  0.1066  0.2305
 7759SOL    HW134910   0.404   3.583   8.705 -1.7477  0.0911 -2.1283
 7759SOL    HW234911   0.291   3.679   8.680  2.0645  0.3026 -3.2655
 7760SOL     OW34912   4.439   2.152   7.049  0.3520 -0.3211  0.5167
 7760SOL    HW134913   4.403   2.116   6.967 -0.7978  1.7235  0.1199
 7760SOL    HW234914   4.423   2.246   7.037  0.0575 -0.5937 -1.2825
 7761SOL     OW34915   1.591   3.794   1.720 -0.2636  0.0096  0.0890
 7761SOL    HW134916   1.526   3.835   1.776 -0.4870  0.8900 -0.8238
 7761SOL    HW234917   1.662   3.857   1.717  0.8050 -1.2425 -1.2549
 7762SOL     OW34918   2.916   2.756   3.288  0.2126  0.0749  0.6317
 7762SOL    HW134919   2.866   2.823   3.334  2.1279  0.5114  2.0523
 7762SOL    HW234920   3.005   2.779   3.315  0.2772 -0.3701  0.8084
 7763SOL     OW34921   2.775   1.397   3.634  0.0241 -0.6725  0.1144
 7763SOL    HW134922   2.766   1.478   3.684  0.3124 -0.9666  0.6421
 7763SOL    HW234923   2.696   1.396   3.580 -0.1028 -1.9004  0.3268
 7764SOL     OW34924   1.546   1.833   3.001  0.1478  0.1154  0.0123
 7764SOL    HW134925   1.591   1.789   2.929 -0.6464  0.0999 -0.4755
 7764SOL    HW234926   1.466   1.867   2.961 -0.9677  0.6047  2.6800
 7765SOL     OW34927   0.831   4.362   7.428  0.2159  0.5802 -0.4402
 7765SOL    HW134928   0.866   4.406   7.505 -1.2731  1.2187 -0.1349
 7765SOL    HW234929   0.756   4.418   7.406 -0.8817 -1.2917 -1.4574
 7766SOL     OW34930   2.349   1.568   3.674 -0.5583  0.3088  0.0596
 7766SOL    HW134931   2.322   1.618   3.752  1.1597  1.2950  0.0188
 7766SOL    HW234932   2.266   1.529   3.645 -0.0409 -1.4297  0.8932
 7767SOL     OW34933   3.598   4.426   0.347  0.3509  0.1079 -0.1020
 7767SOL    HW134934   3.550   4.507   0.332  0.2770  0.0896  0.0398
 7767SOL    HW234935   3.556   4.377   0.417 -0.1385  1.2763  0.4306
 7768SOL     OW34936   0.168   1.842   0.805 -0.9347  0.6077  0.3877
 7768SOL    HW134937   0.160   1.927   0.763  0.4055  0.6231  0.1447
 7768SOL    HW234938   0.099   1.789   0.765 -0.5228  2.5650 -2.8823
 7769SOL     OW34939   2.672   4.585  14.666  0.3737  0.5411  0.1044
 7769SOL    HW134940   2.764   4.567  14.649 -0.1020  0.2891 -2.1998
 7769SOL    HW234941   2.634   4.498  14.681  0.4519  0.8929  2.3221
 7770SOL     OW34942   1.866   1.120   7.989 -0.2969  0.6114 -0.2839
 7770SOL    HW134943   1.812   1.056   8.034  2.8858 -2.2965 -0.6533
 7770SOL    HW234944   1.952   1.083   8.010 -0.7923 -0.5684 -0.3832
 7771SOL     OW34945   2.855   3.579   2.966  0.3324  0.1148 -0.2620
 7771SOL    HW134946   2.945   3.546   2.970 -0.5098 -1.7291  3.5762
 7771SOL    HW234947   2.815   3.527   3.035  0.5928 -0.1641 -0.3175
 7772SOL     OW34948   0.067   3.731   3.181  0.0369  0.3562  0.3286
 7772SOL    HW134949   0.109   3.666   3.125  0.1499  0.0530  0.7641
 7772SOL    HW234950   0.132   3.757   3.247  0.6650 -0.3461 -0.0138
 7773SOL     OW34951   3.336   1.795   5.054 -0.3312 -0.3053 -0.4547
 7773SOL    HW134952   3.259   1.772   5.106  0.1175  1.5502  1.0048
 7773SOL    HW234953   3.386   1.713   5.054 -1.1716 -0.8159  0.2239
 7774SOL     OW34954   3.164   3.682  15.156 -0.3867  0.6412  0.2816
 7774SOL    HW134955   3.193   3.772  15.158 -0.4490  0.6878 -0.9221
 7774SOL    HW234956   3.072   3.704  15.139 -0.4343  1.3867  1.5437
 7775SOL     OW34957   2.007   1.862   7.197 -0.1228  0.3602  0.3896
 7775SOL    HW134958   1.914   1.868   7.220 -0.2170 -1.5262  0.5213
 7775SOL    HW234959   2.028   1.829   7.284 -3.0901 -0.5061  0.7850
 7776SOL     OW34960   0.455   2.629  14.905 -0.0503  0.6132 -0.2714
 7776SOL    HW134961   0.524   2.604  14.843 -1.3700 -2.0087 -0.6895
 7776SOL    HW234962   0.419   2.544  14.932  3.5702 -0.9874 -0.4551
 7777SOL     OW34963   0.377   1.502   8.653  0.2608 -0.2017 -0.7810
 7777SOL    HW134964   0.327   1.578   8.623 -3.2044 -1.9571  0.6595
 7777SOL    HW234965   0.424   1.477   8.573  0.7372 -0.4851 -0.4104
 7778SOL     OW34966   3.319   1.900  16.060  0.0640  0.0941 -0.0008
 7778SOL    HW134967   3.255   1.970  16.054 -1.3025 -1.1443  0.0708
 7778SOL    HW234968   3.394   1.928  16.007 -0.4447  1.7023  0.1331
 7779SOL     OW34969   0.943   1.955   5.624 -0.1240 -0.2072 -0.1637
 7779SOL    HW134970   0.976   2.001   5.547  2.5022 -0.6333  0.7251
 7779SOL    HW234971   0.938   2.032   5.681 -1.1727 -2.1158  2.2644
 7780SOL     OW34972   4.335   1.808   9.374  0.6617 -0.2100  0.1560
 7780SOL    HW134973   4.326   1.887   9.320  0.4355 -1.4626 -1.6023
 7780SOL    HW234974   4.337   1.744   9.304  2.8341  0.2978 -0.2624
 7781SOL     OW34975   2.477   4.481   0.132 -0.1660 -0.2393  0.5066
 7781SOL    HW134976   2.456   4.445   0.046  2.2742 -3.0093  1.0837
 7781SOL    HW234977   2.564   4.443   0.136  1.1110  2.8480  1.8404
 7782SOL     OW34978   1.783   1.317   5.327 -0.8946  0.0712 -0.2470
 7782SOL    HW134979   1.813   1.239   5.374  0.6347  0.2914 -0.8631
 7782SOL    HW234980   1.697   1.329   5.366 -0.3876  1.7191  0.3590
 7783SOL     OW34981   3.184   3.143  12.868  0.2178 -0.4715  0.9608
 7783SOL    HW134982   3.229   3.074  12.821  0.1949 -1.0903  1.8487
 7783SOL    HW234983   3.160   3.094  12.947  1.9683 -0.5710  1.4254
 7784SOL     OW34984   0.090   2.326   2.389 -0.6226  0.8476 -0.2797
 7784SOL    HW134985   0.105   2.368   2.474  1.9777 -0.0628 -0.2859
 7784SOL    HW234986   0.181   2.310   2.365 -1.3321 -1.5044 -1.3688
 7785SOL     OW34987   3.560   3.666   7.656  0.3504  0.0593  0.2875
 7785SOL    HW134988   3.518   3.598   7.708 -3.4718  2.2700  0.1832
 7785SOL    HW234989   3.644   3.631   7.627  0.2364  1.9109 -2.3035
 7786SOL     OW34990   2.023   2.579   9.306 -0.4498 -0.4637  0.0157
 7786SOL    HW134991   2.002   2.627   9.226 -0.5734  0.3367  0.5343
 7786SOL    HW234992   1.953   2.513   9.308  0.3372 -1.3122 -0.5095
 7787SOL     OW34993   2.183   2.289   9.192 -0.2974  0.5511 -0.3773
 7787SOL    HW134994   2.179   2.368   9.245 -1.7106  0.6851 -0.6837
 7787SOL    HW234995   2.277   2.274   9.203 -0.8324 -2.6174  0.0161
 7788SOL     OW34996   1.361   2.046  16.843  0.2451 -0.6116  0.1082
 7788SOL    HW134997   1.299   1.981  16.809  0.3916 -0.4880 -0.3937
 7788SOL    HW234998   1.438   2.029  16.789 -0.1329  1.4027 -1.0683
 7789SOL     OW34999   2.027   0.588   1.676  0.2509 -0.0675 -0.1807
 7789SOL    HW135000   2.086   0.599   1.601 -0.6314  1.3275 -0.6775
 7789SOL    HW235001   1.993   0.677   1.675  1.8474  0.5676  1.3934
 7790SOL     OW35002   3.203   2.690  10.911 -0.1138  0.5327  0.0502
 7790SOL    HW135003   3.200   2.746  10.834  1.6873  1.4425  0.6303
 7790SOL    HW235004   3.114   2.657  10.899 -0.0309 -0.4084  1.9455
 7791SOL     OW35005   0.705   1.927   7.792  0.0758  0.1987  0.5453
 7791SOL    HW135006   0.794   1.905   7.820 -0.2366 -1.5568  0.1804
 7791SOL    HW235007   0.660   1.851   7.828 -0.8667  0.5285  0.0648
 7792SOL     OW35008   4.554   4.329   2.491  0.4560  0.3007 -0.2184
 7792SOL    HW135009   4.637   4.331   2.539 -0.2095  1.6305  0.8637
 7792SOL    HW235010   4.576   4.246   2.448 -0.7272  0.0782 -0.3985
 7793SOL     OW35011   0.300   0.668   2.095 -0.5110  0.0729  0.3222
 7793SOL    HW135012   0.230   0.682   2.160 -0.2857 -0.6812  0.7275
 7793SOL    HW235013   0.241   0.643   2.024 -0.2381 -3.2352  1.2355
 7794SOL     OW35014   3.965   1.611   0.760 -0.1490  0.0853 -0.0505
 7794SOL    HW135015   4.021   1.685   0.780  0.6478 -0.6067  0.2922
 7794SOL    HW235016   3.893   1.637   0.818  0.0740  2.2199 -0.7465
 7795SOL     OW35017   2.033   3.608   8.824  0.4088  0.1240 -0.4783
 7795SOL    HW135018   1.951   3.634   8.784  0.9102  1.8148 -0.4178
 7795SOL    HW235019   2.069   3.692   8.796  0.5577  0.1917 -0.0921
 7796SOL     OW35020   0.738   0.015   1.537  0.0107 -0.0979  0.4436
 7796SOL    HW135021   0.776   0.059   1.461 -0.0622 -1.2987 -0.2747
 7796SOL    HW235022   0.821   4.719   1.568  0.1038  1.2298  1.7799
 7797SOL     OW35023   4.397   3.843   4.791 -0.2375  0.5318 -0.7997
 7797SOL    HW135024   4.380   3.857   4.698 -1.8910 -1.4457 -0.8139
 7797SOL    HW235025   4.317   3.799   4.821  0.1725  1.5404  1.7866
 7798SOL     OW35026   3.518   1.138   8.227  0.0316 -0.3403  0.5490
 7798SOL    HW135027   3.458   1.201   8.266  1.1310  0.2634  1.2317
 7798SOL    HW235028   3.503   1.054   8.270  0.7361 -1.1149 -0.7132
 7799SOL     OW35029   1.885   1.763   9.970  0.0279 -0.2645  0.2859
 7799SOL    HW135030   1.850   1.676   9.953 -0.8494 -0.0504  0.9801
 7799SOL    HW235031   1.975   1.771   9.938 -0.7227 -1.0749 -2.0009
 7800SOL     OW35032   4.693   3.767   9.637  0.0752  0.4711  0.0594
 7800SOL    HW135033   4.685   3.861   9.655 -0.8154  0.1831  1.1654
 7800SOL    HW235034   0.020   3.741   9.700 -1.5441 -1.5613  0.9492
 7801SOL     OW35035   2.252   3.600   3.747  0.1808 -0.1889 -0.2665
 7801SOL    HW135036   2.237   3.506   3.740  0.7958 -0.3662  0.7593
 7801SOL    HW235037   2.285   3.615   3.836 -3.0533  0.9367  0.7156
 7802SOL     OW35038   4.092   3.148   8.994  0.3023 -0.1446  0.1520
 7802SOL    HW135039   4.183   3.123   8.979  0.3949  0.8676 -0.9849
 7802SOL    HW235040   4.066   3.170   8.904 -2.9723 -0.2943  1.0717
 7803SOL     OW35041   2.019   2.260   0.677 -0.9145  0.0957 -0.0669
 7803SOL    HW135042   2.020   2.195   0.607  0.6790 -0.3864  0.3875
 7803SOL    HW235043   2.008   2.344   0.633  1.0734  0.3176 -0.1517
 7804SOL     OW35044   3.937   1.352   6.263 -0.2846  0.2365  0.2847
 7804SOL    HW135045   3.893   1.306   6.191 -0.4918 -0.1590  0.6582
 7804SOL    HW235046   4.016   1.299   6.271  0.9444  1.9665 -0.4937
 7805SOL     OW35047   4.519   2.503   9.737  0.4778 -0.0195  0.5824
 7805SOL    HW135048   4.590   2.447   9.766  1.2757  1.6946  1.9230
 7805SOL    HW235049   4.557   2.584   9.705  1.8769 -1.0246 -0.2948
 7806SOL     OW35050   0.105   0.596   7.306  0.5109 -0.3326  0.1946
 7806SOL    HW135051   0.107   0.663   7.375 -2.6991  1.1975 -1.2426
 7806SOL    HW235052   0.016   0.597   7.272  0.2989 -2.6710  0.6973
 7807SOL     OW35053   1.253   4.506   1.490  0.0598  0.2557  0.0711
 7807SOL    HW135054   1.283   4.591   1.459  0.4032 -0.3893 -1.3623
 7807SOL    HW235055   1.211   4.481   1.408 -0.7579 -2.1678  1.2146
 7808SOL     OW35056   1.725   2.833   8.634 -0.2746  0.0099 -0.4458
 7808SOL    HW135057   1.670   2.908   8.657  0.3786  0.5220 -0.5634
 7808SOL    HW235058   1.800   2.840   8.694  1.9126  1.9937 -3.4352
 7809SOL     OW35059   4.683   4.190   1.335  0.5131 -0.2710  0.3702
 7809SOL    HW135060   4.693   4.284   1.349  0.7643 -0.4634  1.4434
 7809SOL    HW235061   0.033   4.160   1.347  0.9631  1.0686  0.3360
 7810SOL     OW35062   0.336   0.106  17.334 -0.1378  0.3453 -0.2354
 7810SOL    HW135063   0.290   0.054  17.399  0.5159  0.6883  0.5100
 7810SOL    HW235064   0.292   0.190  17.344 -1.3130 -0.1154 -1.6219
 7811SOL     OW35065   2.097   0.901   6.069 -0.2622 -0.2932 -0.2351
 7811SOL    HW135066   2.056   0.837   6.011 -1.1712  0.2388 -0.1932
 7811SOL    HW235067   2.033   0.920   6.139  0.3370  0.7318  0.0308
 7812SOL     OW35068   2.333   1.540   6.505  0.2960  0.5233  0.2585
 7812SOL    HW135069   2.294   1.530   6.418  1.2264 -0.2024 -0.0833
 7812SOL    HW235070   2.272   1.497   6.564 -0.7769  0.6731 -0.7275
 7813SOL     OW35071   1.158   0.068   9.992 -0.5604  0.1337 -0.0768
 7813SOL    HW135072   1.066   0.088  10.007 -1.3998 -3.9210  0.0426
 7813SOL    HW235073   1.194   0.095  10.076 -0.7227  0.5022 -0.1228
 7814SOL     OW35074   1.127   3.508  15.667 -0.2322 -0.1900  0.2944
 7814SOL    HW135075   1.035   3.501  15.642 -0.2376  0.7752  0.0205
 7814SOL    HW235076   1.141   3.424  15.709  2.1685  0.4779  0.8364
 7815SOL     OW35077   2.744   1.426  10.829  0.5932  0.4143  0.1976
 7815SOL    HW135078   2.832   1.393  10.850  0.1786  0.7033  2.3585
 7815SOL    HW235079   2.688   1.369  10.881  0.3165 -0.4494 -1.0389
 7816SOL     OW35080   2.992   2.059  14.801  0.1756  0.2459  0.2848
 7816SOL    HW135081   2.967   2.116  14.729 -0.6197 -1.5078 -0.8226
 7816SOL    HW235082   2.997   2.110  14.882  0.3201 -2.1366  1.7638
 7817SOL     OW35083   0.276   0.284   5.965 -0.2168  0.0806 -0.5703
 7817SOL    HW135084   0.285   0.330   6.049 -1.2533 -2.2459  0.7977
 7817SOL    HW235085   0.196   0.324   5.931 -0.2568  2.6033  2.4189
 7818SOL     OW35086   1.394   2.155   3.971 -0.6105 -0.5712  0.2535
 7818SOL    HW135087   1.379   2.067   3.935  0.1548 -0.5324 -0.1627
 7818SOL    HW235088   1.464   2.178   3.909  1.3465  0.7409  2.9757
 7819SOL     OW35089   4.035   0.272  17.736  0.4325 -0.1312  0.0771
 7819SOL    HW135090   4.055   0.280  17.643 -1.4758 -0.0440 -0.3317
 7819SOL    HW235091   4.093   0.335   0.017  1.0272  0.6586 -1.9709
 7820SOL     OW35092   4.028   1.574   2.959 -0.5525  0.2152 -0.1555
 7820SOL    HW135093   4.095   1.642   2.954 -0.6448  0.3746  0.7023
 7820SOL    HW235094   3.954   1.631   2.980 -0.3667  0.3093  0.2469
 7821SOL     OW35095   2.963   1.320   6.180 -0.1771  0.3111 -0.2209
 7821SOL    HW135096   2.877   1.348   6.212  0.4263  1.5253  0.3366
 7821SOL    HW235097   2.943   1.258   6.109 -0.2865  1.0314 -0.8168
 7822SOL     OW35098   4.563   3.916   1.736  0.2007 -0.0360 -0.8163
 7822SOL    HW135099   4.628   3.847   1.720 -0.2749 -0.8299  0.6827
 7822SOL    HW235100   4.484   3.861   1.738 -1.5088  2.4272 -1.1073
 7823SOL     OW35101   1.252   0.009  14.158  0.3618 -0.7490 -0.0460
 7823SOL    HW135102   1.181   0.063  14.121  1.1778  0.4898  0.1887
 7823SOL    HW235103   1.317   0.079  14.165  1.3610 -1.9094  2.2111
 7824SOL     OW35104   3.771   2.134   7.895 -0.0813  0.0083 -0.4557
 7824SOL    HW135105   3.831   2.201   7.927 -1.4942  0.1997  1.8073
 7824SOL    HW235106   3.700   2.155   7.955  2.0721 -1.4268  2.6107
 7825SOL     OW35107   1.597   3.116   3.643 -0.1243 -0.8624  0.3035
 7825SOL    HW135108   1.643   3.190   3.682 -2.8633  0.8579  0.2830
 7825SOL    HW235109   1.581   3.069   3.725 -0.5807 -1.5558 -0.1828
 7826SOL     OW35110   2.906   1.363  14.488 -0.3575  0.7971 -0.1427
 7826SOL    HW135111   2.867   1.443  14.452 -0.6111  1.0360  0.6609
 7826SOL    HW235112   2.999   1.386  14.492 -0.5684  1.2473  2.1981
 7827SOL     OW35113   0.940   3.709   2.119  0.1694 -0.0362 -0.9164
 7827SOL    HW135114   0.939   3.749   2.206 -0.5331 -0.3528 -0.7775
 7827SOL    HW235115   0.875   3.761   2.072 -2.4015 -2.7211 -0.4046
 7828SOL     OW35116   0.400   4.087  10.741 -0.3116 -0.0378  0.3042
 7828SOL    HW135117   0.309   4.076  10.712  0.6836 -1.3812 -2.3327
 7828SOL    HW235118   0.403   4.178  10.770  0.5266  0.1720 -0.4404
 7829SOL     OW35119   3.672   2.993   2.775  0.6145 -0.1229 -0.0409
 7829SOL    HW135120   3.715   2.975   2.691  1.6633 -0.6289  0.6194
 7829SOL    HW235121   3.678   3.088   2.764  0.6980 -0.1902 -0.5722
 7830SOL     OW35122   0.234   4.598   7.509 -0.2271 -0.2624 -0.2100
 7830SOL    HW135123   0.285   4.589   7.428 -1.7988  0.2120 -1.2730
 7830SOL    HW235124   0.196   4.685   7.497  2.6411  0.9164 -0.8553
 7831SOL     OW35125   4.485   1.619   8.292 -0.3100 -0.3521 -0.0054
 7831SOL    HW135126   4.518   1.701   8.253 -1.9515 -0.4824 -1.6695
 7831SOL    HW235127   4.547   1.560   8.249 -1.5318 -0.9158 -0.9854
 7832SOL     OW35128   3.215   0.203   1.747 -0.0901 -0.0377 -0.2138
 7832SOL    HW135129   3.203   0.119   1.790 -1.1605 -0.5307 -1.4997
 7832SOL    HW235130   3.214   0.186   1.653 -2.6458 -1.3271  0.0240
 7833SOL     OW35131   1.085   0.524   8.663 -0.7389  0.2420 -0.1387
 7833SOL    HW135132   1.056   0.444   8.705 -0.5923  0.3037  0.0787
 7833SOL    HW235133   1.169   0.507   8.621 -1.2369 -0.2076 -0.9635
 7834SOL     OW35134   2.113   2.617   2.813 -0.0260 -0.1154 -0.2568
 7834SOL    HW135135   2.149   2.531   2.789  0.3807  0.4626 -1.6957
 7834SOL    HW235136   2.151   2.633   2.900 -1.8057  0.9659  0.3119
 7835SOL     OW35137   1.557   1.465   4.053 -0.3397  0.1558 -0.2819
 7835SOL    HW135138   1.598   1.534   4.001 -0.6822 -0.7664 -1.7703
 7835SOL    HW235139   1.623   1.465   4.122  0.4241  0.8845 -1.0125
 7836SOL     OW35140   1.767   2.127   3.408  0.0072  0.3128 -0.1344
 7836SOL    HW135141   1.807   2.059   3.353 -2.4821  0.2429 -1.8593
 7836SOL    HW235142   1.820   2.128   3.488  0.1824 -1.3382 -0.2231
 7837SOL     OW35143   1.379   3.112   6.879  0.2311  0.0031 -0.1090
 7837SOL    HW135144   1.308   3.055   6.910 -0.5407  2.1320  2.1022
 7837SOL    HW235145   1.354   3.132   6.789 -1.7043  0.0683  0.4449
 7838SOL     OW35146   2.904   1.238  11.786 -0.1262  0.3163  0.0629
 7838SOL    HW135147   2.892   1.161  11.840  2.2574 -0.6415 -0.7484
 7838SOL    HW235148   2.966   1.206  11.720 -0.4096  0.4733 -0.2775
 7839SOL     OW35149   4.733   1.829  15.246 -0.6161  0.0518 -0.4059
 7839SOL    HW135150   4.724   1.783  15.329 -1.0410  0.4734 -0.2200
 7839SOL    HW235151   4.702   1.757  15.191 -1.1775 -0.1121  0.1256
 7840SOL     OW35152   2.749   2.941   9.179  0.0646  0.2424 -0.9760
 7840SOL    HW135153   2.825   2.905   9.225 -0.5747 -2.1929 -1.8032
 7840SOL    HW235154   2.721   2.862   9.133 -1.6641  0.5090 -0.3939
 7841SOL     OW35155   3.134   2.667   5.837  0.4651  0.3569  0.5193
 7841SOL    HW135156   3.114   2.757   5.864  1.8387  1.6910 -2.9153
 7841SOL    HW235157   3.187   2.688   5.760  1.3333 -2.1339  0.4477
 7842SOL     OW35158   4.143   2.497   5.395 -0.0228 -0.1289 -0.2806
 7842SOL    HW135159   4.081   2.534   5.457  0.7162  0.6532 -0.0099
 7842SOL    HW235160   4.126   2.406   5.418 -0.2645  0.5878  2.4004
 7843SOL     OW35161   4.100   1.540  15.706 -0.2835  0.4492  0.7229
 7843SOL    HW135162   4.087   1.601  15.634  1.4850  1.5104  1.2896
 7843SOL    HW235163   4.162   1.478  15.667  0.8597  1.6827  0.5602
 7844SOL     OW35164   4.046   3.490   2.933 -0.1820  0.1850 -0.2952
 7844SOL    HW135165   4.026   3.496   3.027 -1.3577  0.2355 -0.5457
 7844SOL    HW235166   4.106   3.415   2.936 -0.2783  0.0869 -0.8095
 7845SOL     OW35167   1.575   0.533   9.315  0.3680  0.3772  0.1091
 7845SOL    HW135168   1.664   0.552   9.287  0.9710 -1.2584  0.9419
 7845SOL    HW235169   1.526   0.593   9.259  1.2725  1.3591  0.3760
 7846SOL     OW35170   0.504   0.925  10.149 -0.1683 -0.1944  0.1528
 7846SOL    HW135171   0.422   0.886  10.180  0.0556  0.8221  2.0274
 7846SOL    HW235172   0.574   0.870  10.185 -2.0872 -1.6342  1.6991
 7847SOL     OW35173   4.562   3.386  12.829 -0.2291 -0.4287  0.0451
 7847SOL    HW135174   4.532   3.477  12.831  0.9528 -0.0563  0.4052
 7847SOL    HW235175   4.626   3.397  12.759 -1.8596  0.9867 -1.2357
 7848SOL     OW35176   1.406   1.135   4.919  0.3443  0.4624 -0.0392
 7848SOL    HW135177   1.448   1.180   4.846  2.5253 -0.7533  0.4780
 7848SOL    HW235178   1.336   1.196   4.944 -0.9621 -1.4372  0.9260
 7849SOL     OW35179   1.260   0.277   2.374  0.1431 -0.3364  0.4745
 7849SOL    HW135180   1.215   0.350   2.417 -0.5555 -1.5670  1.8051
 7849SOL    HW235181   1.345   0.313   2.348 -0.9834  1.5274 -0.6010
 7850SOL     OW35182   0.996   2.422   6.814  0.2717  0.0545 -0.0287
 7850SOL    HW135183   1.061   2.493   6.822 -0.1385  0.1572  2.4127
 7850SOL    HW235184   1.023   2.380   6.895 -0.0312  0.4204  0.2608
 7851SOL     OW35185   3.391   2.626   9.332 -0.0815  0.2370 -0.3337
 7851SOL    HW135186   3.387   2.717   9.362  1.6335 -0.2745  1.3669
 7851SOL    HW235187   3.483   2.607   9.350  0.0651  1.9096  0.7087
 7852SOL     OW35188   0.753   1.704   9.555 -0.0259  0.9174 -0.2809
 7852SOL    HW135189   0.840   1.665   9.542 -0.4949  1.0233 -3.8966
 7852SOL    HW235190   0.741   1.712   9.649 -0.6552 -1.6312 -0.1555
 7853SOL     OW35191   1.546   2.287   4.899 -0.1912  0.0620 -0.1181
 7853SOL    HW135192   1.565   2.214   4.958  4.1877  1.0960 -0.2669
 7853SOL    HW235193   1.497   2.253   4.824  0.8281  0.5790 -1.0127
 7854SOL     OW35194   3.838   0.729  16.106 -0.6280  0.3623  0.1537
 7854SOL    HW135195   3.794   0.782  16.173 -1.4376 -1.0446  0.7478
 7854SOL    HW235196   3.931   0.745  16.123 -0.2101 -0.2406 -1.6315
 7855SOL     OW35197   1.033   3.037   9.438 -0.0654  0.1202  0.3747
 7855SOL    HW135198   1.070   3.111   9.486 -1.6701  1.1389  0.0387
 7855SOL    HW235199   1.101   2.973   9.461 -0.7407 -0.4722  0.7321
 7856SOL     OW35200   2.983   4.003  13.801  0.2003  0.0318 -0.4857
 7856SOL    HW135201   3.069   3.993  13.842 -0.6478 -1.5812  0.8956
 7856SOL    HW235202   3.005   4.089  13.767 -0.6648  0.7637  0.8015
 7857SOL     OW35203   1.624   2.000   2.469 -0.2902 -0.4224  0.1429
 7857SOL    HW135204   1.551   1.992   2.532 -1.4430  0.3502 -1.0960
 7857SOL    HW235205   1.592   2.075   2.419 -0.7105 -0.9125 -0.3226
 7858SOL     OW35206   1.418   1.872  17.346  0.2576 -0.4335 -0.0277
 7858SOL    HW135207   1.412   1.826  17.429 -0.8824 -1.9886 -0.9735
 7858SOL    HW235208   1.438   1.961  17.373 -1.0138 -0.0483 -0.3584
 7859SOL     OW35209   2.015   2.861   5.777 -0.0180 -0.8355  0.1423
 7859SOL    HW135210   2.027   2.955   5.790  0.0566 -1.0667  1.7166
 7859SOL    HW235211   1.941   2.839   5.834 -0.7634 -1.6185 -1.1345
 7860SOL     OW35212   4.322   1.140  14.965  0.0762 -0.4003  0.2997
 7860SOL    HW135213   4.311   1.234  14.951  1.0371 -0.2132  0.7641
 7860SOL    HW235214   4.286   1.116  15.050  0.8010  0.6279  0.9073
 7861SOL     OW35215   0.223   4.431  16.762 -0.7621 -0.3162  0.5926
 7861SOL    HW135216   0.206   4.508  16.707  1.2875 -0.9192 -0.8788
 7861SOL    HW235217   0.303   4.400  16.719 -0.3407  0.4356  0.8383
 7862SOL     OW35218   1.958   3.297   7.040  0.3284 -0.1470 -0.4264
 7862SOL    HW135219   1.909   3.272   6.962 -1.4893  1.1051  0.3119
 7862SOL    HW235220   2.045   3.300   7.000 -0.1073 -1.8819 -1.5539
 7863SOL     OW35221   0.449   2.250   1.873 -0.1219  0.1374 -0.1334
 7863SOL    HW135222   0.363   2.291   1.885 -0.2767 -0.2807  0.1925
 7863SOL    HW235223   0.483   2.277   1.958  0.1389 -0.8711  0.0784
 7864SOL     OW35224   3.364   2.589   2.075 -0.2123 -0.2795 -0.0916
 7864SOL    HW135225   3.296   2.566   2.137 -0.8024  0.0282 -0.6241
 7864SOL    HW235226   3.437   2.550   2.124 -0.7325  0.7399  1.4726
 7865SOL     OW35227   1.770   2.941   2.232 -0.0270  0.6286 -0.2757
 7865SOL    HW135228   1.745   2.897   2.314  2.0413  2.1929  1.2076
 7865SOL    HW235229   1.710   3.015   2.238 -0.8101  0.0949 -1.6331
 7866SOL     OW35230   3.681   3.885   3.545 -0.5869 -0.1585 -0.3213
 7866SOL    HW135231   3.666   3.877   3.639  3.2106  0.2513  0.3438
 7866SOL    HW235232   3.721   3.971   3.534  1.4906 -0.7511  2.6193
 7867SOL     OW35233   4.716   2.279  17.098  0.1331  0.4663  0.3083
 7867SOL    HW135234   4.675   2.214  17.041 -0.8464  0.5669  0.9093
 7867SOL    HW235235   4.642   2.312  17.148  0.1750 -0.0793  0.7331
 7868SOL     OW35236   2.934   3.137  13.335 -0.0603  0.3091  0.3015
 7868SOL    HW135237   2.991   3.197  13.382 -2.4577  2.4908  0.3901
 7868SOL    HW235238   2.883   3.098  13.406 -1.6096 -0.0027 -0.9724
 7869SOL     OW35239   2.573   2.432   3.551  0.1776 -0.3493  0.3256
 7869SOL    HW135240   2.554   2.428   3.458  0.4131  2.6061  0.1466
 7869SOL    HW235241   2.590   2.527   3.550 -0.2049 -0.3195 -1.6604
 7870SOL     OW35242   2.955   1.568   6.317 -0.4920  0.2209 -0.0064
 7870SOL    HW135243   2.991   1.491   6.272  0.7332 -0.5897  2.3801
 7870SOL    HW235244   3.018   1.579   6.388 -0.5572 -0.3610  0.1452
 7871SOL     OW35245   1.187   0.544   5.485 -0.3424 -0.6095  0.1043
 7871SOL    HW135246   1.261   0.497   5.522  1.2036  0.1304 -2.0394
 7871SOL    HW235247   1.177   0.624   5.537 -1.8272 -0.7235 -0.0050
 7872SOL     OW35248   2.736   0.318   4.292  0.1415  0.5393 -0.2080
 7872SOL    HW135249   2.641   0.306   4.290  0.1817  0.2335 -0.3665
 7872SOL    HW235250   2.767   0.276   4.211 -0.6113  2.3471 -1.4351
 7873SOL     OW35251   0.590   2.929   5.642  0.3683  0.7360  0.1476
 7873SOL    HW135252   0.608   3.022   5.625  3.1352 -0.2491 -2.3602
 7873SOL    HW235253   0.654   2.915   5.712  0.7088  0.9402 -0.1245
 7874SOL     OW35254   0.778   0.673   3.189  0.0081 -0.1331  0.3315
 7874SOL    HW135255   0.812   0.762   3.176  0.0893 -0.1595  0.3603
 7874SOL    HW235256   0.840   0.641   3.254  1.2771  0.4247 -0.6049
 7875SOL     OW35257   3.474   2.280   4.884  0.2565 -0.6197 -0.0750
 7875SOL    HW135258   3.455   2.367   4.848  0.8167  0.0312  1.2151
 7875SOL    HW235259   3.548   2.256   4.828 -0.9323 -0.9640 -1.5025
 7876SOL     OW35260   1.563   4.585   8.027 -0.3968  0.1270  0.2172
 7876SOL    HW135261   1.485   4.637   8.010 -0.7761  0.5210  3.1495
 7876SOL    HW235262   1.627   4.652   7.999 -1.6141  0.3408 -2.0466
 7877SOL     OW35263   3.730   0.429   7.214  0.3778  0.5303  0.3123
 7877SOL    HW135264   3.783   0.444   7.136 -0.1917  2.8329  0.3593
 7877SOL    HW235265   3.699   0.516   7.240  0.2873  0.8643 -0.9491
 7878SOL     OW35266   1.532   2.737   7.409 -0.0822 -0.5648  0.4913
 7878SOL    HW135267   1.526   2.642   7.414 -0.6140 -0.4722  1.5202
 7878SOL    HW235268   1.626   2.754   7.416  0.2732 -2.3635 -0.1069
 7879SOL     OW35269   0.127   4.502   6.491 -0.3297  0.0285  0.0033
 7879SOL    HW135270   0.154   4.434   6.430 -1.3138 -0.2728 -0.0865
 7879SOL    HW235271   0.062   4.551   6.441  0.0125 -1.1121 -1.5618
 7880SOL     OW35272   3.058   0.136   5.920 -0.5229  0.3125 -0.3010
 7880SOL    HW135273   3.096   0.220   5.944 -3.4557  2.1147 -1.9988
 7880SOL    HW235274   2.964   0.146   5.936 -0.5888 -1.5667  0.5044
 7881SOL     OW35275   0.616   3.924   3.129  0.4503 -0.3848 -0.7363
 7881SOL    HW135276   0.694   3.895   3.081  0.7893  0.2035 -0.5535
 7881SOL    HW235277   0.563   3.962   3.059 -2.1002 -1.6247  0.5540
 7882SOL     OW35278   1.962   1.774   2.001 -0.0214 -0.0494  0.3897
 7882SOL    HW135279   1.988   1.695   1.953  2.2565  1.3044 -0.6460
 7882SOL    HW235280   2.011   1.758   2.081 -1.0148 -0.1113  0.9794
 7883SOL     OW35281   4.694   2.990   0.724  0.4806  0.4049  0.2717
 7883SOL    HW135282   4.664   3.070   0.681 -3.5282 -0.6592  1.0401
 7883SOL    HW235283   4.666   3.008   0.814 -0.6036 -1.1666  0.2579
 7884SOL     OW35284   1.134   2.184   9.563 -0.3292  0.2201 -0.0637
 7884SOL    HW135285   1.130   2.149   9.475  0.5348  0.4717 -0.1985
 7884SOL    HW235286   1.221   2.222   9.576  0.0670  0.0341 -2.1427
 7885SOL     OW35287   4.541   3.449   8.030 -0.1413  0.1120 -0.2370
 7885SOL    HW135288   4.570   3.539   8.014  1.7682 -0.4676 -0.0691
 7885SOL    HW235289   4.446   3.451   8.026 -0.2134 -1.3342  0.6919
 7886SOL     OW35290   3.076   0.600   1.823 -0.0830  0.3265 -0.2382
 7886SOL    HW135291   3.061   0.512   1.858 -0.8787  0.3232 -0.6066
 7886SOL    HW235292   3.122   0.635   1.899 -1.7401 -1.8447  1.7473
 7887SOL     OW35293   0.919   1.301   1.444 -0.6188 -0.4791  0.2288
 7887SOL    HW135294   0.843   1.360   1.440 -0.5051 -0.4803 -2.3675
 7887SOL    HW235295   0.887   1.231   1.501 -0.7120 -0.7199 -0.1186
 7888SOL     OW35296   3.958   4.076   4.194 -0.4025  0.0006 -0.5215
 7888SOL    HW135297   3.894   4.102   4.260  0.4692  1.7296 -0.3590
 7888SOL    HW235298   3.958   3.982   4.209 -1.0377  0.1801  0.5787
 7889SOL     OW35299   1.434   4.594   9.234  0.3664  0.7904 -0.2608
 7889SOL    HW135300   1.490   4.565   9.306  1.5459  0.5107 -1.2781
 7889SOL    HW235301   1.415   4.507   9.199 -1.6375  1.0189  0.3164
 7890SOL     OW35302   1.532   0.578   3.094 -0.0851  0.1956  0.3780
 7890SOL    HW135303   1.525   0.487   3.123  0.2663  0.3833  1.0580
 7890SOL    HW235304   1.496   0.618   3.174  1.8706  0.5105  1.0947
 7891SOL     OW35305   2.445   1.642   8.482  0.2199 -0.1108 -0.1714
 7891SOL    HW135306   2.385   1.697   8.431  0.1932 -0.6421 -0.7167
 7891SOL    HW235307   2.387   1.576   8.518  0.7439  0.1070  1.0556
 7892SOL     OW35308   3.332   1.373  17.737  0.6642  0.2462  0.0930
 7892SOL    HW135309   3.373   1.342   0.058 -0.5574 -3.9610 -0.9035
 7892SOL    HW235310   3.363   1.301  17.682  0.2908  1.9127 -2.2651
 7893SOL     OW35311   1.842   4.470   9.274  0.1278  0.3107  0.1340
 7893SOL    HW135312   1.869   4.394   9.325 -1.5105  0.5941  1.4162
 7893SOL    HW235313   1.756   4.478   9.315 -0.7434 -0.1772 -1.5649
 7894SOL     OW35314   3.515   0.666   6.640 -0.0020  0.4913 -0.1572
 7894SOL    HW135315   3.531   0.572   6.627 -1.2969  0.4928 -1.7244
 7894SOL    HW235316   3.426   0.676   6.673  0.0323  2.0332 -0.5459
 7895SOL     OW35317   4.296   0.512  11.539 -0.1731 -0.6903 -0.2227
 7895SOL    HW135318   4.283   0.419  11.556 -1.8480 -0.6323 -1.2539
 7895SOL    HW235319   4.364   0.513  11.471  0.8785  0.0007  0.8276
 7896SOL     OW35320   2.141   1.181   3.308 -0.3326  0.3700 -0.4695
 7896SOL    HW135321   2.047   1.166   3.309 -0.3419  0.4916  0.4111
 7896SOL    HW235322   2.166   1.123   3.379  0.2831 -0.9418 -1.7650
 7897SOL     OW35323   0.221   1.192  16.769  0.0656  0.3525  0.6504
 7897SOL    HW135324   0.160   1.266  16.779 -0.3439 -0.2682  2.8229
 7897SOL    HW235325   0.169   1.126  16.723  1.5003 -1.1241  1.1743
 7898SOL     OW35326   1.097   1.301   4.576  0.6611  0.3965 -0.3695
 7898SOL    HW135327   1.041   1.328   4.649 -1.2046 -0.2629 -1.5829
 7898SOL    HW235328   1.066   1.371   4.519 -2.2811  0.5535  1.4450
 7899SOL     OW35329   1.107   1.239   6.931  0.3388  0.4470  0.2245
 7899SOL    HW135330   1.029   1.294   6.937 -0.7284 -0.9407 -0.9409
 7899SOL    HW235331   1.165   1.285   6.869  0.2567  1.1453  0.6644
 7900SOL     OW35332   2.399   0.118   7.289  0.3041 -0.0832 -0.5332
 7900SOL    HW135333   2.413   0.204   7.328 -0.2933 -1.4365  2.6760
 7900SOL    HW235334   2.334   0.090   7.354 -2.0993 -0.1998 -2.9641
 7901SOL     OW35335   0.405   2.439  15.371 -0.2813 -0.2133 -0.2317
 7901SOL    HW135336   0.492   2.402  15.357 -0.2581 -0.5311  0.7732
 7901SOL    HW235337   0.353   2.360  15.356 -0.5543 -0.0938  0.0818
 7902SOL     OW35338   2.898   1.888   6.446 -0.0910  0.4102  1.0842
 7902SOL    HW135339   2.950   1.951   6.495  0.4721  0.2949  0.6432
 7902SOL    HW235340   2.851   1.839   6.514  3.1676 -0.8680  2.4002
 7903SOL     OW35341   1.388   2.494  15.647 -0.3155 -0.5017  0.3311
 7903SOL    HW135342   1.462   2.487  15.707 -1.0206  1.2805  1.4257
 7903SOL    HW235343   1.320   2.442  15.690 -0.2695 -1.6868 -1.0210
 7904SOL     OW35344   0.839   0.381   8.075  0.6699  0.8200 -0.3320
 7904SOL    HW135345   0.802   0.334   8.000  1.3208 -0.1017 -0.0838
 7904SOL    HW235346   0.925   0.399   8.038  0.5525  0.2570 -0.8729
 7905SOL     OW35347   2.423   1.611  15.669  0.8915  0.3420  0.4211
 7905SOL    HW135348   2.335   1.635  15.639  0.5679  0.8647  1.7859
 7905SOL    HW235349   2.440   1.519  15.650 -2.2094 -0.2254  0.3282
 7906SOL     OW35350   1.331   1.502   9.370  0.0988 -0.5710 -0.0940
 7906SOL    HW135351   1.383   1.430   9.407  1.5343  0.5834  0.1125
 7906SOL    HW235352   1.401   1.565   9.357  0.2710 -0.8004 -0.2736
 7907SOL     OW35353   0.008   0.867   2.604  0.4267 -0.8853 -0.2241
 7907SOL    HW135354   0.086   0.819   2.578  0.5547  0.1853 -1.8192
 7907SOL    HW235355   4.689   0.803   2.645 -1.6207  0.7530 -0.6931
 7908SOL     OW35356   0.263   2.339  16.151 -0.6698 -0.2880  1.0378
 7908SOL    HW135357   0.198   2.391  16.103 -0.7066 -1.1569  0.1580
 7908SOL    HW235358   0.275   2.284  16.073  0.3647 -0.9372  1.6590
 7909SOL     OW35359   4.526   1.515   9.605 -0.3006  0.4943  0.3435
 7909SOL    HW135360   4.470   1.552   9.674 -1.7104  2.5373 -1.8728
 7909SOL    HW235361   4.578   1.591   9.578 -1.0657  0.3208 -1.6242
 7910SOL     OW35362   0.585   0.217   1.127 -0.1315  0.0420 -0.5688
 7910SOL    HW135363   0.638   0.137   1.131 -1.1140 -0.5778  0.1134
 7910SOL    HW235364   0.505   0.180   1.090 -1.0814  0.3469  1.2085
 7911SOL     OW35365   3.622   1.587   7.367 -0.4289 -0.1274  0.0092
 7911SOL    HW135366   3.693   1.648   7.389 -0.2538 -1.0427  1.9446
 7911SOL    HW235367   3.671   1.505   7.365 -0.5542 -0.2043  0.1516
 7912SOL     OW35368   0.507   4.000   4.983  0.3717  0.4741  0.6438
 7912SOL    HW135369   0.456   3.993   4.902  1.2428 -1.6657  0.3025
 7912SOL    HW235370   0.458   4.068   5.030 -0.4047  0.1251  0.3547
 7913SOL     OW35371   4.126   2.371  15.147  0.5367 -0.7954 -0.2032
 7913SOL    HW135372   4.179   2.300  15.111 -0.0332 -1.5759  0.4911
 7913SOL    HW235373   4.038   2.341  15.169  0.3994 -0.4076 -0.2139
 7914SOL     OW35374   4.206   0.509   0.158 -0.8277  0.2208 -0.7323
 7914SOL    HW135375   4.181   0.593   0.196 -0.2444  0.6700 -1.3465
 7914SOL    HW235376   4.270   0.527   0.090  0.8769  0.4109  0.9048
 7915SOL     OW35377   1.949   4.193  11.584  0.1353  0.0325  0.1281
 7915SOL    HW135378   2.013   4.216  11.517 -0.2399  1.4880  0.2618
 7915SOL    HW235379   1.916   4.117  11.537 -2.8147  2.2161 -1.3532
 7916SOL     OW35380   1.911   2.342   9.742  0.5750  0.1539 -0.0709
 7916SOL    HW135381   1.826   2.358   9.702  1.1869 -1.1205 -1.8795
 7916SOL    HW235382   1.968   2.345   9.665  0.3903  1.6946 -0.1531
 7917SOL     OW35383   4.691   3.883   9.114  0.3404 -0.2369 -0.0796
 7917SOL    HW135384   4.651   3.847   9.193  0.0558 -0.6863 -0.4328
 7917SOL    HW235385   0.038   3.846   9.113  0.5568  0.2103  2.1091
 7918SOL     OW35386   4.640   2.740   8.105  0.3044  0.1333 -0.0432
 7918SOL    HW135387   4.710   2.706   8.160  0.4086  0.1923 -0.1388
 7918SOL    HW235388   4.684   2.775   8.027 -0.6791 -0.4898 -0.8897
 7919SOL     OW35389   4.167   2.538  11.094 -0.2211 -0.2917  0.2398
 7919SOL    HW135390   4.206   2.459  11.056  1.9364  1.0075 -0.2226
 7919SOL    HW235391   4.205   2.607  11.040  0.9269 -2.4600 -1.7308
 7920SOL     OW35392   2.515   4.486   5.437 -0.5994 -0.0346 -0.3403
 7920SOL    HW135393   2.593   4.437   5.413  0.1265  1.3431 -0.8160
 7920SOL    HW235394   2.513   4.555   5.371 -2.0547  0.6541  0.4275
 7921SOL     OW35395   3.215   3.868  17.340  0.1012 -0.1220  0.0163
 7921SOL    HW135396   3.161   3.934  17.296 -1.0847 -1.3581 -0.3909
 7921SOL    HW235397   3.283   3.889  17.277  0.8418  0.3468  0.9757
 7922SOL     OW35398   1.766   1.141   5.555  0.6341 -1.2015 -0.2377
 7922SOL    HW135399   1.691   1.086   5.530  0.4570 -0.7367 -0.7184
 7922SOL    HW235400   1.827   1.080   5.597  0.8376 -0.9743 -0.2104
 7923SOL     OW35401   1.326   3.195   6.602 -0.5908 -1.0113  0.1678
 7923SOL    HW135402   1.244   3.215   6.556  0.3570 -0.9567 -1.5101
 7923SOL    HW235403   1.394   3.175   6.537 -0.9797  0.2426 -0.6229
 7924SOL     OW35404   3.202   1.623  16.631  0.9738 -0.6713  0.3947
 7924SOL    HW135405   3.255   1.583  16.562  0.0890  0.7740 -1.1225
 7924SOL    HW235406   3.170   1.704  16.591  0.2961 -1.0558  0.1670
 7925SOL     OW35407   0.832   1.966  17.058 -0.2385 -0.1194 -0.2217
 7925SOL    HW135408   0.855   2.053  17.025 -0.9303  1.0072  2.2282
 7925SOL    HW235409   0.804   1.917  16.981  0.0388 -1.5923  0.5979
 7926SOL     OW35410   1.176   1.167   8.527 -0.4454 -0.4449 -0.2536
 7926SOL    HW135411   1.237   1.118   8.582 -0.7447  0.0726  0.5482
 7926SOL    HW235412   1.220   1.170   8.443 -1.3248 -0.5691 -0.7200
 7927SOL     OW35413   3.600   1.525   1.909  0.5026 -0.0204 -0.7509
 7927SOL    HW135414   3.664   1.536   1.839  1.5371 -0.2575  0.1458
 7927SOL    HW235415   3.521   1.510   1.858 -0.2760 -1.9718  1.0202
 7928SOL     OW35416   2.670   0.994   3.497 -0.6910 -0.3252  0.6232
 7928SOL    HW135417   2.593   0.943   3.472 -1.9116  0.8220  2.0618
 7928SOL    HW235418   2.643   1.020   3.585  0.5430 -0.6697  1.1072
 7929SOL     OW35419   1.923   1.993   4.157 -0.2563  0.1170 -0.3556
 7929SOL    HW135420   1.838   1.965   4.123  0.8118 -1.0343 -2.0454
 7929SOL    HW235421   1.917   2.088   4.146  1.2183  0.0345 -1.8229
 7930SOL     OW35422   1.486   0.907   8.029 -0.1852 -0.3570  0.2814
 7930SOL    HW135423   1.397   0.912   7.993  0.4059  2.4210 -0.7891
 7930SOL    HW235424   1.539   0.926   7.952  2.0752 -3.3101  1.1203
 7931SOL     OW35425   1.693   0.026   9.440 -0.1422  0.2443  0.7441
 7931SOL    HW135426   1.709   4.682   9.483 -0.9855  0.5564  1.6530
 7931SOL    HW235427   1.600   0.040   9.457  0.0695  1.6863  0.6531
 7932SOL     OW35428   4.615   3.750   9.345  0.0906  0.7725  0.5941
 7932SOL    HW135429   4.558   3.823   9.368  0.2522  0.6500  1.3811
 7932SOL    HW235430   4.670   3.751   9.424  1.8801 -1.8610 -0.6290
 7933SOL     OW35431   0.897   1.576  12.398 -0.0420 -0.0137  0.0476
 7933SOL    HW135432   0.878   1.647  12.338  0.3685 -0.1562 -0.2556
 7933SOL    HW235433   0.844   1.501  12.369  0.9055 -0.5590 -0.2860
 7934SOL     OW35434   1.646   0.932   7.799 -0.2086 -0.0851  0.1921
 7934SOL    HW135435   1.705   0.873   7.753 -2.0652 -0.7142 -1.3827
 7934SOL    HW235436   1.582   0.955   7.731  0.7938 -0.5991 -0.9028
 7935SOL     OW35437   2.392   0.607   5.599 -0.2514  0.2335  0.4361
 7935SOL    HW135438   2.461   0.664   5.632 -0.6029  0.0926  1.4221
 7935SOL    HW235439   2.357   0.669   5.535  1.8706  0.8005 -0.1527
 7936SOL     OW35440   1.194   0.568   4.218  0.4110 -0.0022 -0.2479
 7936SOL    HW135441   1.128   0.617   4.169  0.5343 -0.4894 -0.8937
 7936SOL    HW235442   1.220   0.636   4.281 -1.5723  0.3347  0.1873
 7937SOL     OW35443   1.928   1.557  16.547 -0.3728 -0.0213  0.5506
 7937SOL    HW135444   2.023   1.565  16.552 -0.5036  0.9251  1.5382
 7937SOL    HW235445   1.921   1.531  16.455 -1.3103  4.3529 -0.6281
 7938SOL     OW35446   3.038   1.764  10.971 -0.1335 -0.8825  0.2205
 7938SOL    HW135447   3.088   1.685  10.992  1.5804 -0.1098 -0.9453
 7938SOL    HW235448   3.045   1.809  11.055 -1.9648 -0.1471 -0.0124
 7939SOL     OW35449   0.405   3.367   6.509 -0.0010  0.1243 -0.2011
 7939SOL    HW135450   0.333   3.381   6.447  0.5056  1.3205 -0.5234
 7939SOL    HW235451   0.365   3.323   6.584 -0.4483  1.2102  0.1980
 7940SOL     OW35452   0.458   0.333   2.061  0.3988 -0.0332 -0.1819
 7940SOL    HW135453   0.446   0.392   1.987 -0.2917  2.9445  2.3038
 7940SOL    HW235454   0.509   0.265   2.017  0.6319 -0.1562  0.2733
 7941SOL     OW35455   0.991   2.726   6.845 -0.3355  0.3594 -0.3938
 7941SOL    HW135456   0.956   2.756   6.762  2.2914  1.0298 -1.2691
 7941SOL    HW235457   0.919   2.743   6.905  0.6596  1.2038  0.5756
 7942SOL     OW35458   1.798   4.150  12.274  0.1075  0.5654 -0.2088
 7942SOL    HW135459   1.712   4.193  12.276 -0.2907 -0.2238 -0.1076
 7942SOL    HW235460   1.840   4.198  12.203  0.5517  0.2247 -0.1755
 7943SOL     OW35461   0.495   3.379   4.317 -0.1358  0.0110 -0.0525
 7943SOL    HW135462   0.487   3.392   4.222 -0.2320 -3.2414 -0.4759
 7943SOL    HW235463   0.498   3.469   4.350 -1.6774  0.6174 -1.5790
 7944SOL     OW35464   2.178   3.319   3.689 -0.1867 -0.0709  0.3565
 7944SOL    HW135465   2.107   3.266   3.725 -1.2609 -0.7438 -2.7588
 7944SOL    HW235466   2.144   3.341   3.602 -1.1715  3.2667  1.5769
 7945SOL     OW35467   1.742   0.943   8.164  0.0932 -0.0849  0.5155
 7945SOL    HW135468   1.649   0.946   8.142  1.2248  0.4434 -4.1870
 7945SOL    HW235469   1.741   0.963   8.257  3.2237 -0.7444  0.6950
 7946SOL     OW35470   4.235   2.197  13.438  0.1988 -0.3676  0.0318
 7946SOL    HW135471   4.232   2.252  13.516 -1.3639  0.8752 -0.8863
 7946SOL    HW235472   4.155   2.143  13.439 -0.2249  0.2058 -3.0108
 7947SOL     OW35473   2.864   1.527   4.006 -0.1029  0.5906  0.5631
 7947SOL    HW135474   2.926   1.563   4.070  1.7948 -0.5927 -0.6195
 7947SOL    HW235475   2.899   1.570   3.929  0.0362  1.5909  1.1823
 7948SOL     OW35476   2.730   2.423  17.326 -0.0876 -0.6575 -0.2539
 7948SOL    HW135477   2.656   2.456  17.378  2.0192  2.2136  0.9230
 7948SOL    HW235478   2.797   2.393  17.387  0.4405  2.0393  0.4670
 7949SOL     OW35479   4.143   1.254   2.671 -0.3195  0.1618 -0.3374
 7949SOL    HW135480   4.237   1.244   2.656 -0.5323 -1.3272 -0.6423
 7949SOL    HW235481   4.113   1.288   2.587 -1.2507 -0.3770 -0.2143
 7950SOL     OW35482   2.203   2.945   8.747  0.2878 -0.5059  0.1751
 7950SOL    HW135483   2.224   3.020   8.691 -0.3345  0.2553  0.9558
 7950SOL    HW235484   2.283   2.939   8.799 -0.9123 -1.2378  1.9570
 7951SOL     OW35485   0.468   1.724  17.391 -0.4750  0.0887 -0.9553
 7951SOL    HW135486   0.491   1.786  17.460  0.0387  0.4801 -1.4763
 7951SOL    HW235487   0.495   1.779  17.318  1.1781 -2.8496 -2.5793
 7952SOL     OW35488   1.941   0.252   9.300 -0.0425 -0.7713 -0.1633
 7952SOL    HW135489   1.918   0.292   9.216 -0.2393  1.9820  1.1850
 7952SOL    HW235490   1.881   0.294   9.361 -1.7122 -0.9594 -1.7006
 7953SOL     OW35491   0.206   2.384   7.363 -0.5563 -0.1750  0.0698
 7953SOL    HW135492   0.158   2.402   7.444 -0.6640 -1.0271  0.1960
 7953SOL    HW235493   0.130   2.368   7.308  0.0490 -1.1429 -0.4863
 7954SOL     OW35494   3.618   3.980   6.917  0.0162 -0.6184 -0.3369
 7954SOL    HW135495   3.701   3.932   6.914  0.5685  0.1397  3.1915
 7954SOL    HW235496   3.557   3.915   6.883  0.8608 -0.7559 -1.6236
 7955SOL     OW35497   0.526   2.303  14.953  0.0312 -0.5129 -0.3596
 7955SOL    HW135498   0.454   2.298  15.016  0.0880  1.9861 -0.0890
 7955SOL    HW235499   0.472   2.304  14.873 -1.8983  3.2884  0.9859
 7956SOL     OW35500   0.404   1.003   5.650  0.3643 -0.3383 -0.2323
 7956SOL    HW135501   0.428   0.936   5.587  1.0422  0.4585 -0.8045
 7956SOL    HW235502   0.340   1.056   5.603  0.0666  0.8366  1.5218
 7957SOL     OW35503   0.515   1.766   9.444  0.3678 -0.3467 -0.1580
 7957SOL    HW135504   0.488   1.696   9.384  0.5803 -0.2167 -0.4017
 7957SOL    HW235505   0.603   1.738   9.470  0.6003  0.4752 -0.0562
 7958SOL     OW35506   2.222   3.989   7.210 -0.1673  0.0367 -0.3137
 7958SOL    HW135507   2.209   4.039   7.291 -2.1195  0.7206 -1.0625
 7958SOL    HW235508   2.305   4.030   7.183 -2.0272  3.2370 -1.1704
 7959SOL     OW35509   2.768   2.593   1.287 -0.2988  0.9049  0.1462
 7959SOL    HW135510   2.683   2.580   1.245 -0.5092 -0.4669  1.0028
 7959SOL    HW235511   2.810   2.513   1.258 -2.1775 -0.9735  2.5875
 7960SOL     OW35512   0.981   3.569  17.618  0.3810 -0.2883 -0.7490
 7960SOL    HW135513   1.062   3.593  17.663  0.5929 -1.7687 -0.3596
 7960SOL    HW235514   0.940   3.655  17.605  1.0218 -0.0604 -1.2799
 7961SOL     OW35515   4.397   2.995   8.173 -0.1355  0.5109 -0.4136
 7961SOL    HW135516   4.458   3.059   8.134  2.2322 -1.1637  0.5865
 7961SOL    HW235517   4.364   3.041   8.250 -0.3122  0.7982 -0.6598
 7962SOL     OW35518   4.085   2.224  14.820 -0.1221 -0.3173  0.5676
 7962SOL    HW135519   4.102   2.313  14.851 -0.2102  0.5400 -1.8859
 7962SOL    HW235520   4.151   2.171  14.865  0.1787  0.1709  0.7065
 7963SOL     OW35521   2.076   4.070   2.832 -0.0926  0.0275  0.4088
 7963SOL    HW135522   2.042   4.105   2.750  0.9387  0.0387 -0.0110
 7963SOL    HW235523   2.066   4.145   2.891 -0.0464 -0.4687  1.0481
 7964SOL     OW35524   4.020   0.224   2.794  0.2584  0.2946  0.0436
 7964SOL    HW135525   3.962   0.198   2.723  1.4330 -0.2440 -0.7142
 7964SOL    HW235526   3.970   0.302   2.820 -0.6192  0.4489 -2.1100
 7965SOL     OW35527   4.429   2.356  15.745 -0.0627  0.7385 -0.0218
 7965SOL    HW135528   4.478   2.278  15.719  1.1203  0.7009  2.3394
 7965SOL    HW235529   4.383   2.372  15.662 -0.4540 -1.5939 -0.2415
 7966SOL     OW35530   2.241   3.303   5.274 -0.1797  0.0967 -0.0459
 7966SOL    HW135531   2.329   3.267   5.288 -0.7624 -1.5367 -0.4948
 7966SOL    HW235532   2.262   3.373   5.212  2.4066 -0.9928 -0.3875
 7967SOL     OW35533   3.374   0.001  13.532  0.3428 -0.4709  0.0131
 7967SOL    HW135534   3.440   0.026  13.596 -0.6564  0.3812  0.7228
 7967SOL    HW235535   3.348   0.089  13.503  1.2018 -0.4290 -0.6125
 7968SOL     OW35536   4.645   2.801  16.629 -0.0491 -0.3582  0.8068
 7968SOL    HW135537   4.674   2.718  16.590  1.3531  0.1325  0.7995
 7968SOL    HW235538   4.569   2.820  16.574  1.8588  2.3296 -0.9134
 7969SOL     OW35539   4.321   4.271  17.038  0.0681  0.1875 -1.0063
 7969SOL    HW135540   4.390   4.233  16.983 -0.1025  0.2518 -1.2631
 7969SOL    HW235541   4.330   4.366  17.035 -1.3350  0.4106  2.8580
 7970SOL     OW35542   3.200   4.132   5.146  0.4617  0.9483 -0.7367
 7970SOL    HW135543   3.251   4.051   5.151 -0.2096  0.7265  2.5325
 7970SOL    HW235544   3.194   4.149   5.052  0.5290 -0.6239 -1.0193
 7971SOL     OW35545   4.405   4.507   1.340 -0.3756 -0.0415 -0.0186
 7971SOL    HW135546   4.363   4.423   1.357 -0.4287 -0.7039 -3.2642
 7971SOL    HW235547   4.494   4.471   1.338 -0.7632 -1.0307  0.3343
 7972SOL     OW35548   1.726   2.404   5.335 -0.1576  0.3393  0.0237
 7972SOL    HW135549   1.821   2.391   5.327  0.1675  2.6299  0.0843
 7972SOL    HW235550   1.707   2.352   5.413 -1.3428 -1.7545 -1.6915
 7973SOL     OW35551   0.952   3.077   5.498  0.1023 -0.2759 -0.2106
 7973SOL    HW135552   1.018   3.025   5.544  0.2303  0.1906  0.1225
 7973SOL    HW235553   0.906   3.107   5.576 -1.4939  0.6628 -1.4927
 7974SOL     OW35554   1.964   2.048   6.965 -0.0080  0.3527 -0.3929
 7974SOL    HW135555   2.002   1.987   7.028  1.7768  0.7402 -1.1010
 7974SOL    HW235556   1.875   2.060   6.998  0.0716 -0.7414  0.1872
 7975SOL     OW35557   4.108   3.760  13.449  0.1816 -0.3787  0.0811
 7975SOL    HW135558   4.137   3.835  13.397  2.9198 -0.9943  0.7187
 7975SOL    HW235559   4.186   3.721  13.490  1.0452 -0.1427 -1.3624
 7976SOL     OW35560   2.076   4.533   8.544 -0.3153 -0.4455  0.6136
 7976SOL    HW135561   2.131   4.542   8.622 -0.7043  1.5602  0.6662
 7976SOL    HW235562   2.090   4.621   8.507  1.6345 -0.5501  1.0970
 7977SOL     OW35563   4.019   3.030   2.276  0.0446  0.5277 -0.3965
 7977SOL    HW135564   4.003   3.092   2.347 -1.2836  0.6940 -0.8529
 7977SOL    HW235565   4.046   3.086   2.203  1.7828  1.1691  0.7319
 7978SOL     OW35566   1.333   1.379   1.505 -0.2003 -0.0014 -0.6540
 7978SOL    HW135567   1.295   1.347   1.423  0.7677 -1.1501 -0.6491
 7978SOL    HW235568   1.317   1.301   1.558 -0.9963 -0.9902 -2.3627
 7979SOL     OW35569   2.269   1.775   8.308  0.3996 -0.6032 -0.1224
 7979SOL    HW135570   2.256   1.870   8.312 -3.6334 -1.2614  2.8407
 7979SOL    HW235571   2.179   1.749   8.286 -0.1775  1.2358  0.0781
 7980SOL     OW35572   4.652   1.121   2.638  0.3357 -0.2024 -0.0810
 7980SOL    HW135573   0.004   1.127   2.661  0.2669  1.0091 -0.1221
 7980SOL    HW235574   4.651   1.028   2.614 -0.7981 -0.1961 -0.0626
 7981SOL     OW35575   3.730   3.791  12.146 -0.2064 -0.1309 -0.2115
 7981SOL    HW135576   3.730   3.881  12.113  2.7054 -0.3945 -0.9239
 7981SOL    HW235577   3.699   3.746  12.067  1.3713  1.1536 -1.5758
 7982SOL     OW35578   3.328   4.288   9.542 -0.2061  0.7392  0.3337
 7982SOL    HW135579   3.407   4.236   9.557  0.7571  1.7800 -1.1661
 7982SOL    HW235580   3.363   4.376   9.554  1.5144  0.3822 -2.1211
 7983SOL     OW35581   4.191   0.253   6.991  0.4477  0.2448 -0.2569
 7983SOL    HW135582   4.150   0.187   7.047 -1.3509  0.9164 -0.7908
 7983SOL    HW235583   4.264   0.278   7.048  0.6254  2.1071 -1.3050
 7984SOL     OW35584   0.830   3.877  14.623 -0.1502  0.2030 -0.1203
 7984SOL    HW135585   0.800   3.934  14.693 -1.2265 -1.0141  0.4039
 7984SOL    HW235586   0.924   3.897  14.624 -0.1746  0.3573 -1.0274
 7985SOL     OW35587   2.700   4.703  16.296 -0.8456  0.4243  0.1351
 7985SOL    HW135588   2.688   4.702  16.391 -1.5001  2.9733  0.1000
 7985SOL    HW235589   2.609   4.684  16.272  0.2968 -1.4051 -2.6142
 7986SOL     OW35590   3.894   1.412   7.989  0.4697  0.2754 -0.0674
 7986SOL    HW135591   3.963   1.353   8.019  1.9204  1.4231 -1.1531
 7986SOL    HW235592   3.856   1.375   7.909 -4.6415 -0.9100  2.9266
 7987SOL     OW35593   0.965   0.224  13.626 -0.3115 -0.2449 -0.0235
 7987SOL    HW135594   1.052   0.206  13.660  0.8202  1.3082 -2.0926
 7987SOL    HW235595   0.960   0.171  13.546 -3.0954  1.2803 -0.8901
 7988SOL     OW35596   4.700   1.206   6.875  0.2447 -0.2436 -0.0702
 7988SOL    HW135597   4.706   1.163   6.789 -1.2345 -1.7157  0.5676
 7988SOL    HW235598   4.671   1.143   6.941  1.3389  0.9928  1.5858
 7989SOL     OW35599   1.667   4.715   6.395 -0.4382  0.2967 -0.2804
 7989SOL    HW135600   1.579   0.013   6.400 -0.0523  1.2240 -0.6506
 7989SOL    HW235601   1.715   0.040   6.445  0.2925  0.4966 -1.2457
 7990SOL     OW35602   3.136   3.171   9.420 -0.2184  0.2723  0.5311
 7990SOL    HW135603   3.083   3.108   9.468 -0.9278 -0.5905 -1.3692
 7990SOL    HW235604   3.184   3.221   9.487 -1.5419  1.2742  0.7220
 7991SOL     OW35605   0.973   3.798   7.419 -0.1471  0.2862 -0.4458
 7991SOL    HW135606   0.974   3.817   7.326  0.1765 -0.0232 -0.5065
 7991SOL    HW235607   1.016   3.874   7.460  1.3105 -0.6014 -0.3164
 7992SOL     OW35608   0.539   2.995   3.119 -0.2169  0.5830  0.3111
 7992SOL    HW135609   0.481   3.056   3.164  1.6006  1.6339  1.2555
 7992SOL    HW235610   0.617   2.983   3.174 -0.0981 -0.1565 -0.0104
 7993SOL     OW35611   4.426   2.223  12.565 -1.1218 -0.1542 -0.1801
 7993SOL    HW135612   4.512   2.264  12.570 -1.2989  0.0536  1.2795
 7993SOL    HW235613   4.374   2.263  12.635 -1.8416  0.9258 -1.3449
 7994SOL     OW35614   3.224   1.102   8.275 -0.0633  0.0990  0.5617
 7994SOL    HW135615   3.261   1.046   8.206 -4.5976 -0.9747 -0.9514
 7994SOL    HW235616   3.155   1.140   8.222  0.1532  1.0829  0.9843
 7995SOL     OW35617   4.571   3.995   4.240  0.0409  0.4780 -0.4415
 7995SOL    HW135618   4.559   4.050   4.317 -1.1154  0.4711 -0.6204
 7995SOL    HW235619   4.567   3.906   4.276  1.4853  1.1258  1.3244
 7996SOL     OW35620   0.931   0.013  11.482  0.4650  0.2148 -0.0255
 7996SOL    HW135621   1.008   0.012  11.426  0.6259  1.8717  0.1446
 7996SOL    HW235622   0.935   0.106  11.507  0.5150  0.3136 -0.4034
 7997SOL     OW35623   0.713   3.123  14.322 -0.0241 -0.9956  0.4634
 7997SOL    HW135624   0.642   3.181  14.295  0.5720 -1.1445 -1.4433
 7997SOL    HW235625   0.792   3.178  14.320  0.6055 -1.9195 -0.4525
 7998SOL     OW35626   2.767   1.117  13.571  0.2324 -0.3001  0.1931
 7998SOL    HW135627   2.705   1.106  13.643  0.1232 -2.3042 -0.1975
 7998SOL    HW235628   2.842   1.061  13.593  0.7960  1.3524  2.4660
 7999SOL     OW35629   3.470   3.424   7.757 -0.2534  0.5254 -0.5381
 7999SOL    HW135630   3.526   3.355   7.791 -0.8435 -1.5184 -3.7695
 7999SOL    HW235631   3.409   3.381   7.697 -0.5676  0.3176 -0.0671
 8000SOL     OW35632   2.421   4.181   6.997  0.2332  0.1028  0.1686
 8000SOL    HW135633   2.516   4.186   6.981  0.5158  1.1803  2.0936
 8000SOL    HW235634   2.434   4.163   7.090  1.6027 -1.2575 -0.2962
 8001SOL     OW35635   4.077   1.241   4.980  0.1655  0.1982  0.8579
 8001SOL    HW135636   3.994   1.256   5.026 -0.1392 -2.0800  1.0282
 8001SOL    HW235637   4.090   1.147   4.973 -1.4630  0.2448 -2.8501
 8002SOL     OW35638   3.175   1.740   7.070 -0.2593 -0.3413 -0.4372
 8002SOL    HW135639   3.225   1.817   7.096  2.0522 -2.0188  0.1071
 8002SOL    HW235640   3.230   1.709   6.998  0.2173 -2.3549  0.7860
 8003SOL     OW35641   2.002   1.712   8.276  0.4708  0.2151 -0.4447
 8003SOL    HW135642   2.023   1.645   8.340  2.1247 -0.0720 -1.2863
 8003SOL    HW235643   1.921   1.754   8.305  1.7053  2.3976 -0.1634
 8004SOL     OW35644   2.775   1.101   5.021 -0.2593 -0.0406  0.0249
 8004SOL    HW135645   2.808   1.124   4.934  1.1748 -0.8134  0.3705
 8004SOL    HW235646   2.684   1.084   4.996 -0.3669 -0.2657  0.5763
 8005SOL     OW35647   2.257   4.530  15.351 -0.7358  0.5069 -0.3557
 8005SOL    HW135648   2.194   4.561  15.416  1.0627  1.5304  0.8876
 8005SOL    HW235649   2.282   4.607  15.299  1.0860 -1.1066 -1.8767
 8006SOL     OW35650   4.281   3.198   4.565 -0.0783 -0.5066  0.0992
 8006SOL    HW135651   4.292   3.111   4.526 -1.3646 -0.2807 -0.7640
 8006SOL    HW235652   4.357   3.241   4.526 -0.3434  1.9358  2.3110
 8007SOL     OW35653   4.671   0.194   3.947  0.3838  0.1833  0.2535
 8007SOL    HW135654   4.700   0.238   3.867 -0.7039  1.4489  0.5469
 8007SOL    HW235655   4.726   0.116   3.940  0.5672  0.4929 -2.0659
 8008SOL     OW35656   1.586   4.543  13.852 -0.1550  0.2193  0.9624
 8008SOL    HW135657   1.627   4.574  13.772  0.3940 -0.9832  0.7741
 8008SOL    HW235658   1.493   4.555  13.833  0.1956  1.5207  0.0928
 8009SOL     OW35659   1.642   1.665   4.913  0.5759 -0.0222  0.0558
 8009SOL    HW135660   1.682   1.751   4.924 -0.6491  0.6104 -0.4919
 8009SOL    HW235661   1.710   1.611   4.953  1.3092  0.6387 -0.2792
 8010SOL     OW35662   3.703   2.224  14.152 -0.0394  0.5786 -0.8489
 8010SOL    HW135663   3.699   2.261  14.064  2.0606 -1.6088 -1.8459
 8010SOL    HW235664   3.611   2.213  14.176 -0.5948  1.5999 -2.4952
 8011SOL     OW35665   4.002   0.214   3.379 -0.3143 -0.1257 -0.0990
 8011SOL    HW135666   3.981   0.234   3.470  1.5637 -0.3839  0.3793
 8011SOL    HW235667   3.968   0.288   3.329 -1.0744 -0.4572 -0.0864
 8012SOL     OW35668   3.427   3.958   6.031  0.2273 -0.7717 -0.5400
 8012SOL    HW135669   3.486   3.912   5.971  0.1641  1.7428 -2.5122
 8012SOL    HW235670   3.461   3.927   6.115  0.5103  0.6758 -0.1198
 8013SOL     OW35671   1.553   0.874   3.884 -0.5117  0.2217 -0.2753
 8013SOL    HW135672   1.508   0.901   3.964 -0.8407 -1.1310 -0.0089
 8013SOL    HW235673   1.491   0.889   3.813 -0.2740 -1.3600 -0.8199
 8014SOL     OW35674   1.920   2.154  11.864  0.2696 -0.2063  0.2225
 8014SOL    HW135675   1.896   2.062  11.854  1.5389 -0.3077 -1.8757
 8014SOL    HW235676   1.863   2.202  11.805  1.2011  0.1083 -0.4293
 8015SOL     OW35677   2.205   1.662   4.152 -0.4769 -1.1878 -0.0876
 8015SOL    HW135678   2.201   1.746   4.196 -0.1358  0.1188 -2.5768
 8015SOL    HW235679   2.298   1.645   4.139  0.6094  3.4052  1.9160
 8016SOL     OW35680   2.202   2.657  16.672  0.7476 -0.1112  0.0993
 8016SOL    HW135681   2.280   2.602  16.669  0.2023 -0.7051 -3.3879
 8016SOL    HW235682   2.234   2.733  16.623 -1.8456  0.0657 -1.3101
 8017SOL     OW35683   0.128   2.020   3.074  0.4503  0.5302  0.0418
 8017SOL    HW135684   0.200   2.067   3.116  1.0920 -0.7627  0.3963
 8017SOL    HW235685   0.184   1.974   3.011  0.5187  0.1794  0.3571
 8018SOL     OW35686   2.584   3.532  11.648 -0.0490 -0.0176 -0.1747
 8018SOL    HW135687   2.661   3.487  11.611 -0.2635 -0.6571  0.1469
 8018SOL    HW235688   2.523   3.459  11.659  0.9221 -0.9434 -0.8390
 8019SOL     OW35689   4.631   0.680   8.390 -0.5228  0.5113  0.2109
 8019SOL    HW135690   4.721   0.687   8.357 -0.7313  0.8994 -0.2822
 8019SOL    HW235691   4.609   0.587   8.382 -0.3824  0.4260  0.8079
 8020SOL     OW35692   1.511   1.381  14.830  0.7652  0.0648 -0.4728
 8020SOL    HW135693   1.461   1.456  14.798 -0.1547 -0.3672 -0.0714
 8020SOL    HW235694   1.446   1.312  14.813  0.0197  0.0090  2.6155
 8021SOL     OW35695   3.619   2.159   5.195 -0.7554 -0.3081  0.0755
 8021SOL    HW135696   3.569   2.095   5.144 -0.6722  0.6658 -1.2341
 8021SOL    HW235697   3.707   2.125   5.176 -0.6441 -0.2868  0.5636
 8022SOL     OW35698   3.041   3.699  11.058  0.0583  0.9144 -0.5729
 8022SOL    HW135699   3.076   3.613  11.035 -0.4372  0.2501  1.2062
 8022SOL    HW235700   3.122   3.749  11.061  0.2302  0.6165 -0.2831
 8023SOL     OW35701   2.969   2.590   4.835  0.1330  0.2561  1.0683
 8023SOL    HW135702   3.021   2.572   4.756  0.1072 -0.4165  1.2101
 8023SOL    HW235703   3.013   2.540   4.903 -0.7028  1.0454  2.1862
 8024SOL     OW35704   0.147   2.814   9.107 -0.3004 -0.3214  0.2678
 8024SOL    HW135705   0.057   2.827   9.136  0.0228  1.7256  0.3421
 8024SOL    HW235706   0.149   2.740   9.046  1.0204  0.0869 -0.1874
 8025SOL     OW35707   0.994   0.640   1.115  1.2090  0.2004  0.3575
 8025SOL    HW135708   0.933   0.601   1.053 -0.4796  0.5371  1.7899
 8025SOL    HW235709   1.021   0.720   1.071 -0.0936  0.8189  0.6720
 8026SOL     OW35710   1.613   1.885   3.654  0.6547  0.0583 -0.1367
 8026SOL    HW135711   1.539   1.935   3.619 -1.3161 -1.5478  1.6683
 8026SOL    HW235712   1.683   1.942   3.684 -0.7141  1.5706  0.1778
 8027SOL     OW35713   0.142   3.498   3.015 -0.4056  0.2860  0.6709
 8027SOL    HW135714   0.225   3.503   2.968 -1.4587 -1.8496 -1.4350
 8027SOL    HW235715   0.128   3.403   3.018  0.6385  0.1244  0.3466
 8028SOL     OW35716   4.576   0.919   6.980 -0.1929  0.0889  0.7831
 8028SOL    HW135717   4.557   0.860   6.908  0.4748  1.2312 -0.3304
 8028SOL    HW235718   4.490   0.951   7.006  0.0398  0.7341  0.7668
 8029SOL     OW35719   3.035   2.733   6.690  0.0665 -0.2024 -0.3008
 8029SOL    HW135720   3.115   2.777   6.664 -0.0635  0.7750  0.9633
 8029SOL    HW235721   3.086   2.679   6.751  1.8911  2.6987  0.7449
 8030SOL     OW35722   2.648   3.803  11.649 -0.1679 -0.3069  0.7114
 8030SOL    HW135723   2.720   3.754  11.609 -0.1321 -0.8386  1.4228
 8030SOL    HW235724   2.601   3.735  11.697 -2.7338  0.4101 -0.7759
 8031SOL     OW35725   0.002   2.542   4.136  0.0295  0.2009 -0.2219
 8031SOL    HW135726   4.669   2.578   4.185 -1.6743  1.2562 -3.5356
 8031SOL    HW235727   4.737   2.593   4.055 -2.0290 -1.9710 -1.4245
 8032SOL     OW35728   3.806   1.192  15.538 -0.2040 -0.1395  0.4407
 8032SOL    HW135729   3.787   1.169  15.447 -0.4947 -0.7089  0.6525
 8032SOL    HW235730   3.868   1.265  15.528 -1.1770  0.1951 -3.2732
 8033SOL     OW35731   4.539   0.392   2.390  0.5083 -0.0676  0.5358
 8033SOL    HW135732   4.619   0.368   2.438 -0.2654 -0.9952  1.3441
 8033SOL    HW235733   4.558   0.478   2.352 -0.6058  0.8400  2.0680
 8034SOL     OW35734   1.836   1.447  13.980 -0.5363 -0.3366 -0.2044
 8034SOL    HW135735   1.747   1.481  13.973 -0.0737  1.0341  0.4146
 8034SOL    HW235736   1.818   1.364  14.023 -0.6655  1.0525  2.3856
 8035SOL     OW35737   1.323   2.756   2.139 -0.2870  0.5044 -0.2637
 8035SOL    HW135738   1.337   2.804   2.221  0.7519  0.6318 -0.5220
 8035SOL    HW235739   1.255   2.693   2.162  1.0308 -0.3535  1.2239
 8036SOL     OW35740   2.528   2.749   2.614 -0.6880 -0.3153 -0.0083
 8036SOL    HW135741   2.530   2.835   2.656  2.5979  0.5363 -1.8385
 8036SOL    HW235742   2.578   2.693   2.673  0.4787 -0.3971 -1.0699
 8037SOL     OW35743   0.259   3.680  16.795  0.0519 -0.1175  0.6984
 8037SOL    HW135744   0.336   3.736  16.782 -0.6127  0.7868  0.6546
 8037SOL    HW235745   0.210   3.717  16.721  1.7500  0.0767 -0.3358
 8038SOL     OW35746   0.487   0.209  11.346  0.0510 -0.3481 -0.3134
 8038SOL    HW135747   0.499   0.208  11.441  0.1691  1.5316 -0.3037
 8038SOL    HW235748   0.516   0.119  11.335 -0.2914 -0.4977 -0.0136
 8039SOL     OW35749   3.713   1.754   5.174 -0.3258  0.6458  0.1335
 8039SOL    HW135750   3.743   1.715   5.092  0.0230  2.1841 -0.4719
 8039SOL    HW235751   3.729   1.846   5.155  1.0942  0.2548 -0.6031
 8040SOL     OW35752   1.842   1.681  14.250 -0.0426  0.1723  0.4810
 8040SOL    HW135753   1.771   1.649  14.195  1.4814  0.0374 -1.4058
 8040SOL    HW235754   1.895   1.737  14.194  0.2342 -2.0184 -1.4485
 8041SOL     OW35755   2.344   0.765   8.565 -0.2333  0.4197  0.7032
 8041SOL    HW135756   2.315   0.787   8.653 -1.1960 -1.8699  0.9618
 8041SOL    HW235757   2.381   0.847   8.531 -2.2243  0.5461 -1.1399
 8042SOL     OW35758   0.482   4.488   0.314  0.1003 -0.2697  0.1631
 8042SOL    HW135759   0.394   4.502   0.280  0.5047 -0.8454 -1.0933
 8042SOL    HW235760   0.481   4.554   0.384  2.8096  1.6661 -1.6422
 8043SOL     OW35761   2.277   1.367   3.140  0.1074  0.4475  0.1962
 8043SOL    HW135762   2.227   1.444   3.167  1.3398  1.5690 -0.7208
 8043SOL    HW235763   2.283   1.314   3.219 -1.8722  0.6626  0.4778
 8044SOL     OW35764   2.740   1.728  16.314 -0.0027 -0.9552 -0.0120
 8044SOL    HW135765   2.793   1.802  16.344 -0.1400 -1.1295  0.6527
 8044SOL    HW235766   2.699   1.699  16.396 -1.1614  0.3827 -0.1274
 8045SOL     OW35767   2.957   1.472   4.564  0.5436 -0.0521  0.1179
 8045SOL    HW135768   2.917   1.515   4.489 -0.6774 -2.1640 -0.4349
 8045SOL    HW235769   2.882   1.448   4.617 -1.9237  3.5043 -1.7647
 8046SOL     OW35770   1.953   2.802  11.528 -0.1585  0.9394 -0.2499
 8046SOL    HW135771   1.896   2.770  11.598 -0.1004  0.1379 -0.5647
 8046SOL    HW235772   1.943   2.728  11.468  2.3799  1.3587 -1.1712
 8047SOL     OW35773   3.685   3.519   6.394 -0.1730 -0.4492  0.2836
 8047SOL    HW135774   3.715   3.585   6.332  1.5212 -1.4581  0.0253
 8047SOL    HW235775   3.762   3.512   6.450 -0.8058 -0.0698  1.1906
 8048SOL     OW35776   2.627   2.204  15.381  0.2178  0.7662  0.1139
 8048SOL    HW135777   2.544   2.156  15.373 -0.5243  1.7756  1.6169
 8048SOL    HW235778   2.676   2.132  15.421 -1.0526 -0.7213 -1.0380
 8049SOL     OW35779   1.833   4.290   5.814 -0.6888  0.3532  0.4798
 8049SOL    HW135780   1.802   4.288   5.904 -2.5013  2.2908 -0.1165
 8049SOL    HW235781   1.887   4.211   5.803  1.0229  1.6426 -0.4913
 8050SOL     OW35782   0.109   2.055  15.154 -0.1248 -0.1426  0.2499
 8050SOL    HW135783   0.086   1.969  15.189 -1.4214  0.5480  1.0968
 8050SOL    HW235784   0.024   2.087  15.124  0.0704 -0.1292 -0.2827
 8051SOL     OW35785   3.891   1.595  12.904  1.0956  0.1654  0.0100
 8051SOL    HW135786   3.953   1.549  12.961  0.7602  0.0815  0.3051
 8051SOL    HW235787   3.809   1.551  12.926  0.7973  1.0521  0.6794
 8052SOL     OW35788   0.484   2.797  13.256  0.0732  0.2869 -0.0860
 8052SOL    HW135789   0.506   2.872  13.312  0.3407  1.0356 -1.2030
 8052SOL    HW235790   0.389   2.795  13.264  0.1191 -1.9313  0.0909
 8053SOL     OW35791   2.862   1.326  15.361 -0.2939  0.2881  0.0907
 8053SOL    HW135792   2.787   1.279  15.327 -2.3499  2.4117  1.6981
 8053SOL    HW235793   2.928   1.263  15.330  1.1588  1.1055  1.4930
 8054SOL     OW35794   2.862   0.121   4.556 -0.1309 -0.3014  0.1484
 8054SOL    HW135795   2.847   0.033   4.589 -0.4508 -1.9328 -4.4316
 8054SOL    HW235796   2.881   0.100   4.465  1.4564  0.2394  0.3520
 8055SOL     OW35797   0.315   3.153   6.165 -0.2020  0.5185 -0.4200
 8055SOL    HW135798   0.396   3.121   6.204  0.6331  2.6417 -0.4447
 8055SOL    HW235799   0.315   3.248   6.178  0.1911  0.6694 -1.4904
 8056SOL     OW35800   1.112   1.579   5.000 -0.6704  0.1481 -0.6307
 8056SOL    HW135801   1.024   1.613   4.980 -0.5879 -0.6006 -2.2356
 8056SOL    HW235802   1.154   1.600   4.917 -0.9178 -1.2243 -1.0989
 8057SOL     OW35803   1.783   0.459   4.615 -0.0490  0.7148  0.2954
 8057SOL    HW135804   1.873   0.433   4.635 -0.3255 -0.7829 -0.4104
 8057SOL    HW235805   1.742   0.476   4.700  1.5280 -2.0298  1.5885
 8058SOL     OW35806   4.391   1.068   8.931 -0.0171  0.2851 -0.0440
 8058SOL    HW135807   4.341   1.018   8.996  0.6131 -1.7668 -1.1504
 8058SOL    HW235808   4.361   1.156   8.954 -1.4974 -0.3361  0.4256
 8059SOL     OW35809   3.833   1.131   0.672 -0.1094 -0.0672  0.1795
 8059SOL    HW135810   3.780   1.064   0.628  1.3348 -1.0540 -0.0341
 8059SOL    HW235811   3.884   1.075   0.731 -2.4412 -1.5960  0.7942
 8060SOL     OW35812   0.349   0.833   4.433 -0.8151  0.3007  0.0623
 8060SOL    HW135813   0.255   0.835   4.448 -1.0757  0.2692 -1.5175
 8060SOL    HW235814   0.353   0.851   4.339  1.6450  0.7032  0.2465
 8061SOL     OW35815   3.121   0.950   7.933 -0.3007 -0.6400  0.7772
 8061SOL    HW135816   3.102   1.030   7.982  1.1851 -0.2869  0.7759
 8061SOL    HW235817   3.189   0.918   7.992  1.1280  0.7747 -0.1162
 8062SOL     OW35818   2.976   4.673   3.046  0.5880  0.6404 -0.0298
 8062SOL    HW135819   2.923   4.719   3.111  1.2445  0.6930  0.4758
 8062SOL    HW235820   2.915   4.651   2.976  1.2647 -0.5000 -0.2599
 8063SOL     OW35821   3.530   3.735   1.644 -0.9397  0.2018  0.6455
 8063SOL    HW135822   3.620   3.761   1.626 -0.9034  0.6384  1.4445
 8063SOL    HW235823   3.547   3.663   1.705 -0.8303  1.2058  1.8137
 8064SOL     OW35824   0.622   2.052   2.901  0.2280  0.0638 -0.1657
 8064SOL    HW135825   0.643   2.031   2.992 -0.9205 -1.9395 -0.3500
 8064SOL    HW235826   0.552   2.116   2.915 -1.4660 -1.7858 -0.0962
 8065SOL     OW35827   4.605   2.057   7.512 -0.4313 -0.1096 -0.0780
 8065SOL    HW135828   4.557   2.018   7.439 -0.2772 -1.4046  0.5096
 8065SOL    HW235829   4.539   2.081   7.577 -3.1203 -0.6640 -2.6354
 8066SOL     OW35830   1.335   2.024   4.442 -0.2721 -0.1785 -0.3157
 8066SOL    HW135831   1.379   2.107   4.462  1.6610 -0.8664 -1.6956
 8066SOL    HW235832   1.296   1.999   4.526  0.2653  1.5736  0.4543
 8067SOL     OW35833   0.589   3.837   8.665 -0.2741  0.1695  0.4958
 8067SOL    HW135834   0.620   3.887   8.740 -0.0606  0.2583  0.3457
 8067SOL    HW235835   0.532   3.771   8.704  0.6596 -0.3987  0.9000
 8068SOL     OW35836   2.952   2.539   3.579  0.1387 -0.2524  0.3267
 8068SOL    HW135837   2.958   2.460   3.525  0.6572  0.8459 -1.2411
 8068SOL    HW235838   3.036   2.567   3.614  0.0208  0.5149  0.0089
 8069SOL     OW35839   3.016   4.137   8.018 -0.8083 -0.4704  0.1722
 8069SOL    HW135840   2.945   4.099   8.069 -0.5524  0.7680  1.4631
 8069SOL    HW235841   3.029   4.062   7.960  1.7646 -0.4266  0.6800
 8070SOL     OW35842   1.021   3.907   0.893  0.2374 -0.5318  0.6315
 8070SOL    HW135843   1.047   3.998   0.907  1.5522 -1.2035  2.6659
 8070SOL    HW235844   1.044   3.860   0.973 -0.9748  0.9880  1.8625
 8071SOL     OW35845   4.605   2.212  15.079 -0.7088 -0.4709  0.2185
 8071SOL    HW135846   4.535   2.226  15.015 -0.5894  1.3771  0.4738
 8071SOL    HW235847   4.634   2.303  15.066 -1.1650 -0.4071 -0.3488
 8072SOL     OW35848   2.955   4.597   6.186  0.1889 -0.4352  0.0879
 8072SOL    HW135849   3.002   4.572   6.106 -1.0322 -2.3850 -0.0183
 8072SOL    HW235850   3.000   4.548   6.255  0.1419  1.7752  1.6832
 8073SOL     OW35851   0.130   2.200   6.695 -0.1199  0.2567 -0.2553
 8073SOL    HW135852   0.217   2.170   6.668  0.3598 -1.5802  3.3755
 8073SOL    HW235853   0.134   2.295   6.686  1.7069  0.0773 -1.2953
 8074SOL     OW35854   3.881   1.591   7.650  0.2818 -0.1452 -0.0798
 8074SOL    HW135855   3.852   1.623   7.565 -3.8966 -0.3616  1.2628
 8074SOL    HW235856   3.797   1.576   7.693 -0.9194  1.9724 -1.7513
 8075SOL     OW35857   2.134   0.935   1.453 -0.2846 -0.7223  0.2330
 8075SOL    HW135858   2.060   0.949   1.393  0.3416 -0.6188 -0.5144
 8075SOL    HW235859   2.118   1.012   1.507  2.5314  0.8420 -1.1669
 8076SOL     OW35860   1.984   3.786   3.307 -0.2558  0.3324 -0.5952
 8076SOL    HW135861   1.895   3.759   3.283 -1.3211  0.7964  2.9039
 8076SOL    HW235862   2.002   3.728   3.380 -3.8767  0.1672  0.1935
 8077SOL     OW35863   0.565   3.635   3.874 -0.1663  0.1814  0.1069
 8077SOL    HW135864   0.625   3.698   3.915  0.3145 -0.2852  0.1213
 8077SOL    HW235865   0.532   3.681   3.797 -0.0942  0.1277  0.0453
 8078SOL     OW35866   0.125   3.426  12.758 -0.0705 -0.4676 -0.0190
 8078SOL    HW135867   0.207   3.475  12.760  0.3545 -1.1356 -1.6747
 8078SOL    HW235868   0.101   3.431  12.851 -0.0537 -1.4105  0.0320
 8079SOL     OW35869   2.257   0.698   7.563 -0.2120 -0.2656 -0.3664
 8079SOL    HW135870   2.178   0.653   7.533  0.3228 -1.5470  0.1095
 8079SOL    HW235871   2.305   0.703   7.480  1.7066 -1.2671  0.6654
 8080SOL     OW35872   4.632   3.741   4.123  0.2426 -0.1298  0.0709
 8080SOL    HW135873   4.551   3.777   4.087  0.2581  0.7151  0.8768
 8080SOL    HW235874   4.601   3.667   4.176 -0.4966  1.4300  1.8460
 8081SOL     OW35875   0.940   4.728   2.704  0.1823 -0.2775  0.0813
 8081SOL    HW135876   0.893   4.697   2.781  1.7364  1.8124  1.8769
 8081SOL    HW235877   0.868   0.017   2.649 -0.7167 -0.9259  0.9088
 8082SOL     OW35878   2.853   3.324  14.564  0.4125  0.1788 -0.0659
 8082SOL    HW135879   2.916   3.283  14.624  1.1389  0.7714 -0.4221
 8082SOL    HW235880   2.890   3.411  14.548 -1.1276  0.8030 -0.2403
 8083SOL     OW35881   0.715   1.920   8.694  0.2518 -0.3966  0.2276
 8083SOL    HW135882   0.750   1.833   8.712 -1.0464 -0.8622  0.4628
 8083SOL    HW235883   0.785   1.971   8.652 -1.4414  3.4891  2.1620
 8084SOL     OW35884   0.286   0.474   2.415 -0.8200 -0.0376 -0.1280
 8084SOL    HW135885   0.267   0.517   2.331 -0.3654  1.0291  0.3132
 8084SOL    HW235886   0.364   0.421   2.395  0.5650  1.0659  2.3692
 8085SOL     OW35887   3.559   2.211   2.724 -0.1610  0.2326  0.1540
 8085SOL    HW135888   3.533   2.170   2.641 -0.8537  0.0008  0.4848
 8085SOL    HW235889   3.576   2.131   2.775 -2.2146 -1.0945 -1.2302
 8086SOL     OW35890   2.764   4.667   8.346 -0.0323 -0.0349 -0.2192
 8086SOL    HW135891   2.849   4.712   8.345  0.8779 -1.7316  2.5931
 8086SOL    HW235892   2.782   4.610   8.271  0.6044 -0.2579  0.1105
 8087SOL     OW35893   3.874   1.339   6.756  0.3400 -0.0968  0.1892
 8087SOL    HW135894   3.850   1.256   6.714 -0.3712 -1.5052  3.4132
 8087SOL    HW235895   3.918   1.389   6.688  0.7659  2.1339  2.1058
 8088SOL     OW35896   3.686   0.939   0.000  0.2385 -0.1691  0.4164
 8088SOL    HW135897   3.634   0.862  17.737  0.3555  0.4885 -1.9952
 8088SOL    HW235898   3.761   0.924  17.703 -0.2066  1.9267 -0.7002
 8089SOL     OW35899   4.032   1.200   5.592  0.1137  0.4214  0.0591
 8089SOL    HW135900   4.087   1.278   5.585 -1.2640  1.4466  0.7154
 8089SOL    HW235901   4.102   1.134   5.592 -0.2072  0.0933  0.8732
 8090SOL     OW35902   4.060   4.012   2.230  0.0007  0.0245  0.2500
 8090SOL    HW135903   3.999   4.081   2.206  1.7269  1.4901  0.1062
 8090SOL    HW235904   4.112   4.004   2.150 -0.8087  0.0035 -0.2657
 8091SOL     OW35905   0.036   3.384   1.542  0.4862 -0.3143  0.7592
 8091SOL    HW135906   4.712   3.429   1.489  0.8169 -0.3075  0.3635
 8091SOL    HW235907   0.014   3.407   1.632  1.4377  2.6004  0.2631
 8092SOL     OW35908   4.582   2.965   2.733  0.1462 -0.0349 -0.4785
 8092SOL    HW135909   4.619   3.021   2.802  1.3981 -0.6484 -0.6638
 8092SOL    HW235910   4.601   3.012   2.652 -0.7840  0.5597 -0.3531
 8093SOL     OW35911   1.368   1.508  15.242 -0.0950 -0.4565  0.5786
 8093SOL    HW135912   1.424   1.435  15.216  0.6949  0.7196 -1.0435
 8093SOL    HW235913   1.351   1.571  15.171  0.6319  0.7692  1.4886
 8094SOL     OW35914   0.348   1.540   6.037  0.1737 -0.5637 -0.1927
 8094SOL    HW135915   0.361   1.474   6.106  1.7234 -0.5208 -0.4504
 8094SOL    HW235916   0.318   1.614   6.089 -2.2820 -1.9853  0.4289
 8095SOL     OW35917   0.434   3.357   5.107 -0.0453  0.4284  0.6472
 8095SOL    HW135918   0.404   3.353   5.016 -2.6816 -1.6370  1.5899
 8095SOL    HW235919   0.367   3.416   5.141 -0.4027  0.4191 -0.0421
 8096SOL     OW35920   1.032   2.701   5.168  0.2477  0.5859  0.0877
 8096SOL    HW135921   0.985   2.687   5.251  0.2311 -4.3347 -0.7153
 8096SOL    HW235922   1.118   2.678   5.204 -1.5722 -1.2668  3.2632
 8097SOL     OW35923   3.891   2.581  11.133 -0.4067 -0.6897 -0.2369
 8097SOL    HW135924   3.847   2.497  11.122 -2.6681  0.1469  2.4837
 8097SOL    HW235925   3.984   2.559  11.127 -0.3947 -0.8046  0.3380
 8098SOL     OW35926   3.336   1.724   8.743 -0.0831  0.2272  0.3787
 8098SOL    HW135927   3.392   1.754   8.672 -1.9300  0.4066 -1.0042
 8098SOL    HW235928   3.397   1.742   8.814  1.6264 -1.1787 -0.7332
 8099SOL     OW35929   4.380   3.790   3.041  0.1935  0.1068  0.0800
 8099SOL    HW135930   4.306   3.764   2.986  1.0357  1.2091 -1.5577
 8099SOL    HW235931   4.413   3.868   2.996  0.5352 -0.0531  0.0489
 8100SOL     OW35932   2.906   4.644  11.846  0.0454  0.5760  0.7984
 8100SOL    HW135933   2.922   4.562  11.799  0.6533 -0.0594  2.1255
 8100SOL    HW235934   2.933   4.622  11.935  2.8185 -3.5876 -1.0403
 8101SOL     OW35935   0.119   4.673   3.888  0.5448 -0.5552 -0.1820
 8101SOL    HW135936   0.198   4.643   3.842  0.5413 -1.2429  0.2631
 8101SOL    HW235937   0.163   4.697   3.970  0.8576 -1.3404 -0.1175
 8102SOL     OW35938   4.408   1.120   4.816  0.1324 -0.5072 -0.6280
 8102SOL    HW135939   4.406   1.193   4.877  0.7866  1.3946 -2.8542
 8102SOL    HW235940   4.480   1.064   4.846 -0.3039  0.9481  3.0539
 8103SOL     OW35941   0.397   2.154   8.147 -0.1375  0.5009 -0.3945
 8103SOL    HW135942   0.357   2.123   8.066 -0.1883  0.3064 -0.2941
 8103SOL    HW235943   0.486   2.141   8.116 -0.1670  0.7352 -0.5794
 8104SOL     OW35944   3.981   1.601   4.726 -0.4954  0.4842 -0.4337
 8104SOL    HW135945   3.961   1.507   4.725 -1.1182  0.6280 -1.2235
 8104SOL    HW235946   3.956   1.637   4.641 -0.1275 -0.3683 -0.9111
 8105SOL     OW35947   2.001   3.031   6.654  0.0908  0.1982  0.1537
 8105SOL    HW135948   2.077   3.002   6.603 -0.1319 -0.2828  0.0918
 8105SOL    HW235949   2.008   2.969   6.727 -0.1522 -0.2864 -0.2352
 8106SOL     OW35950   3.206   0.833   1.936  0.6350  0.5731  0.3163
 8106SOL    HW135951   3.213   0.882   1.854  0.1868  1.5520  0.8713
 8106SOL    HW235952   3.283   0.866   1.982  1.5186  1.3913 -1.7237
 8107SOL     OW35953   3.949   4.553   9.581 -0.0774  0.4424 -0.0406
 8107SOL    HW135954   3.990   4.468   9.596  1.5902  1.8990  3.6294
 8107SOL    HW235955   3.989   4.593   9.658 -0.4528  1.2744 -0.2804
 8108SOL     OW35956   0.034   4.667   1.256 -0.0315 -0.3702 -0.5379
 8108SOL    HW135957   0.063   0.002   1.306  2.6854 -1.5061 -0.3650
 8108SOL    HW235958   0.086   4.697   1.181 -1.4981  0.2590 -1.2946
 8109SOL     OW35959   1.284   0.149   2.128 -0.4234  0.0987 -0.4504
 8109SOL    HW135960   1.239   0.230   2.105  1.2460  1.6918  1.8606
 8109SOL    HW235961   1.278   0.158   2.224  1.4709 -2.9918 -0.0333
 8110SOL     OW35962   3.229   1.667  13.674  0.3189 -0.3851  0.3292
 8110SOL    HW135963   3.216   1.585  13.627 -0.3662 -0.9032  1.4204
 8110SOL    HW235964   3.262   1.727  13.607 -2.5719  0.4106 -0.3892
 8111SOL     OW35965   3.757   2.853   8.183  0.6467 -0.4378  0.1176
 8111SOL    HW135966   3.708   2.803   8.248 -1.1598 -1.6100 -2.1507
 8111SOL    HW235967   3.825   2.900   8.232  1.9771 -1.3148 -0.9003
 8112SOL     OW35968   3.139   1.364   0.342 -0.1345  0.1620  0.2203
 8112SOL    HW135969   3.179   1.277   0.344  1.6914  0.9657 -1.6693
 8112SOL    HW235970   3.190   1.421   0.399  0.2929 -0.7573  0.7562
 8113SOL     OW35971   2.718   2.738   1.800 -0.4146  0.4541 -0.4174
 8113SOL    HW135972   2.633   2.730   1.844  0.5635 -1.2954  1.1128
 8113SOL    HW235973   2.684   2.729   1.711 -0.1738  0.0823 -0.4676
 8114SOL     OW35974   0.788   1.041   1.805 -0.0355  0.0303 -0.2521
 8114SOL    HW135975   0.757   1.103   1.739 -0.8692 -0.2608 -0.1356
 8114SOL    HW235976   0.707   0.992   1.818 -0.6587  2.1087  3.3608
 8115SOL     OW35977   0.535   1.639   5.512  0.5229 -0.6807 -0.2495
 8115SOL    HW135978   0.496   1.613   5.596  0.1677 -1.2666 -0.5868
 8115SOL    HW235979   0.581   1.716   5.544 -0.0269  0.0100 -1.1131
 8116SOL     OW35980   1.941   0.520   9.615  0.2796 -0.7582  0.5293
 8116SOL    HW135981   1.980   0.435   9.637  1.0131 -0.2878  1.0200
 8116SOL    HW235982   1.852   0.492   9.594  0.4399 -0.7864 -0.1293
 8117SOL     OW35983   3.230   0.725  17.729 -0.0163  0.2356 -0.0741
 8117SOL    HW135984   3.244   0.792   0.035  0.1627  0.8572 -0.7521
 8117SOL    HW235985   3.275   0.647   0.001  2.6726  1.9784  0.3787
 8118SOL     OW35986   3.385   2.167   5.672  0.0427  0.3833 -0.0460
 8118SOL    HW135987   3.409   2.174   5.764  0.4535  2.5729 -0.3073
 8118SOL    HW235988   3.467   2.137   5.633 -1.6114 -0.9459 -2.4649
 8119SOL     OW35989   2.967   1.760   8.127  0.1493  0.0304 -0.2365
 8119SOL    HW135990   2.886   1.738   8.081 -0.4610  0.5469  0.5983
 8119SOL    HW235991   2.943   1.848   8.157  1.4234  0.3407 -0.1139
 8120SOL     OW35992   0.688   1.034   8.741  0.1563 -0.3430  0.1829
 8120SOL    HW135993   0.608   0.984   8.755 -1.4606  1.6297 -2.0844
 8120SOL    HW235994   0.743   0.976   8.689  0.2305  0.4391 -0.6045
 8121SOL     OW35995   2.176   3.989   8.401  0.0011 -0.6549  0.1808
 8121SOL    HW135996   2.263   3.981   8.440 -0.5192 -0.0310  1.4913
 8121SOL    HW235997   2.154   3.895   8.402 -0.5334 -0.5408 -0.5467
 8122SOL     OW35998   2.729   4.116   5.588  0.1007 -0.3346 -0.1964
 8122SOL    HW135999   2.824   4.124   5.598  0.1800 -0.2671 -1.0142
 8122SOL    HW236000   2.697   4.142   5.674  0.2230 -0.1288 -0.2125
 8123SOL     OW36001   3.779   2.353  11.885  0.5314 -0.1259  0.1587
 8123SOL    HW136002   3.874   2.341  11.880  0.5981  0.7699 -0.5489
 8123SOL    HW236003   3.768   2.406  11.964  2.2502 -0.5369  0.6694
 8124SOL     OW36004   2.097   1.873   6.501  0.1133 -0.1072 -0.6094
 8124SOL    HW136005   2.094   1.779   6.513  0.7269 -0.2524 -1.6494
 8124SOL    HW236006   2.136   1.878   6.414 -0.8337 -1.9075 -1.1177
 8125SOL     OW36007   0.412   3.448   3.723  0.1628 -0.2969 -0.0252
 8125SOL    HW136008   0.456   3.512   3.779  0.5054 -0.1252 -0.4879
 8125SOL    HW236009   0.322   3.462   3.750 -0.0496  0.8947 -1.3339
 8126SOL     OW36010   2.521   3.077  14.549 -0.0838 -0.0121  0.0772
 8126SOL    HW136011   2.613   3.056  14.560 -0.5029  0.7341  5.1043
 8126SOL    HW236012   2.488   2.996  14.509  0.9152  0.2213 -1.1885
 8127SOL     OW36013   0.648   3.022  12.911 -0.1050  0.2710 -0.7928
 8127SOL    HW136014   0.601   2.986  12.836 -4.0564  2.9212  0.4183
 8127SOL    HW236015   0.596   3.102  12.915  1.7063  1.3308  1.5832
 8128SOL     OW36016   3.163   3.922  13.976 -0.1449  0.4021  0.2136
 8128SOL    HW136017   3.231   3.947  14.039 -0.2492 -2.5837  1.5065
 8128SOL    HW236018   3.083   3.927  14.029  0.2406  0.4092  0.7919
 8129SOL     OW36019   1.265   0.085   4.204  0.1590 -0.2589  0.4435
 8129SOL    HW136020   1.280   0.099   4.110  0.6415 -2.5125  0.1841
 8129SOL    HW236021   1.209   0.007   4.207 -0.4138  0.2367  2.4381
 8130SOL     OW36022   1.079   1.154  10.807 -0.3525  0.0250 -0.1151
 8130SOL    HW136023   0.999   1.103  10.816 -0.1538  0.0675  2.0805
 8130SOL    HW236024   1.049   1.226  10.751 -1.7390 -0.2278  0.3031
 8131SOL     OW36025   2.362   0.213   1.654 -0.6974  0.2473  0.5745
 8131SOL    HW136026   2.374   0.157   1.731  2.1064  2.1731  1.5466
 8131SOL    HW236027   2.273   0.250   1.654 -0.0239  1.9016  2.7921
 8132SOL     OW36028   0.434   4.604   2.883  0.3825  0.1587 -0.1006
 8132SOL    HW136029   0.484   4.620   2.803 -1.5761 -0.9857 -1.5567
 8132SOL    HW236030   0.502   4.624   2.948 -0.4472 -0.2759  0.9056
 8133SOL     OW36031   2.592   4.607   4.374 -0.2384 -0.4804  0.0541
 8133SOL    HW136032   2.551   4.680   4.420 -0.5745 -0.9665  0.5109
 8133SOL    HW236033   2.562   4.615   4.283  1.5131 -0.1696 -0.5063
 8134SOL     OW36034   3.426   4.363   3.908  0.0174 -0.4448 -0.3682
 8134SOL    HW136035   3.386   4.283   3.872 -0.9372  0.8741 -2.2444
 8134SOL    HW236036   3.353   4.424   3.913  1.7551  1.8830 -2.9465
 8135SOL     OW36037   3.496   3.554  17.444 -0.6790  0.1623 -0.1849
 8135SOL    HW136038   3.524   3.533  17.533  0.1478  0.1172 -0.4495
 8135SOL    HW236039   3.543   3.637  17.434 -1.1197  0.7991  2.9714
 8136SOL     OW36040   0.534   0.266   7.350 -0.2688  0.1179 -0.0383
 8136SOL    HW136041   0.557   0.230   7.436  0.0269 -0.5273 -0.3933
 8136SOL    HW236042   0.624   0.285   7.322 -0.9771 -0.3088 -2.5578
 8137SOL     OW36043   0.753   1.597  15.418 -0.3878  0.3984 -0.5883
 8137SOL    HW136044   0.806   1.521  15.441  0.7198  1.5512  0.7047
 8137SOL    HW236045   0.768   1.616  15.326  2.0071 -1.2426 -0.5292
 8138SOL     OW36046   2.824   4.266   5.122  0.0281 -0.3109  0.0809
 8138SOL    HW136047   2.834   4.329   5.051  0.4135 -0.1939  0.2420
 8138SOL    HW236048   2.797   4.184   5.082 -1.2609  0.8556 -1.4484
 8139SOL     OW36049   2.130   4.659   2.083  0.5759  0.3690 -0.3418
 8139SOL    HW136050   2.116   4.570   2.051  0.2698  0.5909 -0.8159
 8139SOL    HW236051   2.161   4.638   2.172 -1.0332  0.5237  0.2644
 8140SOL     OW36052   3.834   0.130   2.601 -0.0001  0.3253  0.2434
 8140SOL    HW136053   3.812   0.037   2.603  1.0845  0.0573 -0.4136
 8140SOL    HW236054   3.746   0.158   2.625  0.3006  1.0052  0.5564
 8141SOL     OW36055   2.516   1.199   7.356  0.6872  0.0389  0.0758
 8141SOL    HW136056   2.458   1.237   7.289  0.3023 -0.5208  0.0894
 8141SOL    HW236057   2.601   1.228   7.324 -0.0434 -0.5950 -2.4596
 8142SOL     OW36058   4.517   3.485   6.837  0.2145  0.3961  0.2397
 8142SOL    HW136059   4.438   3.472   6.785  1.0230  0.2895 -0.9540
 8142SOL    HW236060   4.492   3.425   6.908  1.5095  2.0355  2.1073
 8143SOL     OW36061   0.787   0.109   8.288  0.0958  0.4265  0.4464
 8143SOL    HW136062   0.765   0.111   8.381 -1.9264 -0.1074 -0.0058
 8143SOL    HW236063   0.882   0.118   8.281  0.1625 -0.8609 -0.4168
 8144SOL     OW36064   0.298   2.376   3.526 -0.1658 -0.4656  0.1138
 8144SOL    HW136065   0.390   2.401   3.514 -0.4779 -0.5563 -2.5053
 8144SOL    HW236066   0.297   2.280   3.530  0.2499 -0.5245 -1.2803
 8145SOL     OW36067   0.780   0.143   9.261  0.2012  0.2775 -0.0218
 8145SOL    HW136068   0.754   0.226   9.299 -0.3546 -0.4577  1.2186
 8145SOL    HW236069   0.861   0.118   9.306  0.4594  0.1693 -0.5484
 8146SOL     OW36070   0.515   1.969   9.766 -0.3390  0.3099 -0.1661
 8146SOL    HW136071   0.469   1.953   9.848 -0.6349 -1.3802 -0.6467
 8146SOL    HW236072   0.536   1.882   9.732  0.2771  1.4034 -2.5979
 8147SOL     OW36073   0.822   0.968  11.104 -0.1987  0.4966 -0.3937
 8147SOL    HW136074   0.855   0.898  11.160 -0.5758  1.0370  0.4987
 8147SOL    HW236075   0.806   1.039  11.166  2.8030  0.4999  0.3558
 8148SOL     OW36076   2.743   1.456   2.914 -0.0160  0.2432 -0.3507
 8148SOL    HW136077   2.656   1.456   2.874 -1.3108 -0.8163  2.4882
 8148SOL    HW236078   2.756   1.545   2.949 -0.5879  0.8545 -1.6974
 8149SOL     OW36079   1.827   3.169   9.444 -0.4641  0.0710 -0.0454
 8149SOL    HW136080   1.745   3.214   9.422 -0.1305  0.1264 -1.1804
 8149SOL    HW236081   1.857   3.228   9.513  0.7991  0.3414 -0.8377
 8150SOL     OW36082   0.022   4.529   8.083 -0.4559 -0.0394  0.1032
 8150SOL    HW136083   0.093   4.583   8.049  0.2576 -3.0242 -3.1554
 8150SOL    HW236084   4.705   4.594   8.122 -1.5703 -0.6095 -0.5884
 8151SOL     OW36085   2.796   0.209   4.027  0.2746 -0.0663  0.3619
 8151SOL    HW136086   2.882   0.241   3.999 -0.4999  1.5614 -0.1139
 8151SOL    HW236087   2.804   0.118   3.996  4.5451  0.8564 -1.2594
 8152SOL     OW36088   2.137   1.158   3.942  0.0134 -0.1727 -0.1153
 8152SOL    HW136089   2.207   1.222   3.941  1.1940 -1.4568  0.5245
 8152SOL    HW236090   2.061   1.213   3.961  1.1154  1.3049 -0.0620
 8153SOL     OW36091   2.039   4.440  16.771 -0.5102  0.1185  0.2575
 8153SOL    HW136092   1.985   4.477  16.841 -1.0619 -0.6758  0.2454
 8153SOL    HW236093   2.051   4.351  16.803  1.0590  1.1784  2.6378
 8154SOL     OW36094   2.398   2.110   4.770 -0.1431  0.8721 -0.8403
 8154SOL    HW136095   2.489   2.138   4.760 -0.1519  1.0613 -0.3383
 8154SOL    HW236096   2.399   2.036   4.831  1.3334  0.4566 -1.3634
 8155SOL     OW36097   2.826   1.867   8.536  0.0671  0.1723 -0.0283
 8155SOL    HW136098   2.789   1.917   8.609 -1.9665 -0.2667 -0.7579
 8155SOL    HW236099   2.918   1.857   8.559 -0.3336 -1.6397  0.7479
 8156SOL     OW36100   3.837   4.479   6.180 -0.5375  0.2188 -0.5662
 8156SOL    HW136101   3.865   4.558   6.226  2.6419 -2.0130  1.2780
 8156SOL    HW236102   3.781   4.512   6.109 -1.1284 -2.1572 -1.2212
 8157SOL     OW36103   4.198   4.355   2.276  0.5280  0.3130 -0.6050
 8157SOL    HW136104   4.200   4.353   2.180 -0.4105 -1.3248 -0.5915
 8157SOL    HW236105   4.217   4.266   2.307 -2.4443 -0.7032 -1.6092
 8158SOL     OW36106   0.345   1.077   2.381 -0.3081  0.3691 -0.1168
 8158SOL    HW136107   0.255   1.045   2.376  0.7183 -2.5158 -0.1458
 8158SOL    HW236108   0.329   1.162   2.339  0.3742  0.0270 -1.0585
 8159SOL     OW36109   3.214   3.586   4.267 -0.0279  0.1418  0.7953
 8159SOL    HW136110   3.292   3.632   4.235 -1.3731  0.5743 -1.8744
 8159SOL    HW236111   3.137   3.626   4.225 -0.6356 -0.2334  1.5563
 8160SOL     OW36112   2.970   2.395   2.080 -0.7197  0.1885  0.1885
 8160SOL    HW136113   2.940   2.321   2.026  0.1586  0.8542 -1.1875
 8160SOL    HW236114   2.973   2.467   2.017 -0.0671  0.8796  1.0216
 8161SOL     OW36115   1.505   3.614   1.562  0.5533 -0.1951 -0.3412
 8161SOL    HW136116   1.523   3.675   1.634  0.9878 -0.0083 -0.6063
 8161SOL    HW236117   1.570   3.544   1.574 -0.8816 -1.0324  2.5344
 8162SOL     OW36118   0.944   2.639   9.832  0.2161 -0.2862 -0.6597
 8162SOL    HW136119   0.852   2.641   9.804 -0.8953 -0.4404  3.0368
 8162SOL    HW236120   0.988   2.690   9.764 -0.5486  0.3927 -0.6436
 8163SOL     OW36121   4.661   2.288   1.938  0.3630  0.4718 -0.1066
 8163SOL    HW136122   4.587   2.228   1.945  1.3687 -0.9357 -1.7898
 8163SOL    HW236123   4.625   2.366   1.982  0.2041 -0.5701  1.6352
 8164SOL     OW36124   4.373   3.396   9.109 -0.7279 -0.0321  0.1161
 8164SOL    HW136125   4.446   3.435   9.157  1.2895 -1.7594 -1.5445
 8164SOL    HW236126   4.323   3.362   9.183  0.9785 -1.9053  0.4322
 8165SOL     OW36127   0.521   1.223   5.807 -0.0243 -0.0232 -0.0981
 8165SOL    HW136128   0.490   1.198   5.894  0.9633  0.7898  0.4911
 8165SOL    HW236129   0.459   1.174   5.753  0.1927  2.8879 -2.9764
 8166SOL     OW36130   2.156   3.211  17.265  0.2710  0.0426 -0.1708
 8166SOL    HW136131   2.185   3.144  17.327 -2.6861 -1.0511  0.0412
 8166SOL    HW236132   2.196   3.166  17.190  2.8457 -0.6207  1.5923
 8167SOL     OW36133   0.218   0.668   4.875 -0.2374 -0.3216 -0.0084
 8167SOL    HW136134   0.161   0.599   4.839 -0.9051 -0.6248  1.6178
 8167SOL    HW236135   0.255   0.635   4.958  1.0253 -1.2438 -0.9362
 8168SOL     OW36136   2.734   4.227   5.859  0.1380 -0.0342  0.1393
 8168SOL    HW136137   2.785   4.186   5.929 -1.3172  0.3299  1.4162
 8168SOL    HW236138   2.686   4.292   5.911  1.1253  0.8967 -0.1121
 8169SOL     OW36139   0.071   3.182   1.887 -0.3123 -0.4391  0.0119
 8169SOL    HW136140   0.070   3.099   1.839 -0.1434  0.7734 -2.1165
 8169SOL    HW236141   0.115   3.153   1.966 -0.0824 -0.2065 -0.0332
 8170SOL     OW36142   3.296   1.145   0.390  0.1499  0.3960  0.1750
 8170SOL    HW136143   3.313   1.155   0.484 -2.6398 -1.0167  0.8073
 8170SOL    HW236144   3.385   1.134   0.355  0.6543  0.7690  1.3095
 8171SOL     OW36145   4.450   3.075   7.272 -0.3885  0.1696 -0.7907
 8171SOL    HW136146   4.375   3.120   7.234 -2.0764 -1.1182  1.0231
 8171SOL    HW236147   4.515   3.143   7.290 -0.0961 -0.2326 -0.3400
 8172SOL     OW36148   1.443   3.863   5.725  0.2238 -0.3595  0.5826
 8172SOL    HW136149   1.446   3.943   5.674  1.3779  0.7508  2.3960
 8172SOL    HW236150   1.516   3.813   5.686  1.3455  1.8088 -0.1182
 8173SOL     OW36151   4.198   0.141   5.029  0.0553  0.1191  0.2481
 8173SOL    HW136152   4.127   0.119   4.969  0.4405 -0.0533 -0.1457
 8173SOL    HW236153   4.148   0.197   5.089  0.7528 -0.1799  1.1127
 8174SOL     OW36154   1.769   3.687   3.674 -0.1278  0.0161  0.7397
 8174SOL    HW136155   1.692   3.690   3.617  0.4493  0.4653 -0.0321
 8174SOL    HW236156   1.743   3.625   3.741 -2.6694  0.5736  0.2634
 8175SOL     OW36157   3.557   1.415   3.354  0.1663 -0.0785 -0.6160
 8175SOL    HW136158   3.514   1.500   3.348  2.6558  1.0568 -2.5850
 8175SOL    HW236159   3.599   1.427   3.439 -0.2639  0.7710 -0.5211
 8176SOL     OW36160   0.088   1.252   7.115 -0.0731  0.0928 -0.3291
 8176SOL    HW136161   0.071   1.231   7.023 -1.5586 -2.3273  0.4850
 8176SOL    HW236162   0.136   1.334   7.114 -1.4655  0.9022 -1.9882
 8177SOL     OW36163   3.517   1.687   4.166  0.3020 -0.3807  0.5115
 8177SOL    HW136164   3.561   1.634   4.100  0.8350  1.0195 -0.2609
 8177SOL    HW236165   3.460   1.616   4.194  1.0792 -1.7098 -1.2500
 8178SOL     OW36166   3.731   2.015   3.041  0.2657  0.4959 -0.2799
 8178SOL    HW136167   3.753   2.107   3.028 -0.8811  0.6352 -1.1371
 8178SOL    HW236168   3.721   2.012   3.137  1.3087 -0.1921 -0.1876
 8179SOL     OW36169   4.668   4.350   6.955  0.0502  0.1156 -0.3811
 8179SOL    HW136170   4.696   4.401   6.879 -1.0832 -2.7234 -2.6917
 8179SOL    HW236171   4.719   4.379   7.030 -0.5742 -1.0964  0.5242
 8180SOL     OW36172   3.125   1.390   4.137 -0.2433 -0.3764  0.3405
 8180SOL    HW136173   3.203   1.336   4.147 -1.1602 -1.7657 -0.1090
 8180SOL    HW236174   3.157   1.477   4.163 -0.0772 -1.5993  4.2113
 8181SOL     OW36175   0.415   0.523  12.459 -0.3338 -0.3927 -0.6151
 8181SOL    HW136176   0.352   0.553  12.525 -0.9815 -0.1859 -1.3264
 8181SOL    HW236177   0.487   0.535  12.522 -0.3327  1.9749 -1.0513
 8182SOL     OW36178   3.012   2.887  14.549 -0.0075 -0.1711  0.0270
 8182SOL    HW136179   3.051   2.954  14.605  0.6493  0.6798 -1.4281
 8182SOL    HW236180   3.086   2.861  14.493  0.5315 -1.5934  1.4345
 8183SOL     OW36181   3.795   0.325   2.409 -0.0247 -0.3973 -0.2869
 8183SOL    HW136182   3.760   0.408   2.440  1.4073  0.3108 -0.5620
 8183SOL    HW236183   3.816   0.274   2.488  1.7491 -1.7425 -1.6278
 8184SOL     OW36184   1.919   1.131   4.825 -0.2465  0.0548  0.3217
 8184SOL    HW136185   1.870   1.057   4.861 -1.5904  0.7955  0.0443
 8184SOL    HW236186   1.906   1.204   4.887  0.5809 -0.4848  1.1283
 8185SOL     OW36187   2.770   1.707   1.567  0.1585 -0.3661 -0.0248
 8185SOL    HW136188   2.710   1.771   1.606  0.7199  0.9462 -1.3049
 8185SOL    HW236189   2.842   1.708   1.630  0.5719  1.3115 -0.5050
 8186SOL     OW36190   4.543   3.851  13.620 -0.0428  0.2671 -0.0433
 8186SOL    HW136191   4.515   3.923  13.565  0.5708  0.7341  0.2557
 8186SOL    HW236192   4.639   3.858  13.614  0.2800 -2.7018  1.5620
 8187SOL     OW36193   2.835   1.607   4.381 -0.7093 -0.0286 -0.1826
 8187SOL    HW136194   2.863   1.648   4.299 -0.6517 -3.0806 -1.6793
 8187SOL    HW236195   2.861   1.665   4.452  1.6272  0.1622 -1.2031
 8188SOL     OW36196   1.912   3.905   6.292 -0.6306  0.3890  0.6022
 8188SOL    HW136197   1.863   3.838   6.339 -0.7055 -1.0857 -1.5666
 8188SOL    HW236198   1.869   3.985   6.321 -1.0341  0.1113  0.7659
 8189SOL     OW36199   3.242   2.752   3.281 -0.5001  0.1422  0.0055
 8189SOL    HW136200   3.333   2.740   3.257 -0.7493  0.6730 -1.2149
 8189SOL    HW236201   3.231   2.700   3.361  2.1212  0.0339  0.2994
 8190SOL     OW36202   2.128   3.712   8.345  0.3356  0.2523  0.2260
 8190SOL    HW136203   2.173   3.677   8.268 -1.3693 -0.7834 -0.2759
 8190SOL    HW236204   2.090   3.636   8.388  0.7378 -1.6359 -2.7793
 8191SOL     OW36205   1.138   4.261  11.969 -0.3643  0.2986  0.1302
 8191SOL    HW136206   1.089   4.185  12.002 -0.9625 -0.2891 -2.1134
 8191SOL    HW236207   1.096   4.270  11.884  0.2496 -1.9400 -0.4154
 8192SOL     OW36208   0.134   1.038  15.519  0.2820  0.1489 -0.6350
 8192SOL    HW136209   0.208   1.097  15.507  0.6723 -0.0948  0.5422
 8192SOL    HW236210   0.162   0.962  15.468  2.8390 -0.0601  1.0704
 8193SOL     OW36211   1.811   1.613   8.673  0.0802  0.1742  0.2225
 8193SOL    HW136212   1.840   1.602   8.763  0.3904 -0.5774  0.0278
 8193SOL    HW236213   1.820   1.708   8.665  0.2979  0.3391  2.5641
 8194SOL     OW36214   3.359   1.901   2.622  0.0437 -0.3454 -0.3933
 8194SOL    HW136215   3.408   1.973   2.583 -1.8198  0.3172 -1.4535
 8194SOL    HW236216   3.410   1.891   2.703  1.3018  3.8582 -0.6750
 8195SOL     OW36217   2.364   3.325   6.688  1.1659  0.1908  0.8845
 8195SOL    HW136218   2.382   3.287   6.602  1.6140  1.6205  0.3564
 8195SOL    HW236219   2.353   3.417   6.664  0.0917  0.1968  1.3981
 8196SOL     OW36220   1.359   4.258   1.065 -0.2165 -0.1465 -0.5854
 8196SOL    HW136221   1.420   4.328   1.088  1.2093 -0.6332 -2.8418
 8196SOL    HW236222   1.403   4.231   0.984  1.6159 -1.2190  0.7814
 8197SOL     OW36223   1.199   1.291   5.009  0.1453 -0.1708  0.5160
 8197SOL    HW136224   1.174   1.382   5.019 -1.3398 -0.6015  0.7374
 8197SOL    HW236225   1.122   1.265   4.958  1.1237 -2.6963  0.3283
 8198SOL     OW36226   3.317   1.961   7.228 -0.9999  0.1099  0.1694
 8198SOL    HW136227   3.375   1.929   7.159 -0.4389  0.8253  0.3164
 8198SOL    HW236228   3.341   1.902   7.300  0.5467 -1.2665 -1.4757
 8199SOL     OW36229   2.484   1.766   3.531 -0.1529  0.0724  0.4669
 8199SOL    HW136230   2.444   1.850   3.554 -0.3728  0.5351 -1.6283
 8199SOL    HW236231   2.434   1.703   3.582 -0.9158  0.4906  0.2254
 8200SOL     OW36232   0.720   3.144   8.582 -0.1856 -0.2769 -0.1616
 8200SOL    HW136233   0.663   3.176   8.512  1.9866  0.3581 -1.6230
 8200SOL    HW236234   0.786   3.213   8.581 -2.5567  2.0134  1.3057
 8201SOL     OW36235   0.236   2.620  12.350  0.1258 -0.3050  0.3439
 8201SOL    HW136236   0.166   2.684  12.352  1.5312  1.2557 -0.7364
 8201SOL    HW236237   0.274   2.626  12.262 -0.6325  1.6198  0.1721
 8202SOL     OW36238   2.646   3.214   9.234  0.1870 -0.1003 -1.0492
 8202SOL    HW136239   2.659   3.239   9.326 -0.2295 -1.0919 -0.7151
 8202SOL    HW236240   2.649   3.118   9.239 -0.0889 -0.1630 -2.2334
 8203SOL     OW36241   1.403   3.277  16.673  0.3719 -0.7165 -0.6756
 8203SOL    HW136242   1.450   3.277  16.590 -0.0588 -0.5388 -0.9196
 8203SOL    HW236243   1.330   3.334  16.648  0.4470 -1.0947 -1.7810
 8204SOL     OW36244   3.627   4.215  17.690 -0.5427  0.1575 -0.2528
 8204SOL    HW136245   3.695   4.281  17.703 -2.2386  1.7686  0.2903
 8204SOL    HW236246   3.653   4.135  17.736 -0.2339  0.1280 -0.4733
 8205SOL     OW36247   3.938   0.673   7.472 -0.1442  0.0079  0.5246
 8205SOL    HW136248   3.913   0.716   7.554  0.3070  0.6191  0.3329
 8205SOL    HW236249   3.865   0.617   7.445  0.2427  0.0971 -0.6973
 8206SOL     OW36250   2.664   0.323   7.148  0.3526  0.5962 -0.0436
 8206SOL    HW136251   2.691   0.231   7.157  1.3567  1.0113  1.1916
 8206SOL    HW236252   2.572   0.318   7.122  0.3189  2.0283 -0.1922
 8207SOL     OW36253   3.187   1.294   2.060  0.0925 -0.1942 -0.1375
 8207SOL    HW136254   3.275   1.257   2.060  0.0814 -0.2071 -1.8976
 8207SOL    HW236255   3.194   1.374   2.111  0.1255 -0.4639  0.2825
 8208SOL     OW36256   2.385   1.957   9.566 -0.0358  0.0711  0.0698
 8208SOL    HW136257   2.357   1.924   9.651  1.7966  0.1265  0.6959
 8208SOL    HW236258   2.330   2.035   9.560 -0.6557 -0.4559 -1.0799
 8209SOL     OW36259   2.686   3.134   3.098  0.0000  0.0371 -0.2670
 8209SOL    HW136260   2.661   3.111   3.008  0.3723 -0.4638 -0.2397
 8209SOL    HW236261   2.617   3.095   3.151 -0.1459 -2.4059 -2.2311
 8210SOL     OW36262   1.311   2.494   2.963 -0.4240 -0.1548  0.3069
 8210SOL    HW136263   1.288   2.424   3.024 -1.1051  1.0506  1.4418
 8210SOL    HW236264   1.319   2.440   2.884 -1.2297 -0.7090  0.5961
 8211SOL     OW36265   3.498   3.260  15.082  0.0262 -0.5879  0.4908
 8211SOL    HW136266   3.529   3.188  15.027  0.3779 -1.0930  1.3476
 8211SOL    HW236267   3.406   3.267  15.057  0.9867 -1.6899 -3.2823
 8212SOL     OW36268   4.340   3.511  15.901 -0.3588 -0.0685 -0.4454
 8212SOL    HW136269   4.273   3.566  15.942  1.2569  2.1864 -0.8434
 8212SOL    HW236270   4.355   3.448  15.972 -1.1019  0.6092  0.3161
 8213SOL     OW36271   2.580   4.545  11.939  0.5069  0.3274 -0.1454
 8213SOL    HW136272   2.587   4.633  11.902 -0.4171  0.1112 -0.8523
 8213SOL    HW236273   2.629   4.562  12.019 -1.3109 -2.1554  1.5008
 8214SOL     OW36274   2.587   2.523   2.434  0.2430 -0.7406  0.2847
 8214SOL    HW136275   2.508   2.553   2.479  0.1874  0.4964 -0.6426
 8214SOL    HW236276   2.573   2.540   2.341 -0.0635  0.3554  0.5358
 8215SOL     OW36277   2.866   3.663  11.564  0.8133  0.0593  0.3827
 8215SOL    HW136278   2.877   3.569  11.577 -0.1592 -0.0653  0.2780
 8215SOL    HW236279   2.957   3.695  11.560  0.8251 -0.2306 -2.0054
 8216SOL     OW36280   1.689   1.757   0.387 -0.1589  0.5069 -0.1315
 8216SOL    HW136281   1.761   1.697   0.366 -0.2415  0.8936 -1.5266
 8216SOL    HW236282   1.619   1.721   0.333  0.0305 -0.4328  0.2532
 8217SOL     OW36283   3.826   3.592  10.775 -0.2750  0.0650  1.2592
 8217SOL    HW136284   3.794   3.681  10.759  0.8974  0.0964 -0.8799
 8217SOL    HW236285   3.908   3.610  10.821  0.2816 -0.2817  0.3893
 8218SOL     OW36286   0.143   1.744   6.437  0.0107 -0.7250 -0.8046
 8218SOL    HW136287   0.176   1.803   6.505 -0.9580 -0.6616 -0.3969
 8218SOL    HW236288   0.126   1.663   6.484 -3.2542  0.9194  0.8196
 8219SOL     OW36289   4.650   2.878   3.101 -0.2213 -0.4391  0.3438
 8219SOL    HW136290   4.706   2.921   3.035  1.3416 -1.8547  0.7609
 8219SOL    HW236291   4.713   2.849   3.166  0.2370 -1.3970 -0.5181
 8220SOL     OW36292   2.357   1.546   9.816 -0.0538  0.2570 -0.5165
 8220SOL    HW136293   2.273   1.508   9.789  0.0865 -0.4371  0.0224
 8220SOL    HW236294   2.365   1.542   9.911 -2.7309  0.9671 -0.2505
 8221SOL     OW36295   1.388   4.002   2.349 -0.2192  0.3721 -0.5393
 8221SOL    HW136296   1.381   3.941   2.422  0.1507 -0.3529 -1.1077
 8221SOL    HW236297   1.321   4.068   2.368 -0.3034 -0.3255  1.5260
 8222SOL     OW36298   1.477   1.825   4.308 -0.0218  0.3761  0.3854
 8222SOL    HW136299   1.443   1.910   4.335 -4.1234 -1.7390  1.9409
 8222SOL    HW236300   1.548   1.816   4.371 -0.2703 -0.1708  0.5891
 8223SOL     OW36301   1.553   0.009   6.832 -0.7081  0.5595  0.1434
 8223SOL    HW136302   1.578   4.698   6.908 -0.7410  0.8028  0.3222
 8223SOL    HW236303   1.600   4.702   6.765  0.8789 -0.8309  2.2730
 8224SOL     OW36304   1.319   0.287  17.064  0.3074  0.5917 -0.3178
 8224SOL    HW136305   1.347   0.212  17.013  0.4254  1.1083 -1.0089
 8224SOL    HW236306   1.227   0.263  17.064  0.7169 -0.9568  1.5495
 8225SOL     OW36307   2.333   0.597   6.255 -0.4982  0.1294  0.0036
 8225SOL    HW136308   2.285   0.625   6.333  2.1442  2.7733  0.6889
 8225SOL    HW236309   2.370   0.682   6.231  0.8617 -0.1207  1.1961
 8226SOL     OW36310   2.279   1.727   2.157 -0.1291  0.5779  0.2536
 8226SOL    HW136311   2.294   1.820   2.143  2.3727 -0.0865 -1.4168
 8226SOL    HW236312   2.368   1.693   2.159 -0.3984 -0.2908 -2.1246
 8227SOL     OW36313   4.134   1.531   9.492  0.0129  0.2194 -0.5326
 8227SOL    HW136314   4.108   1.598   9.555 -2.5489 -1.1375 -0.1595
 8227SOL    HW236315   4.121   1.568   9.405 -0.9691  0.5769 -0.2343
 8228SOL     OW36316   3.579   4.729   7.364  0.0240 -0.4106 -0.0946
 8228SOL    HW136317   3.632   4.704   7.440 -2.9973 -1.0665  1.7924
 8228SOL    HW236318   3.641   4.706   7.295 -0.0733  0.2184 -0.3864
 8229SOL     OW36319   0.620   0.011   3.049  0.5240  0.1069  0.0312
 8229SOL    HW136320   0.697   4.718   3.002  0.2595 -0.5538  0.0716
 8229SOL    HW236321   0.601   0.093   3.006  1.0569  1.2361  1.9421
 8230SOL     OW36322   0.010   4.486   3.459  0.1840  1.0362 -0.0521
 8230SOL    HW136323   0.076   4.468   3.392 -3.7529  2.1463 -4.2274
 8230SOL    HW236324   0.042   4.434   3.532 -1.5019 -1.4544 -1.0786
 8231SOL     OW36325   0.116   2.889   5.632  0.0260 -0.2720 -0.5228
 8231SOL    HW136326   0.208   2.880   5.606 -0.1032  0.0311 -1.0850
 8231SOL    HW236327   0.100   2.811   5.685  1.5781 -0.2920 -0.0655
 8232SOL     OW36328   2.601   2.855  11.025 -0.7115  0.1516 -0.4755
 8232SOL    HW136329   2.609   2.900  10.941  0.7021 -0.8066 -0.8632
 8232SOL    HW236330   2.693   2.828  11.032 -0.1544  2.4140  0.7400
 8233SOL     OW36331   1.726   4.531   4.814  0.4711 -0.0036  0.1642
 8233SOL    HW136332   1.651   4.572   4.771  0.2812 -0.7525 -0.2278
 8233SOL    HW236333   1.731   4.590   4.889 -0.0250  0.6830 -0.3423
 8234SOL     OW36334   1.947   3.413  15.008 -0.0452 -0.6599  0.2174
 8234SOL    HW136335   1.922   3.368  14.927 -0.6720  2.5312 -1.3635
 8234SOL    HW236336   1.901   3.355  15.068 -1.3237  0.8906  0.7460
 8235SOL     OW36337   3.189   1.288   4.467 -0.1698  0.5040  0.4123
 8235SOL    HW136338   3.127   1.348   4.509 -1.4768  0.4270 -1.4344
 8235SOL    HW236339   3.195   1.233   4.545  0.3893 -0.8262 -0.5759
 8236SOL     OW36340   0.641   2.187   3.192  0.2256  0.2038 -0.5723
 8236SOL    HW136341   0.675   2.099   3.210  1.4406  0.7507 -0.2057
 8236SOL    HW236342   0.648   2.227   3.278  1.0501 -0.2019 -0.4464
 8237SOL     OW36343   1.533   0.685   5.173 -0.0460  0.5797  0.8281
 8237SOL    HW136344   1.500   0.675   5.083 -0.9169 -1.1996  1.3453
 8237SOL    HW236345   1.532   0.780   5.175 -0.3462  0.6177 -1.1419
 8238SOL     OW36346   3.688   4.550  17.534 -0.5515  0.0578 -0.4130
 8238SOL    HW136347   3.609   4.536  17.586  0.9914  0.5082  2.0713
 8238SOL    HW236348   3.693   4.640  17.566 -2.1513 -0.2343  0.6220
 8239SOL     OW36349   4.687   4.591  16.095  0.1640 -0.0387 -0.4923
 8239SOL    HW136350   4.608   4.573  16.146  1.8336 -0.6340  1.8659
 8239SOL    HW236351   4.676   4.683  16.072 -0.9465 -0.2330 -0.7437
 8240SOL     OW36352   1.656   2.806   7.673  0.7475  0.2972  0.4531
 8240SOL    HW136353   1.733   2.823   7.618 -0.5518 -1.5537 -1.9666
 8240SOL    HW236354   1.589   2.870   7.649  1.5242  1.9393  2.6874
 8241SOL     OW36355   2.559   4.663   3.568 -0.7175 -0.1518  0.1852
 8241SOL    HW136356   2.513   4.642   3.650 -0.4590  1.2604  0.6996
 8241SOL    HW236357   2.506   4.619   3.502 -1.1669  0.2567  0.2681
 8242SOL     OW36358   3.531   3.241   7.091 -0.5243  0.1172  0.0914
 8242SOL    HW136359   3.468   3.207   7.027  0.2529  2.5912 -2.0228
 8242SOL    HW236360   3.502   3.332   7.100  0.9470  0.4743  1.1391
 8243SOL     OW36361   1.503   0.812   1.865  0.5249  0.4145 -0.1860
 8243SOL    HW136362   1.536   0.900   1.884 -0.5501  0.5782  0.8863
 8243SOL    HW236363   1.564   0.764   1.921  0.1309  0.9202  0.6832
 8244SOL     OW36364   4.318   0.640  16.725  0.2923 -1.0780  0.5138
 8244SOL    HW136365   4.375   0.716  16.733  0.3838 -0.9522 -1.3240
 8244SOL    HW236366   4.334   0.609  16.636 -0.4885  0.9517 -0.3337
 8245SOL     OW36367   1.231   2.736   4.636 -0.3027  0.0329  0.2593
 8245SOL    HW136368   1.176   2.808   4.667  0.4167  0.6921 -0.0005
 8245SOL    HW236369   1.166   2.671   4.609 -0.2652  1.5036 -3.4221
 8246SOL     OW36370   2.148   2.083   8.836 -0.3364 -0.1086 -0.0952
 8246SOL    HW136371   2.161   2.160   8.780 -0.9497 -0.8923 -1.3200
 8246SOL    HW236372   2.241   2.066   8.852 -0.2736 -1.4320 -1.7728
 8247SOL     OW36373   2.468   3.556  10.102  0.0520 -0.2319  0.1558
 8247SOL    HW136374   2.437   3.631  10.153 -1.4225 -0.2600 -0.6930
 8247SOL    HW236375   2.499   3.505  10.177 -0.7206 -0.2332  0.4822
 8248SOL     OW36376   2.101   0.318   1.650  0.0590 -0.0604  0.2165
 8248SOL    HW136377   2.058   0.335   1.566 -1.2283  0.8073  1.0714
 8248SOL    HW236378   2.088   0.404   1.689 -2.3857 -1.1379  1.7786
 8249SOL     OW36379   0.829   0.616   7.780  0.1956 -0.2461  0.8505
 8249SOL    HW136380   0.768   0.650   7.845  0.3294  1.9988 -0.2027
 8249SOL    HW236381   0.784   0.645   7.701  2.3187 -0.9533 -0.6389
 8250SOL     OW36382   3.737   1.751  16.153  0.4136  0.1436 -0.1296
 8250SOL    HW136383   3.735   1.714  16.065  2.2481 -1.0716  0.3374
 8250SOL    HW236384   3.752   1.666  16.194 -1.4723  0.0258  0.3081
 8251SOL     OW36385   1.998   0.284  13.795 -0.2733  0.1636 -0.1587
 8251SOL    HW136386   2.090   0.307  13.806 -0.3530  0.2860  0.2422
 8251SOL    HW236387   1.961   0.312  13.879  0.1014 -0.8160  0.3276
 8252SOL     OW36388   2.130   3.403   2.485 -0.3742 -0.2208 -0.1629
 8252SOL    HW136389   2.110   3.376   2.395  1.8075 -2.4520  0.0362
 8252SOL    HW236390   2.225   3.391   2.481 -0.3506 -0.0714 -0.0248
 8253SOL     OW36391   3.306   2.935   5.594 -0.0978 -0.1925  0.3313
 8253SOL    HW136392   3.375   2.989   5.556  0.8513 -1.5906  0.0780
 8253SOL    HW236393   3.285   2.873   5.525  2.0929  0.0445 -0.5352
 8254SOL     OW36394   4.451   2.471   1.255 -0.5901 -0.0852  0.4194
 8254SOL    HW136395   4.504   2.467   1.174 -0.4236  1.8306  0.4485
 8254SOL    HW236396   4.498   2.516   1.325  1.4070  1.0147 -1.5948
 8255SOL     OW36397   0.883   4.256   5.609  0.4567 -0.2074  0.0136
 8255SOL    HW136398   0.861   4.310   5.685  2.7361 -0.8275  1.1153
 8255SOL    HW236399   0.805   4.203   5.597  0.0057  0.6975 -1.0840
 8256SOL     OW36400   3.990   2.854   3.461  0.4840  0.5165 -0.2509
 8256SOL    HW136401   3.969   2.940   3.425 -3.5934 -0.2588  0.3606
 8256SOL    HW236402   4.034   2.890   3.538 -0.7826 -1.4760  1.4313
 8257SOL     OW36403   0.461   4.162   2.252 -0.5553  0.3248  0.3832
 8257SOL    HW136404   0.476   4.133   2.342 -0.4523 -1.1567 -0.1181
 8257SOL    HW236405   0.370   4.133   2.247 -1.0174  1.7580  0.3390
 8258SOL     OW36406   1.121   2.968   5.881 -0.3284  0.2693  0.4338
 8258SOL    HW136407   1.088   3.031   5.816 -0.2536 -0.1946 -0.0516
 8258SOL    HW236408   1.057   2.985   5.951  0.8149 -1.0656  1.7967
 8259SOL     OW36409   4.536   0.397  13.665 -0.3406 -0.3581 -0.8058
 8259SOL    HW136410   4.480   0.426  13.737 -2.1906  0.4854 -2.5654
 8259SOL    HW236411   4.490   0.424  13.585 -2.5195  1.5417  1.0824
 8260SOL     OW36412   4.179   4.449   7.831 -0.3678 -0.3451 -0.1021
 8260SOL    HW136413   4.254   4.390   7.838  1.1495  1.5847 -0.2159
 8260SOL    HW236414   4.129   4.413   7.904  1.5045 -0.1465  1.2833
 8261SOL     OW36415   2.056   2.054   9.212 -0.8221  0.0239  0.0481
 8261SOL    HW136416   2.140   2.023   9.246  0.2714  0.8988 -1.8468
 8261SOL    HW236417   2.083   2.145   9.196  0.9480 -0.3922  0.6830
 8262SOL     OW36418   0.064   0.789   4.419 -0.7173 -0.1841 -0.3514
 8262SOL    HW136419   0.027   0.714   4.372  0.2107 -1.0574  0.3013
 8262SOL    HW236420   0.080   0.849   4.346 -3.0614  1.1568  0.2437
 8263SOL     OW36421   0.159   1.854  14.070  0.0815 -0.1611 -0.0220
 8263SOL    HW136422   0.107   1.821  14.144  1.1923 -2.3510 -0.2313
 8263SOL    HW236423   0.096   1.913  14.028 -0.3884 -0.3930  0.3542
 8264SOL     OW36424   4.613   1.348   4.995 -0.0426  0.3878 -0.5935
 8264SOL    HW136425   4.625   1.424   5.052  1.1737 -0.2044 -0.0387
 8264SOL    HW236426   4.525   1.366   4.963  0.1055 -1.2690 -1.9371
 8265SOL     OW36427   1.015   0.639   9.804  0.4664 -0.2215 -0.8751
 8265SOL    HW136428   1.029   0.716   9.749  3.1886  1.0407  1.5837
 8265SOL    HW236429   1.097   0.602   9.774  0.7340 -0.3135 -0.0404
 8266SOL     OW36430   1.890   0.373  14.035  0.2483  0.1889  0.0636
 8266SOL    HW136431   1.908   0.465  14.057  1.1516  0.6411 -2.5023
 8266SOL    HW236432   1.838   0.353  14.113  0.7744 -2.0315 -0.1675
 8267SOL     OW36433   0.813   3.901  14.152 -0.3231 -0.1706  0.5402
 8267SOL    HW136434   0.740   3.838  14.147  0.5988 -1.2408  0.5036
 8267SOL    HW236435   0.868   3.864  14.222  1.1258  0.9616 -0.0111
 8268SOL     OW36436   4.508   3.886   2.422  0.6080 -0.3483  0.1501
 8268SOL    HW136437   4.550   3.801   2.430 -0.5292 -0.7861  1.5153
 8268SOL    HW236438   4.436   3.867   2.482 -1.0318  0.3634 -1.6140
 8269SOL     OW36439   1.747   2.429   5.756 -0.3883 -0.4189  0.7322
 8269SOL    HW136440   1.795   2.450   5.835  0.0619  1.4718 -0.0323
 8269SOL    HW236441   1.741   2.511   5.707 -3.6202 -0.8160  0.4043
 8270SOL     OW36442   1.072   3.970   4.970 -0.0310 -0.1234 -0.5023
 8270SOL    HW136443   1.130   3.988   5.044 -0.9561 -0.8221  0.3854
 8270SOL    HW236444   1.025   4.053   4.967  0.4279  0.0876 -1.6311
 8271SOL     OW36445   3.313   4.718   7.306 -0.3161 -0.5053 -0.8707
 8271SOL    HW136446   3.399   4.738   7.343 -0.5523  1.5908 -1.4634
 8271SOL    HW236447   3.314   4.622   7.301  1.0538 -0.5727  0.7744
 8272SOL     OW36448   2.254   4.114  13.940 -0.5010  0.1127 -0.3770
 8272SOL    HW136449   2.245   4.029  13.984 -0.1253  0.1122 -0.3081
 8272SOL    HW236450   2.305   4.165  14.003  1.5117 -0.8434 -1.2440
 8273SOL     OW36451   1.532   4.178   7.003  0.4431  0.4564  0.5159
 8273SOL    HW136452   1.612   4.221   7.032  1.4337 -0.1496 -1.3871
 8273SOL    HW236453   1.523   4.215   6.915 -0.9920 -0.9103  0.0870
 8274SOL     OW36454   3.336   4.253   5.374 -0.2206 -0.1460  0.1432
 8274SOL    HW136455   3.309   4.219   5.289  1.4973 -1.4203  0.1038
 8274SOL    HW236456   3.399   4.188   5.406  1.8105  0.9854 -1.6125
 8275SOL     OW36457   2.570   3.046   7.174 -0.4731 -0.5599 -0.5388
 8275SOL    HW136458   2.483   3.069   7.206 -0.0282 -0.4253  0.5733
 8275SOL    HW236459   2.580   2.959   7.213 -0.3697 -0.2944  0.0229
 8276SOL     OW36460   0.746   3.362   5.467  0.3630  0.4436 -0.4502
 8276SOL    HW136461   0.837   3.388   5.479  0.5003 -0.1236 -0.2866
 8276SOL    HW236462   0.742   3.357   5.371  0.1303  3.1995 -0.5860
 8277SOL     OW36463   2.006   1.712   3.359 -0.5339 -0.3203  0.2881
 8277SOL    HW136464   2.013   1.751   3.446  0.2698  0.1577  0.0045
 8277SOL    HW236465   1.945   1.778   3.323 -1.8830 -2.0972 -0.6713
 8278SOL     OW36466   1.865   3.094   8.991 -0.3102  0.1177  0.1764
 8278SOL    HW136467   1.857   3.190   8.987  1.6098  0.3192  1.3360
 8278SOL    HW236468   1.960   3.089   9.001 -0.5091  0.8113  2.4346
 8279SOL     OW36469   1.205   1.957  11.009 -0.5614 -0.4772  0.0758
 8279SOL    HW136470   1.187   1.865  10.989  1.8953 -1.1777  1.1408
 8279SOL    HW236471   1.204   1.954  11.105 -0.5180  0.5885  0.1166
 8280SOL     OW36472   1.084   0.309   1.492  0.1913 -0.0422  0.4646
 8280SOL    HW136473   1.062   0.364   1.568  2.0104  0.5140  0.5735
 8280SOL    HW236474   1.076   0.374   1.422  1.0550 -1.2958 -0.7963
 8281SOL     OW36475   3.118   1.693   5.933  0.3612  0.3992 -0.4941
 8281SOL    HW136476   3.132   1.719   5.842  1.2614 -0.0667 -0.4938
 8281SOL    HW236477   3.104   1.773   5.983 -2.1999  0.0210 -0.6182
 8282SOL     OW36478   1.528   3.150  12.440 -0.4031 -0.5139  0.3120
 8282SOL    HW136479   1.586   3.204  12.494  0.1051 -0.7493  0.0123
 8282SOL    HW236480   1.438   3.171  12.463 -0.5549  0.4906 -1.1614
 8283SOL     OW36481   0.660   2.507   7.648 -0.5181  0.1059  0.1308
 8283SOL    HW136482   0.638   2.589   7.602  0.9195  0.3201 -0.1582
 8283SOL    HW236483   0.581   2.456   7.631  0.8451 -2.1813  0.7265
 8284SOL     OW36484   4.003   2.416   1.602  0.1272 -0.8362  0.1967
 8284SOL    HW136485   4.013   2.322   1.615 -1.3248 -0.9674  0.3445
 8284SOL    HW236486   4.009   2.435   1.509  1.9240 -0.7722  0.3231
 8285SOL     OW36487   1.348   1.772   6.126  0.1333 -0.3671  0.5764
 8285SOL    HW136488   1.396   1.853   6.143 -1.7340  1.2629 -1.8235
 8285SOL    HW236489   1.283   1.788   6.195 -0.7062  0.6891 -0.4578
 8286SOL     OW36490   1.375   1.280  16.102 -0.1206  0.5503  0.3159
 8286SOL    HW136491   1.348   1.334  16.028 -2.3438 -0.3991  0.4391
 8286SOL    HW236492   1.360   1.342  16.174  2.5374 -0.2258  1.5519
 8287SOL     OW36493   3.800   4.313  17.446 -0.6887  0.2763  0.5162
 8287SOL    HW136494   3.793   4.397  17.491  0.7380 -0.4586  2.1233
 8287SOL    HW236495   3.741   4.263  17.502 -0.9646  0.9477  0.8299
 8288SOL     OW36496   2.449   2.985   8.828 -0.5075  0.2580  0.8278
 8288SOL    HW136497   2.461   3.044   8.902  0.5013 -0.3832  1.1695
 8288SOL    HW236498   2.540   2.992   8.797  0.3425  1.8316  3.7256
 8289SOL     OW36499   3.168   1.129   6.065  0.0686  0.6585  0.5090
 8289SOL    HW136500   3.077   1.112   6.041  0.0649 -0.1771  1.0974
 8289SOL    HW236501   3.203   1.141   5.977  0.0805 -1.2019  0.2511
 8290SOL     OW36502   2.019   2.315   5.010 -0.0924  0.1137 -1.1446
 8290SOL    HW136503   1.943   2.353   4.966 -3.0136 -2.4217  1.6888
 8290SOL    HW236504   2.088   2.317   4.944  0.5128  1.4516 -0.4783
 8291SOL     OW36505   0.794   0.816  13.468  0.3481  0.0198 -0.1668
 8291SOL    HW136506   0.880   0.859  13.472 -0.0709  1.0993 -2.5581
 8291SOL    HW236507   0.787   0.770  13.551 -2.9992  0.6999 -0.1023
 8292SOL     OW36508   2.906   1.466   5.857  0.4327  0.4462 -0.4382
 8292SOL    HW136509   2.988   1.503   5.890 -0.0552 -0.1247  1.3923
 8292SOL    HW236510   2.931   1.435   5.770  0.0162  0.4696 -0.5682
 8293SOL     OW36511   1.352   0.939   4.736 -0.2819  0.2520  0.6464
 8293SOL    HW136512   1.439   0.918   4.701 -0.1024  0.2584  1.0806
 8293SOL    HW236513   1.377   1.007   4.799  0.5295  1.5603 -1.0876
 8294SOL     OW36514   1.678   2.390   2.088  0.1398 -0.1308 -0.1170
 8294SOL    HW136515   1.636   2.468   2.051  1.4924  1.8429  2.4845
 8294SOL    HW236516   1.767   2.424   2.092  1.2283 -2.8797 -1.4642
 8295SOL     OW36517   4.540   2.428   8.613  0.1604 -0.0673  0.0863
 8295SOL    HW136518   4.494   2.391   8.689 -0.5081  0.4813 -0.0542
 8295SOL    HW236519   4.634   2.407   8.623  0.2710  0.9266  1.1551
 8296SOL     OW36520   4.669   0.776  15.215  0.6010 -0.7589 -0.2679
 8296SOL    HW136521   4.613   0.705  15.183 -0.7636 -0.7077  1.9828
 8296SOL    HW236522   4.675   0.826  15.134 -1.5092 -1.5316 -0.9171
 8297SOL     OW36523   2.386   1.772  10.080  0.1599  0.3851 -0.3444
 8297SOL    HW136524   2.466   1.722  10.065 -0.3578 -0.3247 -0.7545
 8297SOL    HW236525   2.356   1.737  10.164  2.8666 -3.9939 -1.2245
 8298SOL     OW36526   4.044   2.239   2.423  0.7070 -0.2322  0.4672
 8298SOL    HW136527   4.040   2.329   2.454  0.1419  0.0555 -0.4475
 8298SOL    HW236528   4.103   2.232   2.348 -0.9515 -0.9081 -0.7833
 8299SOL     OW36529   3.842   0.790   2.665  0.2642 -0.2393 -0.2725
 8299SOL    HW136530   3.878   0.872   2.633  2.3048 -0.0272  2.5483
 8299SOL    HW236531   3.791   0.818   2.741  0.1790  1.6569 -1.0411
 8300SOL     OW36532   0.045   0.636  15.574  0.4208 -0.1430  0.3241
 8300SOL    HW136533   0.032   0.720  15.529 -1.2147 -1.0914 -0.9732
 8300SOL    HW236534   4.692   0.623  15.564  0.3294  0.4838  0.3848
 8301SOL     OW36535   1.567   2.687   5.879 -0.3096  0.2360 -0.4159
 8301SOL    HW136536   1.587   2.671   5.786 -2.6507  0.3267 -0.9387
 8301SOL    HW236537   1.491   2.744   5.872 -0.9696 -0.7721 -1.5050
 8302SOL     OW36538   3.590   1.965  16.025 -0.3241 -0.6684  0.0611
 8302SOL    HW136539   3.647   1.892  16.050  0.3641  0.0396  0.5404
 8302SOL    HW236540   3.593   2.019  16.103 -2.4904  1.2953 -1.2046
 8303SOL     OW36541   4.436   0.452   8.156 -0.1716 -0.2986  0.0274
 8303SOL    HW136542   4.345   0.449   8.126  0.2437 -1.5579 -1.1223
 8303SOL    HW236543   4.465   0.374   8.108 -0.4610 -0.6342  0.4031
 8304SOL     OW36544   0.892   0.191   7.034 -0.3980 -0.2726 -0.2535
 8304SOL    HW136545   0.987   0.197   7.019  0.1465 -1.1762  2.6292
 8304SOL    HW236546   0.860   0.159   6.950 -0.9104 -0.1651 -0.0990
 8305SOL     OW36547   0.125   3.383   2.093 -0.1321  0.1358  0.4103
 8305SOL    HW136548   0.158   3.443   2.026  0.0105  0.2243  0.5595
 8305SOL    HW236549   0.202   3.340   2.131  0.3299  0.9029  0.3463
 8306SOL     OW36550   0.423   1.601  15.712  0.1710 -0.1507  0.2697
 8306SOL    HW136551   0.499   1.611  15.769  0.7236 -1.3871 -0.2258
 8306SOL    HW236552   0.405   1.692  15.689  2.4494  0.2008 -0.0533
 8307SOL     OW36553   2.340   0.727   7.313  0.5535 -0.4643 -0.2801
 8307SOL    HW136554   2.316   0.815   7.286 -1.9029 -0.6142  1.3761
 8307SOL    HW236555   2.262   0.679   7.287  0.4030  0.9389 -2.3346
 8308SOL     OW36556   1.267   0.663   4.714  0.4875 -0.5312 -0.1082
 8308SOL    HW136557   1.287   0.752   4.743  1.2525 -1.0064  0.8220
 8308SOL    HW236558   1.281   0.611   4.793  1.2394  3.7253  2.5821
 8309SOL     OW36559   0.905   2.095   4.258 -0.6045 -0.2958  0.1222
 8309SOL    HW136560   0.950   2.168   4.300  0.8367 -1.5522  0.7903
 8309SOL    HW236561   0.872   2.142   4.182 -0.9551 -0.6797  0.0375
 8310SOL     OW36562   1.867   2.483  10.829  0.3802  0.1029  0.2156
 8310SOL    HW136563   1.916   2.439  10.760 -0.2470 -0.5768  0.1981
 8310SOL    HW236564   1.815   2.550  10.785 -0.9641  0.2247  1.9579
 8311SOL     OW36565   1.410   2.250  16.319 -0.0760  0.3632 -0.3610
 8311SOL    HW136566   1.490   2.286  16.280  0.3196  1.2727  1.3178
 8311SOL    HW236567   1.351   2.244  16.244 -2.2635 -0.0307  1.4166
 8312SOL     OW36568   0.545   2.396   6.781 -0.3715  0.1112 -0.1361
 8312SOL    HW136569   0.608   2.466   6.760 -0.9492  0.5548 -0.4011
 8312SOL    HW236570   0.548   2.398   6.876 -1.7500 -0.1303 -0.0952
 8313SOL     OW36571   3.858   1.274   7.021 -0.2180 -0.4807  0.2015
 8313SOL    HW136572   3.938   1.236   7.058 -0.3624 -0.3308  0.6676
 8313SOL    HW236573   3.887   1.322   6.943 -2.3323  0.8739  0.2541
 8314SOL     OW36574   3.546   3.032  16.180 -0.5831 -0.6297  0.0564
 8314SOL    HW136575   3.556   2.959  16.118  0.0041 -0.0016 -0.5863
 8314SOL    HW236576   3.492   2.984  16.244 -0.5281 -1.8228 -0.7826
 8315SOL     OW36577   2.142   0.301  15.004 -0.0857 -0.2808  0.4105
 8315SOL    HW136578   2.183   0.326  14.922 -0.8102  0.2577  0.2141
 8315SOL    HW236579   2.127   0.386  15.046 -2.9438  0.1492 -1.5284
 8316SOL     OW36580   2.962   4.515   7.837 -0.2345  0.2759 -0.6294
 8316SOL    HW136581   3.013   4.444   7.797  0.4326  0.8489 -0.7950
 8316SOL    HW236582   3.022   4.589   7.843 -0.5303  0.6976 -2.8838
 8317SOL     OW36583   1.934   3.927   3.685 -0.0550  0.6788  0.0339
 8317SOL    HW136584   1.856   3.870   3.684  1.0328 -0.7998 -0.9496
 8317SOL    HW236585   2.008   3.872   3.660 -2.7613 -1.9569 -2.0856
 8318SOL     OW36586   2.397   3.730  13.712  0.0369 -0.3139  0.0643
 8318SOL    HW136587   2.450   3.801  13.749  0.7747  0.0807 -1.7659
 8318SOL    HW236588   2.467   3.664  13.719  2.8145  2.7654  1.7672
 8319SOL     OW36589   1.247   3.742  15.650  0.0208  0.0369 -0.0736
 8319SOL    HW136590   1.179   3.674  15.660  0.4282 -0.3496  0.0647
 8319SOL    HW236591   1.328   3.698  15.676  1.7511  1.8860 -2.3703
 8320SOL     OW36592   3.207   3.949   5.690 -0.5834  0.2293 -0.2099
 8320SOL    HW136593   3.297   3.930   5.664 -0.4642  0.2947  0.1641
 8320SOL    HW236594   3.155   3.889   5.637 -1.3885  1.2991 -0.6281
 8321SOL     OW36595   2.015   3.744   2.816 -0.0105 -0.2478 -0.1486
 8321SOL    HW136596   1.928   3.733   2.779 -0.7315  0.3237  1.4105
 8321SOL    HW236597   2.036   3.825   2.768 -1.3011  1.2494  1.8085
 8322SOL     OW36598   3.544   3.306   5.950 -0.2917 -0.2449  0.1745
 8322SOL    HW136599   3.503   3.225   5.919 -1.2918  0.0143  0.8025
 8322SOL    HW236600   3.622   3.275   5.995 -0.5495 -0.5288  0.4292
 8323SOL     OW36601   2.105   4.645   6.264  0.4172  0.3036  0.5461
 8323SOL    HW136602   2.068   4.720   6.216  1.0994  0.7496  0.7237
 8323SOL    HW236603   2.192   4.682   6.279  1.1940 -0.5371 -1.8085
 8324SOL     OW36604   3.822   2.636   3.098  0.1985 -0.3019  0.0090
 8324SOL    HW136605   3.870   2.595   3.170 -0.1757  0.5196  0.7339
 8324SOL    HW236606   3.856   2.589   3.022 -0.0495 -0.8827  0.2550
 8325SOL     OW36607   1.994   1.426   1.651 -0.0423 -0.4990  0.4048
 8325SOL    HW136608   2.053   1.448   1.579  0.5281 -1.9011  0.4518
 8325SOL    HW236609   1.939   1.503   1.665  0.6501 -0.1872  1.4363
 8326SOL     OW36610   1.377   2.762   4.301  0.1751  0.6172  0.2342
 8326SOL    HW136611   1.369   2.668   4.292  0.5192  0.9284 -3.2950
 8326SOL    HW236612   1.300   2.785   4.250  0.1020  0.3206  0.2139
 8327SOL     OW36613   2.717   0.808  13.580 -0.1985  0.7534 -0.0562
 8327SOL    HW136614   2.723   0.748  13.506 -2.6982 -1.5727  1.6296
 8327SOL    HW236615   2.648   0.871  13.556  0.7583  1.0138 -2.1918
 8328SOL     OW36616   0.388   4.026  17.480 -0.2443 -0.4715 -0.1801
 8328SOL    HW136617   0.359   4.105  17.526  4.9594 -0.7467  3.6585
 8328SOL    HW236618   0.384   3.965  17.553  0.0340 -1.8536 -1.3298
 8329SOL     OW36619   0.936   3.517   5.805 -0.0453  0.0201 -0.1628
 8329SOL    HW136620   1.021   3.491   5.768  0.0031  2.3656 -1.6364
 8329SOL    HW236621   0.951   3.534   5.898 -0.1278  0.3414 -0.2078
 8330SOL     OW36622   2.289   2.549   3.020  0.0294  0.2463  0.1385
 8330SOL    HW136623   2.351   2.606   2.975 -0.5957  0.8873  0.0867
 8330SOL    HW236624   2.277   2.589   3.107 -0.4190  1.7913 -0.6327
 8331SOL     OW36625   2.043   2.973   2.484 -0.5885  0.1323 -0.7908
 8331SOL    HW136626   2.094   2.902   2.522 -2.3733  0.1931  1.7507
 8331SOL    HW236627   2.101   2.998   2.412  0.0398 -2.1451 -1.0494
 8332SOL     OW36628   0.973   1.097   6.183 -0.4976  0.1869 -0.5530
 8332SOL    HW136629   0.975   1.152   6.261 -0.6305 -0.4105 -0.1266
 8332SOL    HW236630   1.058   1.057   6.202 -1.3334 -0.6256  1.5203
 8333SOL     OW36631   0.057   4.739  13.741  0.1060  0.3658  0.6345
 8333SOL    HW136632   4.715   4.717  13.698  1.3323 -1.1738 -0.9091
 8333SOL    HW236633   0.060   0.089  13.711 -0.6626 -0.3495 -1.6017
 8334SOL     OW36634   1.301   1.926   2.890 -0.1769  0.0665  0.5664
 8334SOL    HW136635   1.251   1.978   2.952 -1.2644  1.7440 -1.7395
 8334SOL    HW236636   1.237   1.913   2.820 -2.3615  0.9360  2.4226
 8335SOL     OW36637   2.264   3.552   8.159  0.1883 -0.4951 -0.4394
 8335SOL    HW136638   2.303   3.471   8.125  0.9915  0.1647 -1.0666
 8335SOL    HW236639   2.344   3.604   8.156  0.9120 -1.5675  0.4170
 8336SOL     OW36640   4.444   0.706   6.890  0.5772  0.1034 -0.2772
 8336SOL    HW136641   4.381   0.704   6.818  0.2110  0.6502  0.0291
 8336SOL    HW236642   4.414   0.648   6.959 -0.6529  3.0643  1.6394
 8337SOL     OW36643   3.962   1.025   3.640  0.0197 -0.0550  0.0134
 8337SOL    HW136644   4.022   0.955   3.665  0.1826  0.3257  0.6933
 8337SOL    HW236645   3.948   0.994   3.551 -1.7754  0.0216  0.2731
 8338SOL     OW36646   3.990   2.169   3.208  0.0997 -0.3079 -0.5274
 8338SOL    HW136647   3.917   2.207   3.258 -1.5621  1.9989 -4.7450
 8338SOL    HW236648   3.950   2.184   3.122 -0.8729 -0.3266 -0.0812
 8339SOL     OW36649   3.663   1.872  10.308 -0.0462  0.9108 -0.0628
 8339SOL    HW136650   3.691   1.912  10.390 -0.0439  0.8655 -0.0417
 8339SOL    HW236651   3.601   1.806  10.338  0.2926  1.6231  2.1682
 8340SOL     OW36652   1.891   2.538   8.811  0.5059 -0.1886  0.0678
 8340SOL    HW136653   1.853   2.625   8.822  0.4454 -0.4053  1.5563
 8340SOL    HW236654   1.810   2.487   8.811  0.2096  0.2812  0.5286
 8341SOL     OW36655   1.569   4.556   5.747  0.2038  0.0590 -0.0732
 8341SOL    HW136656   1.640   4.525   5.691 -0.4657 -1.1040 -0.2957
 8341SOL    HW236657   1.516   4.568   5.669  1.5435  3.4099 -0.4646
 8342SOL     OW36658   3.892   0.461  17.556 -0.4775  0.4333 -0.4961
 8342SOL    HW136659   3.891   0.488  17.648  0.6505 -2.5167  0.3908
 8342SOL    HW236660   3.966   0.517  17.535 -0.9017  0.6286 -1.4690
 8343SOL     OW36661   0.933   2.896   3.467  0.1556 -0.1047  0.4425
 8343SOL    HW136662   0.954   2.945   3.388  0.5985  1.1718  1.3632
 8343SOL    HW236663   1.018   2.885   3.510  0.4133  0.2529  0.0215
 8344SOL     OW36664   0.123   2.066   7.243 -0.7390 -0.1424 -0.0699
 8344SOL    HW136665   0.176   2.078   7.322 -0.6965 -1.9992  0.1794
 8344SOL    HW236666   0.077   2.150   7.241 -1.0389 -0.3186 -0.5987
 8345SOL     OW36667   1.222   4.494   6.370 -0.6673  0.7363  0.2262
 8345SOL    HW136668   1.233   4.443   6.450 -1.5325 -0.4383 -0.4045
 8345SOL    HW236669   1.308   4.486   6.330 -0.4971 -0.1185  0.7636
 8346SOL     OW36670   1.462   4.108   0.225 -0.0726 -0.5253 -0.4743
 8346SOL    HW136671   1.484   4.191   0.267  0.9612 -1.2393  0.3856
 8346SOL    HW236672   1.371   4.122   0.198  0.1811  0.9676 -0.5592
 8347SOL     OW36673   3.107   4.689   5.521 -0.1294 -0.5789  0.2826
 8347SOL    HW136674   3.137   4.601   5.499 -0.3145 -1.0812  2.0391
 8347SOL    HW236675   3.176   4.702   5.586 -1.3591 -0.1287  1.5165
 8348SOL     OW36676   2.113   0.434   4.424  0.0592  0.2992 -0.2613
 8348SOL    HW136677   2.174   0.480   4.480 -1.9647  2.0303  0.5010
 8348SOL    HW236678   2.135   0.344   4.447 -1.4882  0.1728  0.7672
 8349SOL     OW36679   1.208   0.280   5.983 -0.2522 -0.0258  0.4047
 8349SOL    HW136680   1.183   0.297   6.073 -2.7661 -1.2485 -0.0548
 8349SOL    HW236681   1.287   0.229   6.000 -0.2873 -0.9985 -2.3079
 8350SOL     OW36682   3.037   0.310   5.167 -0.2424  0.6654 -0.2671
 8350SOL    HW136683   3.098   0.270   5.228  2.0071  2.6770 -1.2046
 8350SOL    HW236684   3.037   0.256   5.087 -0.3696  1.9295 -1.1234
 8351SOL     OW36685   1.103   2.934   7.753  0.4329  0.0487 -0.5865
 8351SOL    HW136686   1.097   2.960   7.661  1.5394  5.0564  0.7460
 8351SOL    HW236687   1.011   2.941   7.779  1.1457 -2.1814  2.4843
 8352SOL     OW36688   2.682   2.625   6.033  0.3106  0.0341 -0.2961
 8352SOL    HW136689   2.600   2.613   6.083 -0.9375 -1.2931 -2.6971
 8352SOL    HW236690   2.644   2.629   5.945  1.1391 -1.6495 -0.7189
 8353SOL     OW36691   2.299   0.802   5.438  0.3149 -0.1202  0.0570
 8353SOL    HW136692   2.279   0.889   5.473 -1.7645 -0.7741  0.5220
 8353SOL    HW236693   2.380   0.817   5.389  0.0292  3.5674  0.6833
 8354SOL     OW36694   4.313   2.311   4.254  0.6814  0.1222  0.0063
 8354SOL    HW136695   4.298   2.320   4.348 -2.5457 -3.3779 -0.1550
 8354SOL    HW236696   4.325   2.400   4.222 -1.0569  1.3323  2.7885
 8355SOL     OW36697   1.031   4.701   7.161  0.7847  0.5550  0.1976
 8355SOL    HW136698   1.053   4.703   7.254 -0.3262 -0.1935  0.4787
 8355SOL    HW236699   0.978   0.040   7.154  1.4749  0.9653 -0.3389
 8356SOL     OW36700   3.792   2.452   2.395 -0.0896  0.0085 -0.7038
 8356SOL    HW136701   3.796   2.461   2.490 -1.3831  3.0459 -0.9475
 8356SOL    HW236702   3.801   2.357   2.381 -2.3259 -0.3625  0.3094
 8357SOL     OW36703   1.958   2.214   2.090  0.1351  0.0471 -0.2271
 8357SOL    HW136704   1.971   2.168   2.007 -5.3753  2.0735 -2.2682
 8357SOL    HW236705   1.875   2.175   2.118  0.6929 -0.9490  0.0538
 8358SOL     OW36706   2.245   2.270   3.408 -0.4474 -0.7695  0.0344
 8358SOL    HW136707   2.212   2.261   3.498  1.0468 -0.0569  0.6473
 8358SOL    HW236708   2.244   2.363   3.386 -0.3990 -0.0720  2.8804
 8359SOL     OW36709   0.299   3.892   4.088  0.2881 -0.3517 -0.0687
 8359SOL    HW136710   0.224   3.950   4.071  1.2350  0.5283 -1.2323
 8359SOL    HW236711   0.352   3.885   4.008  1.5666  1.2153  0.6372
 8360SOL     OW36712   0.694   2.592   1.253  0.4182  0.0566  0.1963
 8360SOL    HW136713   0.779   2.633   1.266  0.6312 -0.3740  0.1742
 8360SOL    HW236714   0.659   2.661   1.198 -0.2491 -0.9874 -0.6979
 8361SOL     OW36715   0.713   4.146   1.384 -0.4272  0.1104 -0.3088
 8361SOL    HW136716   0.627   4.169   1.419  0.5247 -0.4625  2.4582
 8361SOL    HW236717   0.728   4.069   1.438  0.5891  0.1103 -0.5791
 8362SOL     OW36718   1.893   3.440   2.943 -0.0237 -1.1843  0.2263
 8362SOL    HW136719   1.931   3.505   3.003  0.5689  0.0052 -1.4198
 8362SOL    HW236720   1.932   3.458   2.857  1.5372  2.7849  1.7699
 8363SOL     OW36721   4.352   3.003   4.913 -0.2306 -0.2177 -0.3330
 8363SOL    HW136722   4.305   2.924   4.939  0.0648  0.2393  1.5333
 8363SOL    HW236723   4.278   3.050   4.875  0.7002  0.4980 -1.2688
 8364SOL     OW36724   3.952   1.648  12.422 -0.2716 -0.2946  0.2266
 8364SOL    HW136725   3.998   1.656  12.506 -0.3304 -1.7471  0.3965
 8364SOL    HW236726   4.033   1.640  12.371 -0.2468 -1.4589  0.4615
 8365SOL     OW36727   1.145   2.126   2.239 -0.2513 -0.0254 -0.2985
 8365SOL    HW136728   1.234   2.135   2.205  0.2768 -0.8752  0.8362
 8365SOL    HW236729   1.106   2.211   2.221 -0.3992  0.2568  1.3243
 8366SOL     OW36730   3.104   3.676   9.507  0.0810 -0.4157  0.5628
 8366SOL    HW136731   3.080   3.584   9.519 -0.7183 -0.2932 -0.1042
 8366SOL    HW236732   3.059   3.712   9.584 -1.2154  0.8175 -0.7967
 8367SOL     OW36733   0.870   3.847   8.420 -0.3896 -0.1924 -0.3320
 8367SOL    HW136734   0.946   3.877   8.470 -2.8222 -0.3406  3.4624
 8367SOL    HW236735   0.850   3.765   8.464  1.4739  0.0698  1.0077
 8368SOL     OW36736   2.135   3.144   0.602  0.4040  0.0110 -0.5746
 8368SOL    HW136737   2.177   3.198   0.535  0.1224  1.6706  0.5623
 8368SOL    HW236738   2.187   3.064   0.597  2.6031  1.2099  3.1362
 8369SOL     OW36739   2.035   0.097   1.818  0.3974 -0.0334 -0.2770
 8369SOL    HW136740   2.048   0.157   1.745 -0.0422 -0.8511 -1.0303
 8369SOL    HW236741   2.127   0.097   1.843  0.5719 -0.7895 -0.9100
 8370SOL     OW36742   3.556   1.080  17.455  0.3062 -0.3549 -0.4366
 8370SOL    HW136743   3.535   1.094  17.363  1.1007 -0.6702 -0.6686
 8370SOL    HW236744   3.599   0.995  17.454  1.4406  0.1945  0.2377
 8371SOL     OW36745   4.626   2.987   2.402 -0.1223  0.0040 -0.0378
 8371SOL    HW136746   4.565   3.022   2.337 -3.3992  1.1790  3.7431
 8371SOL    HW236747   4.594   2.897   2.406  0.4820 -0.1664  0.8253
 8372SOL     OW36748   3.887   3.224   5.137 -0.1367  0.0253  0.1492
 8372SOL    HW136749   3.831   3.210   5.060  0.8824 -2.6783 -0.1071
 8372SOL    HW236750   3.824   3.226   5.209  0.2166 -2.3322  0.5362
 8373SOL     OW36751   1.998   0.309  17.140 -0.0606  0.1939  0.0597
 8373SOL    HW136752   1.927   0.279  17.197  0.4232 -0.5387  0.2776
 8373SOL    HW236753   2.052   0.355  17.205  0.0980  1.5019 -1.0046
 8374SOL     OW36754   1.053   2.192   3.461 -0.6705 -0.0601  0.2093
 8374SOL    HW136755   1.047   2.277   3.418  0.4887 -0.3681 -0.5530
 8374SOL    HW236756   1.103   2.218   3.539  0.7799  1.6567 -1.2903
 8375SOL     OW36757   3.678   0.563  15.944 -0.8592 -0.2191 -0.6294
 8375SOL    HW136758   3.593   0.606  15.938  0.3895  2.4155  0.6560
 8375SOL    HW236759   3.738   0.629  15.978 -2.7123  0.0741  2.0815
 8376SOL     OW36760   3.201   0.454   1.466 -0.2351 -0.2175  0.0545
 8376SOL    HW136761   3.183   0.411   1.382 -1.6034 -0.8165  0.6571
 8376SOL    HW236762   3.162   0.397   1.532  0.8182 -2.4136 -1.2244
 8377SOL     OW36763   3.368   1.386   7.087  0.1733 -0.3340  0.1258
 8377SOL    HW136764   3.450   1.367   7.040 -0.7792 -2.7473 -0.5525
 8377SOL    HW236765   3.337   1.454   7.027  0.7290  1.2119  1.6041
 8378SOL     OW36766   1.637   3.418   4.160  0.1422 -0.1677  0.3397
 8378SOL    HW136767   1.616   3.354   4.092 -2.4214 -0.3651  1.3369
 8378SOL    HW236768   1.572   3.385   4.222  0.7031 -0.7649  0.6111
 8379SOL     OW36769   4.202   3.162   2.636  0.4052  0.1393 -0.0833
 8379SOL    HW136770   4.252   3.081   2.646 -0.5816 -0.3269  1.0587
 8379SOL    HW236771   4.273   3.221   2.611  0.4998  0.1568  0.2348
 8380SOL     OW36772   3.264   1.235   3.499 -0.1534 -0.2715 -0.6464
 8380SOL    HW136773   3.321   1.175   3.451  3.1258  2.1706  0.1192
 8380SOL    HW236774   3.218   1.279   3.428  2.1440  1.6097 -0.9792
 8381SOL     OW36775   4.710   1.725   3.865  1.0730 -0.1885 -0.6231
 8381SOL    HW136776   0.006   1.640   3.888 -1.6035 -0.8534  1.2482
 8381SOL    HW236777   4.693   1.709   3.773  1.7101 -2.1981 -0.4002
 8382SOL     OW36778   1.368   3.287   1.644 -0.3512 -0.2475  0.2761
 8382SOL    HW136779   1.326   3.278   1.730 -0.0685 -0.3766  0.4015
 8382SOL    HW236780   1.375   3.382   1.634  1.3257 -0.5046 -1.0005
 8383SOL     OW36781   2.750   3.671  10.945  0.0402 -0.0528  0.0821
 8383SOL    HW136782   2.711   3.754  10.972 -1.0593 -1.0385  1.5165
 8383SOL    HW236783   2.830   3.676  10.997 -1.0194  3.1857  1.4004
 8384SOL     OW36784   1.229   0.555   6.671 -0.5948 -0.4608  0.5842
 8384SOL    HW136785   1.233   0.642   6.711 -0.2229  0.4809 -1.4554
 8384SOL    HW236786   1.214   0.581   6.579 -0.2952  0.5376  0.8190
 8385SOL     OW36787   3.249   4.117   4.867  0.3285 -0.3872 -0.5112
 8385SOL    HW136788   3.243   4.023   4.853 -1.2922 -0.5868  1.5591
 8385SOL    HW236789   3.343   4.135   4.862  0.1193  1.2510  1.3650
 8386SOL     OW36790   4.633   4.226  10.129 -0.1475 -1.2556  0.4162
 8386SOL    HW136791   4.694   4.155  10.148  0.2250 -0.7820  0.9897
 8386SOL    HW236792   4.613   4.213  10.037 -2.0219  0.6406  0.5469
 8387SOL     OW36793   3.842   3.296  13.074 -0.3979 -0.4588  0.3549
 8387SOL    HW136794   3.758   3.331  13.044  1.5818  1.7969 -2.6474
 8387SOL    HW236795   3.856   3.221  13.016 -0.9181 -0.3021  0.0318
 8388SOL     OW36796   1.218   0.704   7.693 -0.3745 -0.4407  0.2948
 8388SOL    HW136797   1.234   0.735   7.782 -0.5566 -0.4875  0.3421
 8388SOL    HW236798   1.302   0.707   7.647 -1.0547  1.7387 -0.8417
 8389SOL     OW36799   1.843   1.805   3.882  0.4834  0.3545 -0.4827
 8389SOL    HW136800   1.790   1.858   3.941  0.1965  0.8253 -1.1674
 8389SOL    HW236801   1.920   1.860   3.875  0.3817  0.7254  1.4043
 8390SOL     OW36802   0.131   4.030   0.252 -0.0213 -0.2991  0.2960
 8390SOL    HW136803   0.045   4.024   0.293 -0.7012 -0.2343 -1.1247
 8390SOL    HW236804   0.156   3.938   0.242 -1.2179 -0.6433  0.4757
 8391SOL     OW36805   1.200   2.478   3.395  0.1607 -0.0460  0.3340
 8391SOL    HW136806   1.244   2.482   3.310 -1.1227  0.4481 -0.3095
 8391SOL    HW236807   1.266   2.504   3.460  0.9961 -0.6786 -0.2550
 8392SOL     OW36808   2.292   4.605   4.659 -0.0841  0.5001 -0.1790
 8392SOL    HW136809   2.199   4.581   4.658 -0.7821  3.3117 -1.8070
 8392SOL    HW236810   2.294   4.691   4.700  0.4598  0.3304  0.1413
 8393SOL     OW36811   4.583   2.884   5.909  0.3449 -0.1236 -0.0037
 8393SOL    HW136812   4.492   2.909   5.924 -0.3653 -1.0581 -2.7668
 8393SOL    HW236813   4.631   2.884   5.992  0.8192  1.2430 -0.2825
 8394SOL     OW36814   4.616   1.478   8.658 -0.7792 -0.2255 -0.3923
 8394SOL    HW136815   4.674   1.402   8.662 -0.9894 -0.3969 -0.6427
 8394SOL    HW236816   4.545   1.446   8.603 -0.6744 -1.9906  0.5117
 8395SOL     OW36817   2.459   2.102  14.440 -0.3282  0.3037 -0.2451
 8395SOL    HW136818   2.533   2.162  14.447  1.1135 -1.4379 -0.7511
 8395SOL    HW236819   2.407   2.117  14.519 -1.0132 -2.6247 -0.1352
 8396SOL     OW36820   2.503   1.572   5.797  0.3897  0.0911 -0.4478
 8396SOL    HW136821   2.432   1.513   5.770  0.6507 -0.5475  0.2739
 8396SOL    HW236822   2.545   1.530   5.871 -1.1692  0.9157  0.9083
 8397SOL     OW36823   0.089   1.829   9.959  0.0213  0.4479 -0.3236
 8397SOL    HW136824   0.092   1.747  10.009  1.5461  0.2171 -0.8024
 8397SOL    HW236825   0.029   1.880  10.014 -0.2969  2.9613 -3.0329
 8398SOL     OW36826   0.958   0.422  10.269  0.4451  0.0205 -0.3118
 8398SOL    HW136827   0.877   0.421  10.219  0.2843 -1.4563 -0.0465
 8398SOL    HW236828   1.002   0.489  10.217 -0.8632  2.2594  1.4869
 8399SOL     OW36829   4.153   4.585  16.267  0.5075  0.2934 -0.3257
 8399SOL    HW136830   4.173   4.519  16.333  0.6294  0.5973 -0.0616
 8399SOL    HW236831   4.118   4.536  16.193  1.7547  0.0617 -0.7468
 8400SOL     OW36832   2.939   0.795   7.805  0.5737  0.1387  0.1060
 8400SOL    HW136833   2.926   0.873   7.751 -2.4124  0.0847  0.7922
 8400SOL    HW236834   3.026   0.812   7.843  1.5733 -0.0210 -2.0956
 8401SOL     OW36835   0.091   2.374   4.334  0.1401 -0.5849 -0.0202
 8401SOL    HW136836   0.154   2.439   4.367 -0.0983 -0.5192  0.2989
 8401SOL    HW236837   0.059   2.427   4.261  0.2172  1.9501  1.7908
 8402SOL     OW36838   1.353   2.005  16.401 -0.4278 -0.5533  0.1270
 8402SOL    HW136839   1.344   1.961  16.317  0.1573 -0.0909 -0.1857
 8402SOL    HW236840   1.394   2.089  16.380  2.7500 -2.0950  0.1595
 8403SOL     OW36841   4.286   0.569   4.420  0.0768  0.0723  0.8667
 8403SOL    HW136842   4.214   0.587   4.480  0.9505  0.5405  1.7860
 8403SOL    HW236843   4.355   0.629   4.449 -1.1421  2.3946 -1.0181
 8404SOL     OW36844   0.642   3.552  15.062 -0.1774  0.2825 -0.5449
 8404SOL    HW136845   0.562   3.590  15.099 -0.6179  0.4032 -1.6243
 8404SOL    HW236846   0.620   3.459  15.055 -0.7904  0.3978 -0.2588
 8405SOL     OW36847   1.881   4.054   1.952 -0.5243 -0.0704 -0.4906
 8405SOL    HW136848   1.805   4.111   1.942  0.3204  1.2306  0.6396
 8405SOL    HW236849   1.904   4.071   2.043  0.0448  0.8921 -0.8135
 8406SOL     OW36850   4.478   4.510  11.658  0.5213  0.4938 -0.3713
 8406SOL    HW136851   4.426   4.464  11.724  0.6187  0.2603 -0.4573
 8406SOL    HW236852   4.562   4.532  11.698  0.8121  1.6589 -1.6194
 8407SOL     OW36853   0.081   2.608  11.333  0.3762 -0.0000 -0.0164
 8407SOL    HW136854   0.044   2.520  11.326 -0.6671  0.7653 -3.9122
 8407SOL    HW236855   0.064   2.642  11.421 -1.1641 -0.7119 -0.0285
 8408SOL     OW36856   2.904   3.532   3.932 -0.1879 -0.8147  0.1018
 8408SOL    HW136857   2.941   3.557   4.017  0.0460  0.0529 -0.2651
 8408SOL    HW236858   2.935   3.590   3.864 -0.4682 -0.7099  0.0652
 8409SOL     OW36859   2.116   3.729  14.518 -0.3653  0.0610  0.3446
 8409SOL    HW136860   2.198   3.775  14.539  1.5714 -3.9608  1.5271
 8409SOL    HW236861   2.067   3.754  14.596 -2.8149 -0.1277 -1.1265
 8410SOL     OW36862   1.935   3.939  16.950  0.6718 -0.4751  0.2361
 8410SOL    HW136863   1.848   3.963  16.983  0.5019 -0.3940 -0.2662
 8410SOL    HW236864   1.942   3.844  16.960 -2.7957 -0.5657  1.9744
 8411SOL     OW36865   1.622   0.101  14.000 -0.4562  0.0453  1.0326
 8411SOL    HW136866   1.708   0.140  14.016  0.0013 -0.0450 -1.1352
 8411SOL    HW236867   1.639   0.007  14.002 -0.3866  0.0638  1.3278
 8412SOL     OW36868   2.550   0.703   8.847 -0.2248  0.3766  0.4788
 8412SOL    HW136869   2.535   0.741   8.760  0.2654  3.4531  1.7459
 8412SOL    HW236870   2.488   0.631   8.846 -0.2488  0.3849  1.8047
 8413SOL     OW36871   1.751   4.685   8.603 -0.3433  0.1926  0.1764
 8413SOL    HW136872   1.715   4.710   8.688 -1.6734  0.8145 -0.5705
 8413SOL    HW236873   1.837   4.652   8.632  0.5329  1.2467 -1.2135
 8414SOL     OW36874   0.641   1.573   8.207 -0.3294 -0.0561  0.1986
 8414SOL    HW136875   0.673   1.495   8.162 -1.2265 -0.5399  0.4086
 8414SOL    HW236876   0.607   1.624   8.133  0.5533 -0.2516 -0.3440
 8415SOL     OW36877   2.054   1.002   8.347 -0.0867 -0.2038  0.0206
 8415SOL    HW136878   2.005   1.084   8.357  1.6957  0.9027 -0.2757
 8415SOL    HW236879   2.109   0.995   8.425  3.8785 -1.9456 -2.9606
 8416SOL     OW36880   4.107   1.827   0.800 -0.2216 -0.4660 -0.4045
 8416SOL    HW136881   4.181   1.832   0.739  0.7232 -1.4741  0.6458
 8416SOL    HW236882   4.109   1.910   0.846  0.0961 -0.2263 -0.8458
 8417SOL     OW36883   1.343   2.330  16.769 -0.1590  0.0706 -0.1176
 8417SOL    HW136884   1.299   2.339  16.684 -1.5907 -3.1394  0.2958
 8417SOL    HW236885   1.327   2.240  16.797 -0.5891 -0.2630 -1.4130
 8418SOL     OW36886   4.612   3.095   8.079  0.0750  0.1531 -0.2287
 8418SOL    HW136887   4.680   3.036   8.047 -0.6922 -0.8330 -0.0370
 8418SOL    HW236888   4.605   3.157   8.006 -3.7739 -1.0111 -0.8772
 8419SOL     OW36889   0.721   4.721   1.188 -0.3733 -0.3504  0.0686
 8419SOL    HW136890   0.778   0.024   1.251  0.4733  1.8632 -2.2425
 8419SOL    HW236891   0.703   4.636   1.228 -1.3472 -0.2482 -0.1487
 8420SOL     OW36892   4.020   0.986   2.600 -0.2516  0.2713  0.1184
 8420SOL    HW136893   4.073   1.026   2.669  0.0151 -0.5620  0.3870
 8420SOL    HW236894   4.083   0.936   2.550 -0.6629 -0.1483  0.0218
 8421SOL     OW36895   0.096   3.894   2.729  0.0031  0.2479 -0.7702
 8421SOL    HW136896   0.092   3.799   2.740 -1.4826  0.5000  0.8355
 8421SOL    HW236897   0.088   3.912   2.822  0.4294  2.4825 -1.1654
 8422SOL     OW36898   2.307   1.944   3.085 -0.2363 -0.1600 -0.0865
 8422SOL    HW136899   2.353   1.873   3.131  1.5284 -0.2788 -2.0470
 8422SOL    HW236900   2.375   1.979   3.027 -0.8701 -0.9744 -1.3118
 8423SOL     OW36901   3.955   1.391  15.422  0.0749 -0.0853 -0.6528
 8423SOL    HW136902   3.969   1.479  15.388  1.0849 -0.1446 -0.3860
 8423SOL    HW236903   3.947   1.346  15.338 -2.1030  0.7070 -0.8826
 8424SOL     OW36904   2.637   2.955   0.484  0.7993  0.2202 -0.2052
 8424SOL    HW136905   2.705   2.943   0.418  1.2020  2.2530 -0.1699
 8424SOL    HW236906   2.561   2.920   0.438  1.0680  2.0776 -2.0807
 8425SOL     OW36907   2.330   2.484   9.358 -0.1766  0.4444  0.3888
 8425SOL    HW136908   2.315   2.527   9.442  0.8122  1.4056  0.0843
 8425SOL    HW236909   2.278   2.537   9.298  0.8654  1.4862  0.3961
 8426SOL     OW36910   0.272   4.346   4.340  0.2562  0.2780  0.1901
 8426SOL    HW136911   0.221   4.366   4.419 -0.0945  0.1403 -0.0041
 8426SOL    HW236912   0.196   4.305   4.298  0.0170 -0.6845  1.5674
 8427SOL     OW36913   3.202   1.705  13.093  0.1285  0.1411  0.0251
 8427SOL    HW136914   3.139   1.648  13.050  2.5418 -0.8978 -2.1293
 8427SOL    HW236915   3.252   1.641  13.144  3.0647  3.0561  0.8113
 8428SOL     OW36916   0.167   1.275   0.216 -0.2359  0.0623 -0.3382
 8428SOL    HW136917   0.219   1.313   0.146  0.9194 -2.7903 -1.0117
 8428SOL    HW236918   0.144   1.355   0.264  1.7641  0.2974  0.2228
 8429SOL     OW36919   1.096   2.307   7.302 -0.0334  0.2677  0.3539
 8429SOL    HW136920   1.111   2.309   7.397 -0.0953 -0.5931  0.3854
 8429SOL    HW236921   1.004   2.334   7.304  0.3969  1.8048 -1.1769
 8430SOL     OW36922   4.714   2.046   7.021  0.0819  0.0593  0.4251
 8430SOL    HW136923   0.010   2.039   7.109  0.8171  0.3554  0.1472
 8430SOL    HW236924   4.631   2.089   7.037  0.0145  0.8336 -2.0395
 8431SOL     OW36925   4.004   1.759   5.743  0.3460 -0.2144 -0.1188
 8431SOL    HW136926   4.070   1.804   5.796  1.8441 -2.4434 -0.1141
 8431SOL    HW236927   4.042   1.773   5.656  1.4354  3.7994  0.9620
 8432SOL     OW36928   0.454   4.634  17.501 -0.2489 -0.0410  0.3144
 8432SOL    HW136929   0.431   4.604  17.589 -0.6456 -0.4951  0.0609
 8432SOL    HW236930   0.369   4.646  17.458 -0.2734 -0.8672  0.1236
 8433SOL     OW36931   4.516   1.267   4.500  0.8043 -0.5107 -0.3527
 8433SOL    HW136932   4.440   1.306   4.543  2.2169  0.2698  1.4534
 8433SOL    HW236933   4.581   1.254   4.569  0.6510  1.3738  0.1487
 8434SOL     OW36934   0.652   2.924   1.307  0.3181 -0.4777 -0.1488
 8434SOL    HW136935   0.743   2.924   1.278  0.3018  0.8113 -0.2032
 8434SOL    HW236936   0.656   2.895   1.399 -0.9047  0.1441  0.1026
 8435SOL     OW36937   1.952   2.348   7.457 -0.0122 -1.2358  0.0973
 8435SOL    HW136938   2.034   2.366   7.503 -0.1828  2.4035 -1.0447
 8435SOL    HW236939   1.983   2.358   7.367 -2.2295 -0.9532 -0.6317
 8436SOL     OW36940   4.666   4.183   4.846  0.3063 -0.8521 -0.0005
 8436SOL    HW136941   4.722   4.245   4.799 -0.1357  0.9022  1.8056
 8436SOL    HW236942   4.720   4.183   4.924  0.7068  1.3460 -0.2786
 8437SOL     OW36943   0.620   0.333   8.835  0.3238 -0.0598  0.2862
 8437SOL    HW136944   0.582   0.345   8.922 -0.8976  0.9386 -0.3894
 8437SOL    HW236945   0.675   0.255   8.845  1.7111  0.8471 -0.3429
 8438SOL     OW36946   2.748   4.072   6.464 -0.7619  0.1030 -0.3618
 8438SOL    HW136947   2.667   4.095   6.509 -0.3075 -0.4471  0.7427
 8438SOL    HW236948   2.765   3.981   6.490 -0.9125  0.5594  1.3761
 8439SOL     OW36949   3.091   2.556   2.522 -0.3689  0.2724 -0.2990
 8439SOL    HW136950   2.997   2.540   2.526 -0.0637 -0.9197  1.6221
 8439SOL    HW236951   3.103   2.616   2.596 -3.0854  0.3916  0.0674
 8440SOL     OW36952   0.450   1.133   6.588 -0.1008 -0.1948  0.1026
 8440SOL    HW136953   0.533   1.085   6.586 -1.2188 -2.1295 -0.2656
 8440SOL    HW236954   0.385   1.080   6.541 -0.5069  1.2165 -0.9522
 8441SOL     OW36955   1.897   0.715   0.944  0.1143 -0.3714 -0.5666
 8441SOL    HW136956   1.823   0.681   0.995  0.6710 -0.5541  0.1221
 8441SOL    HW236957   1.947   0.637   0.919 -0.3352 -1.4639  1.9253
 8442SOL     OW36958   4.020   4.185   8.822 -0.1186 -0.2149 -0.0092
 8442SOL    HW136959   3.943   4.195   8.766  0.2458 -2.7510 -0.9792
 8442SOL    HW236960   4.017   4.096   8.857 -1.4333  0.6850  2.1780
 8443SOL     OW36961   1.932   1.216   4.533 -0.4459 -0.1209 -0.1026
 8443SOL    HW136962   1.935   1.184   4.623 -0.4219  0.7749  0.2115
 8443SOL    HW236963   1.980   1.149   4.482  1.1153 -0.3624  1.6990
 8444SOL     OW36964   2.910   3.788   2.755 -0.1738  0.2504  0.2584
 8444SOL    HW136965   2.885   3.712   2.808 -0.5401  0.7485  0.7943
 8444SOL    HW236966   2.827   3.835   2.747 -1.3760 -2.2845 -1.9414
 8445SOL     OW36967   0.733   4.124   7.516  0.2251  0.0037  1.0256
 8445SOL    HW136968   0.760   4.211   7.486  0.8203 -0.6937 -0.4170
 8445SOL    HW236969   0.718   4.128   7.611  0.8577  2.6112  1.0317
 8446SOL     OW36970   3.614   3.274  16.111  0.1278  0.6111  0.1458
 8446SOL    HW136971   3.609   3.180  16.131 -1.7260  0.6229 -0.2650
 8446SOL    HW236972   3.548   3.300  16.174  0.9471  1.6974  0.5546
 8447SOL     OW36973   4.356   0.966   5.747  0.1569 -0.2785  0.1981
 8447SOL    HW136974   4.431   0.926   5.790  0.9078  0.7288 -0.1833
 8447SOL    HW236975   4.284   0.935   5.802 -0.2075 -1.9440 -1.2199
 8448SOL     OW36976   3.617   0.149   0.347  0.3372 -0.6587 -0.1280
 8448SOL    HW136977   3.630   0.214   0.279  0.9059 -2.3473 -1.6406
 8448SOL    HW236978   3.647   0.067   0.307  0.7630 -1.0770  1.0476
 8449SOL     OW36979   3.153   1.600   0.138  0.3410 -0.6793 -0.3192
 8449SOL    HW136980   3.150   1.523   0.082 -0.7368 -1.0915  0.3106
 8449SOL    HW236981   3.098   1.573   0.211  1.5258 -1.3366  0.3341
 8450SOL     OW36982   1.967   4.613   7.309  0.3525 -0.4312  0.0521
 8450SOL    HW136983   1.887   4.587   7.264 -0.5712  0.8862  0.9292
 8450SOL    HW236984   1.937   4.688   7.360  2.2667 -0.2193  0.8408
 8451SOL     OW36985   0.488   1.246   3.889 -0.4609  0.1318  0.2777
 8451SOL    HW136986   0.537   1.190   3.949  0.4376  0.5736 -0.0435
 8451SOL    HW236987   0.533   1.326   3.917 -0.3019 -0.4058  1.5499
 8452SOL     OW36988   3.320   2.342   2.837 -0.0016  0.6190 -0.0925
 8452SOL    HW136989   3.389   2.284   2.805 -1.1740 -1.4740  1.1438
 8452SOL    HW236990   3.322   2.421   2.782 -1.3711  0.5239 -0.2813
 8453SOL     OW36991   0.017   3.354   6.373 -0.5084  0.2126  0.6838
 8453SOL    HW136992   4.678   3.324   6.330 -0.5082  0.6897  0.3495
 8453SOL    HW236993   0.050   3.417   6.308 -1.5051  1.0005  0.9476
 8454SOL     OW36994   1.304   4.416   6.945 -0.3297 -0.2172  0.1559
 8454SOL    HW136995   1.302   4.339   7.002  0.9952  0.8321  1.6346
 8454SOL    HW236996   1.380   4.386   6.895 -1.0972 -0.4225 -0.8866
 8455SOL     OW36997   0.049   3.620  12.515  0.1093  0.1668 -0.1068
 8455SOL    HW136998   0.115   3.688  12.504 -1.2994  1.8193  1.5299
 8455SOL    HW236999   0.012   3.635  12.602 -1.2434 -0.7782 -0.5073
 8456SOL     OW37000   1.317   2.369   2.322 -0.4563 -0.8202  0.1466
 8456SOL    HW137001   1.273   2.453   2.335  2.2095  0.4291  1.0959
 8456SOL    HW237002   1.294   2.350   2.231 -0.7507 -0.8410  0.2283
 8457SOL     OW37003   1.793   1.342   0.794  0.6127  0.0795  0.1115
 8457SOL    HW137004   1.838   1.426   0.781  0.0857  0.3461  0.0125
 8457SOL    HW237005   1.865   1.279   0.788 -0.1386 -0.7728  0.0174
 8458SOL     OW37006   3.498   0.758  17.584 -0.1414 -0.0506 -0.4441
 8458SOL    HW137007   3.428   0.760  17.519 -1.8656 -0.2840  1.3915
 8458SOL    HW237008   3.548   0.689  17.539  0.4340 -0.1438  0.3418
 8459SOL     OW37009   1.715   1.363   6.114 -0.0197  0.1548  0.5817
 8459SOL    HW137010   1.743   1.271   6.107  1.3675  0.4879  1.6353
 8459SOL    HW237011   1.655   1.355   6.040 -0.2192  0.5002  0.7090
 8460SOL     OW37012   2.006   1.473  17.199  0.1524 -0.0693 -0.2974
 8460SOL    HW137013   2.096   1.451  17.224 -0.6221 -1.8956  0.9563
 8460SOL    HW237014   1.982   1.386  17.167 -1.3989  0.3308 -0.2235
 8461SOL     OW37015   0.209   0.963  12.558  0.2056  0.2279  0.1183
 8461SOL    HW137016   0.221   1.058  12.560  1.7905  0.0452 -0.6170
 8461SOL    HW237017   0.291   0.939  12.600  0.3466 -0.4721 -0.5474
 8462SOL     OW37018   2.138   2.594   1.458  0.1063  0.0228  0.5396
 8462SOL    HW137019   2.115   2.630   1.372  0.0434  1.2050  1.0499
 8462SOL    HW237020   2.209   2.534   1.433 -0.1413 -0.6973  1.5974
 8463SOL     OW37021   3.801   0.413   6.943  0.0662  0.3269 -0.3561
 8463SOL    HW137022   3.790   0.321   6.917 -0.3582  0.4478 -0.6118
 8463SOL    HW237023   3.770   0.460   6.866 -0.6549 -0.0415 -0.2958
 8464SOL     OW37024   1.852   1.507   3.430  0.0624 -0.0277  0.0756
 8464SOL    HW137025   1.893   1.557   3.359  0.3986 -0.2911  0.0831
 8464SOL    HW237026   1.764   1.544   3.422  0.4603  1.2259  1.5058
 8465SOL     OW37027   2.892   0.994  11.959 -0.3190 -0.0925  0.2573
 8465SOL    HW137028   2.799   0.999  11.980 -0.3523 -0.6518  0.2378
 8465SOL    HW237029   2.937   1.010  12.042  1.6174  1.2972 -1.0645
 8466SOL     OW37030   2.066   3.193  16.143  0.6584 -0.1139 -0.3612
 8466SOL    HW137031   1.998   3.164  16.082 -1.3482  1.2247  1.2026
 8466SOL    HW237032   2.144   3.176  16.090  1.3485  0.6122  0.4222
 8467SOL     OW37033   4.698   2.711   6.507  0.2946 -0.4512 -0.3308
 8467SOL    HW137034   4.669   2.725   6.417  0.1899 -3.0683 -0.6982
 8467SOL    HW237035   0.044   2.678   6.484 -0.8691 -2.8749 -1.2257
 8468SOL     OW37036   1.188   3.887   1.978  0.1022  0.3465  0.1232
 8468SOL    HW137037   1.175   3.944   2.054  1.4836 -1.1209  1.4446
 8468SOL    HW237038   1.158   3.803   2.011  0.4385  0.2256  0.1134
 8469SOL     OW37039   3.621   3.209   1.797 -0.1429 -1.0741  0.2185
 8469SOL    HW137040   3.654   3.148   1.732 -0.7939 -1.8902  0.6583
 8469SOL    HW237041   3.560   3.160   1.853 -2.8489  2.6113  0.4721
 8470SOL     OW37042   2.033   4.501   3.192  0.6365 -0.2746  0.1212
 8470SOL    HW137043   2.004   4.547   3.271 -0.2805  0.2268 -0.5094
 8470SOL    HW237044   2.057   4.579   3.143 -1.4432 -0.3900 -1.0798
 8471SOL     OW37045   2.731   4.446   6.999  0.1846 -0.2875 -0.0448
 8471SOL    HW137046   2.736   4.366   6.946 -0.0676 -0.0380 -0.4473
 8471SOL    HW237047   2.681   4.505   6.941 -0.1362 -0.2183  0.3032
 8472SOL     OW37048   2.721   2.183   1.043  0.2935  0.1096 -0.0439
 8472SOL    HW137049   2.723   2.181   1.139  1.8535 -1.2557 -0.1123
 8472SOL    HW237050   2.788   2.118   1.023 -0.2757  0.0415 -1.7017
 8473SOL     OW37051   3.707   4.018  12.029  0.0721  0.2818 -0.3298
 8473SOL    HW137052   3.748   4.104  12.019 -2.4263  1.4980 -0.0523
 8473SOL    HW237053   3.627   4.029  11.979 -1.0142 -1.3801  1.0481
 8474SOL     OW37054   1.511   1.916   9.119 -0.4028 -0.0188  0.4372
 8474SOL    HW137055   1.425   1.946   9.148 -0.0002  1.6591 -0.0893
 8474SOL    HW237056   1.566   1.957   9.185  0.2191 -1.3245  0.7329
 8475SOL     OW37057   4.601   3.679  15.228  0.6176  0.0575  0.4473
 8475SOL    HW137058   4.627   3.730  15.304  0.7730  0.7827 -0.0930
 8475SOL    HW237059   4.582   3.603  15.283 -1.2742  0.6891  0.6796
 8476SOL     OW37060   3.502   0.198   2.293  0.2525 -0.3307  0.3345
 8476SOL    HW137061   3.582   0.242   2.322  1.8285 -3.3027  0.4224
 8476SOL    HW237062   3.531   0.171   2.206  0.6005 -0.3706  0.4607
 8477SOL     OW37063   0.644   2.380   1.431 -0.5325  0.5296  0.0977
 8477SOL    HW137064   0.554   2.403   1.409 -0.2267  2.6702  1.1428
 8477SOL    HW237065   0.686   2.446   1.376 -0.2781  0.4954  0.2492
 8478SOL     OW37066   2.693   0.831   6.184  0.2484 -0.1457  0.2131
 8478SOL    HW137067   2.754   0.849   6.113  1.7138 -0.8296  1.2981
 8478SOL    HW237068   2.689   0.916   6.227 -0.4850 -0.9438  1.7410
 8479SOL     OW37069   4.316   1.371   4.975  0.5698 -0.3583  0.5100
 8479SOL    HW137070   4.294   1.430   4.903 -1.4865 -2.5358 -0.6118
 8479SOL    HW237071   4.231   1.335   5.000 -0.8630  2.4439 -0.3831
 8480SOL     OW37072   4.124   3.540   4.578  0.0516  0.6567 -0.1618
 8480SOL    HW137073   4.112   3.607   4.645 -2.6689 -0.6219  0.6034
 8480SOL    HW237074   4.204   3.492   4.599  0.2834  0.6993 -0.9354
 8481SOL     OW37075   0.014   1.138   5.804  0.4088 -0.6766 -0.0942
 8481SOL    HW137076   0.012   1.050   5.841 -1.1983  0.7065  3.0476
 8481SOL    HW237077   0.107   1.158   5.795  0.5566 -0.7085  1.3764
 8482SOL     OW37078   2.108   1.131  11.595  0.0457 -0.2832  0.2853
 8482SOL    HW137079   2.103   1.190  11.671 -0.0148 -0.3574  0.3390
 8482SOL    HW237080   2.129   1.051  11.643  1.6917 -1.0125 -1.6426
 8483SOL     OW37081   2.499   0.525  10.973  0.1557  0.2266  0.0897
 8483SOL    HW137082   2.522   0.601  11.026  0.5571 -0.8908  1.5162
 8483SOL    HW237083   2.544   0.539  10.889 -2.6885 -0.0681 -1.4703
 8484SOL     OW37084   4.682   1.920   0.607  0.0489  0.1545  0.5411
 8484SOL    HW137085   4.725   2.004   0.592  0.9337 -0.3833  0.0687
 8484SOL    HW237086   4.599   1.944   0.650  0.5510  1.0151  1.0412
 8485SOL     OW37087   1.590   0.103   5.339  0.0166  0.0505  0.0718
 8485SOL    HW137088   1.588   0.139   5.427 -0.5216  0.0678  0.0535
 8485SOL    HW237089   1.615   0.012   5.350 -1.8152 -0.2203  1.8846
 8486SOL     OW37090   3.198   3.560  17.344  0.2554 -0.0763 -0.3881
 8486SOL    HW137091   3.293   3.549  17.344  0.2030 -0.5467  1.5368
 8486SOL    HW237092   3.187   3.654  17.357 -0.9067 -0.4710  1.5137
 8487SOL     OW37093   3.032   0.942   8.733  0.4886  0.3868  0.0696
 8487SOL    HW137094   3.012   1.034   8.752  1.7376  0.7871 -0.5580
 8487SOL    HW237095   2.969   0.922   8.663 -0.8025  2.9980  0.4690
 8488SOL     OW37096   2.110   0.340   8.389 -0.0135  0.4954  0.0121
 8488SOL    HW137097   2.140   0.338   8.298  3.5701 -2.1995  1.2948
 8488SOL    HW237098   2.026   0.384   8.373  0.5401  1.5365 -0.0040
 8489SOL     OW37099   1.040   3.914   9.383  0.0268 -0.1319 -0.1377
 8489SOL    HW137100   1.059   3.863   9.462 -2.5541 -2.1032 -0.7926
 8489SOL    HW237101   1.105   3.984   9.382 -0.6360  0.4703 -1.2735
 8490SOL     OW37102   3.225   4.629   4.498  0.4482  0.3343  0.1062
 8490SOL    HW137103   3.320   4.635   4.486  0.5986  0.5760  1.4426
 8490SOL    HW237104   3.234   4.689   4.571 -0.0420 -1.0321  1.2948
 8491SOL     OW37105   1.048   3.837  15.239  0.0010 -0.3336 -0.1486
 8491SOL    HW137106   1.086   3.774  15.300  2.1232  1.0062 -0.1027
 8491SOL    HW237107   1.081   3.801  15.157  0.8048 -1.5697  0.7169
 8492SOL     OW37108   0.917   0.094   4.496 -0.2618  0.1410  0.7505
 8492SOL    HW137109   0.970   0.166   4.530  1.7671 -1.0227  0.0688
 8492SOL    HW237110   0.845   0.148   4.463  0.1570  0.3125  0.1168
 8493SOL     OW37111   2.005   2.191   7.988 -0.0159 -0.3405 -0.3648
 8493SOL    HW137112   1.958   2.121   7.942 -0.5433  1.2697 -2.3005
 8493SOL    HW237113   1.946   2.221   8.057  0.5696  1.0283 -0.4431
 8494SOL     OW37114   3.373   4.328   3.216 -0.0884 -0.2089 -0.4650
 8494SOL    HW137115   3.330   4.391   3.274 -0.1300  2.1688 -3.1250
 8494SOL    HW237116   3.454   4.375   3.197  0.2146  0.1127  1.5806
 8495SOL     OW37117   4.541   3.918   2.810  0.0983  0.1522 -0.2620
 8495SOL    HW137118   4.477   3.867   2.761 -1.3291 -0.0982  1.8736
 8495SOL    HW237119   4.622   3.904   2.760  0.5923  0.2142  0.5091
 8496SOL     OW37120   2.452   0.916   6.951 -0.4619 -0.2411 -0.0011
 8496SOL    HW137121   2.395   0.985   6.917  1.1891  0.3470 -1.5812
 8496SOL    HW237122   2.521   0.916   6.885  0.6760  1.1671  1.1987
 8497SOL     OW37123   4.147   2.894   7.208  0.1282  0.4289 -0.4453
 8497SOL    HW137124   4.140   2.900   7.303 -0.8324  0.3884 -0.5207
 8497SOL    HW237125   4.060   2.910   7.173 -0.9041 -0.6423  1.6730
 8498SOL     OW37126   2.655   1.276  11.053 -0.0404 -0.0383 -0.1603
 8498SOL    HW137127   2.738   1.257  11.096 -0.8207 -2.0280  0.4724
 8498SOL    HW237128   2.593   1.319  11.111 -0.0946  0.0717 -0.3014
 8499SOL     OW37129   0.785   3.619   0.076  0.2627  0.1901 -0.2945
 8499SOL    HW137130   0.816   3.708   0.090 -0.0875  0.2770 -0.0699
 8499SOL    HW237131   0.777   3.591   0.167 -0.9896  2.3059  0.2566
 8500SOL     OW37132   3.165   3.446   6.885  0.7429  0.4966  0.0271
 8500SOL    HW137133   3.179   3.434   6.792  0.2802 -0.9734  0.1494
 8500SOL    HW237134   3.089   3.395   6.915  2.5332 -1.7096  0.7752
 8501SOL     OW37135   3.273   2.900   8.394  0.0205 -0.0831 -0.2827
 8501SOL    HW137136   3.204   2.937   8.450 -0.1708 -1.2945  0.2826
 8501SOL    HW237137   3.311   2.849   8.466  1.4856  0.1065 -0.9432
 8502SOL     OW37138   3.290   3.046   8.057  0.2912  0.0009  0.4862
 8502SOL    HW137139   3.278   2.958   8.092 -0.7726 -0.1769 -0.3389
 8502SOL    HW237140   3.276   3.041   7.963 -1.4473 -0.9533  0.7974
 8503SOL     OW37141   1.897   4.152   3.182  0.3263  0.1542 -0.5258
 8503SOL    HW137142   1.838   4.226   3.199 -2.5723 -1.6112 -2.9878
 8503SOL    HW237143   1.895   4.122   3.273  0.1481  1.9229  0.0667
 8504SOL     OW37144   4.503   2.202  14.808  0.0052 -0.4123 -0.7029
 8504SOL    HW137145   4.589   2.167  14.786 -0.1943 -1.4902  0.2362
 8504SOL    HW237146   4.505   2.277  14.748  0.0837  0.4177  0.3374
 8505SOL     OW37147   1.925   0.097   5.443  0.5979  0.3378  0.3283
 8505SOL    HW137148   2.011   0.138   5.435 -0.6018  2.7915  0.0158
 8505SOL    HW237149   1.876   0.171   5.478 -1.1306 -0.4307 -0.4411
 8506SOL     OW37150   4.506   1.728  14.359 -0.4908 -0.4962  0.2886
 8506SOL    HW137151   4.509   1.813  14.403 -2.8156 -0.5277  0.4626
 8506SOL    HW237152   4.417   1.714  14.329  0.8316 -0.4304 -3.6327
 8507SOL     OW37153   0.317   0.612   8.287  0.0466 -0.2555  0.2687
 8507SOL    HW137154   0.355   0.692   8.252  0.3387  0.0588  1.2858
 8507SOL    HW237155   0.341   0.560   8.211  0.5466  1.0462 -0.4589
 8508SOL     OW37156   3.482   0.084   7.048 -0.0015  0.2471  0.2248
 8508SOL    HW137157   3.470   0.176   7.070 -0.4019  0.4316 -0.7557
 8508SOL    HW237158   3.457   0.039   7.129 -2.9071 -0.3143 -0.9950
 8509SOL     OW37159   3.652   3.308   4.123 -0.0951  0.3593  0.6712
 8509SOL    HW137160   3.712   3.234   4.113  1.0060  1.3295  0.1183
 8509SOL    HW237161   3.574   3.277   4.078 -1.4729  3.2432  1.0586
 8510SOL     OW37162   2.186   4.563   6.845 -0.3928 -0.3482  0.3926
 8510SOL    HW137163   2.138   4.645   6.833 -0.2266 -0.1618  0.9891
 8510SOL    HW237164   2.198   4.570   6.940  0.7438 -0.2439  0.2386
 8511SOL     OW37165   4.237   3.031   9.848  0.0541  0.0959  0.2490
 8511SOL    HW137166   4.207   3.002   9.934 -1.0566 -2.1217 -0.8547
 8511SOL    HW237167   4.299   3.102   9.866  0.8802 -1.1904  2.4798
 8512SOL     OW37168   3.670   2.567   6.049  0.3082 -0.2981  0.4760
 8512SOL    HW137169   3.707   2.549   6.135 -1.0287 -1.5675  0.7724
 8512SOL    HW237170   3.621   2.646   6.069  0.8276 -0.0943  0.9450
 8513SOL     OW37171   0.837   3.086   2.342 -0.2295  0.5050  0.0149
 8513SOL    HW137172   0.768   3.125   2.396 -0.2028 -0.7969  1.0078
 8513SOL    HW237173   0.825   3.137   2.262 -0.6547  1.3825  0.6384
 8514SOL     OW37174   1.981   0.479  14.470 -0.2695  0.0718  0.4704
 8514SOL    HW137175   2.038   0.512  14.400  0.6655 -0.2368  1.0810
 8514SOL    HW237176   2.021   0.393  14.481 -0.3034 -0.0910 -0.7826
 8515SOL     OW37177   4.234   2.788   4.666 -0.2040  0.2409 -0.3583
 8515SOL    HW137178   4.234   2.775   4.761  0.1639  0.3079 -0.3482
 8515SOL    HW237179   4.323   2.765   4.641  1.2197  2.9323  2.2326
 8516SOL     OW37180   4.343   3.002   5.209 -0.2867 -0.3186 -0.0704
 8516SOL    HW137181   4.361   3.008   5.115 -0.0194  0.7005  0.0446
 8516SOL    HW237182   4.248   3.004   5.216 -0.3956 -0.5490 -1.5393
 8517SOL     OW37183   4.195   3.930   2.506  0.5529  0.3656  0.5771
 8517SOL    HW137184   4.119   3.911   2.561 -1.1816  1.4171 -1.4815
 8517SOL    HW237185   4.160   3.965   2.425  3.1784 -0.7399 -1.0256
 8518SOL     OW37186   3.376   1.581  16.420 -0.2564  0.1521 -0.1015
 8518SOL    HW137187   3.379   1.534  16.337 -2.1378  1.5966 -0.9939
 8518SOL    HW237188   3.405   1.671  16.401  1.1593 -0.4590 -0.7818
 8519SOL     OW37189   2.229   4.472   8.122  0.4162 -0.3623  0.8823
 8519SOL    HW137190   2.289   4.408   8.161  0.4164 -1.2204 -0.5160
 8519SOL    HW237191   2.267   4.554   8.154 -0.4710  0.0444  0.9127
 8520SOL     OW37192   1.118   4.379   6.041  0.2151  0.1675  0.1077
 8520SOL    HW137193   1.197   4.427   6.066 -0.8669  2.2838 -0.5392
 8520SOL    HW237194   1.163   4.304   6.003 -0.6529 -0.3728  0.1245
 8521SOL     OW37195   0.885   4.537   1.648  0.2938 -0.5887 -0.1954
 8521SOL    HW137196   0.846   4.488   1.575 -2.7972 -0.8337  1.6211
 8521SOL    HW237197   0.970   4.497   1.661 -0.0145 -0.7876  1.1474
 8522SOL     OW37198   1.778   0.495   3.453  0.0566  0.0469 -0.2364
 8522SOL    HW137199   1.731   0.540   3.523 -0.3006  1.1083 -1.1565
 8522SOL    HW237200   1.844   0.561   3.432  2.5901 -1.4696  2.8890
 8523SOL     OW37201   3.015   1.387   0.814  0.3969 -0.0405  0.4321
 8523SOL    HW137202   3.037   1.319   0.750 -1.6721 -2.2891  2.0953
 8523SOL    HW237203   2.930   1.355   0.845 -0.4466  1.3458 -0.4313
 8524SOL     OW37204   3.822   3.901  11.316 -0.3410 -0.2376  0.1046
 8524SOL    HW137205   3.810   3.815  11.277 -0.2887  0.4517 -1.4135
 8524SOL    HW237206   3.809   3.958  11.241  1.3203 -3.1066 -2.3488
 8525SOL     OW37207   1.975   3.774  12.628 -0.1671  0.4155 -0.0883
 8525SOL    HW137208   1.945   3.858  12.593  0.3232  0.6754  0.1153
 8525SOL    HW237209   1.896   3.737  12.666  0.9696 -2.3124 -0.3334
 8526SOL     OW37210   0.689   3.173   2.107  0.3005 -0.1785 -0.5489
 8526SOL    HW137211   0.698   3.244   2.043  0.3937  0.6939  0.4134
 8526SOL    HW237212   0.706   3.093   2.058 -0.3537 -0.5757 -0.1296
 8527SOL     OW37213   3.271   1.130  10.678 -0.4258 -0.0062 -0.0803
 8527SOL    HW137214   3.339   1.083  10.726 -0.6314 -0.7296 -0.4960
 8527SOL    HW237215   3.260   1.204  10.738 -0.5313 -1.4554  1.6839
 8528SOL     OW37216   3.677   3.277  14.790 -0.1797  0.4462  0.9917
 8528SOL    HW137217   3.636   3.278  14.704  0.9939 -0.8276  0.4221
 8528SOL    HW237218   3.622   3.216  14.840 -2.0634 -2.6796 -4.9524
 8529SOL     OW37219   3.493   1.349   8.495  0.1571 -0.1676 -0.2125
 8529SOL    HW137220   3.427   1.293   8.536 -2.1364  2.6298 -0.1290
 8529SOL    HW237221   3.537   1.391   8.569 -0.5800 -1.0827  0.7454
 8530SOL     OW37222   3.359   1.630   6.893  0.3116  0.1140 -0.4204
 8530SOL    HW137223   3.388   1.709   6.847  0.5920 -0.1029 -0.6142
 8530SOL    HW237224   3.318   1.577   6.826  1.9119 -2.3622  0.5396
 8531SOL     OW37225   0.499   2.795   2.300  0.8263 -0.3855 -0.3251
 8531SOL    HW137226   0.424   2.742   2.327  1.2352 -0.7116  0.1678
 8531SOL    HW237227   0.565   2.748   2.351  0.8562  0.5517  0.5159
 8532SOL     OW37228   1.101   3.412   6.721  0.1854  0.3882  0.0655
 8532SOL    HW137229   1.130   3.418   6.811 -1.2679  0.6168  0.5236
 8532SOL    HW237230   1.162   3.473   6.680  1.5713  1.3497  3.5585
 8533SOL     OW37231   0.180   0.709   5.782 -0.0078  0.2861 -0.2042
 8533SOL    HW137232   0.193   0.714   5.687 -1.6215  0.8476 -0.4041
 8533SOL    HW237233   0.262   0.744   5.818 -0.6476  0.9739  0.5876
 8534SOL     OW37234   4.070   1.794   8.865 -0.3743  0.1412  0.4560
 8534SOL    HW137235   4.115   1.723   8.820 -0.9166 -1.5860  2.6590
 8534SOL    HW237236   4.025   1.757   8.941  0.1726 -0.5380  0.4519
 8535SOL     OW37237   1.778   3.147  15.405 -0.0988 -0.4970  0.1443
 8535SOL    HW137238   1.866   3.109  15.407 -0.6633 -1.8095  0.3140
 8535SOL    HW237239   1.794   3.198  15.326 -0.9721  1.0906  0.9966
 8536SOL     OW37240   2.011   1.908   2.426 -0.7352  0.1330  0.2762
 8536SOL    HW137241   2.019   1.909   2.521 -2.5513 -3.2640  0.4742
 8536SOL    HW237242   2.011   1.814   2.410 -0.1670  0.3177 -0.7642
 8537SOL     OW37243   1.246   3.574   6.581 -0.1383 -0.0261 -0.0003
 8537SOL    HW137244   1.246   3.669   6.593  2.2892 -0.0364  0.1276
 8537SOL    HW237245   1.329   3.560   6.626 -0.2852 -1.2372 -0.1211
 8538SOL     OW37246   1.352   2.979   1.993  0.1998 -0.1845 -0.5817
 8538SOL    HW137247   1.440   2.971   2.029  0.5452  1.0324 -1.1360
 8538SOL    HW237248   1.318   2.890   2.003 -0.5322 -0.0371 -1.7278
 8539SOL     OW37249   2.873   0.789   1.442 -0.4201  0.0321 -0.3909
 8539SOL    HW137250   2.898   0.777   1.533  2.6575 -1.0727 -1.4028
 8539SOL    HW237251   2.782   0.819   1.445  0.5568  3.0920 -0.5070
 8540SOL     OW37252   3.328   2.723   3.812 -0.3739  0.6656 -0.6324
 8540SOL    HW137253   3.332   2.679   3.897 -0.3668  2.4704  0.2973
 8540SOL    HW237254   3.423   2.727   3.805 -0.2647 -1.7384 -0.7847
 8541SOL     OW37255   2.620   1.013   8.132  0.1540 -0.2485 -0.5903
 8541SOL    HW137256   2.696   1.045   8.182 -0.0490 -0.9053  0.1363
 8541SOL    HW237257   2.619   1.086   8.070 -1.8076 -0.0280 -0.2929
 8542SOL     OW37258   3.782   1.752   3.731 -0.1561 -0.4103 -0.4338
 8542SOL    HW137259   3.745   1.841   3.734 -0.5576 -0.5502 -1.0898
 8542SOL    HW237260   3.740   1.714   3.808 -0.3581 -0.2152 -0.4465
 8543SOL     OW37261   3.911   1.365   8.744 -0.1140 -0.7807  0.4713
 8543SOL    HW137262   3.932   1.277   8.712 -0.2192 -1.0937  1.2698
 8543SOL    HW237263   3.998   1.402   8.760 -0.1339 -0.7132  0.4211
 8544SOL     OW37264   0.725   1.688   4.353 -0.0748 -0.6502  0.3182
 8544SOL    HW137265   0.655   1.724   4.298  0.4851  1.2081  0.8289
 8544SOL    HW237266   0.748   1.760   4.412  2.4996 -1.2989  0.1108
 8545SOL     OW37267   2.415   1.569   4.654 -0.6311  0.0008 -0.4404
 8545SOL    HW137268   2.324   1.542   4.654 -0.8216  0.6246  1.2785
 8545SOL    HW237269   2.426   1.587   4.561  0.4867 -0.0289 -0.3206
 8546SOL     OW37270   0.775   0.362  13.307  0.5623 -0.1365  0.5196
 8546SOL    HW137271   0.724   0.429  13.262  0.1017  0.2393  1.5866
 8546SOL    HW237272   0.815   0.412  13.378  1.1108 -0.8969  0.7442
 8547SOL     OW37273   1.503   3.089   7.827  0.1288 -0.1922 -0.5907
 8547SOL    HW137274   1.426   3.144   7.835  1.1035  1.0016  0.6050
 8547SOL    HW237275   1.519   3.077   7.733  1.4339 -0.2071 -0.3667
 8548SOL     OW37276   1.353   2.222   6.547  0.5846 -0.0612  0.7797
 8548SOL    HW137277   1.361   2.284   6.475  0.6112  0.9719  1.6636
 8548SOL    HW237278   1.393   2.141   6.515  0.3670  0.6253 -1.2140
 8549SOL     OW37279   2.855   3.087  11.564  0.2041  0.3248 -0.0502
 8549SOL    HW137280   2.939   3.122  11.595 -0.4444  0.0512  2.0030
 8549SOL    HW237281   2.861   2.992  11.574  1.2165  0.2253 -1.5573
 8550SOL     OW37282   1.725   0.524   0.259 -0.4721  0.1059  0.8302
 8550SOL    HW137283   1.718   0.475   0.177 -0.3825  0.8809  0.3500
 8550SOL    HW237284   1.647   0.579   0.256 -0.5570 -0.0325  0.4815
 8551SOL     OW37285   4.597   3.275  17.134  0.4332 -0.0340 -0.2933
 8551SOL    HW137286   4.648   3.204  17.174 -0.4745 -0.5147  0.0174
 8551SOL    HW237287   4.599   3.338  17.206 -0.2602 -1.2914  0.8246
 8552SOL     OW37288   0.373   3.419   2.593  0.1090  0.2776  0.0982
 8552SOL    HW137289   0.368   3.355   2.522 -1.2269  0.5197 -0.0141
 8552SOL    HW237290   0.361   3.492   2.532 -1.0810  0.2053  0.2553
 8553SOL     OW37291   2.799   1.583   1.964 -0.1280 -0.1187 -0.3472
 8553SOL    HW137292   2.843   1.666   1.943  0.6283 -0.2009  0.9056
 8553SOL    HW237293   2.826   1.577   2.056  1.2176 -0.7183 -0.7846
 8554SOL     OW37294   0.221   0.331  17.442 -1.1156  0.2461  0.5801
 8554SOL    HW137295   0.297   0.371  17.483 -0.7582  0.9840 -0.7974
 8554SOL    HW237296   0.214   0.376  17.358  0.9351 -0.2038  0.1681
 8555SOL     OW37297   0.655   0.570  16.054  0.0952 -0.0145  0.4790
 8555SOL    HW137298   0.605   0.562  15.973  0.3491  2.1408  0.1113
 8555SOL    HW237299   0.613   0.633  16.113 -1.9056  0.4062 -1.4107
 8556SOL     OW37300   3.013   4.429   1.829 -0.0561  0.1378  0.2331
 8556SOL    HW137301   2.931   4.432   1.781 -1.2789  0.5426  2.3633
 8556SOL    HW237302   2.992   4.361   1.892 -3.3108  0.1842 -0.8297
 8557SOL     OW37303   0.365   0.110  17.751 -0.5894  0.3986  0.1680
 8557SOL    HW137304   0.357   0.206  17.746 -0.6541  0.3660 -0.4451
 8557SOL    HW237305   0.274   0.090   0.014  0.0085 -1.8891  0.5242
 8558SOL     OW37306   2.924   1.181   7.634 -0.2098 -0.2669  1.3086
 8558SOL    HW137307   2.915   1.104   7.578  0.0676 -0.9641  2.2180
 8558SOL    HW237308   2.944   1.233   7.556  1.0989  1.6406  2.9034
 8559SOL     OW37309   0.638   2.333  11.255 -0.0959  0.2186 -0.0724
 8559SOL    HW137310   0.728   2.304  11.240 -0.3417  0.3040 -1.7246
 8559SOL    HW237311   0.657   2.343  11.349  0.9871 -2.4701 -0.0014
 8560SOL     OW37312   0.123   0.273   3.224  0.7532 -0.1503 -0.1215
 8560SOL    HW137313   0.187   0.255   3.293  0.2958 -1.2416  0.0057
 8560SOL    HW237314   0.169   0.352   3.194  0.0479  0.1331 -0.4360
 8561SOL     OW37315   0.016   1.165   6.159 -0.0311  0.1588 -0.7167
 8561SOL    HW137316   0.057   1.224   6.222 -0.1384 -1.1527  0.5962
 8561SOL    HW237317   0.089   1.143   6.101  1.5228  2.0877  0.5111
 8562SOL     OW37318   3.062   0.780  14.415 -0.4266 -0.2139 -0.5332
 8562SOL    HW137319   3.044   0.803  14.506  0.0494  0.2831 -0.5662
 8562SOL    HW237320   3.038   0.688  14.402 -1.5579  0.3246 -2.2710
 8563SOL     OW37321   0.209   0.706  16.732  0.2450 -0.1560  0.1313
 8563SOL    HW137322   0.233   0.747  16.649 -0.9003 -0.4234 -0.3328
 8563SOL    HW237323   0.116   0.729  16.736  0.2123  0.0493 -1.7336
 8564SOL     OW37324   3.118   1.557   7.383 -0.2033  0.5561  0.2938
 8564SOL    HW137325   3.125   1.639   7.432 -2.8224  0.1639  1.3590
 8564SOL    HW237326   3.207   1.532   7.407 -0.3958 -0.5044 -0.0691
 8565SOL     OW37327   1.007   1.602   2.852 -0.1227  0.5941 -0.3260
 8565SOL    HW137328   0.962   1.566   2.776 -0.0763  1.9493 -0.9976
 8565SOL    HW237329   1.018   1.520   2.901 -1.0402 -0.1638 -1.3971
 8566SOL     OW37330   4.292   0.846   8.130 -0.1737  0.1601 -0.5104
 8566SOL    HW137331   4.210   0.853   8.179  0.1354 -0.0103  0.0300
 8566SOL    HW237332   4.353   0.828   8.201 -0.4697  1.6902  0.1411
 8567SOL     OW37333   1.768   4.638   3.830  0.4828  0.3769 -0.4381
 8567SOL    HW137334   1.783   4.549   3.798 -0.8345  1.0067 -2.7706
 8567SOL    HW237335   1.728   4.681   3.755 -0.4931  0.1692 -0.0291
 8568SOL     OW37336   1.210   3.654  17.731 -0.1629  0.2852 -0.0403
 8568SOL    HW137337   1.294   3.657   0.017  0.1457  1.3239 -0.6652
 8568SOL    HW237338   1.235   3.697  17.649 -0.4212  0.6355  0.0648
 8569SOL     OW37339   3.959   0.252   7.948 -0.2372  0.7255 -0.1363
 8569SOL    HW137340   3.966   0.192   7.873 -0.8575  1.1764 -0.5513
 8569SOL    HW237341   3.906   0.200   8.009 -0.2505 -1.1565 -1.7322
 8570SOL     OW37342   0.294   0.737   3.286  0.7583 -0.1619 -0.0581
 8570SOL    HW137343   0.343   0.818   3.269 -0.7523  0.9366  0.8763
 8570SOL    HW237344   0.258   0.769   3.368  1.2776  0.3564 -0.0318
 8571SOL     OW37345   0.571   2.281   7.413  0.2932 -0.1109  0.0143
 8571SOL    HW137346   0.600   2.266   7.503  0.3745  1.3171  0.2313
 8571SOL    HW237347   0.484   2.321   7.418  0.6349  0.7794 -1.2091
 8572SOL     OW37348   4.099   1.781   5.247 -0.4554  0.1600 -0.6578
 8572SOL    HW137349   4.125   1.695   5.214 -4.4411 -1.2242 -0.1569
 8572SOL    HW237350   4.081   1.827   5.165 -0.1595 -0.8980 -1.3198
 8573SOL     OW37351   3.821   1.374   7.316 -0.5746  0.1379 -0.6496
 8573SOL    HW137352   3.911   1.358   7.342 -1.3296 -2.2032  0.5724
 8573SOL    HW237353   3.805   1.299   7.258 -1.4581 -0.8755  0.8857
 8574SOL     OW37354   1.942   2.068   5.636 -0.5662  0.0333  0.1919
 8574SOL    HW137355   1.882   2.016   5.689 -0.8680 -0.4693 -0.6571
 8574SOL    HW237356   1.944   2.153   5.680  2.0309  0.4518 -0.7039
 8575SOL     OW37357   3.807   0.197   1.301  0.1200 -0.8808  0.3936
 8575SOL    HW137358   3.808   0.124   1.363  0.6709  0.9310  2.5250
 8575SOL    HW237359   3.828   0.267   1.363  2.9544 -2.8609  1.6387
 8576SOL     OW37360   0.353   0.084   5.578  0.0692  0.2586  0.3745
 8576SOL    HW137361   0.328   0.012   5.636 -0.5092 -1.1838 -1.6911
 8576SOL    HW237362   0.365   0.159   5.637 -1.6511 -0.6698  1.9074
 8577SOL     OW37363   0.387   3.361   2.165  0.2909 -0.8121 -0.2673
 8577SOL    HW137364   0.457   3.425   2.176 -0.6933 -0.0461  1.6375
 8577SOL    HW237365   0.435   3.280   2.148  2.4071  0.5558 -0.8520
 8578SOL     OW37366   3.334   2.771  10.484 -0.4742 -0.3842 -0.2149
 8578SOL    HW137367   3.324   2.679  10.509  1.1386 -0.3566  0.4997
 8578SOL    HW237368   3.406   2.770  10.421 -0.1145 -2.1677  0.2461
 8579SOL     OW37369   0.552   3.837   3.380 -0.0304 -0.2810 -0.1091
 8579SOL    HW137370   0.608   3.760   3.368  0.0903 -0.1567 -0.3462
 8579SOL    HW237371   0.578   3.867   3.293 -2.0870  0.7867 -0.3524
 8580SOL     OW37372   2.019   3.604   6.565 -0.2962 -0.3141 -0.1586
 8580SOL    HW137373   1.996   3.514   6.591 -1.2363 -0.9080 -3.0030
 8580SOL    HW237374   2.114   3.600   6.574 -0.4991 -1.3295  1.4990
 8581SOL     OW37375   0.639   0.722   2.954 -0.6818 -0.6322 -0.1020
 8581SOL    HW137376   0.679   0.676   3.027 -0.8319  2.0570  1.6775
 8581SOL    HW237377   0.708   0.786   2.935  1.0214 -1.4048  3.4961
 8582SOL     OW37378   1.199   4.736   7.403 -0.2797 -0.2657 -0.1461
 8582SOL    HW137379   1.274   0.014   7.348 -1.3558 -1.4332 -1.9796
 8582SOL    HW237380   1.206   0.063   7.470 -0.0903 -0.4421  0.0116
 8583SOL     OW37381   1.650   4.257   1.518 -0.5555 -0.1992 -0.0775
 8583SOL    HW137382   1.733   4.209   1.525 -1.1163 -1.1528  0.0259
 8583SOL    HW237383   1.655   4.299   1.604  0.0009 -1.0744  0.3109
 8584SOL     OW37384   3.266   3.867   4.445  0.0505  0.6705  0.0394
 8584SOL    HW137385   3.281   3.850   4.352 -1.1458 -1.1664  0.1718
 8584SOL    HW237386   3.217   3.948   4.434  0.7355  0.9593 -0.8277
 8585SOL     OW37387   4.629   2.498   2.383  0.3162  0.5335 -0.3086
 8585SOL    HW137388   4.552   2.445   2.402 -0.1096  1.1985 -0.1772
 8585SOL    HW237389   4.699   2.434   2.368 -0.8280 -0.4686 -1.3543
 8586SOL     OW37390   3.909   1.033  17.277 -0.3146 -0.6328  0.0729
 8586SOL    HW137391   3.981   1.078  17.320 -0.8343  0.5368 -0.2963
 8586SOL    HW237392   3.864   1.109  17.240 -0.8476 -1.2193 -0.4829
 8587SOL     OW37393   0.875   0.883   6.652 -0.4708  0.4661  0.3562
 8587SOL    HW137394   0.925   0.906   6.730  0.0773  0.9057 -0.1218
 8587SOL    HW237395   0.873   0.788   6.656  1.1301  0.3333 -2.2590
 8588SOL     OW37396   2.930   1.783   4.572  0.0703  0.0863 -0.0621
 8588SOL    HW137397   2.932   1.875   4.547 -1.7211  0.1428  0.0128
 8588SOL    HW237398   2.927   1.797   4.666 -0.1021 -0.1075 -0.0374
 8589SOL     OW37399   2.351   0.381   5.177  0.1948  0.2117  0.5519
 8589SOL    HW137400   2.284   0.313   5.169  1.0192 -0.5910  0.6332
 8589SOL    HW237401   2.428   0.334   5.207  0.6238  0.3602 -0.3187
 8590SOL     OW37402   4.339   1.052  16.332  0.5249  0.2784 -0.1918
 8590SOL    HW137403   4.304   1.121  16.276  0.8109 -0.3206 -1.1034
 8590SOL    HW237404   4.430   1.048  16.302  0.6864  2.0568  0.0963
 8591SOL     OW37405   4.131   0.935  17.084  0.4389 -0.2153  0.0129
 8591SOL    HW137406   4.035   0.941  17.086  0.4031 -0.7034 -0.4622
 8591SOL    HW237407   4.149   0.857  17.032  0.9199 -2.1520  3.1137
 8592SOL     OW37408   0.510   4.067   1.667  0.9496  0.3019  0.5570
 8592SOL    HW137409   0.503   4.093   1.575  0.3896 -1.9401 -0.0274
 8592SOL    HW237410   0.565   4.139   1.696 -0.8974  2.0449 -0.2312
 8593SOL     OW37411   0.914   1.411   4.760 -0.4470 -0.3345 -0.0112
 8593SOL    HW137412   0.919   1.504   4.781 -0.8153 -0.4129  0.4254
 8593SOL    HW237413   0.919   1.377   4.850  1.1594  0.3947  0.1815
 8594SOL     OW37414   2.420   2.047   2.826  0.3174  0.3776  0.3380
 8594SOL    HW137415   2.492   2.087   2.777  0.1969 -1.1898 -1.0987
 8594SOL    HW237416   2.399   2.124   2.880 -2.0991 -1.1012  1.4838
 8595SOL     OW37417   4.051   4.268   1.136  0.3924  0.5407 -0.1008
 8595SOL    HW137418   3.982   4.260   1.202 -0.6796  0.0219 -1.2780
 8595SOL    HW237419   4.056   4.364   1.132 -0.0738  0.5350 -0.8033
 8596SOL     OW37420   0.346   0.041   9.325  0.2818  0.5012  0.3974
 8596SOL    HW137421   0.426   0.021   9.276  1.5292 -0.5415  2.8823
 8596SOL    HW237422   0.297   0.092   9.259 -2.0940  1.6249  3.0331
 8597SOL     OW37423   1.415   3.329   2.530  0.7307 -0.3197  0.2878
 8597SOL    HW137424   1.461   3.413   2.530  1.7307 -0.8901  2.8586
 8597SOL    HW237425   1.327   3.368   2.535  0.5256 -0.5469 -1.4190
 8598SOL     OW37426   1.871   4.111  13.573  0.4029 -0.2130 -0.6662
 8598SOL    HW137427   1.878   4.019  13.548 -1.0160  0.0291 -1.9606
 8598SOL    HW237428   1.945   4.116  13.634  0.3521  1.1716 -0.7229
 8599SOL     OW37429   2.265   2.812   8.397 -0.2778 -0.2129  0.6069
 8599SOL    HW137430   2.209   2.858   8.334  1.9504  2.5407  0.6461
 8599SOL    HW237431   2.339   2.790   8.341 -1.0087  0.8672 -0.8003
 8600SOL     OW37432   3.498   1.390   2.157 -0.1675  0.5323 -0.3850
 8600SOL    HW137433   3.551   1.447   2.101  0.4931  0.7033  0.4151
 8600SOL    HW237434   3.459   1.452   2.218 -1.6008 -0.2050 -0.5616
 8601SOL     OW37435   4.060   3.726   4.756  0.3188 -0.5584 -0.2522
 8601SOL    HW137436   4.030   3.699   4.843  0.7581 -0.0684  0.0442
 8601SOL    HW237437   3.981   3.707   4.706  0.1506 -3.0707  0.9601
 8602SOL     OW37438   1.124   0.119   6.409  0.0446 -0.1517 -0.8879
 8602SOL    HW137439   1.109   0.174   6.486  0.5597 -1.5982  0.2559
 8602SOL    HW237440   1.144   0.183   6.341  1.3015  0.1179 -0.2487
 8603SOL     OW37441   1.371   3.667   2.389  0.1274  0.1096  0.7336
 8603SOL    HW137442   1.325   3.732   2.443 -0.7771  0.9575 -1.0919
 8603SOL    HW237443   1.315   3.666   2.311  1.0639  0.8464  0.0705
 8604SOL     OW37444   1.185   2.881   6.989  0.1346  0.5227 -0.4054
 8604SOL    HW137445   1.114   2.819   6.969 -0.0733  1.1289 -1.5133
 8604SOL    HW237446   1.251   2.823   7.028  0.3722  0.3641 -1.0314
 8605SOL     OW37447   3.989   4.625  17.594  0.4993  0.5288  0.3253
 8605SOL    HW137448   3.958   4.543  17.556 -0.9687  1.0393  0.4221
 8605SOL    HW237449   4.074   4.621  17.550  1.1961  1.2822  1.5809
 8606SOL     OW37450   0.423   0.779   6.315  0.2102 -0.0566 -0.1786
 8606SOL    HW137451   0.486   0.712   6.341 -1.1195 -2.1524 -2.3248
 8606SOL    HW237452   0.393   0.735   6.236  3.0258 -1.2383 -0.5918
 8607SOL     OW37453   4.734   0.119   2.968 -0.3662 -0.8498  0.5408
 8607SOL    HW137454   4.683   0.200   2.975  0.4448 -0.2438 -0.5694
 8607SOL    HW237455   0.072   0.160   3.005 -1.7091  0.5313  1.8720
 8608SOL     OW37456   4.374   0.447   4.978  0.0007  0.4498  0.3431
 8608SOL    HW137457   4.385   0.404   4.894 -0.0595 -1.2588  1.2011
 8608SOL    HW237458   4.460   0.480   5.002  1.2624 -2.8049  0.3318
 8609SOL     OW37459   1.312   3.909  15.856  0.3016 -0.5455 -0.0661
 8609SOL    HW137460   1.266   3.866  15.784 -0.3394 -0.4387  0.2872
 8609SOL    HW237461   1.227   3.939  15.887  1.4522 -1.3613  3.8654
 8610SOL     OW37462   2.877   0.384  12.518  0.0333 -0.2778  0.0037
 8610SOL    HW137463   2.841   0.445  12.582 -0.1793  1.1294 -1.4556
 8610SOL    HW237464   2.903   0.312  12.576  1.4386 -0.2493 -0.5990
 8611SOL     OW37465   3.361   0.920   6.202  0.0626  0.0031 -0.0285
 8611SOL    HW137466   3.395   0.874   6.125 -2.1169  0.9541 -1.5695
 8611SOL    HW237467   3.308   0.987   6.158  0.9793  0.5757 -0.2712
 8612SOL     OW37468   0.226   0.840   1.300  0.0338 -0.0583  0.1559
 8612SOL    HW137469   0.250   0.932   1.317 -0.6556 -0.1426  1.5948
 8612SOL    HW237470   0.156   0.818   1.362 -0.9058  2.7353  0.0895
 8613SOL     OW37471   0.716   0.104   7.476 -0.0165 -0.1895 -0.0264
 8613SOL    HW137472   0.647   0.073   7.534 -0.0122  2.5591  1.4386
 8613SOL    HW237473   0.789   0.096   7.538  0.3519 -0.4482 -0.4897
 8614SOL     OW37474   2.370   2.667   6.558  0.3405 -0.5217  0.8143
 8614SOL    HW137475   2.376   2.582   6.514 -1.6969 -0.0570 -0.3626
 8614SOL    HW237476   2.366   2.650   6.652  1.4872  3.6227  1.6127
 8615SOL     OW37477   1.773   0.550   5.282 -0.4812 -0.2187  0.2024
 8615SOL    HW137478   1.720   0.615   5.235  0.5399  0.8260  0.4901
 8615SOL    HW237479   1.730   0.555   5.368  0.2623 -1.1951  0.6274
 8616SOL     OW37480   4.129   3.949   1.290  0.0998 -0.3700  0.3999
 8616SOL    HW137481   4.187   3.985   1.357 -0.7088 -0.0891  0.9475
 8616SOL    HW237482   4.198   3.921   1.229 -1.5762 -0.4932 -1.4228
 8617SOL     OW37483   2.004   2.115   6.051 -0.3274  0.1937  0.4872
 8617SOL    HW137484   1.992   2.089   5.960 -0.2302  1.5065  0.0899
 8617SOL    HW237485   2.027   2.034   6.096 -1.9621 -1.8327 -2.3893
 8618SOL     OW37486   2.190   1.199  14.631  0.0372 -0.0918 -0.1989
 8618SOL    HW137487   2.241   1.154  14.698 -1.2732 -2.2229 -0.5957
 8618SOL    HW237488   2.108   1.212  14.678  0.1194  1.6652 -0.5360
 8619SOL     OW37489   1.641   1.909   9.375 -0.0562  0.1948 -0.2857
 8619SOL    HW137490   1.626   1.947   9.462  1.1114  1.8997 -0.8380
 8619SOL    HW237491   1.695   1.979   9.338 -1.5851  2.5862  1.9626
 8620SOL     OW37492   0.046   2.329   8.701 -0.1739  0.4133 -0.3287
 8620SOL    HW137493   0.024   2.262   8.766 -2.3492 -2.0279 -3.6062
 8620SOL    HW237494   0.140   2.341   8.717 -0.3252  0.2670  0.6976
 8621SOL     OW37495   3.337   0.770   1.271 -0.3943  0.2668 -0.6020
 8621SOL    HW137496   3.320   0.763   1.365 -0.4903 -1.6372 -0.7640
 8621SOL    HW237497   3.325   0.864   1.259 -4.2391 -0.2985 -1.0509
 8622SOL     OW37498   0.373   3.277   8.204 -0.3054 -0.2450 -0.0614
 8622SOL    HW137499   0.413   3.255   8.120 -1.5734  0.9904 -0.9791
 8622SOL    HW237500   0.316   3.205   8.230 -0.9217  0.4592  0.5449
 8623SOL     OW37501   4.521   2.877   1.725  0.2925  0.0471  0.3616
 8623SOL    HW137502   4.609   2.865   1.761 -0.7961 -2.6830  2.1373
 8623SOL    HW237503   4.539   2.961   1.683 -1.7980 -0.1474 -0.9079
 8624SOL     OW37504   3.436   4.235   8.940 -0.1001  0.2513 -0.0825
 8624SOL    HW137505   3.482   4.257   8.859 -0.3822  0.4231 -0.1981
 8624SOL    HW237506   3.395   4.319   8.958  2.7161  1.4664  0.4566
 8625SOL     OW37507   3.896   0.584   0.035 -0.2936  0.0556  0.4580
 8625SOL    HW137508   3.827   0.650   0.036  2.4424  2.8831 -1.2110
 8625SOL    HW237509   3.953   0.618   0.104  0.2967 -2.0041  0.9977
 8626SOL     OW37510   4.638   1.997   3.436 -0.4744  0.5242  0.1807
 8626SOL    HW137511   4.550   1.991   3.399 -0.8648 -0.0816  1.2054
 8626SOL    HW237512   4.622   2.069   3.497  0.4272 -2.5404  4.0405
 8627SOL     OW37513   3.011   3.550   7.842 -0.0183  0.0721  0.3205
 8627SOL    HW137514   3.103   3.577   7.838  0.4061 -1.3322  0.2736
 8627SOL    HW237515   3.000   3.535   7.748 -1.5656  0.5343  0.4248
 8628SOL     OW37516   1.414   3.847   9.328  0.1171  0.3112  0.6612
 8628SOL    HW137517   1.341   3.882   9.277  0.3022 -2.1344 -1.2538
 8628SOL    HW237518   1.406   3.757   9.297 -0.8789  0.5047  0.3482
 8629SOL     OW37519   3.747   1.988   3.315 -0.4485 -0.2042  0.4395
 8629SOL    HW137520   3.787   1.936   3.385 -0.4013 -0.9703 -0.1590
 8629SOL    HW237521   3.658   2.017   3.333 -0.3741 -0.8937  2.0137
 8630SOL     OW37522   0.151   0.443   5.535 -0.1403 -0.1227 -0.3127
 8630SOL    HW137523   0.138   0.359   5.491 -1.8340  0.7634 -1.5364
 8630SOL    HW237524   0.246   0.447   5.533 -0.1357 -0.6368 -1.2102
 8631SOL     OW37525   0.860   1.816   1.879 -0.5451  0.1050  0.2833
 8631SOL    HW137526   0.850   1.767   1.797 -1.3668 -0.4393  0.7141
 8631SOL    HW237527   0.934   1.871   1.855 -2.5935  1.5401 -2.7173
 8632SOL     OW37528   1.609   4.670  16.979  0.8052 -0.0393 -0.1507
 8632SOL    HW137529   1.543   4.729  17.016 -1.1717 -1.7104 -1.0091
 8632SOL    HW237530   1.564   4.611  16.918 -0.2451 -0.3514  0.9280
 8633SOL     OW37531   0.561   0.782  16.709 -0.1843  0.0035 -0.1909
 8633SOL    HW137532   0.550   0.736  16.793 -0.7079 -0.8073 -0.6998
 8633SOL    HW237533   0.486   0.841  16.709  0.0218  0.2632 -0.6842
 8634SOL     OW37534   4.371   4.170  11.394  0.3178  0.6105 -0.3573
 8634SOL    HW137535   4.389   4.137  11.482 -2.1187  1.9360  0.6406
 8634SOL    HW237536   4.457   4.187  11.356  0.7005  0.1363  0.2954
 8635SOL     OW37537   4.448   2.428   8.008 -0.0540 -0.0995  0.2458
 8635SOL    HW137538   4.487   2.341   8.018  1.2421  0.4336 -0.0310
 8635SOL    HW237539   4.522   2.474   7.966  0.6604 -3.4518 -2.1873
 8636SOL     OW37540   2.356   1.855   4.501 -0.0017 -0.5458 -0.2936
 8636SOL    HW137541   2.384   1.772   4.463 -3.0595 -1.6248 -0.2005
 8636SOL    HW237542   2.443   1.867   4.540 -0.2374 -0.6873  0.2722
 8637SOL     OW37543   1.173   1.687   8.046 -0.0913 -0.1323 -0.5647
 8637SOL    HW137544   1.223   1.664   8.125 -3.0935  0.0717  1.3746
 8637SOL    HW237545   1.143   1.773   8.074 -0.6951 -0.0923 -1.3494
 8638SOL     OW37546   3.234   4.299   7.889 -0.4648  0.0951 -0.1486
 8638SOL    HW137547   3.227   4.239   7.814  3.4288 -0.3687 -0.1189
 8638SOL    HW237548   3.175   4.250   7.947  0.7720 -0.2868  0.7678
 8639SOL     OW37549   2.001   1.182   0.697  0.1749 -0.4446 -0.1665
 8639SOL    HW137550   2.083   1.170   0.649  1.4976 -0.9591  2.2432
 8639SOL    HW237551   2.003   1.114   0.764  0.2191  0.4331  0.7284
 8640SOL     OW37552   2.278   2.758   3.202  0.3469  0.2676  0.5260
 8640SOL    HW137553   2.342   2.792   3.140  0.4845  0.6047  0.8562
 8640SOL    HW237554   2.227   2.837   3.219  2.7996  2.0622 -0.5401
 8641SOL     OW37555   1.470   4.459  17.688 -0.9154  0.0655 -0.4089
 8641SOL    HW137556   1.466   4.536  17.632  2.0683  0.1545 -0.5267
 8641SOL    HW237557   1.428   4.490   0.008 -0.3485 -1.7509  0.5953
 8642SOL     OW37558   1.092   0.572   8.993  0.6307  0.1265 -0.7422
 8642SOL    HW137559   1.118   0.522   9.071  1.1046  0.1973 -0.8515
 8642SOL    HW237560   1.099   0.499   8.931  1.0266 -2.2782  2.1417
 8643SOL     OW37561   3.654   0.414  13.912 -0.1293 -0.3806  0.0802
 8643SOL    HW137562   3.594   0.462  13.854  1.1807  2.0808  0.7790
 8643SOL    HW237563   3.584   0.372  13.963 -0.5497  0.8574  0.5266
 8644SOL     OW37564   0.974   3.443   7.370 -0.2276 -0.0578  0.0928
 8644SOL    HW137565   0.921   3.488   7.436 -1.8680 -0.7423 -0.7762
 8644SOL    HW237566   0.973   3.361   7.419 -2.3031  1.2988  2.3399
 8645SOL     OW37567   4.551   2.069   4.037 -0.0662 -0.4127  0.2503
 8645SOL    HW137568   4.463   2.101   4.019 -0.1597 -0.9186 -0.2043
 8645SOL    HW237569   4.606   2.146   4.025 -1.0017 -0.0367 -1.6669
 8646SOL     OW37570   0.979   0.957   9.875 -0.5478  0.1157 -0.7137
 8646SOL    HW137571   0.888   0.947   9.845 -0.9476 -1.5330  1.0400
 8646SOL    HW237572   1.027   0.914   9.804  0.6377 -1.3933  0.9971
 8647SOL     OW37573   3.048   1.772  16.189 -0.0587 -0.6347  0.3114
 8647SOL    HW137574   3.139   1.799  16.182 -0.8878  2.1048 -0.0325
 8647SOL    HW237575   3.017   1.855  16.226  4.0975  0.2496  1.7818
 8648SOL     OW37576   4.010   2.162   4.061 -0.1800  0.1833  0.1508
 8648SOL    HW137577   3.963   2.220   4.002  0.7125  1.0513  0.2832
 8648SOL    HW237578   3.985   2.080   4.020  1.1697 -1.5119  2.7337
 8649SOL     OW37579   1.302   0.186  11.765 -0.2365  0.3510  0.1433
 8649SOL    HW137580   1.376   0.224  11.813  0.2023 -0.8621  0.4250
 8649SOL    HW237581   1.272   0.115  11.823  0.3686  0.8674  1.0926
 8650SOL     OW37582   2.001   1.633   0.270  0.2235  0.5540  0.0466
 8650SOL    HW137583   1.937   1.573   0.309 -0.8705  1.1567 -0.8218
 8650SOL    HW237584   2.082   1.584   0.259 -0.3051 -0.0445 -1.1065
 8651SOL     OW37585   1.027   0.295   4.637 -0.3634 -0.4495 -0.0447
 8651SOL    HW137586   1.106   0.343   4.613  0.5007 -1.9126 -0.1699
 8651SOL    HW237587   1.045   0.280   4.730 -0.3583 -0.0055  0.0265
 8652SOL     OW37588   1.320   2.502   4.190 -0.6081  0.0739 -0.3005
 8652SOL    HW137589   1.231   2.506   4.156 -1.9655 -0.9146  3.2082
 8652SOL    HW237590   1.329   2.407   4.196  1.3791  0.2005 -0.9737
 8653SOL     OW37591   2.083   1.628  16.034  0.3314  0.7628  0.8096
 8653SOL    HW137592   2.070   1.556  16.095  1.3544  0.5033  0.7283
 8653SOL    HW237593   2.076   1.711  16.081  0.2188  1.0122  0.3612
 8654SOL     OW37594   2.010   0.331   3.796  0.0608  0.1679 -0.1209
 8654SOL    HW137595   1.983   0.239   3.795 -0.8250  0.4221  0.1688
 8654SOL    HW237596   1.930   0.374   3.828 -0.3027  0.9394 -2.0720
 8655SOL     OW37597   2.258   3.474   7.082 -0.1167  0.2575 -0.2761
 8655SOL    HW137598   2.269   3.400   7.021  1.6258  0.6589 -0.4528
 8655SOL    HW237599   2.207   3.426   7.147  1.2385  0.5009  0.9788
 8656SOL     OW37600   0.308   2.387  15.110 -0.0493  0.2768  0.3677
 8656SOL    HW137601   0.296   2.390  15.205 -0.6489  0.2724  0.2948
 8656SOL    HW237602   0.233   2.342  15.071 -0.1364  1.2769 -0.6243
 8657SOL     OW37603   2.164   1.916   5.664 -0.1374 -0.5232 -0.2445
 8657SOL    HW137604   2.203   1.954   5.743 -2.1297  1.8213 -0.3610
 8657SOL    HW237605   2.098   1.985   5.655 -0.2059  0.0802  4.7012
 8658SOL     OW37606   0.748   0.202   7.889  0.4576  0.6002 -0.0675
 8658SOL    HW137607   0.680   0.220   7.825 -0.2358  1.7113  0.9920
 8658SOL    HW237608   0.811   0.156   7.833 -0.8473 -0.8876 -0.2927
 8659SOL     OW37609   3.800   4.040  15.403  0.1056  0.1038 -0.1050
 8659SOL    HW137610   3.761   3.953  15.408  1.9079 -0.6844  0.1365
 8659SOL    HW237611   3.753   4.071  15.481 -0.3268  1.5456 -0.9265
 8660SOL     OW37612   1.674   1.876   9.823 -0.2988  0.3544 -0.1771
 8660SOL    HW137613   1.737   1.840   9.886 -0.1807  1.8436  0.5617
 8660SOL    HW237614   1.600   1.905   9.877 -0.8373 -2.1254  0.4078
 8661SOL     OW37615   3.533   3.925   4.977  0.2156  0.2366 -0.1521
 8661SOL    HW137616   3.503   3.948   4.889 -2.0947 -1.6052  0.1746
 8661SOL    HW237617   3.601   3.861   4.955 -0.7776 -0.8166 -0.1357
 8662SOL     OW37618   0.984   3.479   5.122 -0.3371 -0.0861 -0.5506
 8662SOL    HW137619   0.965   3.572   5.114 -0.4930 -0.1941 -1.3538
 8662SOL    HW237620   0.901   3.453   5.163 -0.6097  1.6347 -0.0205
 8663SOL     OW37621   3.401   1.436   7.364  0.8769  0.1760  0.9434
 8663SOL    HW137622   3.479   1.492   7.366  0.2111  1.0896  1.1119
 8663SOL    HW237623   3.410   1.414   7.271 -1.7457 -1.1708  1.0017
 8664SOL     OW37624   4.101   4.156   0.240  0.1988 -0.8016  0.2086
 8664SOL    HW137625   4.110   4.249   0.261  2.7906 -0.4740 -2.2710
 8664SOL    HW237626   4.016   4.145   0.198  0.0089  0.7400  0.1861
 8665SOL     OW37627   3.114   4.526   4.782 -0.5933 -0.0650 -0.4745
 8665SOL    HW137628   3.144   4.446   4.739 -1.2858 -0.1791 -0.7343
 8665SOL    HW237629   3.081   4.499   4.868  2.0847 -0.0622  0.5653
 8666SOL     OW37630   2.580   2.295   4.561  0.0231 -0.8607  0.0315
 8666SOL    HW137631   2.540   2.370   4.604  1.4773 -0.2952  0.4095
 8666SOL    HW237632   2.503   2.244   4.537  0.1958 -0.9954 -0.2390
 8667SOL     OW37633   4.149   1.014   3.366  0.2401  0.1207  0.4187
 8667SOL    HW137634   4.070   1.069   3.370  0.5641  0.5923  0.2876
 8667SOL    HW237635   4.208   1.054   3.430 -1.5594  3.2202  0.1562
 8668SOL     OW37636   1.993   2.973   8.572  0.2433 -0.3455 -0.1361
 8668SOL    HW137637   1.949   3.055   8.593  1.8731  0.6808 -0.7234
 8668SOL    HW237638   2.072   3.009   8.530  0.8078  0.5100  1.6383
 8669SOL     OW37639   3.822   0.895   8.435  0.1937  0.0205  0.3468
 8669SOL    HW137640   3.810   0.888   8.529 -0.3743  3.6216  0.5421
 8669SOL    HW237641   3.787   0.816   8.395  1.1611 -1.1761  1.8840
 8670SOL     OW37642   1.223   0.913   8.973  0.2333  0.1333  0.7236
 8670SOL    HW137643   1.154   0.903   8.907  1.6695 -1.0780 -0.5799
 8670SOL    HW237644   1.226   1.008   8.963  1.0262  0.0888  0.5069
 8671SOL     OW37645   0.676   4.088   6.032 -0.1773 -0.7953  0.2686
 8671SOL    HW137646   0.595   4.038   6.042 -0.9461  0.9834  2.9992
 8671SOL    HW237647   0.708   4.059   5.947  0.1941 -1.1713  0.5322
 8672SOL     OW37648   4.617   2.564  15.575  0.3284 -0.6176 -0.2699
 8672SOL    HW137649   4.596   2.528  15.488 -0.8456 -1.5191  0.3959
 8672SOL    HW237650   4.690   2.516  15.615  0.5862 -0.2707 -0.3276
 8673SOL     OW37651   3.733   0.798   3.044 -0.2547  0.4216  0.1805
 8673SOL    HW137652   3.685   0.787   2.963 -0.3683  2.0298  0.0195
 8673SOL    HW237653   3.665   0.824   3.106 -2.2215 -1.0733 -1.3661
 8674SOL     OW37654   2.457   2.423   5.636  0.0611  0.2414  0.1011
 8674SOL    HW137655   2.531   2.373   5.672  0.7683  0.8156 -0.5542
 8674SOL    HW237656   2.476   2.514   5.659 -0.3750 -0.1753  2.1790
 8675SOL     OW37657   3.135   1.988   3.147 -0.0427 -0.8759 -0.8594
 8675SOL    HW137658   3.084   2.019   3.222  1.4008  1.4547 -0.8438
 8675SOL    HW237659   3.074   1.987   3.073 -0.8622  2.5845 -0.2569
 8676SOL     OW37660   3.488   3.143   9.539 -0.5325  0.2518 -0.1513
 8676SOL    HW137661   3.570   3.188   9.518  0.4617 -0.9669  1.0726
 8676SOL    HW237662   3.417   3.204   9.558 -1.4480 -0.2132 -2.0397
 8677SOL     OW37663   4.125   1.875   5.519  0.1889  0.0064 -0.2854
 8677SOL    HW137664   4.166   1.869   5.433  1.1778 -2.0140  0.3323
 8677SOL    HW237665   4.196   1.885   5.582  0.1844  2.9172 -0.7165
 8678SOL     OW37666   3.245   0.597   6.302  0.1417  0.0288  0.0191
 8678SOL    HW137667   3.238   0.594   6.397  0.3809 -1.1503 -0.0034
 8678SOL    HW237668   3.340   0.588   6.289 -0.3544 -1.2702 -2.6499
 8679SOL     OW37669   0.816   2.901   9.409  0.0280  0.1033  0.4796
 8679SOL    HW137670   0.887   2.965   9.408  0.3414 -0.2559 -2.0775
 8679SOL    HW237671   0.797   2.888   9.316 -2.6803 -1.1953  1.2073
 8680SOL     OW37672   1.485   3.511   3.587  0.0437  0.2293  0.4259
 8680SOL    HW137673   1.478   3.450   3.661  0.5727  2.4939  2.3377
 8680SOL    HW237674   1.470   3.447   3.517 -2.2467  1.9514 -0.6458
 8681SOL     OW37675   2.198   0.496   3.944 -0.2174 -0.3706  0.8891
 8681SOL    HW137676   2.158   0.432   3.885  0.6841 -0.6442  0.5643
 8681SOL    HW237677   2.125   0.538   3.989 -1.9175 -1.6721 -0.6336
 8682SOL     OW37678   4.373   0.428  16.940  0.1438  0.1496 -0.3616
 8682SOL    HW137679   4.335   0.349  16.903 -1.3672  0.6418  0.1382
 8682SOL    HW237680   4.387   0.485  16.864 -3.8099  0.5651 -0.7640
 8683SOL     OW37681   2.862   0.406   5.445 -0.1203  0.3611 -0.1581
 8683SOL    HW137682   2.819   0.324   5.420 -2.0011  1.6566 -1.1676
 8683SOL    HW237683   2.903   0.410   5.359  0.1496 -2.8539 -0.1844
 8684SOL     OW37684   1.481   1.704   0.157  0.0407 -0.3050  0.4100
 8684SOL    HW137685   1.478   1.800   0.153  0.3123 -0.2878  0.5941
 8684SOL    HW237686   1.394   1.680   0.124  0.0843 -1.4945  1.1777
 8685SOL     OW37687   2.371   4.253   4.224  0.5747  0.6405  0.2800
 8685SOL    HW137688   2.359   4.257   4.319 -0.7993  1.6051  0.0721
 8685SOL    HW237689   2.351   4.343   4.198 -1.6586 -0.0678 -0.4853
 8686SOL     OW37690   1.219   1.007   3.597 -0.1182 -0.1774  0.2663
 8686SOL    HW137691   1.301   1.018   3.550  0.9446  1.8497  2.6522
 8686SOL    HW237692   1.163   1.079   3.570  0.2989 -0.3721 -1.1120
 8687SOL     OW37693   3.335   1.484   5.713  0.0589  0.8724 -0.3620
 8687SOL    HW137694   3.318   1.411   5.772 -0.4386  2.7603  1.8021
 8687SOL    HW237695   3.368   1.546   5.778  4.0620  0.2351 -1.7962
 8688SOL     OW37696   0.528   4.075  11.822 -0.2782  0.3852 -0.2323
 8688SOL    HW137697   0.489   3.990  11.841 -0.0732  0.1850 -0.6897
 8688SOL    HW237698   0.584   4.043  11.751 -0.2520  3.6248 -1.6928
 8689SOL     OW37699   0.301   2.981  11.702 -0.4546 -0.2091 -0.0388
 8689SOL    HW137700   0.357   2.994  11.625  1.2368  0.4161  1.3166
 8689SOL    HW237701   0.316   2.889  11.721  1.2201 -0.0959 -0.8336
 8690SOL     OW37702   2.054   4.008   2.264  0.7146  0.3590 -0.2797
 8690SOL    HW137703   2.126   3.948   2.244 -0.3377 -1.5066  1.4699
 8690SOL    HW237704   1.985   3.947   2.292  1.3914 -0.2110  0.1359
 8691SOL     OW37705   2.880   0.859  17.677 -0.1739  0.4388  0.2180
 8691SOL    HW137706   2.823   0.877  17.752 -0.0519 -0.9092  0.6428
 8691SOL    HW237707   2.955   0.902  17.717  0.6467 -2.8060  2.1858
 8692SOL     OW37708   3.522   3.368  15.338 -0.1152 -0.7036  0.4653
 8692SOL    HW137709   3.530   3.349  15.245  1.1527  0.2098  0.3931
 8692SOL    HW237710   3.438   3.415  15.331  0.6663  0.5821 -0.3240
 8693SOL     OW37711   4.213   1.260   4.037 -0.4418  0.4138  0.2151
 8693SOL    HW137712   4.134   1.212   4.013  0.4551 -0.4104 -1.1200
 8693SOL    HW237713   4.232   1.297   3.951  2.0477  1.0441  1.0236
 8694SOL     OW37714   4.475   0.009   2.640 -0.3393  0.4757  0.3364
 8694SOL    HW137715   4.440   4.676   2.691  0.3405  0.4850  0.8179
 8694SOL    HW237716   4.491   0.075   2.708  3.6682 -2.2977  2.1049
 8695SOL     OW37717   2.460   3.739   8.265 -0.0641  0.1577  0.1819
 8695SOL    HW137718   2.541   3.769   8.223 -1.2478  0.6614 -1.7569
 8695SOL    HW237719   2.432   3.818   8.312  1.2930  0.2133  0.9284
 8696SOL     OW37720   3.421   3.838   4.714  0.1798  0.1314 -0.1631
 8696SOL    HW137721   3.388   3.863   4.628  0.8195 -2.5019 -1.1656
 8696SOL    HW237722   3.338   3.811   4.752  1.3868  0.3878  2.6618
 8697SOL     OW37723   1.825   3.181   8.602  0.6586 -0.3138  0.3119
 8697SOL    HW137724   1.754   3.246   8.607  0.3061 -0.7635  1.1618
 8697SOL    HW237725   1.889   3.214   8.665  0.7952  0.7239 -0.3835
 8698SOL     OW37726   3.105   4.088  14.702  0.2595 -0.7292 -0.4927
 8698SOL    HW137727   3.195   4.074  14.732  0.3551 -1.0346 -0.9186
 8698SOL    HW237728   3.092   4.175  14.741  0.7292 -0.2646 -1.3718
 8699SOL     OW37729   1.089   3.588   7.170  0.6446  0.1947  0.0847
 8699SOL    HW137730   1.057   3.534   7.242  0.6653 -0.9704 -0.7825
 8699SOL    HW237731   1.165   3.622   7.216  0.8164  3.0639 -2.2768
 8700SOL     OW37732   1.635   2.024   4.622 -0.4663 -0.1014 -0.4039
 8700SOL    HW137733   1.570   2.014   4.692  0.1314  0.0279  0.1661
 8700SOL    HW237734   1.635   1.936   4.583 -1.5110 -0.3754  0.2056
 8701SOL     OW37735   4.730   3.058  17.281 -0.1595 -0.4625 -0.2458
 8701SOL    HW137736   4.688   3.022  17.359 -0.1529  0.5564  0.2392
 8701SOL    HW237737   0.083   3.039  17.286 -0.0252 -0.0095 -1.0196
 8702SOL     OW37738   2.701   1.034   0.214  0.4004 -0.4608  0.0388
 8702SOL    HW137739   2.701   0.942   0.187  0.3081  0.3215 -2.6209
 8702SOL    HW237740   2.626   1.071   0.168  0.7933  0.3879  0.0973
 8703SOL     OW37741   1.158   3.198  11.996 -0.4399 -0.1100  0.5737
 8703SOL    HW137742   1.139   3.202  12.090  0.3795  0.4960  0.7004
 8703SOL    HW237743   1.210   3.276  11.982  1.8223 -1.4988  1.2596
 8704SOL     OW37744   0.590   1.658   3.857 -0.1874 -0.0704 -0.1378
 8704SOL    HW137745   0.528   1.613   3.800 -2.7711  1.7561  1.1804
 8704SOL    HW237746   0.595   1.592   3.926  1.0265  0.8334  0.6332
 8705SOL     OW37747   1.027   0.989   6.887 -0.4617  0.2072  0.8195
 8705SOL    HW137748   0.980   0.986   6.970  1.7341  1.5948  2.1076
 8705SOL    HW237749   1.063   1.076   6.900 -0.2477  0.3157 -0.5200
 8706SOL     OW37750   1.670   3.604   7.540  0.6259 -0.3784 -0.3060
 8706SOL    HW137751   1.679   3.519   7.497 -0.1717 -0.2144 -0.7919
 8706SOL    HW237752   1.757   3.626   7.574  0.3533 -0.9223  0.7544
 8707SOL     OW37753   1.712   2.284  15.179 -0.7948  0.2500 -0.3465
 8707SOL    HW137754   1.745   2.231  15.252 -1.0208  0.0171 -0.4132
 8707SOL    HW237755   1.772   2.358  15.184  0.8229 -1.0121 -1.1614
 8708SOL     OW37756   4.420   3.813   6.750 -0.1401  0.1950  0.1069
 8708SOL    HW137757   4.392   3.751   6.682  2.7029  0.1154 -0.9704
 8708SOL    HW237758   4.509   3.780   6.762 -0.2456 -0.0511  0.2375
 8709SOL     OW37759   3.086   1.247   3.258 -0.4582  0.3664  0.0025
 8709SOL    HW137760   3.011   1.301   3.231 -1.2911 -0.1033  1.3595
 8709SOL    HW237761   3.043   1.172   3.299  1.4928  0.2815  1.8449
 8710SOL     OW37762   0.643   3.877   9.571 -0.1263  0.0872  0.0979
 8710SOL    HW137763   0.629   3.931   9.649  0.5936 -0.1194  0.3631
 8710SOL    HW237764   0.554   3.840   9.577 -0.8515  1.8415  0.3074
 8711SOL     OW37765   0.481   1.115   6.050 -0.5368  0.4800 -0.0225
 8711SOL    HW137766   0.523   1.046   6.101 -1.0433  0.3591  0.2379
 8711SOL    HW237767   0.437   1.171   6.115  0.2618 -0.6191  1.4472
 8712SOL     OW37768   2.287   1.865   7.398 -0.3973  0.4378 -0.6096
 8712SOL    HW137769   2.288   1.808   7.322 -2.7342 -0.7136  0.2467
 8712SOL    HW237770   2.195   1.857   7.421 -0.4328  1.6873 -0.3184
 8713SOL     OW37771   1.574   4.078   4.389  0.3500 -0.1310  0.2381
 8713SOL    HW137772   1.624   4.156   4.367 -2.3551  0.7369 -2.8178
 8713SOL    HW237773   1.573   4.037   4.302  0.9092  1.7700 -0.6520
 8714SOL     OW37774   3.987   0.345   0.841 -0.0912  0.0045 -0.3385
 8714SOL    HW137775   3.917   0.409   0.830  0.5003  0.5039 -1.1217
 8714SOL    HW237776   3.986   0.346   0.937 -0.8528 -0.1126 -0.3407
 8715SOL     OW37777   4.713   1.167   7.546  0.4072  0.5510  0.1188
 8715SOL    HW137778   4.732   1.112   7.622 -1.4178  2.2171  1.7677
 8715SOL    HW237779   4.632   1.122   7.521  0.4223  0.1805  0.7292
 8716SOL     OW37780   0.928   3.435   4.867  0.5081 -0.1594 -0.0376
 8716SOL    HW137781   0.939   3.446   4.962  2.1979 -1.0123 -0.1344
 8716SOL    HW237782   1.005   3.482   4.837 -0.8565  2.7517  0.9917
 8717SOL     OW37783   3.692   3.288  16.423 -0.5595  0.1498 -0.1974
 8717SOL    HW137784   3.616   3.345  16.434 -1.5742 -1.4485  1.0738
 8717SOL    HW237785   3.747   3.328  16.355 -0.0290 -1.5367 -0.7547
 8718SOL     OW37786   0.768   4.533  13.321  0.2329 -0.0988  0.1065
 8718SOL    HW137787   0.700   4.585  13.279 -0.9176 -1.9329 -0.3038
 8718SOL    HW237788   0.723   4.497  13.397  1.5607  0.1564  1.0181
 8719SOL     OW37789   4.053   1.475   5.769  0.4583 -0.6566 -0.0499
 8719SOL    HW137790   4.122   1.459   5.704  1.4100 -1.4672  1.1695
 8719SOL    HW237791   4.026   1.565   5.753 -0.7421 -0.7545  1.4149
 8720SOL     OW37792   1.128   1.798   4.370  0.2438 -0.3128  0.0662
 8720SOL    HW137793   1.221   1.800   4.349  0.3517  0.5784  0.6263
 8720SOL    HW237794   1.096   1.846   4.293  0.9987  1.0096  0.5918
 8721SOL     OW37795   0.716   1.170  16.825 -0.1709  0.0801  0.1823
 8721SOL    HW137796   0.637   1.190  16.875  0.2059  0.6392  0.5427
 8721SOL    HW237797   0.683   1.203  16.741 -1.0291  0.6753  0.7599
 8722SOL     OW37798   0.115   3.564  17.206 -0.2768 -0.0573 -0.0684
 8722SOL    HW137799   0.158   3.611  17.278  0.0556  1.0064 -0.9657
 8722SOL    HW237800   0.054   3.510  17.257 -1.5036 -0.5893 -2.1192
 8723SOL     OW37801   2.828   1.463   4.834 -0.2443  0.3343  1.0745
 8723SOL    HW137802   2.746   1.484   4.878  0.1624 -0.0954  2.0422
 8723SOL    HW237803   2.894   1.495   4.896  0.2668  0.2043  0.6012
 8724SOL     OW37804   4.713   2.659   7.585 -0.3508 -0.3514  0.1080
 8724SOL    HW137805   0.059   2.620   7.596 -0.5761 -1.3221 -1.4611
 8724SOL    HW237806   4.723   2.754   7.578 -0.7238 -0.2335  1.2685
 8725SOL     OW37807   4.573   4.529   8.675  0.7833  0.4112  0.1270
 8725SOL    HW137808   4.554   4.620   8.654  1.4331 -0.0729 -2.5335
 8725SOL    HW237809   4.516   4.498   8.746  0.8516 -2.0056 -0.8493
 8726SOL     OW37810   0.131   2.116   0.721  0.1675  0.8314  0.5095
 8726SOL    HW137811   0.161   2.204   0.697 -0.4593  0.8106 -0.3809
 8726SOL    HW237812   0.063   2.134   0.786  0.2827  0.4627  0.7281
 8727SOL     OW37813   0.242   0.201  14.212  0.2963  0.1383 -0.0172
 8727SOL    HW137814   0.335   0.180  14.221  0.2728  0.6186  1.3015
 8727SOL    HW237815   0.217   0.112  14.235 -0.1453  0.3286  0.2419
 8728SOL     OW37816   2.520   2.749  11.909 -0.1338  0.8050 -0.1683
 8728SOL    HW137817   2.486   2.665  11.878 -0.2991  0.5948  0.5782
 8728SOL    HW237818   2.612   2.744  11.881 -0.8126  0.2276 -2.2886
 8729SOL     OW37819   0.339   2.190   4.380  0.1404  0.4609  0.6476
 8729SOL    HW137820   0.252   2.216   4.349  0.1351  0.6162  0.7958
 8729SOL    HW237821   0.378   2.150   4.303 -1.2825  0.5165 -0.1076
 8730SOL     OW37822   1.207   0.209  13.341 -0.1802 -0.3693 -0.1076
 8730SOL    HW137823   1.193   0.119  13.313 -1.6700  0.1250 -0.9532
 8730SOL    HW237824   1.302   0.217  13.339 -0.2461 -0.0363 -1.3969
 8731SOL     OW37825   3.809   4.020   1.444  0.6459 -0.6744 -0.1519
 8731SOL    HW137826   3.813   4.063   1.529 -0.9717 -1.2795  0.2361
 8731SOL    HW237827   3.884   4.062   1.401  2.6443 -1.1477  2.8950
 8732SOL     OW37828   2.246   4.522   5.551 -0.3615 -0.1844  0.0606
 8732SOL    HW137829   2.237   4.562   5.637  1.9272 -0.8389  0.5966
 8732SOL    HW237830   2.334   4.541   5.516 -1.1415  2.0865 -0.6654
 8733SOL     OW37831   0.015   3.182   4.060 -0.5960  0.0351  0.0706
 8733SOL    HW137832   0.091   3.221   4.018  0.0510 -2.0413 -0.6810
 8733SOL    HW237833   4.686   3.241   4.030 -0.2777  0.3753 -0.0005
 8734SOL     OW37834   1.148   3.109   4.253 -0.8336 -0.9682  0.7802
 8734SOL    HW137835   1.057   3.104   4.281 -1.0749 -2.4557 -0.2835
 8734SOL    HW237836   1.146   3.051   4.177 -0.4326 -0.9179  0.7319
 8735SOL     OW37837   1.406   0.450  14.869 -0.1007 -0.2649  0.4635
 8735SOL    HW137838   1.396   0.368  14.917 -0.3447 -1.0508 -0.9225
 8735SOL    HW237839   1.494   0.438  14.832  0.6687  0.2442  2.1627
 8736SOL     OW37840   1.324   2.924   5.199 -0.3313 -0.1605 -0.0742
 8736SOL    HW137841   1.401   2.980   5.200 -1.1668  1.0161 -0.7772
 8736SOL    HW237842   1.289   2.942   5.112 -1.8756  2.1097  1.0098
 8737SOL     OW37843   1.964   2.005  12.198  0.6988 -0.0555 -0.5455
 8737SOL    HW137844   1.929   2.005  12.109 -0.6536  0.1453 -0.0090
 8737SOL    HW237845   1.886   2.014  12.253  1.4275  0.0855  0.4520
 8738SOL     OW37846   4.603   3.603   4.926  0.4315 -0.2112  0.2488
 8738SOL    HW137847   4.523   3.655   4.931  0.2786 -0.5415  1.1648
 8738SOL    HW237848   4.663   3.659   4.974 -1.1286  0.8365  0.9718
 8739SOL     OW37849   3.596   2.696   8.340 -0.4372 -0.4975  0.4208
 8739SOL    HW137850   3.602   2.752   8.417  1.3619  0.6662 -0.5536
 8739SOL    HW237851   3.610   2.616   8.391 -1.0853 -2.2653 -2.1511
 8740SOL     OW37852   2.516   0.726   5.975 -0.0598  0.3688  0.3040
 8740SOL    HW137853   2.570   0.763   6.045  0.2315 -2.0516  1.3558
 8740SOL    HW237854   2.521   0.792   5.906  1.0878 -0.5974 -0.5475
 8741SOL     OW37855   0.359   0.284   3.391 -0.2786  0.5428 -0.2981
 8741SOL    HW137856   0.381   0.365   3.437  0.0776 -0.2337  0.8893
 8741SOL    HW237857   0.431   0.261   3.332  0.5593  0.6214  0.6893
 8742SOL     OW37858   1.064   1.674   8.425 -0.0397  0.0821  0.3809
 8742SOL    HW137859   0.976   1.703   8.401  0.3875 -1.4152 -2.9740
 8742SOL    HW237860   1.047   1.599   8.482  1.1680 -0.9944 -0.6765
 8743SOL     OW37861   3.525   2.252  13.373  0.4204  0.1809 -0.3277
 8743SOL    HW137862   3.445   2.223  13.330  0.1442  1.3582 -0.6032
 8743SOL    HW237863   3.596   2.247  13.309 -0.1798 -3.2206 -0.7584
 8744SOL     OW37864   0.352   0.018   5.122  0.0245 -0.4496 -0.2484
 8744SOL    HW137865   0.323   0.108   5.138 -0.6621 -0.1605 -3.1568
 8744SOL    HW237866   0.436   0.017   5.169 -0.2367  1.3367  0.2697
 8745SOL     OW37867   0.692   3.218   4.747  0.2310  0.1810 -0.6576
 8745SOL    HW137868   0.650   3.184   4.669  0.4023  0.7813 -1.0081
 8745SOL    HW237869   0.783   3.199   4.722  0.5561  0.3571  0.3744
 8746SOL     OW37870   2.460   3.026  16.114 -0.0929  0.7998 -0.0985
 8746SOL    HW137871   2.556   3.027  16.117 -0.1815 -2.2804  3.1908
 8746SOL    HW237872   2.436   2.955  16.174  0.8810  0.8129  0.3167
 8747SOL     OW37873   0.051   1.066   9.433  0.1286 -0.4011 -0.6339
 8747SOL    HW137874   4.723   1.133   9.432 -0.7448 -1.3113 -1.2943
 8747SOL    HW237875   0.110   1.096   9.364  3.4469 -1.5530  1.7153
 8748SOL     OW37876   4.376   1.451   7.804 -0.7823  0.1669  0.1316
 8748SOL    HW137877   4.327   1.369   7.796  0.1742 -0.3684 -0.2661
 8748SOL    HW237878   4.301   1.506   7.779 -0.9210  0.3158  0.8875
 8749SOL     OW37879   1.606   3.157   2.954  0.4122  0.0823  0.5281
 8749SOL    HW137880   1.649   3.076   2.928  1.2270 -0.3121  3.1188
 8749SOL    HW237881   1.577   3.190   2.869  0.9980  1.1435  0.7435
 8750SOL     OW37882   1.628   0.383   1.768 -0.0937  0.5315  0.3648
 8750SOL    HW137883   1.604   0.459   1.715  1.0161  0.4240 -0.3058
 8750SOL    HW237884   1.557   0.379   1.832 -0.2761  0.8977  0.1795
 8751SOL     OW37885   2.194   3.161   2.699 -0.3392 -0.4091 -0.3774
 8751SOL    HW137886   2.115   3.166   2.752 -0.0113 -0.5072  0.1210
 8751SOL    HW237887   2.149   3.146   2.615 -0.3417 -0.1463 -0.4240
 8752SOL     OW37888   1.377   4.147   2.694 -0.8633 -0.2750  0.3696
 8752SOL    HW137889   1.430   4.067   2.691 -0.7274 -0.1361 -1.1989
 8752SOL    HW237890   1.384   4.175   2.785 -0.6489 -0.4776  0.4139
 8753SOL     OW37891   3.843   0.069   1.548 -0.2059  0.2839 -0.0885
 8753SOL    HW137892   3.791   0.002   1.592  1.8855 -1.5409 -0.3927
 8753SOL    HW237893   3.805   0.147   1.588  2.3966  1.8204 -0.6538
 8754SOL     OW37894   1.391   1.040   9.212  0.3015  0.0066  0.1323
 8754SOL    HW137895   1.332   1.114   9.192  0.5172  0.5986  1.6825
 8754SOL    HW237896   1.468   1.069   9.163 -0.5062 -3.0065 -2.9439
 8755SOL     OW37897   0.986   1.721   6.676 -0.2412  0.0141  0.0173
 8755SOL    HW137898   1.054   1.665   6.638  0.1591 -0.0755  0.8755
 8755SOL    HW237899   0.916   1.657   6.689  1.3219 -1.5611  0.6767
 8756SOL     OW37900   0.340   4.028  17.201  0.6628 -0.0469 -0.3255
 8756SOL    HW137901   0.432   4.017  17.178 -0.2186 -3.2042 -2.4130
 8756SOL    HW237902   0.341   4.001  17.293  0.5406 -1.3409 -0.6947
 8757SOL     OW37903   2.587   3.080   2.634 -0.2570 -0.0294  0.1525
 8757SOL    HW137904   2.514   3.064   2.574  0.4434  3.4055 -1.6129
 8757SOL    HW237905   2.542   3.132   2.701 -2.0287 -0.2546 -0.8766
 8758SOL     OW37906   3.136   2.561   9.182  0.2712 -0.0451 -0.3497
 8758SOL    HW137907   3.164   2.472   9.159  0.4432 -0.3975  1.2387
 8758SOL    HW237908   3.204   2.599   9.238  2.2206  0.6356 -3.1644
 8759SOL     OW37909   0.494   0.771   5.230 -0.0248 -0.3480  0.0687
 8759SOL    HW137910   0.546   0.753   5.309  0.5458  0.6539 -0.0795
 8759SOL    HW237911   0.415   0.814   5.264  1.0763  2.2222 -0.6319
 8760SOL     OW37912   3.423   3.702   2.289 -0.3543  0.4388 -0.0188
 8760SOL    HW137913   3.384   3.691   2.202  2.4974  1.7236 -1.4429
 8760SOL    HW237914   3.442   3.612   2.315 -3.3462 -0.2896 -0.2741
 8761SOL     OW37915   1.928   3.892  16.079 -0.5515  0.9648 -0.1478
 8761SOL    HW137916   1.979   3.946  16.139 -0.6173  2.1034 -1.1091
 8761SOL    HW237917   1.983   3.814  16.081 -0.9947  0.6243 -1.3465
 8762SOL     OW37918   3.922   2.681   4.675 -0.3118  0.4616  0.3136
 8762SOL    HW137919   4.006   2.702   4.636  0.7744 -0.0963  2.3331
 8762SOL    HW237920   3.943   2.709   4.764  0.9898  0.9506 -0.1539
 8763SOL     OW37921   2.220   3.231   2.040 -0.5631 -0.6121  0.0425
 8763SOL    HW137922   2.185   3.163   1.983  1.7597 -1.2816 -0.5755
 8763SOL    HW237923   2.234   3.305   1.981  0.7126 -0.5671  0.4035
 8764SOL     OW37924   2.497   2.070   4.054 -0.0345 -0.3913 -0.1714
 8764SOL    HW137925   2.454   2.153   4.074  0.9226  1.0727 -4.1654
 8764SOL    HW237926   2.426   2.021   4.014 -0.9493  0.8727 -0.0914
 8765SOL     OW37927   3.994   0.363   4.042  0.6991  0.5043  0.4327
 8765SOL    HW137928   3.941   0.284   4.025  1.3941  0.6217 -2.3915
 8765SOL    HW237929   4.064   0.326   4.097 -0.6202 -1.4181  0.8322
 8766SOL     OW37930   3.952   4.308   6.353 -0.2352 -0.2246 -0.7713
 8766SOL    HW137931   3.917   4.378   6.408  0.8055 -0.9207  0.7798
 8766SOL    HW237932   3.945   4.353   6.269 -0.8025  1.7899  0.3430
 8767SOL     OW37933   1.511   4.192  17.599 -0.2132  0.6996  0.0042
 8767SOL    HW137934   1.593   4.173  17.555  0.8089  0.4060  2.0684
 8767SOL    HW237935   1.515   4.286  17.617 -1.4207  1.2275 -2.4457
 8768SOL     OW37936   1.086   0.093  17.203 -0.3214  0.1471  0.3127
 8768SOL    HW137937   1.023   0.047  17.257 -0.2045  0.5773  0.8165
 8768SOL    HW237938   1.053   0.182  17.213  1.7920  0.9787  0.0634
 8769SOL     OW37939   3.331   0.412   2.394  0.2038 -0.0557  0.1025
 8769SOL    HW137940   3.381   0.333   2.375 -0.1707 -0.1131 -0.6224
 8769SOL    HW237941   3.271   0.412   2.320  1.1494  2.2471 -0.6562
 8770SOL     OW37942   0.145   0.886   8.357  0.5473 -0.5225  0.0901
 8770SOL    HW137943   0.120   0.961   8.303  2.2525 -0.2497 -0.3320
 8770SOL    HW237944   0.195   0.934   8.424 -0.0845 -1.1171  0.9839
 8771SOL     OW37945   1.886   0.226  15.846  0.2410  0.3004  0.2343
 8771SOL    HW137946   1.865   0.138  15.875 -1.0309  0.9262  1.2169
 8771SOL    HW237947   1.978   0.211  15.867 -0.0194 -1.1874  0.3224
 8772SOL     OW37948   1.329   2.942  12.002 -0.4881 -0.1899  0.1646
 8772SOL    HW137949   1.290   3.023  11.970 -0.9694 -0.6232 -0.3553
 8772SOL    HW237950   1.294   2.933  12.091  1.4940 -0.7581  0.8961
 8773SOL     OW37951   3.555   3.560   6.788 -0.2369 -0.2057 -0.4817
 8773SOL    HW137952   3.514   3.573   6.703 -0.4151 -0.7158 -0.4703
 8773SOL    HW237953   3.522   3.636   6.836 -1.6847 -1.4685  0.4875
 8774SOL     OW37954   3.411   4.644   5.400 -0.5249 -0.4105  0.3616
 8774SOL    HW137955   3.468   4.571   5.425  2.5259  1.5722 -0.6496
 8774SOL    HW237956   3.440   4.723   5.447  0.1887  0.8794 -2.2318
 8775SOL     OW37957   3.491   1.967  13.227 -0.3179 -0.0956  0.7492
 8775SOL    HW137958   3.527   1.979  13.314 -0.9686  1.5929  0.7779
 8775SOL    HW237959   3.403   1.950  13.260 -0.5174 -1.0979 -0.2745
 8776SOL     OW37960   2.631   2.063   9.588 -0.1962 -0.2826 -0.0373
 8776SOL    HW137961   2.662   2.031   9.673  1.1244 -1.0978 -0.8258
 8776SOL    HW237962   2.542   2.027   9.593 -0.2571  0.1246  1.9189
 8777SOL     OW37963   2.463   2.547   4.689 -0.0014  0.1176 -0.2011
 8777SOL    HW137964   2.550   2.583   4.707 -0.6337  1.8097 -0.5520
 8777SOL    HW237965   2.426   2.549   4.777  0.5808  1.1807  0.0188
 8778SOL     OW37966   3.761   0.082   5.165  0.2029  0.3439  0.3960
 8778SOL    HW137967   3.833   0.144   5.155  0.8375 -0.7229 -1.4641
 8778SOL    HW237968   3.787   0.010   5.108  1.4876  1.0545  0.0889
 8779SOL     OW37969   4.390   4.109   0.869 -0.1847  0.1198 -0.3821
 8779SOL    HW137970   4.395   4.149   0.956 -4.6248 -0.2768  0.0796
 8779SOL    HW237971   4.302   4.140   0.846  0.3105  1.0634 -1.0196
 8780SOL     OW37972   2.557   4.645   9.206  0.1233 -0.0754  0.1940
 8780SOL    HW137973   2.474   4.618   9.246 -1.4905  0.8328 -2.5101
 8780SOL    HW237974   2.574   4.708   9.275  2.5127  0.9348 -1.3288
 8781SOL     OW37975   2.906   0.051   1.725  0.7373 -0.6600 -0.4968
 8781SOL    HW137976   2.986   0.013   1.761  1.6208 -0.3252 -2.1299
 8781SOL    HW237977   2.882   0.117   1.791 -0.9466 -1.5444 -0.2068
 8782SOL     OW37978   0.185   4.605  16.265  0.0146  0.2448  0.0012
 8782SOL    HW137979   0.102   4.597  16.217  0.1462  0.3471 -0.2421
 8782SOL    HW237980   0.198   4.699  16.257 -1.6779  0.5625  0.8872
 8783SOL     OW37981   0.244   2.201   9.810 -0.1496  0.1824  0.1648
 8783SOL    HW137982   0.254   2.293   9.836  1.3955  0.0353  0.1070
 8783SOL    HW237983   0.209   2.163   9.890 -1.2468 -0.6775 -0.7218
 8784SOL     OW37984   2.384   1.608  10.495  0.1783  0.0016 -0.3523
 8784SOL    HW137985   2.375   1.577  10.585 -0.1674 -0.2582 -0.4752
 8784SOL    HW237986   2.397   1.520  10.459  1.8912  0.3666 -0.5874
 8785SOL     OW37987   0.753   2.851   6.176  0.1674 -0.1504  0.5067
 8785SOL    HW137988   0.732   2.759   6.192  1.1504 -0.6722 -1.3342
 8785SOL    HW237989   0.844   2.856   6.206  0.1774 -0.3483  0.5063
 8786SOL     OW37990   2.204   4.350   7.042  0.1075 -0.2363 -0.3330
 8786SOL    HW137991   2.277   4.308   6.996  0.6912  1.9226 -1.3576
 8786SOL    HW237992   2.255   4.392   7.112  1.1229 -1.9924 -0.0089
 8787SOL     OW37993   0.523   0.476  10.908 -0.0816 -0.1388 -0.0707
 8787SOL    HW137994   0.592   0.532  10.945  1.9001 -0.9273 -2.5815
 8787SOL    HW237995   0.566   0.420  10.844 -2.0132 -0.0824 -1.4173
 8788SOL     OW37996   3.194   0.466  11.866 -0.3651 -0.1739 -0.3439
 8788SOL    HW137997   3.148   0.382  11.868  0.0635 -0.3810  0.4340
 8788SOL    HW237998   3.122   0.511  11.821  0.3408  0.5482 -0.7406
 8789SOL     OW37999   2.312   4.309   5.338  0.0744 -0.4928 -0.6057
 8789SOL    HW138000   2.343   4.330   5.425  2.5386 -0.8150 -1.4219
 8789SOL    HW238001   2.393   4.325   5.289  0.8520 -0.4572  0.7119
 8790SOL     OW38002   2.312   0.165   2.226  0.1214 -0.4950  0.0102
 8790SOL    HW138003   2.378   0.097   2.211  2.6649  1.4844  2.0798
 8790SOL    HW238004   2.274   0.179   2.140  0.3202 -2.2345 -0.3673
 8791SOL     OW38005   3.385   2.268   1.247  0.8027 -0.5639 -0.8884
 8791SOL    HW138006   3.384   2.239   1.155  1.5899  0.3044 -1.1673
 8791SOL    HW238007   3.337   2.198   1.292 -1.0584  1.4893  0.2785
 8792SOL     OW38008   3.890   0.064   0.059  0.0644 -0.4264 -0.2709
 8792SOL    HW138009   3.934   0.145   0.035 -1.7654  0.5780 -0.2496
 8792SOL    HW238010   3.918   0.013  17.743  3.0065  2.3173 -1.0096
 8793SOL     OW38011   3.744   1.241   8.439  0.3869 -0.0205 -0.0107
 8793SOL    HW138012   3.669   1.287   8.402  1.6582 -0.3850 -3.0467
 8793SOL    HW238013   3.698   1.185   8.501 -1.1198 -0.3515 -1.4257
 8794SOL     OW38014   4.655   1.792   4.355 -0.2522  0.7382 -0.0117
 8794SOL    HW138015   4.646   1.697   4.365  0.4290  0.8408  1.5686
 8794SOL    HW238016   4.632   1.789   4.262 -3.9702  1.1974  0.8780
 8795SOL     OW38017   2.753   3.733  11.324  0.5741  0.0781 -0.1632
 8795SOL    HW138018   2.742   3.640  11.308 -1.1857  0.3860 -0.7652
 8795SOL    HW238019   2.798   3.719  11.407 -1.2602 -2.2098  0.4215
 8796SOL     OW38020   1.005   2.942   9.698 -0.2748 -0.7032  0.5112
 8796SOL    HW138021   0.979   2.888   9.623 -1.0617  0.0480  0.2511
 8796SOL    HW238022   1.075   2.994   9.659 -1.6699  0.9412  0.2298
 8797SOL     OW38023   2.412   2.092  12.383 -0.1799 -0.1418 -0.2729
 8797SOL    HW138024   2.333   2.099  12.329 -0.9840  0.9197  1.0381
 8797SOL    HW238025   2.464   2.021  12.345 -1.4445 -1.2944  0.1605
 8798SOL     OW38026   0.782   3.952   9.321  0.2474  0.0179  0.0450
 8798SOL    HW138027   0.873   3.930   9.340  0.3502  0.1601 -0.2940
 8798SOL    HW238028   0.733   3.934   9.402 -1.2433  0.1660 -0.8154
 8799SOL     OW38029   0.308   0.259   2.677  0.3976  0.9779 -0.5390
 8799SOL    HW138030   0.317   0.277   2.583  0.8015 -0.8049 -0.8416
 8799SOL    HW238031   0.217   0.229   2.673  0.4382  0.7233  0.5251
 8800SOL     OW38032   0.215   3.825   9.194 -0.6616  0.1503  0.0497
 8800SOL    HW138033   0.235   3.773   9.272  0.2223 -1.6434 -1.3659
 8800SOL    HW238034   0.263   3.780   9.125 -1.6257 -1.2741  0.3072
 8801SOL     OW38035   2.143   3.708   7.363  0.2748  0.1178 -0.1041
 8801SOL    HW138036   2.226   3.719   7.317  0.5243  2.1837  0.8263
 8801SOL    HW238037   2.143   3.778   7.428  1.4641  0.3149 -0.3182
 8802SOL     OW38038   1.393   2.821   3.415  0.1391 -0.3561  0.0284
 8802SOL    HW138039   1.479   2.799   3.451  0.5360 -1.9068 -1.8528
 8802SOL    HW238040   1.403   2.775   3.331 -0.4848  0.1480 -0.3174
 8803SOL     OW38041   3.838   3.584   6.812 -0.2595 -0.4979  0.2780
 8803SOL    HW138042   3.843   3.595   6.907  0.4315  1.6796 -0.0277
 8803SOL    HW238043   3.750   3.618   6.793  0.3023  1.6857  1.6627
 8804SOL     OW38044   3.780   2.352  11.049 -0.0039  0.6155 -0.3608
 8804SOL    HW138045   3.802   2.267  11.010 -0.6378  0.2395  0.0962
 8804SOL    HW238046   3.684   2.348  11.050  0.0730 -1.3601  0.0646
 8805SOL     OW38047   2.781   1.767   4.151  0.2606  0.5891  0.2579
 8805SOL    HW138048   2.707   1.726   4.107 -0.0593 -1.0831  2.3576
 8805SOL    HW238049   2.855   1.748   4.092 -1.8023 -4.8807 -0.5090
 8806SOL     OW38050   4.578   1.364   3.766  0.0636 -0.2743 -0.1976
 8806SOL    HW138051   4.614   1.280   3.739  1.2927  0.6452 -1.4179
 8806SOL    HW238052   4.611   1.429   3.704 -0.3769  0.7579  0.6337
 8807SOL     OW38053   1.695   0.377  15.945  0.2040  0.3671  0.3007
 8807SOL    HW138054   1.615   0.325  15.936  0.7845 -0.8505  2.2795
 8807SOL    HW238055   1.766   0.327  15.905  0.2185  0.6746 -0.0641
 8808SOL     OW38056   3.250   2.175   3.441  0.3109 -0.5909  0.1902
 8808SOL    HW138057   3.189   2.135   3.503 -0.2992 -0.7529 -0.5021
 8808SOL    HW238058   3.270   2.258   3.483 -0.4954 -0.7211  0.8395
 8809SOL     OW38059   2.623   2.951   2.349  0.6941 -0.4824 -0.1790
 8809SOL    HW138060   2.561   3.020   2.373  1.9653  0.4937  0.2498
 8809SOL    HW238061   2.617   2.958   2.254 -0.6731 -0.6947 -0.1154
 8810SOL     OW38062   2.053   1.875   8.986  0.1940 -0.4514  0.0430
 8810SOL    HW138063   2.048   1.947   9.048  0.2010 -0.3509 -0.0731
 8810SOL    HW238064   2.058   1.937   8.913  0.4504 -0.8759 -0.2989
 8811SOL     OW38065   0.049   4.062   7.875 -0.9485  0.0217  0.8028
 8811SOL    HW138066   0.031   4.152   7.847 -3.2239 -0.6610  0.0399
 8811SOL    HW238067   0.088   4.090   7.957 -1.3933  1.6961  0.4540
 8812SOL     OW38068   0.271   1.762   7.064 -0.1355  0.0159  0.4380
 8812SOL    HW138069   0.337   1.735   7.000 -0.6486 -0.5214  0.1308
 8812SOL    HW238070   0.288   1.855   7.056  0.6770 -0.3267 -1.7140
 8813SOL     OW38071   2.215   4.633   5.782  0.4317  0.3320  0.5284
 8813SOL    HW138072   2.171   4.570   5.839  1.6813 -0.3632  0.7271
 8813SOL    HW238073   2.256   4.686   5.851 -0.3518  2.2539 -0.4637
 8814SOL     OW38074   0.862   3.095   3.758 -0.4831 -0.6051 -0.5274
 8814SOL    HW138075   0.827   3.183   3.743  1.3563  0.1999 -0.0815
 8814SOL    HW238076   0.940   3.101   3.703  0.0160  0.6290  0.3211
 8815SOL     OW38077   4.216   1.434   3.824 -0.2012 -0.6689  0.1847
 8815SOL    HW138078   4.163   1.510   3.852 -1.4979 -1.8070  0.8230
 8815SOL    HW238079   4.266   1.478   3.755 -0.0879 -2.0523 -0.6012
 8816SOL     OW38080   0.943   2.110  15.124  0.9009  0.5292 -0.0891
 8816SOL    HW138081   1.006   2.130  15.055 -0.1231 -2.0870 -1.8060
 8816SOL    HW238082   0.866   2.094  15.069  0.7556 -1.3303  0.6526
 8817SOL     OW38083   1.058   2.622   8.214 -0.4161 -0.7622 -0.2396
 8817SOL    HW138084   1.096   2.703   8.180 -2.0749  0.8124  1.7009
 8817SOL    HW238085   1.136   2.605   8.268 -0.1538 -2.3733 -1.1191
 8818SOL     OW38086   2.310   3.143   7.378 -0.0949 -0.3432 -0.1313
 8818SOL    HW138087   2.242   3.198   7.338  0.4590 -0.4544 -1.2158
 8818SOL    HW238088   2.367   3.210   7.416 -0.9617 -0.0394  0.6315
 8819SOL     OW38089   1.023   1.608  13.610  0.1265 -0.3187 -0.0825
 8819SOL    HW138090   1.091   1.645  13.666 -0.1853 -0.9961  0.7441
 8819SOL    HW238091   1.034   1.666  13.534  0.6659  0.1314  0.3408
 8820SOL     OW38092   0.605   4.540   4.709  0.1665 -0.1831 -0.1079
 8820SOL    HW138093   0.605   4.591   4.628  1.6719  2.6320  1.6623
 8820SOL    HW238094   0.553   4.463   4.685  0.6357 -0.1261 -1.3094
 8821SOL     OW38095   4.287   4.695   8.176  0.3011 -0.2113  0.3029
 8821SOL    HW138096   4.247   4.619   8.217  2.3506 -1.6865 -0.4244
 8821SOL    HW238097   4.254   4.706   8.087  1.2855 -0.8321 -0.1492
 8822SOL     OW38098   1.190   4.118   9.414  0.2673  0.1530  0.0545
 8822SOL    HW138099   1.281   4.145   9.416  0.3431 -0.1664  1.4867
 8822SOL    HW238100   1.143   4.199   9.394  0.7342  0.5248  0.4423
 8823SOL     OW38101   1.093   1.699  17.209  0.2695 -0.0879 -0.3446
 8823SOL    HW138102   1.152   1.754  17.157  2.1438 -2.3102 -0.5812
 8823SOL    HW238103   1.044   1.669  17.132  0.0951  0.3175 -0.3922
 8824SOL     OW38104   1.220   2.973   5.535  0.4938  0.1490 -0.0394
 8824SOL    HW138105   1.268   2.894   5.560 -1.5004 -1.1704 -0.4400
 8824SOL    HW238106   1.278   3.025   5.480  2.3568 -0.6380  1.1719
 8825SOL     OW38107   0.263   3.889   9.997 -0.2064 -0.5532 -0.3931
 8825SOL    HW138108   0.274   3.835  10.076  1.0217 -1.7920 -1.3955
 8825SOL    HW238109   0.342   3.943   9.991 -1.9729  2.2183  1.1277
 8826SOL     OW38110   0.872   3.116  10.160  0.4505 -0.4256  0.0738
 8826SOL    HW138111   0.937   3.186  10.160 -0.9984  0.9246  2.1107
 8826SOL    HW238112   0.793   3.155  10.122  0.2370 -0.1836  0.7530
 8827SOL     OW38113   1.971   1.345   5.621  0.3096  0.1366  0.1200
 8827SOL    HW138114   1.900   1.283   5.605  0.8070 -0.3874 -0.0510
 8827SOL    HW238115   2.041   1.280   5.626 -0.4296 -0.6847 -0.2514
 8828SOL     OW38116   3.542   1.210   4.290 -0.3207  0.6428  0.1193
 8828SOL    HW138117   3.450   1.186   4.302  0.2643 -1.7316 -0.2541
 8828SOL    HW238118   3.578   1.143   4.233 -2.0010 -0.1344 -0.0264
 8829SOL     OW38119   0.407   3.050   6.683  0.0555 -0.1209 -0.3005
 8829SOL    HW138120   0.368   3.132   6.714  0.5111  0.5640 -1.5343
 8829SOL    HW238121   0.329   2.996   6.697 -0.9664  0.8731 -2.1001
 8830SOL     OW38122   1.376   3.319   8.530  0.8382  0.5272  0.3771
 8830SOL    HW138123   1.397   3.252   8.465  1.3720  2.4290 -1.4157
 8830SOL    HW238124   1.348   3.390   8.472 -0.9660 -1.2451 -0.9091
 8831SOL     OW38125   3.621   3.994   8.671  0.1447  0.1321  0.1918
 8831SOL    HW138126   3.614   3.919   8.612  1.0191  1.1639 -1.2289
 8831SOL    HW238127   3.663   4.059   8.615 -0.5641 -0.8468 -1.4804
 8832SOL     OW38128   2.423   2.174  14.953  0.2512 -0.0153 -0.1837
 8832SOL    HW138129   2.406   2.085  14.983 -2.2955 -0.2631 -2.2781
 8832SOL    HW238130   2.514   2.185  14.978  0.3541  0.4600 -0.7577
 8833SOL     OW38131   0.976   1.684   6.283 -0.5774 -0.4568  0.1737
 8833SOL    HW138132   0.924   1.738   6.223 -0.0794  2.7542  2.6018
 8833SOL    HW238133   1.019   1.747   6.341  1.1294 -1.1442 -0.3636
 8834SOL     OW38134   3.798   3.235   3.871  0.5780  0.3789  0.2112
 8834SOL    HW138135   3.800   3.201   3.782  0.3457 -0.7371  0.6281
 8834SOL    HW238136   3.731   3.181   3.913  0.4011 -0.0504 -0.6212
 8835SOL     OW38137   1.416   1.288   7.949 -0.0419 -0.3933  0.7250
 8835SOL    HW138138   1.374   1.369   7.921  1.8048 -0.1334 -1.2991
 8835SOL    HW238139   1.505   1.318   7.964  0.3750 -1.1865 -0.1937
 8836SOL     OW38140   1.729   2.800   2.458 -0.0482 -0.0296 -0.5052
 8836SOL    HW138141   1.711   2.709   2.433 -1.4371  0.5101 -1.4262
 8836SOL    HW238142   1.771   2.787   2.543  1.0008  0.9886 -0.8643
 8837SOL     OW38143   4.091   0.836   4.122 -0.9464  0.2450  0.2814
 8837SOL    HW138144   4.032   0.871   4.189  0.2357  1.4111  0.7310
 8837SOL    HW238145   4.093   0.742   4.142 -0.5976  0.3938  0.9710
 8838SOL     OW38146   1.978   3.704   7.663  0.3251  0.0278 -0.5272
 8838SOL    HW138147   2.064   3.700   7.703  1.2886  0.1736 -2.5991
 8838SOL    HW238148   1.957   3.795   7.686 -1.9716 -0.6135 -0.0548
 8839SOL     OW38149   4.731   0.386   4.127 -0.3347  0.5232  0.4775
 8839SOL    HW138150   4.715   0.307   4.077  0.3408  1.6835 -1.5797
 8839SOL    HW238151   0.046   0.437   4.068 -0.0798 -2.1911 -1.5705
 8840SOL     OW38152   0.980   3.712   4.214  0.2949  0.4286  0.4234
 8840SOL    HW138153   1.047   3.716   4.282  0.4496 -0.0823  0.2986
 8840SOL    HW238154   0.950   3.803   4.215  0.7668  0.6204 -3.0985
 8841SOL     OW38155   2.350   4.289   0.315 -0.3864 -0.2069  0.6788
 8841SOL    HW138156   2.367   4.338   0.235 -0.9622 -0.4149  0.4271
 8841SOL    HW238157   2.424   4.295   0.375 -0.3160 -0.2888  0.6013
 8842SOL     OW38158   2.202   2.274   6.998 -0.4251 -0.2275  0.7086
 8842SOL    HW138159   2.136   2.255   7.065 -2.1350  1.0756 -0.6013
 8842SOL    HW238160   2.158   2.226   6.928 -2.1320  0.5771  1.2407
 8843SOL     OW38161   4.481   2.831  14.876 -0.2327 -0.9053 -0.1415
 8843SOL    HW138162   4.567   2.836  14.919 -0.8497 -2.1177  1.2353
 8843SOL    HW238163   4.496   2.895  14.806 -0.3658 -1.2954 -0.5272
 8844SOL     OW38164   1.525   1.038   8.821  0.1861  0.0371  0.1283
 8844SOL    HW138165   1.480   1.104   8.769 -0.8663 -0.8932 -0.1357
 8844SOL    HW238166   1.534   1.081   8.907  1.6677  1.6978 -0.8688
 8845SOL     OW38167   4.276   0.299  15.106  0.3520  0.1929  0.1853
 8845SOL    HW138168   4.309   0.389  15.095  0.3966 -0.2911 -3.5575
 8845SOL    HW238169   4.219   0.308  15.182 -0.1207  1.5236 -0.3226
 8846SOL     OW38170   0.398   1.709   0.894  0.1263 -0.0315 -0.0174
 8846SOL    HW138171   0.328   1.770   0.872 -1.5064 -0.8790  2.7217
 8846SOL    HW238172   0.389   1.712   0.990  1.3028  0.4291  0.0687
 8847SOL     OW38173   1.285   4.129   5.894 -0.2690 -0.6579  0.1829
 8847SOL    HW138174   1.267   4.049   5.944  1.0980 -1.1049 -0.0573
 8847SOL    HW238175   1.379   4.137   5.904 -0.2702  1.2720 -1.2644
 8848SOL     OW38176   3.763   2.956   2.193  0.2970  0.4402  0.1007
 8848SOL    HW138177   3.757   2.862   2.212  1.1037  1.0448  3.3335
 8848SOL    HW238178   3.853   2.975   2.221 -0.0411 -0.7727  1.9784
 8849SOL     OW38179   3.271   2.185   6.489 -0.2778 -0.0915  0.0351
 8849SOL    HW138180   3.181   2.187   6.455  0.1965 -1.6122 -1.3146
 8849SOL    HW238181   3.257   2.196   6.583  0.9400  1.6579 -0.0004
 8850SOL     OW38182   1.052   4.300   7.286 -0.1896  0.0943  0.8404
 8850SOL    HW138183   1.101   4.360   7.342 -1.0955  2.4216 -0.8154
 8850SOL    HW238184   0.962   4.333   7.277  0.1633  0.7966 -0.1863
 8851SOL     OW38185   0.758   3.752   4.427 -0.1881  0.2495 -0.0794
 8851SOL    HW138186   0.760   3.829   4.484 -0.2899 -0.5962  1.0699
 8851SOL    HW238187   0.757   3.792   4.340  1.4096 -1.0523 -0.7163
 8852SOL     OW38188   1.026   4.120   4.463 -0.4766 -0.4997 -0.5457
 8852SOL    HW138189   1.020   4.199   4.518  1.4486  0.6014 -1.8966
 8852SOL    HW238190   1.107   4.149   4.421  0.3279  0.8671  1.9391
 8853SOL     OW38191   1.835   0.542   7.371 -0.2001  0.3345 -0.4754
 8853SOL    HW138192   1.759   0.561   7.316 -0.7493 -0.2102  0.0931
 8853SOL    HW238193   1.801   0.566   7.458 -1.2115 -1.2288 -0.4345
 8854SOL     OW38194   3.560   3.324   4.809  0.5727 -0.2669 -0.2718
 8854SOL    HW138195   3.547   3.304   4.716 -0.7808 -2.5164  0.3885
 8854SOL    HW238196   3.534   3.416   4.805  1.7621  0.0623 -0.4850
 8855SOL     OW38197   2.943   1.625   3.764  0.1314  0.0233 -0.1126
 8855SOL    HW138198   2.859   1.641   3.721 -0.9923 -1.3369  1.5592
 8855SOL    HW238199   2.999   1.600   3.690  0.6273  1.5165 -0.2331
 8856SOL     OW38200   1.513   2.223   3.379 -0.5612  0.0286 -0.1164
 8856SOL    HW138201   1.493   2.228   3.286  0.1399 -2.2352 -0.3839
 8856SOL    HW238202   1.600   2.183   3.390 -1.2676 -1.2705  0.7463
 8857SOL     OW38203   1.763   0.459  12.023 -0.0062  0.2263 -0.1663
 8857SOL    HW138204   1.715   0.376  12.018  0.6779 -0.1452 -0.6219
 8857SOL    HW238205   1.781   0.460  12.117  1.2868 -2.0881 -0.3917
 8858SOL     OW38206   1.056   2.461  10.326 -0.1650 -0.4350  0.0495
 8858SOL    HW138207   1.035   2.550  10.355 -0.6728 -0.8469  0.9395
 8858SOL    HW238208   1.019   2.459  10.238 -0.4014 -0.1656  0.1447
 8859SOL     OW38209   3.057   0.142   8.123 -0.3087 -0.6709  0.5617
 8859SOL    HW138210   2.980   0.197   8.116 -0.0190 -0.6050 -2.3243
 8859SOL    HW238211   3.061   0.100   8.037  1.3343  0.7652 -0.0694
 8860SOL     OW38212   0.556   2.324  15.744 -0.2388  0.2335  0.7193
 8860SOL    HW138213   0.497   2.309  15.671  0.9142 -1.3536  0.1169
 8860SOL    HW238214   0.524   2.410  15.772 -0.8083  1.0721 -2.5431
 8861SOL     OW38215   1.238   0.030   8.260  0.6994 -0.1280  0.2329
 8861SOL    HW138216   1.212   0.121   8.272 -0.2091 -0.2343 -0.9990
 8861SOL    HW238217   1.332   0.038   8.277  0.8618  1.3480 -1.3940
 8862SOL     OW38218   2.892   4.464  14.616  0.4930 -0.2109  0.1732
 8862SOL    HW138219   2.943   4.426  14.545 -0.4356  1.3544 -1.3340
 8862SOL    HW238220   2.940   4.419  14.685 -0.8668 -0.6176  0.8532
 8863SOL     OW38221   1.081   0.280   5.214 -0.2570  0.3390  0.1499
 8863SOL    HW138222   1.093   0.191   5.179  3.4289  0.6418  0.6968
 8863SOL    HW238223   1.149   0.292   5.280  1.0395 -0.4411 -1.0431
 8864SOL     OW38224   3.542   2.705  15.020  0.2335 -0.2404  0.0802
 8864SOL    HW138225   3.635   2.696  15.040  0.5120  1.2136 -0.5342
 8864SOL    HW238226   3.518   2.769  15.087 -3.2514 -1.5583  0.1251
 8865SOL     OW38227   1.156   1.887   5.360  0.8869 -0.5207 -0.1422
 8865SOL    HW138228   1.216   1.867   5.288  0.2894 -0.6445 -0.6044
 8865SOL    HW238229   1.118   1.969   5.327  1.5813 -0.1622 -0.0517
 8866SOL     OW38230   0.076   3.924   0.625  0.1725 -0.1426  0.3995
 8866SOL    HW138231   0.168   3.915   0.649  0.6399  0.0772 -1.3149
 8866SOL    HW238232   0.050   3.981   0.698  0.3283  0.1568  0.2241
 8867SOL     OW38233   2.209   3.230   6.939  0.1646  0.0633 -0.1403
 8867SOL    HW138234   2.250   3.207   6.855 -1.6229 -1.4370 -0.6200
 8867SOL    HW238235   2.220   3.144   6.980  0.7739  0.1052 -0.2224
 8868SOL     OW38236   1.808   1.253  16.413  0.2848  0.2295  0.0898
 8868SOL    HW138237   1.729   1.290  16.374  0.3957  0.4082  0.0377
 8868SOL    HW238238   1.812   1.172  16.362 -2.3439 -0.0711  0.3724
 8869SOL     OW38239   3.789   2.676   2.234  0.2773 -0.3110 -0.1339
 8869SOL    HW138240   3.756   2.604   2.288  1.3738 -0.7655 -0.0703
 8869SOL    HW238241   3.814   2.619   2.160  0.5039  0.3589 -0.5748
 8870SOL     OW38242   4.200   0.225   1.120  0.2483 -0.2288  0.1076
 8870SOL    HW138243   4.286   0.262   1.100  0.8843 -0.4839  2.3740
 8870SOL    HW238244   4.214   0.133   1.143  0.7576 -1.5341 -5.3322
 8871SOL     OW38245   4.164   4.461   5.669 -0.1967  0.5796 -0.1295
 8871SOL    HW138246   4.252   4.479   5.703  0.2405 -1.9184  0.0735
 8871SOL    HW238247   4.143   4.553   5.650  3.2083  1.7215  1.5318
 8872SOL     OW38248   4.006   3.010   9.204  0.0425  0.1046 -0.1326
 8872SOL    HW138249   4.010   3.059   9.286 -1.0732 -1.0497  0.6171
 8872SOL    HW238250   4.065   3.063   9.151  1.0418  1.0057  1.8772
 8873SOL     OW38251   3.296   1.538   4.286 -0.5108  0.1001  0.3754
 8873SOL    HW138252   3.281   1.599   4.358  1.0360 -0.1318  0.8988
 8873SOL    HW238253   3.301   1.456   4.336 -1.0906 -0.2523 -0.1429
 8874SOL     OW38254   3.452   2.805   0.473  0.5508  0.2466  0.4716
 8874SOL    HW138255   3.438   2.888   0.427 -0.4831 -0.8358 -1.1838
 8874SOL    HW238256   3.416   2.824   0.559  1.4757 -0.9982  1.1474
 8875SOL     OW38257   1.407   3.979   7.860  0.2662 -0.6058 -0.1458
 8875SOL    HW138258   1.381   4.046   7.797  0.6288  0.0431  0.3846
 8875SOL    HW238259   1.356   3.909   7.820  1.0485 -1.2946  0.0644
 8876SOL     OW38260   3.722   2.010   7.654  0.0275  0.2692  0.1030
 8876SOL    HW138261   3.716   2.100   7.621  0.2467 -0.2812 -1.4382
 8876SOL    HW238262   3.752   2.034   7.742 -0.4836  1.5480 -0.0783
 8877SOL     OW38263   2.291   2.835  17.264 -0.1796  0.4066 -0.7055
 8877SOL    HW138264   2.302   2.744  17.292  2.5811  0.4981 -1.4549
 8877SOL    HW238265   2.201   2.839  17.233  0.0883 -1.0204 -1.6987
 8878SOL     OW38266   4.523   3.282  10.738  0.4017 -0.2472 -0.5359
 8878SOL    HW138267   4.586   3.294  10.810  0.6590 -3.5362 -0.2233
 8878SOL    HW238268   4.568   3.306  10.657  3.7310 -0.2587  1.2661
 8879SOL     OW38269   0.878   1.201   4.348  0.2846 -0.2896  0.1893
 8879SOL    HW138270   0.832   1.278   4.380 -2.0238 -1.3164 -0.6596
 8879SOL    HW238271   0.860   1.128   4.408 -1.9822 -0.1617 -0.3487
 8880SOL     OW38272   0.299   1.764  16.261  0.1345 -0.4738 -0.3002
 8880SOL    HW138273   0.326   1.685  16.308  0.1232 -0.6475 -0.5874
 8880SOL    HW238274   0.367   1.825  16.289 -0.2198 -0.0386 -0.3881
 8881SOL     OW38275   0.667   0.125   4.331 -0.2350 -0.4262  0.3876
 8881SOL    HW138276   0.630   0.199   4.285  2.0000  0.6285  0.2706
 8881SOL    HW238277   0.625   0.056   4.280 -3.1359  0.8145  1.0941
 8882SOL     OW38278   1.602   4.461   1.328 -0.3732 -0.4837  0.5192
 8882SOL    HW138279   1.625   4.444   1.237  1.5942  2.7870  0.4168
 8882SOL    HW238280   1.646   4.387   1.370 -1.3529 -0.4433  1.6372
 8883SOL     OW38281   2.418   1.421  13.004 -0.2835 -0.3232  0.8718
 8883SOL    HW138282   2.388   1.447  13.092 -2.8812  0.0239 -0.1165
 8883SOL    HW238283   2.442   1.330  13.022  1.0670 -0.1655 -0.1368
 8884SOL     OW38284   1.424   3.429  17.590  0.0574  0.0199 -0.0949
 8884SOL    HW138285   1.424   3.510  17.642  0.1055  0.7360 -1.2067
 8884SOL    HW238286   1.516   3.429  17.562  0.3145 -0.3459  0.7525
 8885SOL     OW38287   3.514   0.288  13.586 -0.8141 -0.1092 -0.6386
 8885SOL    HW138288   3.428   0.320  13.561  0.6477  2.4729 -2.4119
 8885SOL    HW238289   3.560   0.270  13.503 -0.8057  1.4056 -0.9630
 8886SOL     OW38290   2.897   2.405   8.478 -0.1372 -0.3651 -0.1077
 8886SOL    HW138291   2.912   2.488   8.524 -1.5054 -1.1737  1.8021
 8886SOL    HW238292   2.919   2.343   8.548  0.8065 -1.5939 -1.4998
 8887SOL     OW38293   4.048   1.241   1.030  0.0954  0.0874  0.5541
 8887SOL    HW138294   4.110   1.194   1.086 -0.8800 -1.3220  0.4597
 8887SOL    HW238295   4.105   1.252   0.954  0.5096 -2.8065  0.4302
 8888SOL     OW38296   1.863   1.206   3.425  0.6516  0.3738  0.1215
 8888SOL    HW138297   1.869   1.288   3.474 -2.3560  0.9928 -0.5808
 8888SOL    HW238298   1.822   1.143   3.484  0.5270 -0.0055 -0.3736
 8889SOL     OW38299   1.270   1.336   5.414  0.1063 -0.2602 -0.3991
 8889SOL    HW138300   1.224   1.376   5.341  0.3303 -0.4498 -0.6478
 8889SOL    HW238301   1.231   1.389   5.483 -0.6013 -1.5613  0.2045
 8890SOL     OW38302   3.397   2.720  13.583  0.1047 -0.7221  0.1507
 8890SOL    HW138303   3.319   2.734  13.530  1.0783  0.5243 -0.9814
 8890SOL    HW238304   3.362   2.654  13.642  1.0068  0.1022  1.5835
 8891SOL     OW38305   2.719   0.600  14.226 -0.3848 -0.0248 -0.2641
 8891SOL    HW138306   2.724   0.619  14.320  2.6180 -0.8330 -0.2657
 8891SOL    HW238307   2.777   0.524  14.221 -3.4057 -2.2907 -0.4143
 8892SOL     OW38308   1.428   2.011   7.618 -0.2213 -0.9922  0.4418
 8892SOL    HW138309   1.368   2.080   7.647  1.3331  0.7777 -0.5117
 8892SOL    HW238310   1.404   1.940   7.677 -1.8970 -0.6019  0.2340
 8893SOL     OW38311   3.755   2.482   1.509 -0.3674  0.4059 -0.1080
 8893SOL    HW138312   3.832   2.471   1.565 -0.0625  1.4351 -0.3274
 8893SOL    HW238313   3.682   2.464   1.568 -1.6087 -0.0643 -1.8211
 8894SOL     OW38314   3.628   0.492   1.839 -0.3867  0.1930  0.2662
 8894SOL    HW138315   3.570   0.416   1.847 -1.8676  0.9580 -3.2201
 8894SOL    HW238316   3.575   0.569   1.860 -1.9443 -0.3676 -1.6157
 8895SOL     OW38317   4.449   1.895   8.880 -0.5082 -0.5028 -0.0507
 8895SOL    HW138318   4.467   1.801   8.881 -0.0165 -0.3958  1.1228
 8895SOL    HW238319   4.476   1.918   8.969 -1.0339 -0.8410  0.1960
 8896SOL     OW38320   0.135   3.950   2.999  0.6813 -0.8100 -0.6274
 8896SOL    HW138321   0.213   3.978   3.046  0.0918  1.1189 -0.7839
 8896SOL    HW238322   0.085   3.902   3.065 -0.0029  1.3253  0.4225
 8897SOL     OW38323   2.142   1.481   4.639  0.3781  0.0258 -0.6887
 8897SOL    HW138324   2.065   1.468   4.695  0.5432 -2.1521 -0.9640
 8897SOL    HW238325   2.100   1.522   4.564 -2.8743 -0.7902  0.6668
 8898SOL     OW38326   2.738   2.846   4.638  0.3997  0.3130  0.6764
 8898SOL    HW138327   2.725   2.876   4.728 -2.2101  0.1161  0.3500
 8898SOL    HW238328   2.798   2.913   4.605 -0.0624 -0.1177 -1.0328
 8899SOL     OW38329   1.970   0.313   2.674  0.2451  0.3497  0.1749
 8899SOL    HW138330   1.977   0.402   2.639 -0.4975  0.3504  0.0427
 8899SOL    HW238331   2.062   0.288   2.662 -0.6985 -2.4532 -1.2065
 8900SOL     OW38332   1.749   1.627  17.463 -0.0198 -0.1244  0.1977
 8900SOL    HW138333   1.766   1.618  17.556  0.6988  1.2287  0.1982
 8900SOL    HW238334   1.660   1.592  17.463  0.8717 -2.3980 -0.7739
 8901SOL     OW38335   2.774   3.712   9.582 -0.0947  0.5966  0.3023
 8901SOL    HW138336   2.768   3.807   9.577 -0.4696  0.3936 -3.0706
 8901SOL    HW238337   2.842   3.707   9.649 -1.4582 -1.8870  1.5041
 8902SOL     OW38338   4.263   2.398  13.252  0.2088 -0.7205  0.0639
 8902SOL    HW138339   4.353   2.409  13.285 -0.2745 -4.1739  2.5577
 8902SOL    HW238340   4.246   2.314  13.295  1.2794 -1.0144 -0.0666
 8903SOL     OW38341   2.139   3.773   5.867  0.1779  0.1335 -0.1750
 8903SOL    HW138342   2.217   3.775   5.923 -0.3648 -1.3961  0.6544
 8903SOL    HW238343   2.117   3.682   5.848  0.4298  0.3316 -1.3976
 8904SOL     OW38344   0.181   3.814   5.763  0.1220  0.4930  0.2971
 8904SOL    HW138345   0.127   3.884   5.728 -0.6714 -1.3000 -2.1077
 8904SOL    HW238346   0.260   3.820   5.708  0.0195 -1.8150 -0.1135
 8905SOL     OW38347   1.696   3.203   1.937  0.3354  0.2991  0.5480
 8905SOL    HW138348   1.626   3.164   1.885 -0.9605  1.0466  1.7253
 8905SOL    HW238349   1.759   3.131   1.935  2.2850  2.1021 -2.0531
 8906SOL     OW38350   4.630   4.101   4.486 -0.1862  0.2914  0.1919
 8906SOL    HW138351   4.722   4.087   4.511  0.1884  0.5652 -1.0542
 8906SOL    HW238352   4.634   4.194   4.467  1.0007  0.3897  0.9295
 8907SOL     OW38353   2.627   3.490   5.297 -0.6911  0.0739  0.0079
 8907SOL    HW138354   2.601   3.399   5.310 -1.7741  0.6493  1.8045
 8907SOL    HW238355   2.606   3.538   5.377 -0.0694  0.7938 -0.2530
 8908SOL     OW38356   3.636   0.311  15.821  0.1112 -0.0169  0.4737
 8908SOL    HW138357   3.664   0.398  15.850 -1.2584  0.2106  1.1059
 8908SOL    HW238358   3.595   0.344  15.740  0.9624  1.9221  0.8350
 8909SOL     OW38359   1.886   2.759   2.666  0.0895 -0.7070 -0.3629
 8909SOL    HW138360   1.916   2.831   2.721  0.0115 -1.8265  1.1496
 8909SOL    HW238361   1.960   2.700   2.653 -0.6214 -1.1298 -2.5412
 8910SOL     OW38362   2.657   4.711   1.616  0.1737 -0.2209 -0.6695
 8910SOL    HW138363   2.630   0.051   1.573 -1.7061 -1.0978 -1.1356
 8910SOL    HW238364   2.744   4.729   1.653  0.3798  0.3869 -1.4530
 8911SOL     OW38365   1.876   1.208  16.688 -0.1296  0.5019  0.0250
 8911SOL    HW138366   1.857   1.253  16.606 -0.6838  0.8230  0.3280
 8911SOL    HW238367   1.971   1.200  16.687 -0.0833  0.7844  2.5724
 8912SOL     OW38368   2.057   1.928  17.202  0.4579 -0.8252 -0.1707
 8912SOL    HW138369   2.046   2.000  17.264 -0.6965 -0.9907 -0.1791
 8912SOL    HW238370   1.984   1.874  17.235 -0.2314 -0.9839 -1.9452
 8913SOL     OW38371   0.644   4.359   6.353  0.1607  0.9985 -0.2720
 8913SOL    HW138372   0.672   4.409   6.277  0.1555 -1.4975 -1.9232
 8913SOL    HW238373   0.646   4.419   6.428 -2.9278 -0.6508  1.1907
 8914SOL     OW38374   4.705   2.703   3.897 -0.6378  0.0179  0.1798
 8914SOL    HW138375   0.022   2.682   3.824  0.0854  1.0052  0.4791
 8914SOL    HW238376   4.645   2.768   3.861  0.7187  0.9971 -0.3010
 8915SOL     OW38377   0.066   4.264   8.327  0.2155 -0.0470  0.0535
 8915SOL    HW138378   0.022   4.342   8.359  1.3114  1.5020 -2.1952
 8915SOL    HW238379   0.062   4.206   8.404  0.4715 -1.2760 -0.8520
 8916SOL     OW38380   1.133   1.640   2.130 -0.7201 -0.0405 -0.9134
 8916SOL    HW138381   1.041   1.612   2.129 -1.3260  1.8804  0.5394
 8916SOL    HW238382   1.116   1.713   2.190 -1.2110 -0.3515 -0.6745
 8917SOL     OW38383   4.134   0.746  10.863  0.4760 -0.0236 -0.4305
 8917SOL    HW138384   4.057   0.785  10.823  0.2288 -0.6494 -0.5580
 8917SOL    HW238385   4.199   0.807  10.828 -0.9013  2.0651  0.6371
 8918SOL     OW38386   2.280   4.347   3.914 -0.2691 -0.8326  0.1981
 8918SOL    HW138387   2.194   4.305   3.925 -0.6127 -0.6785 -1.8600
 8918SOL    HW238388   2.273   4.401   3.993  0.6242  1.6428 -1.4369
 8919SOL     OW38389   3.031   3.842   5.494 -0.2581 -0.0557  0.1103
 8919SOL    HW138390   2.961   3.781   5.470 -0.5614 -0.1848  1.3147
 8919SOL    HW238391   3.074   3.849   5.409  0.2700 -0.9814  0.3037
 8920SOL     OW38392   4.325   2.101  16.167 -0.2690 -0.2291  0.5438
 8920SOL    HW138393   4.308   2.100  16.073 -2.0777  0.4071  0.8597
 8920SOL    HW238394   4.233   2.100  16.195 -0.5318 -1.0667 -0.3338
 8921SOL     OW38395   1.001   2.862   8.720 -0.0329 -0.1455  0.1672
 8921SOL    HW138396   0.973   2.783   8.767  0.3359 -0.7713 -0.6571
 8921SOL    HW238397   0.965   2.929   8.778 -2.5050 -1.3697  0.0602
 8922SOL     OW38398   1.676   0.090   9.117 -0.1122  0.2534 -0.3981
 8922SOL    HW138399   1.581   0.094   9.116 -0.0624  1.9984  1.5913
 8922SOL    HW238400   1.700   0.094   9.210 -1.8813 -1.6573  0.1567
 8923SOL     OW38401   2.138   3.068   6.112 -0.0647  0.0699  0.1697
 8923SOL    HW138402   2.096   3.127   6.175 -0.9479  0.3350 -0.6732
 8923SOL    HW238403   2.074   3.004   6.081  2.0237 -1.7393 -0.3882
 8924SOL     OW38404   1.829   0.069   1.437  0.2637  0.0655 -0.4017
 8924SOL    HW138405   1.892   0.017   1.487 -0.1255  0.7042  0.7606
 8924SOL    HW238406   1.776   0.111   1.505 -1.9207 -0.1744 -1.9444
 8925SOL     OW38407   2.398   3.787   6.799  0.0271  0.4713 -0.0270
 8925SOL    HW138408   2.481   3.805   6.844  1.2703  0.7891 -2.4534
 8925SOL    HW238409   2.369   3.877   6.781 -0.9331  0.6612  2.5484
 8926SOL     OW38410   1.403   2.880   6.549 -0.2808  0.0943 -0.4639
 8926SOL    HW138411   1.352   2.859   6.471 -0.9807  0.0898 -0.0016
 8926SOL    HW238412   1.345   2.843   6.615  0.4196 -3.2020 -1.7034
 8927SOL     OW38413   3.526   0.129   0.030 -0.2842 -0.1943  0.0980
 8927SOL    HW138414   3.474   0.086  17.722 -1.8737  0.5593  0.8256
 8927SOL    HW238415   3.552   0.053   0.082 -0.2478  1.1195  2.0027
 8928SOL     OW38416   2.074   2.589   6.958  0.0026  0.5386  0.3423
 8928SOL    HW138417   2.024   2.634   6.890 -0.1488 -0.9069 -0.4980
 8928SOL    HW238418   2.004   2.529   6.986  1.3105 -0.7865  0.7580
 8929SOL     OW38419   2.147   4.513   1.193  0.3130  0.4127 -0.1543
 8929SOL    HW138420   2.151   4.556   1.108 -0.3718  1.4612  0.3363
 8929SOL    HW238421   2.180   4.428   1.165 -0.5038  0.8793 -2.5169
 8930SOL     OW38422   0.758   3.444   6.239  0.1243 -0.0748 -0.2752
 8930SOL    HW138423   0.779   3.427   6.330  2.2943  1.7249 -0.4374
 8930SOL    HW238424   0.738   3.538   6.239 -1.3737 -0.3959  1.2368
 8931SOL     OW38425   3.890   1.776  14.770 -0.4932  0.3241 -0.2668
 8931SOL    HW138426   3.801   1.769  14.803  0.2682  1.2637  2.0285
 8931SOL    HW238427   3.884   1.860  14.724 -0.8329  0.9867  1.0047
 8932SOL     OW38428   3.400   0.875   6.463  0.7567  0.3046  0.2061
 8932SOL    HW138429   3.380   0.904   6.374 -0.7804  0.5991  0.6517
 8932SOL    HW238430   3.311   0.850   6.485  0.4176 -0.2487 -1.7802
 8933SOL     OW38431   1.708   3.776   9.001 -0.5598  0.4649  0.2524
 8933SOL    HW138432   1.614   3.787   9.013 -0.4330  0.6267  1.1161
 8933SOL    HW238433   1.715   3.779   8.906 -1.6851  1.9110  0.2046
 8934SOL     OW38434   1.327   2.738  15.558 -0.1442 -0.0081  0.1349
 8934SOL    HW138435   1.355   2.649  15.576  2.0190  0.5145 -0.7634
 8934SOL    HW238436   1.411   2.782  15.568  0.1607 -0.1835 -1.7339
 8935SOL     OW38437   1.359   0.090   3.901  0.0281  0.8346  0.1210
 8935SOL    HW138438   1.272   0.127   3.896 -0.3662  0.0062  0.9178
 8935SOL    HW238439   1.381   0.105   3.809 -1.8973  0.7376 -0.3493
 8936SOL     OW38440   4.496   3.069   6.918  0.0617 -0.1084 -0.1785
 8936SOL    HW138441   4.462   3.047   7.005  1.2850  1.9682  0.8081
 8936SOL    HW238442   4.584   3.032   6.921 -0.4390 -1.2895  0.0320
 8937SOL     OW38443   4.149   0.512   1.355 -0.0928 -0.5149 -0.7654
 8937SOL    HW138444   4.132   0.516   1.261  1.6558  0.6449 -1.0405
 8937SOL    HW238445   4.212   0.440   1.361  0.7195  0.3433  1.0580
 8938SOL     OW38446   1.017   3.482   2.370  0.4694 -0.4691 -0.3011
 8938SOL    HW138447   1.079   3.472   2.442  0.8070  3.3615 -0.0584
 8938SOL    HW238448   1.050   3.425   2.301  0.7915  0.7095 -1.1154
 8939SOL     OW38449   0.010   4.714   9.541  0.4769 -0.4669 -0.3793
 8939SOL    HW138450   0.008   4.618   9.539  0.7735 -0.5139  1.2314
 8939SOL    HW238451   0.102   4.728   9.559  0.0700 -1.5514  2.6174
 8940SOL     OW38452   4.653   1.515   5.195 -0.4466 -0.3825 -0.5125
 8940SOL    HW138453   4.696   1.535   5.278 -0.9048  2.1651 -0.8957
 8940SOL    HW238454   4.588   1.585   5.195 -0.9170 -0.8134 -0.3284
 8941SOL     OW38455   3.067   2.239  17.302 -0.5163  0.0899  0.2226
 8941SOL    HW138456   3.102   2.151  17.316  3.2498  1.4081 -0.9017
 8941SOL    HW238457   3.011   2.240  17.380  0.3958 -1.8566  0.9229
 8942SOL     OW38458   2.655   3.975   3.954 -0.6470 -0.1080 -0.0038
 8942SOL    HW138459   2.734   3.936   3.916  0.5012  1.6943  0.5450
 8942SOL    HW238460   2.646   4.062   3.913  1.7382  0.8054  1.4298
 8943SOL     OW38461   1.523   0.085   3.180 -0.5131 -0.9078 -0.6351
 8943SOL    HW138462   1.595   0.022   3.192 -3.0642 -3.6313  0.3891
 8943SOL    HW238463   1.523   0.095   3.085 -1.9123  1.5974 -0.3588
 8944SOL     OW38464   2.859   1.904  16.459 -0.1564  0.2191  0.3381
 8944SOL    HW138465   2.857   1.999  16.475  1.4647  0.8524 -3.0490
 8944SOL    HW238466   2.923   1.879  16.526  0.0523 -1.6760 -0.5790
 8945SOL     OW38467   2.003   4.454   3.667 -0.5940 -0.4004 -0.6699
 8945SOL    HW138468   2.007   4.415   3.754 -1.0744  2.4784  0.6411
 8945SOL    HW238469   2.072   4.402   3.627  0.9144  1.0564  0.0369
 8946SOL     OW38470   3.254   1.607  12.340  0.4219 -0.1965  0.7133
 8946SOL    HW138471   3.316   1.676  12.315 -0.0727 -1.8126 -4.9949
 8946SOL    HW238472   3.312   1.540  12.376  0.9732 -0.2150 -0.2211
 8947SOL     OW38473   1.166   0.637   1.575 -0.7707 -0.3263  0.4509
 8947SOL    HW138474   1.260   0.627   1.590 -0.8495 -0.2228  0.9934
 8947SOL    HW238475   1.178   0.653   1.481  0.3872 -0.5534  0.5550
 8948SOL     OW38476   3.130   0.323   6.291  0.3670  0.6391  0.0018
 8948SOL    HW138477   3.212   0.320   6.242  0.4863 -2.1009  0.3774
 8948SOL    HW238478   3.132   0.416   6.312 -0.6925  1.2187 -2.6016
 8949SOL     OW38479   2.785   1.604   8.559 -0.4247 -0.2029  0.1320
 8949SOL    HW138480   2.766   1.693   8.529  0.0600 -0.2173 -0.2077
 8949SOL    HW238481   2.856   1.579   8.500  0.1299  1.5145  0.0471
 8950SOL     OW38482   3.336   1.817   5.757  0.1757 -0.1282  0.0050
 8950SOL    HW138483   3.368   1.783   5.840  1.6529  0.4893 -0.3034
 8950SOL    HW238484   3.414   1.856   5.717  0.3886 -0.1559  0.3929
 8951SOL     OW38485   1.174   2.155   6.202  0.5642 -0.4330  0.0744
 8951SOL    HW138486   1.259   2.198   6.195  0.7025 -0.7312 -0.0881
 8951SOL    HW238487   1.117   2.232   6.197  0.9293 -0.3831 -2.9394
 8952SOL     OW38488   0.045   2.232  10.091  0.6812  0.6944  0.3176
 8952SOL    HW138489   4.729   2.253  10.017 -0.0610 -0.0505  0.6690
 8952SOL    HW238490   0.006   2.152  10.127  0.2788 -0.1896 -2.1174
 8953SOL     OW38491   2.136   4.618   4.958 -0.4501 -0.3096 -0.3319
 8953SOL    HW138492   2.080   4.604   5.034  1.3261  1.6928  1.3268
 8953SOL    HW238493   2.088   4.693   4.921  0.0753  0.4293  0.5095
 8954SOL     OW38494   3.146   0.467   2.590  0.2492  0.7460  0.2970
 8954SOL    HW138495   3.203   0.458   2.514 -1.2461  0.6952 -0.8095
 8954SOL    HW238496   3.106   0.550   2.565 -0.7254  0.8556  2.2290
 8955SOL     OW38497   4.305   1.464  12.875 -0.3146 -0.6588 -0.3184
 8955SOL    HW138498   4.388   1.484  12.832  1.3765  0.7268  3.5777
 8955SOL    HW238499   4.247   1.444  12.802  1.1185 -0.4766 -1.5103
 8956SOL     OW38500   0.262   3.131   4.890  0.4803  0.0975  0.3182
 8956SOL    HW138501   0.287   3.065   4.826  0.1788  0.7011 -0.4224
 8956SOL    HW238502   0.328   3.197   4.870  0.7914 -0.5064 -0.6329
 8957SOL     OW38503   1.754   3.119   6.193  0.5785  0.3590 -0.1417
 8957SOL    HW138504   1.728   3.046   6.249 -2.9910  1.4955 -0.3428
 8957SOL    HW238505   1.729   3.086   6.107 -0.7486 -1.3229  0.8802
 8958SOL     OW38506   0.462   1.284   9.935  0.1598  0.4248 -0.8114
 8958SOL    HW138507   0.373   1.249   9.945  0.7763 -0.4403  1.7040
 8958SOL    HW238508   0.445   1.371   9.972 -1.6568 -0.5478  0.6224
 8959SOL     OW38509   3.657   1.144  14.785 -0.3328 -0.1954 -0.0639
 8959SOL    HW138510   3.726   1.079  14.790 -0.5498 -0.2344  2.3364
 8959SOL    HW238511   3.629   1.127  14.695 -1.0686 -2.1089  0.5360
 8960SOL     OW38512   2.320   1.312   5.486  0.1511 -0.1526  0.1945
 8960SOL    HW138513   2.293   1.258   5.412 -0.4069 -1.2774  1.2029
 8960SOL    HW238514   2.390   1.367   5.450 -2.0794  2.0663 -0.6842
 8961SOL     OW38515   4.243   2.726  13.131  0.2244  0.3919 -0.3911
 8961SOL    HW138516   4.297   2.667  13.079 -0.5708  1.5999 -2.6126
 8961SOL    HW238517   4.290   2.807  13.110  0.4091  0.5384  0.5644
 8962SOL     OW38518   4.262   0.553   2.809  0.4261  0.1469 -0.7772
 8962SOL    HW138519   4.296   0.481   2.755  2.5004 -0.2251  1.0484
 8962SOL    HW238520   4.188   0.574   2.752 -0.3613 -1.3631 -0.3242
 8963SOL     OW38521   1.212   1.707   0.057  0.2449  0.2495  0.3047
 8963SOL    HW138522   1.153   1.633   0.062  0.0528  0.4425  0.8939
 8963SOL    HW238523   1.154   1.780   0.035  1.4814  0.8857 -0.8294
 8964SOL     OW38524   2.795   2.749   6.548  0.1919 -0.2130 -0.1249
 8964SOL    HW138525   2.742   2.736   6.626 -0.1224 -0.3713 -0.3658
 8964SOL    HW238526   2.883   2.730   6.581  0.1598  1.9652  1.1547
 8965SOL     OW38527   4.136   1.946   3.286  0.1406  0.2797 -0.4259
 8965SOL    HW138528   4.084   2.007   3.233  0.2923  0.9159  0.1550
 8965SOL    HW238529   4.091   1.945   3.370  0.6908 -0.5832 -0.1413
 8966SOL     OW38530   2.782   1.913  14.278  0.4255  0.3640  0.2499
 8966SOL    HW138531   2.852   1.887  14.218 -0.5409 -0.6215 -0.4368
 8966SOL    HW238532   2.705   1.887  14.227  1.2879  1.3576 -1.5414
 8967SOL     OW38533   3.337   2.793  10.077 -0.0154  0.5725 -0.1000
 8967SOL    HW138534   3.355   2.699  10.072 -1.9225 -0.0019  3.4638
 8967SOL    HW238535   3.244   2.790  10.053  0.2092  1.7295 -1.0937
 8968SOL     OW38536   3.473   1.610   5.205 -0.1054  0.0677  0.0131
 8968SOL    HW138537   3.499   1.565   5.285  1.3940 -0.2302 -0.6502
 8968SOL    HW238538   3.558   1.642   5.174 -0.7508  0.1767 -1.6112
 8969SOL     OW38539   1.542   4.581   5.091  0.4124 -0.8655 -0.6389
 8969SOL    HW138540   1.628   4.617   5.072 -0.2756  1.4708  0.6947
 8969SOL    HW238541   1.535   4.595   5.185 -0.3456  1.1424 -0.9985
 8970SOL     OW38542   1.293   3.275   4.676  0.5642  0.1652  0.0073
 8970SOL    HW138543   1.378   3.233   4.669  1.0454  1.2706 -0.6808
 8970SOL    HW238544   1.297   3.339   4.605 -2.8690  1.1180  0.6576
 8971SOL     OW38545   4.662   4.259   7.215  0.5429  0.0000  0.7385
 8971SOL    HW138546   4.702   4.208   7.144  0.2123  0.9543 -0.1183
 8971SOL    HW238547   0.001   4.280   7.264 -0.2494  2.2275  1.0409
 8972SOL     OW38548   0.586   1.360   9.693  0.4331  0.0104  0.0164
 8972SOL    HW138549   0.548   1.328   9.775 -1.7856  0.0041 -1.0301
 8972SOL    HW238550   0.556   1.294   9.630  0.0813 -0.5864  0.8072
 8973SOL     OW38551   3.110   0.096   7.610  0.0387  0.3449 -0.3700
 8973SOL    HW138552   3.099   0.016   7.559 -0.9728  0.8973 -1.0071
 8973SOL    HW238553   3.128   0.164   7.546 -0.5317  0.3019 -0.5770
 8974SOL     OW38554   3.139   3.987   6.730 -0.1032  0.5681 -0.0935
 8974SOL    HW138555   3.095   4.066   6.760 -2.6012 -0.5723 -0.7847
 8974SOL    HW238556   3.210   4.023   6.676 -0.8969  0.1726 -1.3956
 8975SOL     OW38557   3.855   3.293   6.488 -0.0137 -0.1964 -0.2113
 8975SOL    HW138558   3.787   3.296   6.556  1.0735  1.2669  0.8256
 8975SOL    HW238559   3.848   3.208   6.446 -4.5660  0.1036 -0.0555
 8976SOL     OW38560   3.072   3.779   2.523 -0.2971 -0.2508  0.6759
 8976SOL    HW138561   3.077   3.726   2.602  0.6722 -2.0525 -0.5776
 8976SOL    HW238562   3.064   3.872   2.544 -0.4685  0.0335 -0.6234
 8977SOL     OW38563   1.422   0.161   9.140  0.6561  0.6101  0.2279
 8977SOL    HW138564   1.362   0.089   9.160  0.0343  1.3850  1.1643
 8977SOL    HW238565   1.412   0.206   9.224 -0.6997 -0.7017  0.7718
 8978SOL     OW38566   4.334   3.926   5.606 -0.7539  0.1060  0.5612
 8978SOL    HW138567   4.377   3.974   5.535  2.6992 -2.5329  0.8616
 8978SOL    HW238568   4.346   3.835   5.578 -2.3821  0.0724 -0.0406
 8979SOL     OW38569   2.383   4.356   7.847 -0.7924 -0.3734  0.4982
 8979SOL    HW138570   2.390   4.439   7.801  3.0826 -1.2996 -0.5265
 8979SOL    HW238571   2.457   4.365   7.906 -0.0294 -1.9499 -0.2234
 8980SOL     OW38572   3.798   4.274   3.003  0.1796 -0.4814 -0.3551
 8980SOL    HW138573   3.775   4.193   3.050  1.0337  0.7083  2.1204
 8980SOL    HW238574   3.833   4.327   3.075  0.3986 -0.8810 -0.1633
 8981SOL     OW38575   3.684   0.610  12.060 -0.2136  0.1850  0.0129
 8981SOL    HW138576   3.629   0.681  12.093 -1.2296  0.7774 -2.9852
 8981SOL    HW238577   3.753   0.610  12.126 -0.0417 -2.4390 -0.1623
 8982SOL     OW38578   0.111   3.458   4.573 -0.0861 -0.4573 -0.3056
 8982SOL    HW138579   0.130   3.432   4.483 -1.1685 -0.3321 -0.5738
 8982SOL    HW238580   0.113   3.554   4.564 -0.3348 -0.5313 -1.2137
 8983SOL     OW38581   0.497   3.164   9.280 -0.1663  0.3921  0.0168
 8983SOL    HW138582   0.560   3.107   9.237  1.1948  0.5674  1.7813
 8983SOL    HW238583   0.410   3.132   9.254  0.5120 -0.8864 -0.6534
 8984SOL     OW38584   1.213   3.649   7.517 -0.0778  0.0132 -0.4667
 8984SOL    HW138585   1.121   3.658   7.493  0.3033 -1.6959 -2.5657
 8984SOL    HW238586   1.252   3.684   7.437 -1.8394 -1.3234 -1.9163
 8985SOL     OW38587   0.756   0.036   7.215  0.0053 -0.1741  0.0149
 8985SOL    HW138588   0.742   0.056   7.307  1.6730  2.1791 -0.2316
 8985SOL    HW238589   0.799   0.110   7.172 -0.5315 -0.6267 -1.3180
 8986SOL     OW38590   3.711   2.056  14.717 -0.3598 -0.0663  0.3618
 8986SOL    HW138591   3.805   2.049  14.702 -0.3390 -2.2168  1.4264
 8986SOL    HW238592   3.678   2.032  14.630 -0.2637 -0.3527  0.4033
 8987SOL     OW38593   1.091   2.825  12.892  0.3116 -0.1031  0.4224
 8987SOL    HW138594   1.142   2.746  12.912  1.1147  0.1301 -0.6874
 8987SOL    HW238595   1.061   2.863  12.974 -2.2412  0.3617 -0.7453
 8988SOL     OW38596   0.198   1.326   7.580  0.5435 -0.3452  0.1276
 8988SOL    HW138597   0.109   1.306   7.608  0.8577 -1.6390  0.2145
 8988SOL    HW238598   0.206   1.266   7.505  1.4268 -0.2519  0.1443
 8989SOL     OW38599   3.981   2.189   5.811  0.9819 -0.6314  0.5753
 8989SOL    HW138600   3.994   2.183   5.906 -2.3956 -0.1798  1.0579
 8989SOL    HW238601   3.894   2.152   5.796  1.2270 -1.7202  1.8688
 8990SOL     OW38602   3.267   4.510  14.578 -0.3208 -0.2561 -0.0860
 8990SOL    HW138603   3.270   4.580  14.643  3.5457 -0.4299 -0.0641
 8990SOL    HW238604   3.329   4.444  14.608  1.1432  0.7269 -0.9424
 8991SOL     OW38605   0.769   3.022  14.060 -0.1086  0.5133 -0.2448
 8991SOL    HW138606   0.829   3.074  14.007  0.7853  2.3251  2.5643
 8991SOL    HW238607   0.761   3.069  14.143  0.0192  1.5890 -0.8350
 8992SOL     OW38608   1.606   2.405   8.201  0.4142 -0.0066  0.8697
 8992SOL    HW138609   1.589   2.393   8.294  0.5787  1.5074  1.0974
 8992SOL    HW238610   1.636   2.496   8.195  2.4051 -0.8043 -1.4890
 8993SOL     OW38611   0.574   1.920   4.277 -0.0175 -0.4066  0.1408
 8993SOL    HW138612   0.521   1.993   4.244 -0.4420 -0.9798 -0.4261
 8993SOL    HW238613   0.625   1.908   4.197 -1.2522  0.7390 -0.8299
 8994SOL     OW38614   1.577   3.547   8.360 -0.0192 -0.1186 -0.1200
 8994SOL    HW138615   1.483   3.550   8.378  0.3644  0.1113  1.8083
 8994SOL    HW238616   1.580   3.500   8.277  1.2893  0.5328 -0.4508
 8995SOL     OW38617   1.690   0.621   1.090  0.1133  0.0025  0.1272
 8995SOL    HW138618   1.670   0.637   1.182  0.9107  0.5280  0.2097
 8995SOL    HW238619   1.604   0.641   1.053  0.0536  3.3383  2.0707
 8996SOL     OW38620   4.013   4.673   8.438  0.1305 -0.7047  0.1112
 8996SOL    HW138621   4.020   4.684   8.533  1.2124  1.0858 -0.1718
 8996SOL    HW238622   4.043   0.011   8.393  0.6496  0.4000  2.4197
 8997SOL     OW38623   2.796   0.292   3.363  0.3538  0.1969  0.0442
 8997SOL    HW138624   2.801   0.207   3.320 -3.8156 -1.0358  2.0320
 8997SOL    HW238625   2.724   0.324   3.308  0.6272 -0.4113 -0.6669
 8998SOL     OW38626   1.481   3.947   6.387 -0.3465 -0.0544  0.2500
 8998SOL    HW138627   1.503   3.884   6.318  1.2406 -0.8862  1.5134
 8998SOL    HW238628   1.449   4.019   6.333  2.3642  2.4055  1.9053
 8999SOL     OW38629   0.141   4.075   2.524 -0.2116  0.2169  0.1614
 8999SOL    HW138630   0.124   4.020   2.601  0.4599  0.3778  0.4253
 8999SOL    HW238631   0.206   4.139   2.553 -0.0670  0.3432 -0.4478
 9000SOL     OW38632   1.303   1.905   3.969 -0.0111 -0.3637 -0.0305
 9000SOL    HW138633   1.282   1.936   4.057 -1.9567 -0.5518 -0.4265
 9000SOL    HW238634   1.226   1.857   3.938  0.4356 -1.0305 -0.1152
 9001SOL     OW38635   4.574   0.422   9.319  0.1227  0.3117  0.1056
 9001SOL    HW138636   4.546   0.332   9.308 -0.6507  0.5149  0.3943
 9001SOL    HW238637   4.561   0.462   9.233 -0.1917  1.8284  0.8572
 9002SOL     OW38638   4.520   0.465   9.051  0.2144 -0.3204  0.0814
 9002SOL    HW138639   4.498   0.490   8.961  1.6126  0.7777  0.0587
 9002SOL    HW238640   4.445   0.407   9.065 -1.1074  1.6421  1.0429
 9003SOL     OW38641   2.873   3.609   3.639 -0.2213 -0.4981  0.2198
 9003SOL    HW138642   2.817   3.540   3.674 -0.1361 -0.4777  0.3979
 9003SOL    HW238643   2.844   3.618   3.549 -2.4242 -0.2746  0.9548
 9004SOL     OW38644   0.278   4.656  12.179 -0.1002 -0.4557  0.8131
 9004SOL    HW138645   0.319   4.740  12.159 -0.4041 -0.1197  1.6142
 9004SOL    HW238646   0.358   4.605  12.170 -1.1696 -2.1410  0.8368
 9005SOL     OW38647   1.591   1.200   0.657 -0.7564 -0.3972 -0.3317
 9005SOL    HW138648   1.621   1.110   0.644 -1.4091 -0.7489  0.5890
 9005SOL    HW238649   1.670   1.243   0.690 -1.5237  1.3249 -0.7267
 9006SOL     OW38650   3.213   2.240   6.126 -0.2287 -0.1400  0.3652
 9006SOL    HW138651   3.251   2.175   6.066  0.6220 -0.0011  0.7437
 9006SOL    HW238652   3.290   2.271   6.174  0.6827 -0.7787 -0.6798
 9007SOL     OW38653   4.527   4.002   8.175  0.9110  0.6728  0.2570
 9007SOL    HW138654   4.469   4.077   8.189  0.2857  0.2816 -0.2311
 9007SOL    HW238655   4.516   3.958   8.259 -0.9263  3.0612  1.2846
 9008SOL     OW38656   4.430   4.486   5.569 -0.0699  0.3279  0.4829
 9008SOL    HW138657   4.441   4.571   5.525 -1.2009 -0.7848 -1.9501
 9008SOL    HW238658   4.514   4.467   5.610  0.8925 -1.1534 -2.1167
 9009SOL     OW38659   3.764   4.706   2.308 -0.8352 -0.0986  0.8364
 9009SOL    HW138660   3.694   0.005   2.359 -2.0446 -0.6249 -0.4196
 9009SOL    HW238661   3.801   4.637   2.362 -0.4522  0.3263  1.1239
 9010SOL     OW38662   2.795   1.345   8.600 -0.1073 -0.2284  0.5750
 9010SOL    HW138663   2.777   1.439   8.604  1.3197  0.0118  1.0624
 9010SOL    HW238664   2.864   1.338   8.535  0.0102 -1.5208  0.8256
 9011SOL     OW38665   0.297   3.022   8.553 -0.8992  0.2624  0.1789
 9011SOL    HW138666   0.219   3.000   8.604 -1.8434  1.5899 -0.7114
 9011SOL    HW238667   0.310   2.940   8.505  2.7588 -0.3740  2.2184
 9012SOL     OW38668   0.614   3.099  11.368 -0.4917 -0.2068  0.3197
 9012SOL    HW138669   0.701   3.128  11.396  0.0085 -1.4091 -0.0301
 9012SOL    HW238670   0.609   3.140  11.282 -0.6448 -1.9605 -0.4912
 9013SOL     OW38671   4.433   1.275   2.692 -0.3938  0.4571 -0.3184
 9013SOL    HW138672   4.512   1.231   2.660 -0.6374  0.1239 -0.4523
 9013SOL    HW238673   4.451   1.273   2.786  0.9035 -2.8933 -0.6476
 9014SOL     OW38674   2.740   1.574  14.439 -0.0086 -0.0347  1.3274
 9014SOL    HW138675   2.695   1.566  14.355 -0.1068 -0.9269  1.4676
 9014SOL    HW238676   2.668   1.552  14.499 -0.4979  1.6541  1.3623
 9015SOL     OW38677   3.240   1.514  13.295  0.6497  0.0314 -0.3795
 9015SOL    HW138678   3.261   1.444  13.357  0.9391 -0.4884 -1.0675
 9015SOL    HW238679   3.198   1.576  13.354 -0.5572  0.1292 -1.3466
 9016SOL     OW38680   0.786   2.814   4.631  0.5092  0.4131 -0.2278
 9016SOL    HW138681   0.696   2.796   4.606  0.4733  0.8461 -0.4076
 9016SOL    HW238682   0.783   2.835   4.724 -1.8165  0.6883 -0.3742
 9017SOL     OW38683   1.150   4.068   6.189 -0.6448  0.1696  0.1918
 9017SOL    HW138684   1.144   3.980   6.226  0.6088 -0.1278 -0.3110
 9017SOL    HW238685   1.097   4.061   6.109 -2.2650  0.3682  1.2523
 9018SOL     OW38686   2.523   0.282  17.193 -0.6256  0.0811 -0.4128
 9018SOL    HW138687   2.618   0.290  17.179 -0.6713  0.3448 -0.5798
 9018SOL    HW238688   2.500   0.338  17.118  1.3747  2.1667  0.5313
 9019SOL     OW38689   1.824   2.615   7.497  0.1098  0.4378 -0.4114
 9019SOL    HW138690   1.889   2.678   7.465  2.0142 -1.1665  0.3023
 9019SOL    HW238691   1.881   2.538   7.499 -0.1026  0.3007  0.3542
 9020SOL     OW38692   1.651   2.354   9.662 -0.4277 -0.0916  0.3323
 9020SOL    HW138693   1.601   2.345   9.744  0.5398 -0.2416  0.9093
 9020SOL    HW238694   1.613   2.431   9.621 -1.8363 -0.4266  1.0043
 9021SOL     OW38695   4.484   2.620   1.618  0.4229 -0.3105  0.4874
 9021SOL    HW138696   4.491   2.706   1.659  0.0633  0.0929 -0.2895
 9021SOL    HW238697   4.522   2.635   1.531  1.6867 -1.0448  0.9213
 9022SOL     OW38698   1.342   0.119   4.766 -0.3780 -0.2237  0.3780
 9022SOL    HW138699   1.320   0.202   4.725  1.4656 -1.3608 -2.8648
 9022SOL    HW238700   1.272   0.060   4.736  0.0448 -0.5972  0.1292
 9023SOL     OW38701   3.995   4.391  15.814 -0.4512  0.7938 -0.5584
 9023SOL    HW138702   3.926   4.442  15.771 -2.3038 -3.3227 -2.3987
 9023SOL    HW238703   4.068   4.399  15.752 -1.8973  1.6923 -2.1474
 9024SOL     OW38704   1.524   0.600  13.931 -0.2591  0.0972 -0.3152
 9024SOL    HW138705   1.507   0.506  13.942 -1.2178  0.2202 -0.7609
 9024SOL    HW238706   1.443   0.624  13.885 -0.2515 -2.7544 -1.8390
 9025SOL     OW38707   2.684   1.123   2.672  0.1850  0.2726  0.2356
 9025SOL    HW138708   2.717   1.102   2.760 -0.4066  2.4409  0.9668
 9025SOL    HW238709   2.712   1.213   2.653 -1.1426  0.3436 -1.4205
 9026SOL     OW38710   1.866   0.569  17.358 -0.5813  0.0635  0.4466
 9026SOL    HW138711   1.930   0.564  17.287 -2.1557  2.1395 -1.1175
 9026SOL    HW238712   1.783   0.565  17.311 -1.1399 -0.0216  1.4293
 9027SOL     OW38713   2.292   1.841   4.770  0.3210  0.4172  0.2984
 9027SOL    HW138714   2.259   1.875   4.687  1.4626 -1.3527 -0.8956
 9027SOL    HW238715   2.338   1.765   4.734  1.8513  0.3594  2.4335
 9028SOL     OW38716   3.026   0.358  12.143  0.4872  0.4316  0.1526
 9028SOL    HW138717   3.107   0.361  12.193  0.9130  0.2948 -0.5276
 9028SOL    HW238718   3.051   0.323  12.058 -0.2487  1.0296 -0.3145
 9029SOL     OW38719   0.669   3.651   6.936  0.2388  0.6002  0.3119
 9029SOL    HW138720   0.683   3.741   6.965 -2.1357  0.6290  1.4221
 9029SOL    HW238721   0.715   3.602   7.004  0.3123  2.2050  1.4098
 9030SOL     OW38722   4.695   1.003   3.920 -0.3313 -0.0318  0.1374
 9030SOL    HW138723   4.617   1.026   3.971 -0.5638 -2.5477  0.9227
 9030SOL    HW238724   0.023   0.993   3.986  1.0679  0.4714 -1.2580
 9031SOL     OW38725   3.159   2.040  16.301 -0.2279  0.2866  0.1591
 9031SOL    HW138726   3.201   2.102  16.240  0.3136 -1.5713 -1.3762
 9031SOL    HW238727   3.100   2.102  16.343  2.0379  1.2949  1.8567
 9032SOL     OW38728   3.103   3.803  14.622 -0.4713 -0.5959  0.4649
 9032SOL    HW138729   3.092   3.898  14.620  2.8605 -0.2089 -0.4603
 9032SOL    HW238730   3.131   3.795  14.713  1.4488 -3.5264 -0.3632
 9033SOL     OW38731   0.151   1.158   2.757  0.1902 -0.2949  0.7658
 9033SOL    HW138732   0.238   1.162   2.719  1.1425  1.7882  3.1758
 9033SOL    HW238733   0.160   1.100   2.833  1.0265 -0.8116  0.2768
 9034SOL     OW38734   2.373   2.066   7.802  0.1029 -0.1859 -0.3160
 9034SOL    HW138735   2.292   2.022   7.777 -0.5730  1.4659 -1.0718
 9034SOL    HW238736   2.439   2.021   7.751  0.8486 -1.6366  1.9258
 9035SOL     OW38737   3.548   0.653  14.607 -0.4546 -0.0032  0.0900
 9035SOL    HW138738   3.462   0.624  14.575 -0.7967  0.5592  0.5002
 9035SOL    HW238739   3.520   0.691  14.690  0.3009 -2.0398  1.2778
 9036SOL     OW38740   0.071   0.376   2.507  0.0682  0.1880  0.0652
 9036SOL    HW138741   0.155   0.396   2.466 -0.1188  0.0020 -0.4049
 9036SOL    HW238742   0.074   0.280   2.507  0.8639  0.2118  0.4816
 9037SOL     OW38743   0.184   1.308   2.303 -0.6606  0.1983  0.2704
 9037SOL    HW138744   0.176   1.366   2.228  0.2960 -1.7483 -1.3415
 9037SOL    HW238745   0.096   1.308   2.340 -0.4448  0.6894  0.7835
 9038SOL     OW38746   0.001   3.204   4.361  0.6239 -0.0475 -0.1039
 9038SOL    HW138747   0.094   3.224   4.356 -0.1348  3.2294 -0.9594
 9038SOL    HW238748   4.725   3.193   4.267 -0.0045 -3.5772  0.3973
 9039SOL     OW38749   3.878   0.565  12.245  0.4693 -0.1474  0.0674
 9039SOL    HW138750   3.902   0.484  12.289  0.3332 -0.6329 -0.7384
 9039SOL    HW238751   3.961   0.611  12.241 -1.0996  2.7160  0.6425
 9040SOL     OW38752   4.717   3.204   8.386 -0.2227  0.2810 -0.3518
 9040SOL    HW138753   4.680   3.118   8.368  0.9861 -0.7701  2.1634
 9040SOL    HW238754   4.643   3.258   8.358 -0.6196 -0.3000 -0.4153
 9041SOL     OW38755   0.364   2.990   7.796  0.2091 -0.1205  0.0942
 9041SOL    HW138756   0.375   3.014   7.704 -0.6256 -0.6546 -0.1513
 9041SOL    HW238757   0.391   3.073   7.834 -0.4963  0.8264 -1.4951
 9042SOL     OW38758   3.393   3.468   7.002  0.1709  1.0735  0.0108
 9042SOL    HW138759   3.431   3.489   6.917 -0.7646 -1.2837 -0.9990
 9042SOL    HW238760   3.300   3.458   6.980 -0.3795  1.5711  2.1388
 9043SOL     OW38761   4.037   1.811  13.032  0.3255 -0.2131 -0.4218
 9043SOL    HW138762   4.070   1.722  13.048 -1.3691 -0.5281  1.4097
 9043SOL    HW238763   4.085   1.835  12.953 -1.4602  1.7735 -0.8981
 9044SOL     OW38764   4.126   2.775   0.453  0.4691 -0.9322  0.0585
 9044SOL    HW138765   4.093   2.842   0.393  3.8600  2.0941  1.5875
 9044SOL    HW238766   4.045   2.735   0.486 -0.1610 -1.2059 -1.7965
 9045SOL     OW38767   0.575   4.450   7.441 -0.1337 -0.0307  0.5322
 9045SOL    HW138768   0.514   4.384   7.474 -1.7720  1.6439  0.8839
 9045SOL    HW238769   0.515   4.522   7.424  2.2502  1.3137 -2.1897
 9046SOL     OW38770   2.940   1.841   2.940  0.3615 -0.3764 -0.1546
 9046SOL    HW138771   3.016   1.782   2.934  1.2670  0.8676 -0.9025
 9046SOL    HW238772   2.944   1.877   2.852  2.3739  1.0859  0.5330
 9047SOL     OW38773   4.328   3.337  10.922  0.1038  0.1752 -0.0638
 9047SOL    HW138774   4.390   3.339  10.995 -0.6653  2.8313  0.5223
 9047SOL    HW238775   4.388   3.337  10.848 -1.4922  2.2461 -1.3248
 9048SOL     OW38776   3.678   3.530   5.867 -0.0575  0.5337 -0.4229
 9048SOL    HW138777   3.710   3.567   5.949 -0.0077 -0.7260  0.1219
 9048SOL    HW238778   3.636   3.451   5.900  1.8136  0.0031  0.6629
 9049SOL     OW38779   3.922   3.866  11.859 -0.1590 -0.1017  0.0072
 9049SOL    HW138780   3.865   3.924  11.908 -3.2754 -2.9453 -0.2363
 9049SOL    HW238781   3.948   3.803  11.926  1.6371 -1.0497 -1.5679
 9050SOL     OW38782   1.082   4.386   5.157  0.0080 -0.2168 -0.0349
 9050SOL    HW138783   1.036   4.397   5.074 -0.5248  1.5570  0.4911
 9050SOL    HW238784   1.085   4.292   5.173 -3.3980 -0.4213 -0.6239
 9051SOL     OW38785   0.330   0.828   8.067 -0.4291 -0.6752 -0.4557
 9051SOL    HW138786   0.383   0.856   8.142  0.9988 -3.0297 -0.5810
 9051SOL    HW238787   0.246   0.872   8.078 -0.0402  0.5002 -2.1802
 9052SOL     OW38788   2.277   3.365  16.336  0.4395 -0.0277  0.3435
 9052SOL    HW138789   2.294   3.457  16.313 -2.4878  0.6392  0.7392
 9052SOL    HW238790   2.281   3.331  16.246 -0.3543 -0.8580  0.6192
 9053SOL     OW38791   2.834   2.794  16.590 -0.0310  0.1227  0.1830
 9053SOL    HW138792   2.844   2.868  16.530 -0.0407 -1.9685 -2.3621
 9053SOL    HW238793   2.912   2.794  16.645  1.4156 -0.2428 -1.8816
 9054SOL     OW38794   1.031   0.478   1.733 -0.8882 -0.4579  0.2027
 9054SOL    HW138795   1.058   0.538   1.664  0.6959 -0.9407  0.4069
 9054SOL    HW238796   1.115   0.438   1.755 -1.1759 -0.1417  1.8931
 9055SOL     OW38797   4.324   2.928   5.928  0.2368 -0.7150  0.6520
 9055SOL    HW138798   4.284   2.846   5.959 -3.7548  0.0751 -2.3519
 9055SOL    HW238799   4.281   2.947   5.844  0.0278 -0.7342  0.7555
 9056SOL     OW38800   4.099   1.253   5.964 -0.2923 -0.6007  0.0102
 9056SOL    HW138801   4.027   1.307   5.997 -0.0819  0.7986 -1.8412
 9056SOL    HW238802   4.127   1.304   5.888 -4.0918 -0.8671 -1.5972
 9057SOL     OW38803   2.751   2.235   6.387 -0.2362  0.3434 -0.1673
 9057SOL    HW138804   2.703   2.239   6.470 -0.0838 -0.7623 -0.0208
 9057SOL    HW238805   2.695   2.286   6.329  0.9877  0.3461 -1.3461
 9058SOL     OW38806   4.025   3.441   3.442 -0.3915 -0.8042  0.0603
 9058SOL    HW138807   4.009   3.496   3.366 -0.2792 -2.5310 -1.2114
 9058SOL    HW238808   3.943   3.392   3.444 -0.9695  0.1828  0.5160
 9059SOL     OW38809   3.298   2.530  10.008 -0.3274  0.2335  0.2869
 9059SOL    HW138810   3.308   2.444  10.051 -0.5800  0.9010  1.6832
 9059SOL    HW238811   3.208   2.557  10.025 -1.3505 -1.1391 -3.1381
 9060SOL     OW38812   4.528   3.908  13.175  0.1368 -0.1501 -1.1396
 9060SOL    HW138813   4.564   3.981  13.125 -0.1083  0.1755 -0.8414
 9060SOL    HW238814   4.459   3.943  13.231  0.3117 -0.7619 -0.5398
 9061SOL     OW38815   0.009   4.173   2.107  0.1078 -0.3090 -0.1341
 9061SOL    HW138816   0.010   4.266   2.129  0.0269 -1.4926  4.8152
 9061SOL    HW238817   4.685   4.159   2.175 -1.5144 -1.9966 -2.0329
 9062SOL     OW38818   0.855   2.118   9.582  0.0394  0.3361  0.8326
 9062SOL    HW138819   0.945   2.151   9.583 -0.0799  0.7935 -2.0167
 9062SOL    HW238820   0.842   2.101   9.675  2.6154 -1.9519  0.7356
 9063SOL     OW38821   0.237   0.628   6.108 -0.5869 -0.1359 -0.1456
 9063SOL    HW138822   0.322   0.602   6.073 -0.7285  0.4980 -0.9707
 9063SOL    HW238823   0.216   0.553   6.163 -0.2205  1.1954  1.8067
 9064SOL     OW38824   3.756   4.169   8.502  0.0642  1.0661 -0.2631
 9064SOL    HW138825   3.683   4.198   8.446 -1.4969  2.1550  2.3390
 9064SOL    HW238826   3.797   4.253   8.522 -0.1295  1.3012 -0.8370
 9065SOL     OW38827   1.353   4.684   1.947 -0.0056  0.5745  0.2163
 9065SOL    HW138828   1.322   4.721   1.865  1.1655  1.2219  0.0677
 9065SOL    HW238829   1.286   4.720   2.006  1.7640  1.0617  1.9085
 9066SOL     OW38830   3.538   4.369   8.698 -0.1086 -0.1065  0.5679
 9066SOL    HW138831   3.525   4.327   8.613 -0.1648 -1.1663  1.0961
 9066SOL    HW238832   3.538   4.460   8.671 -2.9263 -0.6065 -1.0539
 9067SOL     OW38833   2.742   2.114  10.943 -0.4154 -0.5115  0.8901
 9067SOL    HW138834   2.649   2.132  10.954 -0.2994  0.4655  0.3249
 9067SOL    HW238835   2.739   2.018  10.942  4.3439 -0.6705 -2.3861
 9068SOL     OW38836   3.255   4.057  17.665 -0.1839  0.3185 -0.1236
 9068SOL    HW138837   3.323   4.033  17.602 -1.5223 -1.6870 -0.7921
 9068SOL    HW238838   3.178   4.021  17.620 -2.0137  0.9907  2.4265
 9069SOL     OW38839   3.445   3.002   4.362 -0.3265 -0.6541 -0.0025
 9069SOL    HW138840   3.474   3.024   4.451 -0.9863  2.3722 -0.5620
 9069SOL    HW238841   3.427   3.092   4.334 -0.5507  0.2954  3.1862
 9070SOL     OW38842   1.437   4.398   0.629 -0.4799  0.3129 -0.0116
 9070SOL    HW138843   1.381   4.394   0.707  1.6755 -0.6596  1.5041
 9070SOL    HW238844   1.404   4.351   0.552  0.3631 -0.0639 -0.1453
 9071SOL     OW38845   3.794   3.009   1.700  0.2246  0.2531 -0.2787
 9071SOL    HW138846   3.760   2.981   1.785  1.7365  0.5148  0.4124
 9071SOL    HW238847   3.772   2.939   1.638  0.0197 -0.6573  0.8306
 9072SOL     OW38848   4.734   3.743   5.114 -0.5429  0.1856 -0.5586
 9072SOL    HW138849   4.687   3.752   5.197  1.0560 -1.4479  0.5170
 9072SOL    HW238850   0.059   3.811   5.130 -1.3625  0.7829  0.2898
 9073SOL     OW38851   0.497   1.292   2.688 -0.4033 -0.8109 -0.0749
 9073SOL    HW138852   0.555   1.368   2.684 -0.8719 -0.4409  0.2258
 9073SOL    HW238853   0.559   1.218   2.686  1.1199  0.5301 -2.0286
 9074SOL     OW38854   0.736   4.061   4.448 -0.2731 -0.2668  0.1113
 9074SOL    HW138855   0.677   4.074   4.522  0.9189  0.1825  0.9678
 9074SOL    HW238856   0.820   4.084   4.486 -0.3204  0.5340 -0.2784
 9075SOL     OW38857   0.606   2.239   6.530  0.2725 -0.4215  0.2388
 9075SOL    HW138858   0.688   2.286   6.515  0.8253 -1.9868 -1.5855
 9075SOL    HW238859   0.620   2.202   6.617 -1.5943  0.0693  0.7400
 9076SOL     OW38860   4.053   4.122  15.400 -0.2951  0.0446  0.2066
 9076SOL    HW138861   3.964   4.110  15.366  0.2938 -0.6032 -1.0876
 9076SOL    HW238862   4.030   4.137  15.492  0.0562  1.6588  0.0259
 9077SOL     OW38863   4.092   3.423   5.188 -0.7878  0.0395 -0.4497
 9077SOL    HW138864   4.142   3.361   5.240  1.4544  1.6201 -0.6980
 9077SOL    HW238865   4.030   3.363   5.147 -0.3355  0.0376 -1.1249
 9078SOL     OW38866   2.202   2.697   8.657 -0.7383 -0.1422  0.7494
 9078SOL    HW138867   2.214   2.791   8.674 -3.1407 -0.2118  2.8056
 9078SOL    HW238868   2.202   2.694   8.561 -5.4646 -1.2248  0.7840
 9079SOL     OW38869   3.731   3.804   2.846  0.5709 -0.2094  0.1366
 9079SOL    HW138870   3.654   3.862   2.843  0.8239  0.1389  0.3582
 9079SOL    HW238871   3.746   3.787   2.753 -0.5349 -0.4392 -0.0008
 9080SOL     OW38872   2.509   3.456   8.834  1.0865  0.0532  0.3538
 9080SOL    HW138873   2.461   3.533   8.865  1.0162  0.4539 -0.7529
 9080SOL    HW238874   2.541   3.407   8.909 -0.3007 -2.3977 -0.6407
 9081SOL     OW38875   0.637   3.833  16.173  0.2149 -0.8643  0.7366
 9081SOL    HW138876   0.643   3.740  16.148  0.4274 -0.3043 -1.3167
 9081SOL    HW238877   0.633   3.871  16.085 -0.8594 -0.0203  1.1629
 9082SOL     OW38878   0.340   2.705   7.823 -0.4830  0.2207  0.6091
 9082SOL    HW138879   0.374   2.793   7.808  1.7595 -0.8886 -0.8308
 9082SOL    HW238880   0.409   2.667   7.879 -0.0362 -1.1882 -0.9186
 9083SOL     OW38881   3.859   0.943   4.923  0.1720  0.0945  0.2322
 9083SOL    HW138882   3.811   1.024   4.904  0.8444 -0.2552 -2.8957
 9083SOL    HW238883   3.787   0.887   4.953  1.0875 -1.8407 -1.2039
 9084SOL     OW38884   3.371   2.485   1.811  0.0060  0.4168 -0.2139
 9084SOL    HW138885   3.355   2.517   1.900  2.6024  1.8631 -0.2616
 9084SOL    HW238886   3.284   2.458   1.783 -0.1327 -1.4024  1.9409
 9085SOL     OW38887   0.309   4.277   9.817 -0.3181 -0.2878  0.1966
 9085SOL    HW138888   0.261   4.350   9.779  1.6393  0.8382 -0.1138
 9085SOL    HW238889   0.379   4.263   9.754  0.2818  1.5507  0.4732
 9086SOL     OW38890   3.703   1.203   3.621  0.3469 -0.8438  0.7564
 9086SOL    HW138891   3.788   1.160   3.619  0.7550 -0.0029 -0.0889
 9086SOL    HW238892   3.733   1.284   3.582 -1.9518 -1.0204 -1.3643
 9087SOL     OW38893   1.430   3.593   6.781 -0.3009  0.3596  0.1462
 9087SOL    HW138894   1.453   3.537   6.855 -2.1034 -1.0051 -0.3224
 9087SOL    HW238895   1.461   3.678   6.813 -0.4771 -0.4829  2.5509
 9088SOL     OW38896   3.020   3.816   4.148 -0.2134 -0.0926 -0.3898
 9088SOL    HW138897   2.987   3.880   4.211 -1.1290 -0.8538 -0.0913
 9088SOL    HW238898   2.975   3.733   4.166  0.2131 -0.4741 -1.0860
 9089SOL     OW38899   2.562   0.997   3.166 -0.3691  0.1574 -0.1786
 9089SOL    HW138900   2.495   0.981   3.233  0.1089 -2.0679 -0.2269
 9089SOL    HW238901   2.517   1.030   3.088 -2.4087 -3.1829 -0.4066
 9090SOL     OW38902   0.828   1.394  10.299 -0.1943 -0.2172 -0.0210
 9090SOL    HW138903   0.770   1.320  10.282  0.2529 -0.8780  1.2834
 9090SOL    HW238904   0.846   1.366  10.389  2.0047 -0.6236 -0.5776
 9091SOL     OW38905   0.129   2.961  12.473 -0.0987  0.3542 -0.0135
 9091SOL    HW138906   0.150   2.902  12.545 -1.9404  0.2030  0.4025
 9091SOL    HW238907   0.171   3.045  12.493 -0.1319  0.7654 -1.6421
 9092SOL     OW38908   3.332   4.447  17.136  0.4941 -0.0261 -0.4911
 9092SOL    HW138909   3.397   4.517  17.147 -0.2229  0.4449  0.7127
 9092SOL    HW238910   3.347   4.447  17.041  0.6804  2.4752 -0.4613
 9093SOL     OW38911   0.480   4.681   2.354  0.4141 -0.2115 -0.2879
 9093SOL    HW138912   0.553   4.721   2.308  0.8592 -0.4228  0.2328
 9093SOL    HW238913   0.465   4.612   2.289 -0.2104 -0.3914  0.0492
 9094SOL     OW38914   0.795   0.032   8.577  1.1482 -0.0042 -0.4760
 9094SOL    HW138915   0.881   4.739   8.604 -1.2966 -4.7345  1.4415
 9094SOL    HW238916   0.743   4.695   8.598 -1.0306  1.0727 -1.8736
 9095SOL     OW38917   3.454   2.805   2.841  0.0564  0.0577 -0.3344
 9095SOL    HW138918   3.497   2.889   2.856  0.8976 -0.2916 -0.8154
 9095SOL    HW238919   3.375   2.808   2.895 -0.3559  0.8405 -0.9750
 9096SOL     OW38920   3.096   3.148   5.750 -0.2822 -0.3217 -0.6477
 9096SOL    HW138921   3.189   3.127   5.741 -0.3122 -1.0151  0.6516
 9096SOL    HW238922   3.070   3.141   5.658 -1.7089 -2.3272 -0.0856
 9097SOL     OW38923   3.650   1.335  16.823  0.2352 -0.4482  0.5181
 9097SOL    HW138924   3.724   1.274  16.826  0.8035  0.2399  0.3740
 9097SOL    HW238925   3.689   1.422  16.822 -0.7041 -0.0588 -2.6259
 9098SOL     OW38926   1.371   3.995   3.767 -0.2765 -0.2039 -0.4151
 9098SOL    HW138927   1.282   4.005   3.801 -0.5458 -0.5532 -1.0224
 9098SOL    HW238928   1.381   3.900   3.767 -1.3127 -0.3180 -0.4459
 9099SOL     OW38929   2.995   1.200   3.963  0.2733 -0.4905 -0.8266
 9099SOL    HW138930   3.070   1.188   3.905  1.3431  0.5191  0.3366
 9099SOL    HW238931   3.026   1.282   4.003  0.8494 -0.2952 -1.6700
 9100SOL     OW38932   1.304   2.360  11.280 -0.2944  0.4713 -0.4003
 9100SOL    HW138933   1.318   2.290  11.216  0.7689  0.7454 -0.4724
 9100SOL    HW238934   1.370   2.336  11.345 -2.3619  0.5027  1.6840
 9101SOL     OW38935   4.221   2.749   4.385 -0.4409 -0.5239 -0.0709
 9101SOL    HW138936   4.239   2.745   4.479 -1.5259  0.9122  0.2026
 9101SOL    HW238937   4.260   2.833   4.361  0.7598 -0.5622  1.7596
 9102SOL     OW38938   0.187   0.380   6.894 -0.8262  0.6740  0.3317
 9102SOL    HW138939   0.100   0.359   6.927 -0.7631 -1.7317 -1.0822
 9102SOL    HW238940   0.178   0.357   6.802  4.3238 -2.0377  0.4914
 9103SOL     OW38941   0.626   3.476   7.815 -0.4175  0.3463  0.1125
 9103SOL    HW138942   0.666   3.535   7.880  0.6239 -1.8473  1.4633
 9103SOL    HW238943   0.653   3.511   7.731 -1.1118  2.7217  0.8801
 9104SOL     OW38944   1.613   1.566   7.492  0.0527 -0.6216  0.3832
 9104SOL    HW138945   1.630   1.507   7.419 -0.0551 -0.3278  0.1174
 9104SOL    HW238946   1.530   1.529   7.520  0.8229 -1.3781  1.6953
 9105SOL     OW38947   0.638   1.083   2.969 -0.0092  0.5333  0.3295
 9105SOL    HW138948   0.687   1.154   3.009 -0.6867  0.6948  0.8687
 9105SOL    HW238949   0.645   1.104   2.875  2.1189 -1.0269  0.1240
 9106SOL     OW38950   0.054   3.615  10.197  0.0115  0.1204  0.1374
 9106SOL    HW138951   0.011   3.643  10.116  1.0963  0.1762 -0.4217
 9106SOL    HW238952   4.732   3.649  10.261 -0.0191  3.6227 -1.7618
 9107SOL     OW38953   0.071   3.230   9.098 -0.0695  0.5836  0.2383
 9107SOL    HW138954   0.125   3.258   9.024 -1.7312 -0.4768 -1.3654
 9107SOL    HW238955   0.064   3.301   9.162  1.6685  0.4222  0.6113
 9108SOL     OW38956   4.654   1.409   8.164 -0.2260  0.4967  0.3474
 9108SOL    HW138957   0.003   1.414   8.196  0.5675 -4.2534 -1.1310
 9108SOL    HW238958   4.666   1.420   8.070 -0.5194  0.0333  0.2537
 9109SOL     OW38959   2.923   3.264   5.076 -0.5284 -0.3510  0.0493
 9109SOL    HW138960   2.909   3.172   5.055 -2.5006 -0.3722  1.4992
 9109SOL    HW238961   2.838   3.304   5.061 -0.9092 -1.4928 -0.8048
 9110SOL     OW38962   2.377   2.076   2.002  0.3779 -0.2048 -0.2472
 9110SOL    HW138963   2.470   2.066   2.020  0.6446  0.9038 -0.9966
 9110SOL    HW238964   2.330   2.065   2.085  1.4668 -1.3719  0.2055
 9111SOL     OW38965   3.156   1.510   5.273 -0.2815  0.2816  0.3341
 9111SOL    HW138966   3.196   1.507   5.360 -0.1597 -2.2591  0.1973
 9111SOL    HW238967   3.202   1.577   5.222 -2.4818  1.0580 -0.6412
 9112SOL     OW38968   3.339   2.553   4.354  0.3036  0.9560 -0.7417
 9112SOL    HW138969   3.356   2.459   4.367  2.2991  1.6667  1.9023
 9112SOL    HW238970   3.263   2.536   4.299  0.1414  0.0922 -0.2573
 9113SOL     OW38971   0.975   1.015  14.947  0.1469 -0.7522 -0.4046
 9113SOL    HW138972   0.882   1.010  14.927  0.0507 -1.2720  0.1870
 9113SOL    HW238973   0.970   1.097  14.997  0.5682 -0.1887 -1.2963
 9114SOL     OW38974   3.692   1.112  10.761 -0.4151 -0.3500  0.2919
 9114SOL    HW138975   3.651   1.133  10.678 -1.9619 -2.2764  0.5677
 9114SOL    HW238976   3.625   1.081  10.821 -0.4362  0.4750  0.6851
 9115SOL     OW38977   0.444   3.961   6.085  0.0720  0.1886  0.2260
 9115SOL    HW138978   0.351   3.940   6.081 -0.2033  1.1540  1.6085
 9115SOL    HW238979   0.478   3.896   6.147  0.7778 -0.6317 -1.0018
 9116SOL     OW38980   2.471   2.268   6.698 -0.1521 -0.0853 -0.4063
 9116SOL    HW138981   2.379   2.295   6.696  0.0225  0.3767 -2.3008
 9116SOL    HW238982   2.456   2.174   6.690 -1.5740  0.1711 -0.7467
 9117SOL     OW38983   4.047   4.293   9.647 -0.3113  0.9177  0.1494
 9117SOL    HW138984   4.074   4.202   9.652 -0.6840  0.7965 -0.0376
 9117SOL    HW238985   4.004   4.307   9.731 -2.7062  0.7888 -1.0330
 9118SOL     OW38986   2.793   4.697   7.275 -0.1772 -0.1567  0.4018
 9118SOL    HW138987   2.809   4.626   7.212 -1.5752 -0.3065  0.2322
 9118SOL    HW238988   2.867   0.016   7.263  0.4390 -0.6841  1.5212
 9119SOL     OW38989   1.925   1.592   9.751  0.0166 -0.0789  0.2382
 9119SOL    HW138990   1.985   1.517   9.754  1.7733  1.2651 -1.1284
 9119SOL    HW238991   1.989   1.660   9.728  1.3245 -0.9024  1.3982
 9120SOL     OW38992   1.729   3.579   9.229 -0.3510 -0.4107 -0.2493
 9120SOL    HW138993   1.717   3.631   9.308  0.1421 -1.6078  0.6187
 9120SOL    HW238994   1.671   3.624   9.169  0.3964 -0.6695 -1.1706
 9121SOL     OW38995   3.430   0.928   3.919  0.2480  0.2508  0.0089
 9121SOL    HW138996   3.491   0.947   3.990 -0.9035  1.8123  0.5731
 9121SOL    HW238997   3.413   0.836   3.937 -0.8980  0.3537 -0.5679
 9122SOL     OW38998   0.218   1.957   5.159  0.2081  0.1393  0.4431
 9122SOL    HW138999   0.133   1.918   5.139  0.1767  0.6812 -0.4965
 9122SOL    HW239000   0.282   1.906   5.111  0.1303 -1.7760  2.3917
 9123SOL     OW39001   3.309   3.262   4.256  0.4054 -0.2966 -0.1518
 9123SOL    HW139002   3.278   3.279   4.345  0.2570  1.1180 -0.4659
 9123SOL    HW239003   3.316   3.345   4.208 -0.8575 -0.6400 -0.9367
 9124SOL     OW39004   2.633   1.520   8.312 -0.0475  0.1133  0.3280
 9124SOL    HW139005   2.619   1.476   8.396  1.1535  0.1181  0.5330
 9124SOL    HW239006   2.579   1.599   8.319  0.7736  0.5138  2.2127
 9125SOL     OW39007   2.770   0.125   5.439 -0.1066 -0.0306 -0.1311
 9125SOL    HW139008   2.771   0.033   5.410 -0.7095 -0.5409  1.4617
 9125SOL    HW239009   2.804   0.116   5.528  0.5918 -2.1530 -0.5954
 9126SOL     OW39010   4.615   1.280  16.435 -0.4462  0.5944  0.5294
 9126SOL    HW139011   4.612   1.370  16.404 -3.2316 -0.4399 -2.1167
 9126SOL    HW239012   4.605   1.225  16.358  0.5827 -0.8645  1.4287
 9127SOL     OW39013   1.138   3.254   9.583  0.2560  0.2681 -0.2279
 9127SOL    HW139014   1.188   3.227   9.661 -1.2406  1.4243  1.1451
 9127SOL    HW239015   1.089   3.335   9.597  1.7044  0.8693  1.5191
 9128SOL     OW39016   1.572   1.810  13.922  0.0635  0.5813  0.2407
 9128SOL    HW139017   1.537   1.898  13.935 -1.3995  0.1482 -0.7371
 9128SOL    HW239018   1.516   1.782  13.849 -0.4591 -1.0957  1.2721
 9129SOL     OW39019   2.112   1.517   5.979 -0.3678  0.2998  0.6444
 9129SOL    HW139020   2.136   1.456   5.910  0.2143  1.5253 -0.2450
 9129SOL    HW239021   2.031   1.553   5.944 -0.4797 -0.5028  0.0662
 9130SOL     OW39022   2.607   2.231   5.782  0.1962  0.2575  0.7773
 9130SOL    HW139023   2.690   2.207   5.824 -0.1236 -1.2566  0.5325
 9130SOL    HW239024   2.571   2.142   5.779  2.5718 -0.6568 -0.0567
 9131SOL     OW39025   0.811   1.730   8.853  0.6828 -0.0035  0.0123
 9131SOL    HW139026   0.854   1.644   8.850 -2.5366 -1.6371  0.8573
 9131SOL    HW239027   0.730   1.713   8.901  0.1884 -0.7476 -1.0743
 9132SOL     OW39028   2.991   3.078  13.979 -0.4760 -0.4784  0.0742
 9132SOL    HW139029   3.061   3.017  14.002  0.8032  1.5439  1.5431
 9132SOL    HW239030   2.965   3.124  14.059  1.5092  1.8449 -0.6553
 9133SOL     OW39031   3.061   1.079   2.359 -0.1689  0.3422  0.3095
 9133SOL    HW139032   3.150   1.114   2.369 -1.0288  2.4596  0.4107
 9133SOL    HW239033   3.072   0.984   2.348 -1.0526  0.5964 -2.5995
 9134SOL     OW39034   0.037   2.723   0.775  0.6805  0.0689 -0.1866
 9134SOL    HW139035   4.740   2.745   0.860  2.1015  2.5621 -0.2196
 9134SOL    HW239036   0.010   2.804   0.729 -0.0399  0.5560  1.0983
 9135SOL     OW39037   4.480   2.877  12.338  0.4600 -1.0732  0.1357
 9135SOL    HW139038   4.402   2.838  12.376 -0.4206  0.0742 -0.5093
 9135SOL    HW239039   4.496   2.943  12.405 -1.4187 -1.1727  0.6597
 9136SOL     OW39040   3.171   3.348   2.681  0.1065  0.5737  0.1638
 9136SOL    HW139041   3.167   3.398   2.600  0.3533  1.9222  0.9786
 9136SOL    HW239042   3.263   3.349   2.705  0.1759 -0.7128 -0.0708
 9137SOL     OW39043   2.836   2.009   6.881  0.7230  0.2033  0.2453
 9137SOL    HW139044   2.889   1.978   6.807  1.0040  0.2758  0.4206
 9137SOL    HW239045   2.825   1.922   6.921  0.4316 -0.3550 -1.0349
 9138SOL     OW39046   1.481   4.632   4.734 -0.2564 -0.0084  0.3657
 9138SOL    HW139047   1.454   4.654   4.645 -1.8012  1.0320  1.0866
 9138SOL    HW239048   1.465   4.718   4.774  2.8024  0.8764 -0.3036
 9139SOL     OW39049   0.177   2.012   2.479  0.4360 -0.2220 -0.1402
 9139SOL    HW139050   0.149   2.056   2.559  0.3000 -0.1272 -0.2402
 9139SOL    HW239051   0.259   1.972   2.509  1.0466  1.4594  0.4252
 9140SOL     OW39052   3.490   0.435  12.324  0.7001  0.1288 -0.1831
 9140SOL    HW139053   3.470   0.421  12.416  0.2614 -1.8568 -0.5739
 9140SOL    HW239054   3.544   0.359  12.302  0.3860  0.1152 -0.9096
 9141SOL     OW39055   4.327   4.427   6.645 -0.4794 -0.2323  0.2328
 9141SOL    HW139056   4.306   4.498   6.706  1.7583  0.5348  0.0811
 9141SOL    HW239057   4.291   4.346   6.683  0.2606 -0.2662  0.8683
 9142SOL     OW39058   0.569   4.267   8.949  0.9179  0.3086 -0.1020
 9142SOL    HW139059   0.583   4.269   8.854  2.2992 -0.9955  0.0801
 9142SOL    HW239060   0.621   4.197   8.987  1.3564  0.0405 -1.1941
 9143SOL     OW39061   3.672   0.367   0.143 -0.7877  0.3575 -0.2034
 9143SOL    HW139062   3.697   0.433   0.078 -0.3979  1.4487  1.0532
 9143SOL    HW239063   3.630   0.300   0.089 -1.3125 -0.9554  1.8503
 9144SOL     OW39064   3.834   3.052   6.374  0.2858  0.2713 -0.8916
 9144SOL    HW139065   3.801   2.970   6.410  1.5562  1.5046  2.9948
 9144SOL    HW239066   3.849   3.024   6.283  2.2525  0.6358 -0.6752
 9145SOL     OW39067   1.964   1.105   2.595 -0.5542 -0.5337  0.2833
 9145SOL    HW139068   1.987   1.173   2.658 -0.3885 -0.2919 -0.0374
 9145SOL    HW239069   2.026   1.032   2.603  0.1346  0.2568  2.1806
 9146SOL     OW39070   3.193   3.791   8.538  0.4484 -0.2468 -0.1363
 9146SOL    HW139071   3.203   3.758   8.627  0.0597  0.2295  0.0851
 9146SOL    HW239072   3.172   3.876   8.577 -0.8255 -1.5439  1.9784
 9147SOL     OW39073   0.579   3.546  11.848 -0.4119  1.0334  0.5769
 9147SOL    HW139074   0.656   3.496  11.820 -0.6838  1.5473 -1.1198
 9147SOL    HW239075   0.528   3.485  11.901 -2.0984  0.0791 -2.1478
 9148SOL     OW39076   1.287   4.733   8.684 -0.5187 -0.4846  0.8823
 9148SOL    HW139077   1.308   0.062   8.746 -1.3293  0.7227 -0.1954
 9148SOL    HW239078   1.364   4.739   8.628 -0.4528 -2.2937  0.7706
 9149SOL     OW39079   0.894   1.421   7.036 -0.1604  0.4751 -0.6306
 9149SOL    HW139080   0.955   1.486   7.001  0.9534 -1.5086 -2.3763
 9149SOL    HW239081   0.816   1.476   7.033 -1.2640 -1.0336  0.7077
 9150SOL     OW39082   3.749   2.428   2.663 -0.1756 -0.0444  0.1217
 9150SOL    HW139083   3.710   2.497   2.716 -2.9758 -1.3937 -0.1770
 9150SOL    HW239084   3.684   2.362   2.688  1.5894 -2.5705 -1.9057
 9151SOL     OW39085   1.464   1.071  15.907 -0.1127 -0.4460  0.0122
 9151SOL    HW139086   1.385   1.125  15.904  0.0122 -0.1409  2.0050
 9151SOL    HW239087   1.504   1.103  15.988 -0.5617  2.7756 -1.0291
 9152SOL     OW39088   0.354   3.703   7.372 -0.1151 -0.0533 -0.3004
 9152SOL    HW139089   0.271   3.709   7.420 -1.4011 -2.1815 -2.2288
 9152SOL    HW239090   0.395   3.789   7.381  1.6493 -1.1617  2.0499
 9153SOL     OW39091   3.764   0.416  16.167  0.8440 -0.0598  0.6199
 9153SOL    HW139092   3.701   0.352  16.134  3.6090 -2.6486  0.2486
 9153SOL    HW239093   3.776   0.483  16.100  0.2118  1.5206  2.1035
 9154SOL     OW39094   4.579   3.232   0.682  0.5329  0.1756 -0.0303
 9154SOL    HW139095   4.531   3.313   0.668  1.7028  0.5688 -1.8454
 9154SOL    HW239096   4.548   3.180   0.607 -1.1701 -0.1258  0.8853
 9155SOL     OW39097   1.678   2.850   6.602  0.0704  0.5847 -0.5891
 9155SOL    HW139098   1.702   2.877   6.690 -1.4780 -0.9722  0.3051
 9155SOL    HW239099   1.583   2.852   6.609 -0.0955  1.9981 -3.2865
 9156SOL     OW39100   4.263   1.487   8.303 -0.2640  0.0669  0.2976
 9156SOL    HW139101   4.350   1.524   8.295  0.9485 -2.9413 -0.5716
 9156SOL    HW239102   4.231   1.528   8.383  2.6746  0.3614  1.2965
 9157SOL     OW39103   4.209   1.222   0.815 -0.1342  0.3518 -0.2025
 9157SOL    HW139104   4.168   1.236   0.730 -0.8491 -2.6455 -0.3571
 9157SOL    HW239105   4.276   1.289   0.809  0.2368 -0.1072 -1.1715
 9158SOL     OW39106   1.129   0.004   5.680  0.3894  0.2516  0.3614
 9158SOL    HW139107   1.159   4.659   5.711  1.6352  0.4012 -0.4546
 9158SOL    HW239108   1.044   4.737   5.724 -0.2212 -1.0557 -1.0482
 9159SOL     OW39109   4.485   3.323   6.190  0.3036 -0.1735 -0.0514
 9159SOL    HW139110   4.403   3.280   6.166 -0.8220  0.5342  2.5054
 9159SOL    HW239111   4.533   3.246   6.158 -1.6969 -1.3381 -0.2363
 9160SOL     OW39112   1.809   3.021  13.020 -0.1079  0.5113  0.0967
 9160SOL    HW139113   1.884   2.979  13.063 -1.4975 -0.1042  1.9042
 9160SOL    HW239114   1.779   2.964  12.950  1.8518 -0.0124 -0.3306
 9161SOL     OW39115   3.337   4.709  14.752  0.3870  0.4921  0.4106
 9161SOL    HW139116   3.377   4.726  14.837  0.4443 -0.0710  0.4976
 9161SOL    HW239117   3.375   0.036  14.696  2.4073  0.4332  1.7199
 9162SOL     OW39118   2.889   3.829   6.264  0.0181  0.2899  0.1082
 9162SOL    HW139119   2.926   3.743   6.243  0.3428  0.0362  1.7127
 9162SOL    HW239120   2.832   3.807   6.338  0.2902  2.3713  0.9392
 9163SOL     OW39121   4.166   4.699   7.899  0.7299 -0.6046 -0.4815
 9163SOL    HW139122   4.071   4.695   7.893  0.7058 -2.0513  0.9237
 9163SOL    HW239123   4.185   4.607   7.878  2.6167 -0.3288  0.0331
 9164SOL     OW39124   4.330   4.230   1.108  0.6627 -0.5875  0.4140
 9164SOL    HW139125   4.241   4.265   1.105 -0.0514 -2.2395  2.2266
 9164SOL    HW239126   4.349   4.217   1.201 -0.7854 -0.9921  0.6532
 9165SOL     OW39127   1.042   3.225   8.588 -0.0905  0.1298  0.0808
 9165SOL    HW139128   1.050   3.319   8.570  2.4278 -0.4451 -1.7862
 9165SOL    HW239129   1.066   3.227   8.681  1.1044  1.6089 -0.2496
 9166SOL     OW39130   0.592   2.526  16.128 -0.2845 -0.2372  0.1461
 9166SOL    HW139131   0.638   2.540  16.046  0.1621 -0.8998  0.2831
 9166SOL    HW239132   0.503   2.551  16.105 -0.5060 -0.6410  0.5674
 9167SOL     OW39133   1.424   3.067   4.437  0.2813 -0.3261 -0.4326
 9167SOL    HW139134   1.337   3.036   4.413  0.7346  0.0327 -2.5029
 9167SOL    HW239135   1.468   3.017   4.369  2.1350 -1.0851  1.3178
 9168SOL     OW39136   0.048   1.810  16.159  0.7036 -0.0824 -0.2379
 9168SOL    HW139137   0.134   1.805  16.200  0.6841 -0.2579 -0.2195
 9168SOL    HW239138   0.070   1.877  16.094 -0.3933  0.4085 -0.0993
 9169SOL     OW39139   1.879   3.332   4.111 -0.8781  0.5003 -0.3945
 9169SOL    HW139140   1.853   3.249   4.072  0.5283  1.1396 -2.7062
 9169SOL    HW239141   1.798   3.369   4.145  0.0401  0.5209  1.7980
 9170SOL     OW39142   2.941   0.647  11.779 -0.0278  0.1762  0.8948
 9170SOL    HW139143   2.863   0.651  11.834  1.3852 -0.6302  2.9435
 9170SOL    HW239144   2.921   0.582  11.712  0.6497 -0.3209  1.1838
 9171SOL     OW39145   2.082   1.969   2.944 -0.2324  0.2949 -0.1281
 9171SOL    HW139146   2.028   2.027   2.998 -0.1167 -0.1040  0.4160
 9171SOL    HW239147   2.155   1.937   2.997 -0.2055  1.3557  0.4801
 9172SOL     OW39148   3.123   4.366   8.872  0.2132 -0.0766  0.1241
 9172SOL    HW139149   3.126   4.362   8.776 -1.9535  0.0272  0.0436
 9172SOL    HW239150   3.042   4.318   8.893  0.6520 -1.3480 -1.0623
 9173SOL     OW39151   0.420   3.220  11.812 -0.0997 -0.1018  0.3898
 9173SOL    HW139152   0.378   3.135  11.796  0.3884 -0.7910  2.7597
 9173SOL    HW239153   0.477   3.238  11.737  2.0859 -0.6753  1.9129
 9174SOL     OW39154   4.270   1.137  16.950  0.4898  0.2522  0.1846
 9174SOL    HW139155   4.228   1.081  17.016 -0.7234  2.6333  1.4268
 9174SOL    HW239156   4.223   1.219  16.967  0.8853  0.3880  0.6198
 9175SOL     OW39157   2.856   2.183  16.712 -0.3214 -0.1996 -0.1595
 9175SOL    HW139158   2.929   2.243  16.727  1.2390 -2.2618  0.4654
 9175SOL    HW239159   2.893   2.102  16.749 -4.2128 -1.6180  0.5867
 9176SOL     OW39160   3.660   3.138   4.978 -0.0353 -0.7696  0.3544
 9176SOL    HW139161   3.638   3.189   4.899  0.0446 -1.3137 -0.0144
 9176SOL    HW239162   3.572   3.112   5.006 -0.8871  1.4316 -0.2703
 9177SOL     OW39163   0.450   4.254  14.504 -0.3751 -0.1022 -0.0220
 9177SOL    HW139164   0.453   4.252  14.408 -2.7887  1.4631 -0.1313
 9177SOL    HW239165   0.479   4.165  14.524 -0.7547  0.6109  3.6648
 9178SOL     OW39166   1.782   0.773   0.433 -0.0261 -0.4710  0.5322
 9178SOL    HW139167   1.854   0.782   0.370  0.0910  1.3916  0.9498
 9178SOL    HW239168   1.717   0.734   0.374 -0.9718  1.9198 -0.0108
 9179SOL     OW39169   3.488   3.351   9.303  0.4198 -0.3868  0.3799
 9179SOL    HW139170   3.403   3.315   9.278 -1.4049  3.3915  1.1815
 9179SOL    HW239171   3.450   3.408   9.370  2.7897  1.6413  0.0319
 9180SOL     OW39172   4.200   4.562  14.644 -0.0795  0.1461 -0.5419
 9180SOL    HW139173   4.210   4.611  14.725 -2.1097  0.7763 -0.6745
 9180SOL    HW239174   4.279   4.510  14.657 -0.4137 -0.1702  0.2261
 9181SOL     OW39175   3.582   0.795   2.832  0.1218 -0.2570  0.4101
 9181SOL    HW139176   3.564   0.807   2.739  2.0329  0.2490  0.1070
 9181SOL    HW239177   3.501   0.748   2.853  1.8018 -2.7692  1.2763
 9182SOL     OW39178   1.568   3.910   4.605  0.1754  0.2143 -0.4235
 9182SOL    HW139179   1.570   3.956   4.521 -2.8378 -3.5832 -2.5594
 9182SOL    HW239180   1.600   3.979   4.664  0.6883  0.6034 -1.1679
 9183SOL     OW39181   3.681   0.511   5.033 -0.2214  0.2517  0.0661
 9183SOL    HW139182   3.607   0.460   4.999 -0.7281 -0.5596  2.3867
 9183SOL    HW239183   3.755   0.450   5.027 -0.7438 -0.3409 -0.4048
 9184SOL     OW39184   1.675   4.185   4.717 -0.0144 -0.5183 -0.2157
 9184SOL    HW139185   1.591   4.217   4.685  0.0968  0.0088  0.0193
 9184SOL    HW239186   1.644   4.145   4.799 -0.1386 -1.2161 -0.6017
 9185SOL     OW39187   1.568   1.193   9.076 -0.1293  0.5442  0.6090
 9185SOL    HW139188   1.563   1.289   9.079 -3.2202  0.3951 -0.3017
 9185SOL    HW239189   1.660   1.175   9.097 -0.0816  0.9741  0.7806
 9186SOL     OW39190   4.360   1.228   0.090 -1.2154  0.1700 -0.4267
 9186SOL    HW139191   4.431   1.287   0.068 -0.2501 -1.0172 -0.4902
 9186SOL    HW239192   4.347   1.198  17.760 -2.4556  0.4685 -0.3464
 9187SOL     OW39193   0.883   0.662   0.633 -0.1632  0.4145  0.7032
 9187SOL    HW139194   0.967   0.667   0.679 -0.8255 -0.4601  2.0201
 9187SOL    HW239195   0.823   0.648   0.707 -0.6390  0.2814  0.2884
 9188SOL     OW39196   1.297   2.603   8.758  0.2681  0.2644 -0.2773
 9188SOL    HW139197   1.260   2.562   8.680  0.5230  0.8040 -0.6773
 9188SOL    HW239198   1.353   2.528   8.777 -1.8539 -1.5232 -1.0982
 9189SOL     OW39199   0.871   2.624   7.283  0.0029  0.5367 -0.3463
 9189SOL    HW139200   0.846   2.675   7.206 -1.7359  0.7474  0.3625
 9189SOL    HW239201   0.840   2.686   7.349 -1.9955  1.0103 -1.7445
 9190SOL     OW39202   4.161   3.499  13.153 -0.2703  0.1820 -0.4175
 9190SOL    HW139203   4.252   3.484  13.177 -0.5650  0.4965  0.8862
 9190SOL    HW239204   4.167   3.537  13.065 -1.6271 -0.4549 -0.7885
 9191SOL     OW39205   0.294   0.320   1.749 -0.6427 -0.6321  0.2056
 9191SOL    HW139206   0.330   0.409   1.746 -0.7866 -0.6378 -1.3525
 9191SOL    HW239207   0.372   0.268   1.769  0.8072  1.4811 -0.0360
 9192SOL     OW39208   4.266   1.866   4.277  0.3636 -0.1216 -0.1353
 9192SOL    HW139209   4.249   1.773   4.288 -0.5706 -0.0538 -1.0603
 9192SOL    HW239210   4.333   1.862   4.208  1.7035  0.0977  1.1605
 9193SOL     OW39211   3.951   4.324   5.924  0.1306 -0.7113  0.2213
 9193SOL    HW139212   3.922   4.406   5.964  1.6710 -0.1309  0.1835
 9193SOL    HW239213   3.938   4.339   5.831  0.6174  0.2798  0.3089
 9194SOL     OW39214   3.201   2.341   2.207 -0.7574 -0.3737 -1.0777
 9194SOL    HW139215   3.123   2.304   2.165  0.2693 -1.0518 -2.4158
 9194SOL    HW239216   3.168   2.431   2.211  2.1336  0.6487 -0.2339
 9195SOL     OW39217   1.342   3.834   1.463  0.2979 -0.5594  0.3735
 9195SOL    HW139218   1.374   3.923   1.480  0.7930 -1.1055  2.3209
 9195SOL    HW239219   1.253   3.849   1.495 -0.5955 -1.5924 -1.5728
 9196SOL     OW39220   2.145   4.544   5.283  0.1075 -0.3016 -0.1189
 9196SOL    HW139221   2.170   4.452   5.292  0.8174 -0.0686  0.2815
 9196SOL    HW239222   2.179   4.569   5.368  1.7625 -0.3971 -0.7529
 9197SOL     OW39223   1.266   0.318   8.283  0.4106 -0.3580  0.1540
 9197SOL    HW139224   1.288   0.387   8.345 -0.2709 -0.4405  0.4822
 9197SOL    HW239225   1.170   0.321   8.287  0.3965  0.1488 -0.5027
 9198SOL     OW39226   1.726   0.351   2.361  0.3460 -0.2482  0.6346
 9198SOL    HW139227   1.748   0.444   2.361 -0.1234 -0.1489 -2.3480
 9198SOL    HW239228   1.739   0.337   2.268 -0.3817 -0.0099  0.4938
 9199SOL     OW39229   2.438   4.026   7.935 -0.4806 -0.2665  0.2890
 9199SOL    HW139230   2.466   4.029   8.027 -2.6314 -1.4782  0.9848
 9199SOL    HW239231   2.342   4.021   7.931 -0.3803 -1.0349 -0.9928
 9200SOL     OW39232   0.715   1.755   2.888 -0.0947 -0.2310  0.5302
 9200SOL    HW139233   0.703   1.842   2.851  4.0998  0.2091  0.3164
 9200SOL    HW239234   0.703   1.783   2.978 -2.5948 -0.9736  0.4361
 9201SOL     OW39235   0.806   3.383  11.834 -0.1627 -0.2276  0.3071
 9201SOL    HW139236   0.898   3.405  11.823 -0.9615  3.7232  1.6639
 9201SOL    HW239237   0.814   3.332  11.915 -3.3151 -0.2097  0.6321
 9202SOL     OW39238   1.749   4.407  17.370  0.7109  0.2360 -0.1128
 9202SOL    HW139239   1.661   4.427  17.338  0.7771 -2.8718 -2.2117
 9202SOL    HW239240   1.745   4.315  17.397  0.0134  0.4051  0.3398
 9203SOL     OW39241   0.029   0.252  13.004  0.0209 -0.1434 -0.3154
 9203SOL    HW139242   0.071   0.198  12.938 -1.6143 -1.1615 -0.5233
 9203SOL    HW239243   0.045   0.198  13.081 -0.0503  0.6526  0.2698
 9204SOL     OW39244   0.331   4.333   1.899  0.1722  0.1014  0.0416
 9204SOL    HW139245   0.269   4.402   1.922 -2.3263 -1.6583 -1.4672
 9204SOL    HW239246   0.289   4.293   1.823 -1.4296  1.4628  0.2056
 9205SOL     OW39247   0.196   4.276   5.722 -0.2867  0.1539 -0.4469
 9205SOL    HW139248   0.269   4.320   5.678 -1.3731  0.8468 -1.5533
 9205SOL    HW239249   0.201   4.319   5.808  1.4074  0.2708 -0.6015
 9206SOL     OW39250   3.629   2.700   5.083  0.3398  0.5323 -0.2502
 9206SOL    HW139251   3.659   2.620   5.127  2.0991  1.3599  0.0487
 9206SOL    HW239252   3.595   2.668   5.000 -2.9180  1.8992  0.5510
 9207SOL     OW39253   0.578   1.706   5.948 -0.0536  0.6576  0.1290
 9207SOL    HW139254   0.609   1.646   5.880  1.6033  1.6261  0.0503
 9207SOL    HW239255   0.508   1.652   5.985  0.7825  1.0598  2.3074
 9208SOL     OW39256   0.248   4.333   1.250  0.3075 -0.3399  0.2249
 9208SOL    HW139257   0.231   4.240   1.259  1.3376 -0.2883  2.8256
 9208SOL    HW239258   0.202   4.365   1.172 -0.8080  2.2548  1.9294
 9209SOL     OW39259   4.620   2.047   4.822 -0.1621 -0.2367  0.0565
 9209SOL    HW139260   4.565   2.004   4.756 -0.4536  0.8933 -0.4404
 9209SOL    HW239261   4.703   2.052   4.776  0.3228 -0.3839  0.9194
 9210SOL     OW39262   0.529   3.842   7.781  0.2348 -0.1854 -0.2088
 9210SOL    HW139263   0.550   3.818   7.871  0.2634 -1.3005 -0.5190
 9210SOL    HW239264   0.437   3.820   7.766  0.1642  0.1797 -0.3087
 9211SOL     OW39265   3.928   1.888   3.947  0.0338 -0.2217  0.2267
 9211SOL    HW139266   3.915   1.897   3.853  0.4707 -2.4293 -0.0520
 9211SOL    HW239267   4.010   1.838   3.954  0.7497  0.8383 -0.5751
 9212SOL     OW39268   2.725   3.663  14.704  0.2175  0.1152  0.9157
 9212SOL    HW139269   2.806   3.644  14.657 -0.6961  1.2170 -1.0944
 9212SOL    HW239270   2.672   3.687  14.628  1.5082  0.0840  0.0072
 9213SOL     OW39271   4.014   3.745   7.278  0.0408  0.8242 -0.6576
 9213SOL    HW139272   3.992   3.732   7.186  0.7593  0.4162 -0.7748
 9213SOL    HW239273   4.106   3.773   7.269 -0.1073  2.3650  2.9097
 9214SOL     OW39274   0.245   3.060   9.226 -0.5291 -0.0457 -0.2115
 9214SOL    HW139275   0.178   3.107   9.177 -1.4213 -0.1629  0.9158
 9214SOL    HW239276   0.226   2.974   9.190  0.9299  0.1467 -1.4765
 9215SOL     OW39277   0.014   4.074  16.820 -0.4717  0.0921 -0.1687
 9215SOL    HW139278   4.698   4.048  16.892 -1.8195 -3.3481 -2.4824
 9215SOL    HW239279   0.102   4.065  16.857 -0.0923  1.0932 -0.8367
 9216SOL     OW39280   4.420   4.251   4.708  1.1206  0.3071  0.8540
 9216SOL    HW139281   4.381   4.207   4.784  1.0092  1.4718  1.4719
 9216SOL    HW239282   4.512   4.246   4.734  0.6429  0.7708  2.6480
 9217SOL     OW39283   3.772   0.645   2.046  0.1171  0.0947  0.0148
 9217SOL    HW139284   3.816   0.568   2.084  0.4862  0.2423 -0.1140
 9217SOL    HW239285   3.733   0.602   1.970  0.9933  2.1467 -1.5611
 9218SOL     OW39286   2.958   2.862   6.921 -1.1064 -0.2946 -0.4340
 9218SOL    HW139287   2.933   2.849   6.829 -0.7825  3.3454 -1.0431
 9218SOL    HW239288   2.895   2.926   6.953 -1.2748  0.4098 -2.1397
 9219SOL     OW39289   3.700   4.201   5.769  0.5623  0.2430 -0.2432
 9219SOL    HW139290   3.778   4.228   5.720  0.2469  0.7603 -0.4563
 9219SOL    HW239291   3.743   4.154   5.840 -2.3243 -2.6968 -0.4365
 9220SOL     OW39292   0.679   2.681   9.243 -0.2071  0.1080  0.0557
 9220SOL    HW139293   0.662   2.609   9.304 -0.3778 -0.6776 -0.9320
 9220SOL    HW239294   0.589   2.688   9.210 -1.5175  0.1727  3.6341
 9221SOL     OW39295   2.654   1.667  16.566  0.1725 -0.3906  0.3440
 9221SOL    HW139296   2.601   1.589  16.581  1.1744 -1.0120  0.6085
 9221SOL    HW239297   2.723   1.665  16.632 -0.3077 -2.6052  0.7739
 9222SOL     OW39298   4.717   2.149   6.291 -0.5148  0.0374  1.2704
 9222SOL    HW139299   4.683   2.165   6.379  2.2973  1.5484  2.0555
 9222SOL    HW239300   0.024   2.229   6.272  0.2823 -0.6136  0.5060
 9223SOL     OW39301   0.562   2.420   9.051 -0.2711  0.3217  0.8142
 9223SOL    HW139302   0.517   2.505   9.045 -0.2937  0.1207 -1.7638
 9223SOL    HW239303   0.536   2.389   9.137  0.7093 -0.3997  0.8525
 9224SOL     OW39304   0.505   1.138  10.903 -0.9392 -0.5571  0.5458
 9224SOL    HW139305   0.518   1.060  10.957 -0.2449 -0.7019  0.1711
 9224SOL    HW239306   0.447   1.187  10.962  0.7014  1.5990  0.3701
 9225SOL     OW39307   4.152   1.402   6.891  0.9532 -0.5511  0.2343
 9225SOL    HW139308   4.175   1.406   6.798 -2.6409 -0.9418 -0.6740
 9225SOL    HW239309   4.229   1.432   6.939  0.7769  0.8504 -0.3742
 9226SOL     OW39310   2.953   3.602  14.527  0.3700  0.3349  0.0055
 9226SOL    HW139311   2.995   3.684  14.552 -2.3649  1.5063  0.7591
 9226SOL    HW239312   2.972   3.599  14.433 -0.4010 -0.0366 -0.1367
 9227SOL     OW39313   4.439   2.955   2.153  0.0853  0.0812  0.3388
 9227SOL    HW139314   4.404   3.044   2.146 -0.9199 -0.3566 -0.3325
 9227SOL    HW239315   4.493   2.954   2.074  0.7365 -0.0959  0.7931
 9228SOL     OW39316   4.033   4.297   7.997  0.4723  0.2557 -0.4247
 9228SOL    HW139317   4.016   4.265   8.086  0.8089  2.9104  0.5903
 9228SOL    HW239318   4.050   4.220   7.943  1.9903  1.1168 -1.1657
 9229SOL     OW39319   4.328   2.175  12.330  0.3345 -0.1039  0.3557
 9229SOL    HW139320   4.309   2.267  12.312  2.2798  0.2438  0.1506
 9229SOL    HW239321   4.355   2.179  12.422  2.4979  2.9422 -0.4342
 9230SOL     OW39322   3.420   1.815   7.444  0.2848  0.1460 -0.7731
 9230SOL    HW139323   3.451   1.734   7.404 -1.4084 -0.3867 -1.0237
 9230SOL    HW239324   3.410   1.790   7.536  0.0572  0.2897 -0.7567
 9231SOL     OW39325   0.274   1.695   3.335  0.5647  0.2008  0.1003
 9231SOL    HW139326   0.202   1.753   3.313  1.0945  1.1384  0.8163
 9231SOL    HW239327   0.264   1.614   3.285 -1.4071  0.5585 -0.0635
 9232SOL     OW39328   4.303   4.640   1.895  0.0188  0.4440  0.3947
 9232SOL    HW139329   4.249   4.650   1.974 -1.1323  1.0681 -0.4754
 9232SOL    HW239330   4.234   4.603   1.840 -0.1177  0.4595  0.5526
 9233SOL     OW39331   0.541   4.655   0.033 -1.0367  0.2520 -0.0972
 9233SOL    HW139332   0.468   4.600   0.063 -0.3897 -1.0039 -0.8557
 9233SOL    HW239333   0.504   0.001   0.019 -1.5890 -0.2851 -1.8932
 9234SOL     OW39334   0.009   4.303   5.302 -0.5677 -0.5305 -0.0861
 9234SOL    HW139335   0.072   4.347   5.359 -1.7301  1.7000 -0.5204
 9234SOL    HW239336   4.723   4.228   5.356  1.9118 -0.8303  0.7348
 9235SOL     OW39337   3.375   4.341   8.152  0.1551 -0.5095  0.4005
 9235SOL    HW139338   3.468   4.343   8.172  0.0348 -0.8803  1.0228
 9235SOL    HW239339   3.375   4.328   8.058 -0.0275 -2.6377  0.6954
 9236SOL     OW39340   0.573   0.934   2.208 -0.4131 -0.1057 -0.0282
 9236SOL    HW139341   0.535   0.923   2.121  0.1918  0.7405 -0.4099
 9236SOL    HW239342   0.499   0.973   2.255 -0.9646 -1.8350  0.5111
 9237SOL     OW39343   0.273   4.563   8.660  0.0196  0.2824 -0.3104
 9237SOL    HW139344   0.224   4.553   8.577  0.4071 -0.7858 -0.4124
 9237SOL    HW239345   0.237   4.643   8.699  1.2289  0.5481  0.2620
 9238SOL     OW39346   1.952   0.706   3.399 -0.4874  0.3263 -0.1814
 9238SOL    HW139347   2.016   0.739   3.462 -2.6691  2.4728  0.9478
 9238SOL    HW239348   1.996   0.671   3.322 -2.6405 -1.0723 -0.7827
 9239SOL     OW39349   2.482   2.892   3.550 -0.0878  0.9824 -0.3578
 9239SOL    HW139350   2.514   2.949   3.480 -1.4234  1.4585 -0.5695
 9239SOL    HW239351   2.561   2.880   3.604 -0.8064  0.9189  0.6754
 9240SOL     OW39352   4.512   2.065   5.171  0.3998  0.2400  0.6510
 9240SOL    HW139353   4.464   2.012   5.107  0.6723 -0.4709  1.0392
 9240SOL    HW239354   4.581   2.101   5.115 -0.6622 -0.8580 -1.3734
 9241SOL     OW39355   0.958   0.886   0.420 -0.3756 -0.6442  0.1972
 9241SOL    HW139356   1.026   0.909   0.483  2.6248 -0.3572 -3.1462
 9241SOL    HW239357   0.882   0.933   0.454 -0.0277 -1.0735  1.5664
 9242SOL     OW39358   3.089   3.226   3.735 -0.0386 -0.0279  0.8753
 9242SOL    HW139359   3.129   3.303   3.695 -0.2310 -1.0418 -1.2635
 9242SOL    HW239360   3.166   3.169   3.738 -0.0726  0.0490  3.6173
 9243SOL     OW39361   2.928   1.228   5.195  0.4659  0.0376 -0.5448
 9243SOL    HW139362   3.011   1.198   5.157 -0.0566 -0.8937 -0.9705
 9243SOL    HW239363   2.868   1.189   5.130 -0.0009 -0.6685  0.3146
 9244SOL     OW39364   0.386   4.328   3.610 -0.5544  0.4949  1.0951
 9244SOL    HW139365   0.445   4.402   3.612 -0.6668  0.5348  3.5060
 9244SOL    HW239366   0.432   4.276   3.676 -0.3104 -1.6968 -0.7920
 9245SOL     OW39367   3.358   0.063   0.872 -0.0693  0.4006  0.3612
 9245SOL    HW139368   3.414   4.728   0.855  0.1363  0.6995 -0.2893
 9245SOL    HW239369   3.381   0.112   0.793  1.6186  0.8189  1.1080
 9246SOL     OW39370   2.437   0.973   3.992  0.0063  0.7013  0.1287
 9246SOL    HW139371   2.394   0.920   4.059  0.7668 -0.0081  0.0553
 9246SOL    HW239372   2.361   0.984   3.934  0.7814  0.5442 -0.9177
 9247SOL     OW39373   1.976   0.671   0.249  0.0842  0.0846 -0.4197
 9247SOL    HW139374   1.901   0.613   0.264 -0.7673  1.3084  0.0919
 9247SOL    HW239375   2.036   0.608   0.210 -0.3602 -1.0375  0.7079
 9248SOL     OW39376   3.344   3.030   6.203  0.2778  0.0353  0.2753
 9248SOL    HW139377   3.271   3.090   6.192  0.1894 -0.1698 -0.2407
 9248SOL    HW239378   3.415   3.094   6.197 -0.5907  0.9435 -0.4798
 9249SOL     OW39379   2.620   3.856   6.920 -0.2585 -0.4039  0.5280
 9249SOL    HW139380   2.677   3.891   6.851  2.0145 -0.1721  2.5488
 9249SOL    HW239381   2.616   3.930   6.981 -1.4245 -2.4279  2.9068
 9250SOL     OW39382   0.154   4.728  17.514  0.5622 -0.0317 -0.0739
 9250SOL    HW139383   0.154   4.699  17.605  1.3034  0.2821  0.0314
 9250SOL    HW239384   0.060   4.717  17.500  0.2030  2.7039  0.2511
 9251SOL     OW39385   1.899   2.515   2.202  0.7614 -0.6200  0.6341
 9251SOL    HW139386   1.923   2.608   2.203  1.3901 -0.7937  1.2272
 9251SOL    HW239387   1.976   2.487   2.153 -0.2938 -0.8739 -0.9017
 9252SOL     OW39388   3.615   0.221  16.068  0.5690  0.0300 -0.0581
 9252SOL    HW139389   3.669   0.143  16.055  0.4308 -0.1947  0.7271
 9252SOL    HW239390   3.597   0.238  15.976 -2.1889  0.7148  0.6018
 9253SOL     OW39391   3.488   2.371   6.079  0.1330 -0.2464  0.3633
 9253SOL    HW139392   3.446   2.404   6.159  1.6025  1.3445  0.4730
 9253SOL    HW239393   3.550   2.443   6.068 -0.4101  0.2848  0.7446
 9254SOL     OW39394   1.835   3.971   7.530 -0.1806 -0.0805  0.0727
 9254SOL    HW139395   1.775   3.939   7.598  1.5924 -0.9639  1.2342
 9254SOL    HW239396   1.913   3.978   7.586 -0.1173 -0.6132  0.0470
 9255SOL     OW39397   3.059   3.726  16.010  0.1545 -0.2591  0.0720
 9255SOL    HW139398   3.044   3.707  16.103  0.0074 -0.2905  0.0424
 9255SOL    HW239399   3.001   3.801  16.001  2.3279  1.3485 -0.5953
 9256SOL     OW39400   0.144   1.313   3.220  0.2132 -0.3458 -0.0999
 9256SOL    HW139401   0.102   1.246   3.167  1.0203 -0.3806 -0.6932
 9256SOL    HW239402   0.141   1.269   3.305  0.0591 -1.4485 -0.6744
 9257SOL     OW39403   0.828   2.798  17.600 -0.4860 -0.4076 -0.0546
 9257SOL    HW139404   0.862   2.858  17.534 -1.6787  1.7044  1.2684
 9257SOL    HW239405   0.760   2.855  17.637  0.4283  0.6845 -0.0562
 9258SOL     OW39406   0.501   1.000   9.898  0.1274 -0.2337 -0.0294
 9258SOL    HW139407   0.509   1.096   9.900  0.0255 -0.2663  1.9551
 9258SOL    HW239408   0.493   0.968   9.988 -0.9455 -2.6091 -0.9923
 9259SOL     OW39409   3.365   2.923   7.419 -0.5203  0.3330  0.3887
 9259SOL    HW139410   3.458   2.941   7.429 -0.5020  0.0042  0.8171
 9259SOL    HW239411   3.364   2.832   7.391  1.3673  0.1894  0.8082
 9260SOL     OW39412   2.011   2.906   6.909 -0.1035  0.1821 -0.1629
 9260SOL    HW139413   2.103   2.917   6.933 -0.0851  1.2322 -0.6864
 9260SOL    HW239414   1.971   2.871   6.988  0.0028 -3.1379 -1.5728
 9261SOL     OW39415   2.277   0.894   3.601 -0.1156  0.4502  0.0724
 9261SOL    HW139416   2.196   0.908   3.650 -1.2196  0.4918 -1.7366
 9261SOL    HW239417   2.305   0.982   3.576 -1.0242  0.7739  0.2072
 9262SOL     OW39418   1.133   4.125   0.480 -0.1076  0.2997  0.1997
 9262SOL    HW139419   1.043   4.139   0.508  0.1693  2.2020  0.1030
 9262SOL    HW239420   1.165   4.132   0.570  0.2433  1.2536 -0.0037
 9263SOL     OW39421   3.156   3.325  12.487  0.8373  0.0516  0.1911
 9263SOL    HW139422   3.188   3.237  12.505  0.4736 -0.0160  0.5078
 9263SOL    HW239423   3.242   3.366  12.495 -0.0332  2.0873 -0.8579
 9264SOL     OW39424   0.675   2.470   6.018 -0.2717  0.5800  1.0726
 9264SOL    HW139425   0.602   2.503   5.965 -1.8293 -1.0198  2.2047
 9264SOL    HW239426   0.654   2.500   6.107 -3.3296 -3.0088  1.5990
 9265SOL     OW39427   1.261   3.867   5.997 -0.2646 -0.0986  0.1067
 9265SOL    HW139428   1.252   3.830   6.085 -2.0937  0.2792  0.0884
 9265SOL    HW239429   1.273   3.788   5.944 -0.5489  0.0907 -0.2342
 9266SOL     OW39430   2.537   2.477  17.503  0.2191 -0.2380  0.1699
 9266SOL    HW139431   2.603   2.540  17.530  1.9422 -1.5730 -0.9273
 9266SOL    HW239432   2.512   2.446  17.591 -0.1901  0.5900  0.3543
 9267SOL     OW39433   3.267   2.710   6.083 -0.2211 -0.0157  0.5158
 9267SOL    HW139434   3.202   2.779   6.096 -0.6038 -0.0617 -1.1599
 9267SOL    HW239435   3.239   2.665   6.003 -0.5893  1.4292 -0.1630
 9268SOL     OW39436   4.179   4.344   0.802  0.2180  0.2766  0.3122
 9268SOL    HW139437   4.090   4.376   0.819 -0.5862 -0.8796 -1.6881
 9268SOL    HW239438   4.227   4.423   0.775  0.2539  0.1758  0.0799
 9269SOL     OW39439   4.287   4.175  11.021 -0.5601 -0.1304 -0.3776
 9269SOL    HW139440   4.226   4.234  10.977  0.6782 -0.7412 -2.9009
 9269SOL    HW239441   4.371   4.208  10.989  0.1142 -0.7767  0.7191
 9270SOL     OW39442   1.782   0.629  14.569  0.6456 -0.1202 -0.1912
 9270SOL    HW139443   1.853   0.569  14.544 -1.0575 -2.2767  0.0822
 9270SOL    HW239444   1.817   0.709  14.531 -1.3449  0.5579 -0.5763
 9271SOL     OW39445   4.507   4.684   6.188 -0.3777 -0.2115  0.3750
 9271SOL    HW139446   4.488   4.594   6.216  0.6086 -0.7762 -0.7601
 9271SOL    HW239447   4.478   4.682   6.097 -1.1172  2.9406  0.5503
 9272SOL     OW39448   0.126   3.496   7.514 -0.1157 -0.0422 -0.3001
 9272SOL    HW139449   0.075   3.515   7.435  0.0151 -1.4700 -0.7207
 9272SOL    HW239450   0.073   3.518   7.590 -1.2474 -1.7694 -0.6047
 9273SOL     OW39451   0.827   3.355   6.475 -0.0578 -0.3068 -0.0151
 9273SOL    HW139452   0.749   3.300   6.472  0.7384 -1.4574  0.2834
 9273SOL    HW239453   0.811   3.387   6.564  2.2515 -0.9763  0.6281
 9274SOL     OW39454   2.843   1.087  14.547  0.1035 -0.4285 -0.1272
 9274SOL    HW139455   2.771   1.089  14.485 -1.1133 -0.7928  1.2674
 9274SOL    HW239456   2.863   1.180  14.558 -1.6049 -0.4811  3.5839
 9275SOL     OW39457   3.962   0.803   3.361 -0.2418 -0.5874 -0.1879
 9275SOL    HW139458   4.024   0.730   3.362 -1.0976 -1.3042  0.6610
 9275SOL    HW239459   4.018   0.881   3.369 -1.0373 -0.0852  0.4160
 9276SOL     OW39460   1.933   4.156   1.587  0.0336 -0.5537  0.5067
 9276SOL    HW139461   2.009   4.130   1.534 -0.7375 -0.8594 -0.4564
 9276SOL    HW239462   1.981   4.209   1.650  1.9491 -1.7056  0.0119
 9277SOL     OW39463   0.634   4.014   8.435  0.0704  0.4852 -0.0646
 9277SOL    HW139464   0.625   3.935   8.489  2.2185  0.1667 -0.1760
 9277SOL    HW239465   0.729   4.015   8.429  0.1265 -2.4738  0.2997
 9278SOL     OW39466   3.226   3.434   5.991  0.2223  0.1675  0.9367
 9278SOL    HW139467   3.319   3.446   6.012  0.5417 -0.8529  0.1002
 9278SOL    HW239468   3.225   3.458   5.899  0.3935 -2.6727  0.2047
 9279SOL     OW39469   0.905   2.474   3.390 -0.2105  0.1281 -0.2969
 9279SOL    HW139470   0.847   2.547   3.411  0.1685  0.4353 -0.3238
 9279SOL    HW239471   0.992   2.496   3.422 -0.8523  1.1293  0.7790
 9280SOL     OW39472   3.576   2.489  15.351  0.0222  0.4759  0.5307
 9280SOL    HW139473   3.615   2.564  15.305  2.0377  0.5120  2.3096
 9280SOL    HW239474   3.491   2.529  15.371  0.4961  2.0396 -0.5475
 9281SOL     OW39475   3.253   3.286   9.206  0.0635  0.0533 -0.1066
 9281SOL    HW139476   3.206   3.268   9.126 -1.3677 -0.8363  0.9433
 9281SOL    HW239477   3.195   3.244   9.269 -1.0768  0.3106 -0.9905
 9282SOL     OW39478   3.077   1.702  14.542  0.4145 -0.0051  0.0671
 9282SOL    HW139479   3.084   1.735  14.631 -3.3033  1.5738 -0.2562
 9282SOL    HW239480   3.115   1.613  14.543 -0.7781 -0.5156 -0.6631
 9283SOL     OW39481   2.206   1.232   9.197  0.3199 -0.2242 -0.7572
 9283SOL    HW139482   2.279   1.277   9.154  0.6720  0.9942  1.1251
 9283SOL    HW239483   2.248   1.149   9.219 -1.5015 -0.9993 -0.2274
 9284SOL     OW39484   0.457   1.659   7.256  0.4121 -0.2391  0.0283
 9284SOL    HW139485   0.405   1.593   7.303  1.3868  0.9028  2.7116
 9284SOL    HW239486   0.396   1.717   7.211  1.3623  0.0451 -0.8806
 9285SOL     OW39487   4.209   3.109   1.738 -0.3872  0.5569 -0.3573
 9285SOL    HW139488   4.168   3.115   1.652 -0.3877  0.9701 -0.3256
 9285SOL    HW239489   4.287   3.162   1.722  0.1374 -0.3231 -0.7126
 9286SOL     OW39490   1.503   0.517  14.272 -0.7662  0.2254 -0.1411
 9286SOL    HW139491   1.505   0.550  14.182 -0.4990  2.0537  0.5288
 9286SOL    HW239492   1.484   0.592  14.329  2.3448 -1.1507  2.6712
 9287SOL     OW39493   0.322   0.260  13.923  0.1325  0.2862 -0.5594
 9287SOL    HW139494   0.297   0.288  14.011  0.7780  1.0805 -0.6268
 9287SOL    HW239495   0.286   0.334  13.875  1.3326  1.5997  0.5918
 9288SOL     OW39496   4.284   3.781   8.216  0.2986  0.2524 -0.0909
 9288SOL    HW139497   4.244   3.774   8.302  1.5182  1.0089  0.5460
 9288SOL    HW239498   4.261   3.873   8.204 -1.5014 -0.2643 -0.5053
 9289SOL     OW39499   0.140   1.559   4.167  0.2254  0.4209 -0.2138
 9289SOL    HW139500   0.152   1.515   4.251 -1.5625 -0.0749 -0.2116
 9289SOL    HW239501   0.067   1.506   4.133  0.2867  0.1293  0.1152
 9290SOL     OW39502   3.883   0.229  14.089 -0.0413 -0.4554 -0.0019
 9290SOL    HW139503   3.832   0.308  14.108  0.2769  0.0448 -1.2244
 9290SOL    HW239504   3.972   0.264  14.088 -0.1464 -0.1902 -0.3314
 9291SOL     OW39505   0.472   1.789   6.329  0.8624  0.1364 -0.4736
 9291SOL    HW139506   0.477   1.884   6.336  0.0036  0.0218  1.6238
 9291SOL    HW239507   0.391   1.770   6.281  0.4913  3.6019 -1.1795
 9292SOL     OW39508   1.818   3.947   0.362 -0.5297 -0.3653 -0.2713
 9292SOL    HW139509   1.830   4.019   0.424 -0.0206 -0.5216 -0.1902
 9292SOL    HW239510   1.850   3.994   0.286  0.2176  0.2001  0.3875
 9293SOL     OW39511   2.305   1.486   8.159  0.6410 -0.2513  0.8928
 9293SOL    HW139512   2.372   1.424   8.132  0.6179  0.7897 -1.5504
 9293SOL    HW239513   2.248   1.435   8.217  0.2511 -3.2050 -2.1088
 9294SOL     OW39514   3.464   4.187   7.657  0.4153  0.3973  0.1574
 9294SOL    HW139515   3.503   4.255   7.713 -1.3524  2.3136 -0.9277
 9294SOL    HW239516   3.519   4.114   7.685  0.7426  0.5228 -0.1763
 9295SOL     OW39517   1.942   4.326  13.909  0.0015  0.5970 -0.0456
 9295SOL    HW139518   2.011   4.390  13.923 -0.4106  1.2070 -0.7840
 9295SOL    HW239519   1.996   4.248  13.923  0.0151  0.4781 -0.7516
 9296SOL     OW39520   4.070   1.271  17.707 -0.0546  0.0409 -0.3026
 9296SOL    HW139521   4.154   1.226  17.720  0.5382  1.6042  1.1761
 9296SOL    HW239522   4.087   1.365  17.713  0.6631 -0.2124  1.5934
 9297SOL     OW39523   3.289   4.077   1.913 -0.0706 -0.2466 -0.0245
 9297SOL    HW139524   3.340   4.075   1.833 -1.7609 -1.0992 -1.0868
 9297SOL    HW239525   3.343   4.127   1.975  1.1162 -3.1714  1.2927
 9298SOL     OW39526   0.155   0.315   2.003  0.0287 -0.2900 -0.6919
 9298SOL    HW139527   0.198   0.339   1.920  0.6880  0.6774 -0.0663
 9298SOL    HW239528   0.237   0.309   2.051 -1.4213  0.3213  1.8555
 9299SOL     OW39529   2.326   1.275   7.178 -0.2302 -0.1503 -0.0637
 9299SOL    HW139530   2.242   1.278   7.223 -1.5162  0.8431 -2.5463
 9299SOL    HW239531   2.324   1.354   7.124 -0.9172 -1.9400 -2.6308
 9300SOL     OW39532   3.761   1.713   8.853 -0.5427 -0.5755  0.9065
 9300SOL    HW139533   3.681   1.767   8.852  0.0455  0.2663 -0.1263
 9300SOL    HW239534   3.815   1.760   8.790 -1.2576 -2.2308 -0.9402
 9301SOL     OW39535   2.838   1.973   5.125  0.5021 -0.3678 -0.3338
 9301SOL    HW139536   2.798   1.892   5.092  0.0187 -0.4976  0.5896
 9301SOL    HW239537   2.758   2.001   5.170 -0.1599 -1.2143 -0.9833
 9302SOL     OW39538   1.850   1.050  10.541 -0.2248  0.1377  0.5201
 9302SOL    HW139539   1.841   0.957  10.518  0.5820  0.3222 -0.5858
 9302SOL    HW239540   1.936   1.075  10.507  0.0371 -1.2190  0.1785
 9303SOL     OW39541   2.847   4.692   4.350 -0.3687 -0.2646  0.3235
 9303SOL    HW139542   2.888   4.630   4.290  2.6761  1.0899  0.9583
 9303SOL    HW239543   2.757   4.661   4.344 -1.2963  2.3891  0.8864
 9304SOL     OW39544   3.044   0.698   6.126  0.0698 -0.1557 -0.1943
 9304SOL    HW139545   3.109   0.721   6.192 -0.9093  3.0922 -0.3651
 9304SOL    HW239546   3.010   0.617   6.162 -0.3020 -0.3210 -0.9062
 9305SOL     OW39547   3.002   4.508   6.446 -0.3460  0.5398 -0.1604
 9305SOL    HW139548   2.999   4.478   6.537 -1.1248 -0.0291 -0.3667
 9305SOL    HW239549   3.013   4.423   6.402 -0.0002  0.7874 -0.5516
 9306SOL     OW39550   1.204   2.650  15.335 -0.0895  0.3671 -0.0371
 9306SOL    HW139551   1.154   2.571  15.354  2.0557  0.0657  4.3218
 9306SOL    HW239552   1.237   2.667  15.423  0.9945 -0.2461 -0.3289
 9307SOL     OW39553   3.668   0.380  11.812 -0.4552 -0.2296  0.3040
 9307SOL    HW139554   3.594   0.413  11.762 -0.7609  1.7014  2.0522
 9307SOL    HW239555   3.734   0.352  11.749 -1.6564 -0.2285 -0.9456
 9308SOL     OW39556   1.632   0.833   2.306  0.3609  0.1528  0.3966
 9308SOL    HW139557   1.542   0.846   2.335 -0.3861 -1.0786 -1.3615
 9308SOL    HW239558   1.671   0.915   2.338 -0.5104  0.4201  0.7937
 9309SOL     OW39559   0.346   4.599   4.317 -0.1982 -0.7587 -0.5780
 9309SOL    HW139560   0.437   4.594   4.346 -0.0534 -0.7966 -1.0460
 9309SOL    HW239561   0.338   4.515   4.273 -0.2732 -1.0557  0.0046
 9310SOL     OW39562   1.395   3.503   5.613  0.4300 -0.9012  0.1514
 9310SOL    HW139563   1.419   3.506   5.521 -1.4815  1.5995 -0.2607
 9310SOL    HW239564   1.473   3.455   5.641  0.2570 -0.4089  1.5133
 9311SOL     OW39565   2.688   0.681  11.854 -0.0503 -0.6847 -0.6397
 9311SOL    HW139566   2.671   0.613  11.919  1.3043  0.9410  1.3839
 9311SOL    HW239567   2.624   0.744  11.888  0.4100 -1.1334  1.0365
 9312SOL     OW39568   1.436   0.408   1.992 -0.3619 -0.1008  0.6050
 9312SOL    HW139569   1.427   0.465   2.069  0.6378 -0.4580  0.9889
 9312SOL    HW239570   1.471   0.325   2.025 -0.0925 -0.6297 -0.9884
 9313SOL     OW39571   0.139   3.312   2.678  0.1230 -0.8587 -0.8887
 9313SOL    HW139572   0.186   3.235   2.710 -1.6953 -1.0462  1.3622
 9313SOL    HW239573   0.213   3.355   2.637  0.5350 -0.7151  0.0193
 9314SOL     OW39574   2.303   1.386   3.969 -0.2587 -0.1040  0.5550
 9314SOL    HW139575   2.359   1.395   4.046  1.8253 -2.6787 -0.6362
 9314SOL    HW239576   2.271   1.476   3.973  0.0914  0.0794 -1.0231
 9315SOL     OW39577   2.951   1.438  11.563 -0.2717 -0.6303 -0.6553
 9315SOL    HW139578   2.888   1.450  11.492 -2.1102  0.1360  1.1248
 9315SOL    HW239579   2.903   1.375  11.617  0.6118  0.1799  1.0735
 9316SOL     OW39580   1.254   4.217   1.310  0.1213  0.4033 -0.3984
 9316SOL    HW139581   1.160   4.232   1.321 -0.0809 -1.6963  0.7844
 9316SOL    HW239582   1.267   4.208   1.216  1.1165  1.6876 -0.3827
 9317SOL     OW39583   1.291   3.225  12.525  0.2322  0.1207 -0.2616
 9317SOL    HW139584   1.273   3.307  12.570  1.0454  0.5929 -0.7941
 9317SOL    HW239585   1.205   3.183  12.524  0.4059 -0.2351 -0.3477
 9318SOL     OW39586   0.917   1.411  15.520 -0.5549  0.0197  0.0746
 9318SOL    HW139587   0.926   1.315  15.522  0.1764  0.1135  1.1894
 9318SOL    HW239588   1.009   1.430  15.500 -0.5536 -0.2029 -0.1468
 9319SOL     OW39589   1.712   1.521   6.997  0.0816  0.9161 -0.1906
 9319SOL    HW139590   1.776   1.591   6.997 -1.3504  2.2357  1.8436
 9319SOL    HW239591   1.660   1.546   7.074  2.2014  0.9738  1.2275
 9320SOL     OW39592   2.696   1.047  17.538 -0.2721  0.0412 -0.2670
 9320SOL    HW139593   2.703   1.117  17.602 -0.5932  1.5077 -1.8433
 9320SOL    HW239594   2.752   0.981  17.579 -0.8901  0.8424  1.8401
 9321SOL     OW39595   1.091   0.445   3.268  0.2509  0.0947  0.3418
 9321SOL    HW139596   1.022   0.498   3.307 -1.0844 -0.2905 -1.4821
 9321SOL    HW239597   1.058   0.362   3.300  0.3311  0.1062  0.4540
 9322SOL     OW39598   0.966   2.953   1.478  0.5787 -0.6293  0.0332
 9322SOL    HW139599   0.994   3.027   1.532 -0.2061 -0.1406 -0.2300
 9322SOL    HW239600   0.963   3.002   1.396  0.2970 -0.7650 -0.0375
 9323SOL     OW39601   2.223   4.195   6.040  0.4192 -0.0275  0.1077
 9323SOL    HW139602   2.189   4.109   6.066  2.0556 -0.9430 -0.7763
 9323SOL    HW239603   2.307   4.183   5.996  0.6295 -1.2806  0.8482
 9324SOL     OW39604   0.858   0.474   4.511 -0.0787 -0.1912  0.6681
 9324SOL    HW139605   0.934   0.420   4.532 -0.8939 -1.2615  0.8631
 9324SOL    HW239606   0.844   0.437   4.423  1.6487  0.7973 -0.0219
 9325SOL     OW39607   4.098   2.727  12.801  0.2456  0.1759  0.0645
 9325SOL    HW139608   4.053   2.651  12.763 -0.1675 -0.0649  1.0451
 9325SOL    HW239609   4.110   2.704  12.893  0.7816  0.8135  0.1564
 9326SOL     OW39610   3.560   2.730  11.920 -0.1337 -0.4429  0.0303
 9326SOL    HW139611   3.559   2.648  11.969  3.5705 -0.0044  0.8241
 9326SOL    HW239612   3.509   2.707  11.842 -2.5947  0.6041  1.3147
 9327SOL     OW39613   2.404   2.176   5.502  0.4547 -0.0938 -0.4157
 9327SOL    HW139614   2.361   2.215   5.426  0.4425  0.5823 -0.0663
 9327SOL    HW239615   2.410   2.259   5.550  0.0600 -0.1958 -0.1863
 9328SOL     OW39616   1.681   1.441  16.213 -0.4109  0.1259  0.2266
 9328SOL    HW139617   1.626   1.516  16.187 -0.3334  0.3307  0.6545
 9328SOL    HW239618   1.667   1.378  16.143  0.2737  0.5196 -0.2563
 9329SOL     OW39619   1.363   0.580   2.204 -0.3728 -0.1644  0.0095
 9329SOL    HW139620   1.284   0.599   2.256 -1.1872 -1.3513 -0.7882
 9329SOL    HW239621   1.422   0.585   2.280  0.2162  1.0486 -0.5452
 9330SOL     OW39622   3.203   1.452   2.350  0.1806  0.3462 -0.3315
 9330SOL    HW139623   3.256   1.383   2.388  1.2924  2.3274  1.6903
 9330SOL    HW239624   3.257   1.526   2.378 -0.5462  0.1842  1.4648
 9331SOL     OW39625   4.369   0.383   6.394  0.1196  0.2763 -0.2851
 9331SOL    HW139626   4.433   0.454   6.382  0.6123 -0.4675 -2.1433
 9331SOL    HW239627   4.282   0.422   6.387  0.2438  0.7462  0.8122
 9332SOL     OW39628   1.795   2.182   2.875 -0.0766 -0.0687 -0.4543
 9332SOL    HW139629   1.851   2.212   2.947 -1.1565  1.3957 -0.2202
 9332SOL    HW239630   1.866   2.170   2.812 -0.1730 -0.4467 -0.4908
 9333SOL     OW39631   0.483   3.239  14.274 -0.0337  0.3727  0.8744
 9333SOL    HW139632   0.530   3.322  14.278  0.7280  0.0349 -0.8993
 9333SOL    HW239633   0.460   3.227  14.366 -2.0479 -1.2641  0.1516
 9334SOL     OW39634   1.538   2.324   8.452  0.0219  0.2286  0.3251
 9334SOL    HW139635   1.512   2.412   8.480 -1.8641 -0.5910  1.1524
 9334SOL    HW239636   1.528   2.270   8.531 -2.6981 -0.7524 -0.6997
 9335SOL     OW39637   2.431   3.580   3.496 -0.4944 -0.6848  0.6343
 9335SOL    HW139638   2.338   3.578   3.472  0.1182  1.1930 -2.0051
 9335SOL    HW239639   2.428   3.640   3.570  1.2866 -0.0086  0.1599
 9336SOL     OW39640   0.940   1.901   3.975  0.7097 -0.0372 -0.0554
 9336SOL    HW139641   0.992   1.823   3.992  2.2442  0.9786 -0.1324
 9336SOL    HW239642   0.986   1.969   4.023  3.9271  0.3458 -3.7446
 9337SOL     OW39643   2.413   3.551  14.473  0.2423 -0.2635 -0.6610
 9337SOL    HW139644   2.353   3.549  14.547  1.2397  1.4491  0.1811
 9337SOL    HW239645   2.455   3.465  14.473  3.2627  1.2079  1.3443
 9338SOL     OW39646   0.350   0.905  17.073 -1.3935  0.2225 -0.4331
 9338SOL    HW139647   0.329   0.813  17.091  2.4347 -0.2754  1.3915
 9338SOL    HW239648   0.439   0.915  17.107 -1.8252  0.7376  0.5299
 9339SOL     OW39649   3.136   4.693   9.072 -0.1136  0.4173 -0.1561
 9339SOL    HW139650   3.047   4.681   9.039 -0.9738 -3.4892  3.4531
 9339SOL    HW239651   3.180   0.003   9.004  1.7191 -1.5128 -0.4205
 9340SOL     OW39652   0.066   2.443  16.009 -0.1588  0.6131  0.1040
 9340SOL    HW139653   4.713   2.437  16.026  0.1438 -0.8111  1.2161
 9340SOL    HW239654   0.067   2.481  15.921 -0.1726 -2.5713 -1.2713
 9341SOL     OW39655   4.724   3.328  15.219  0.0306  0.0268 -0.5380
 9341SOL    HW139656   0.038   3.406  15.210 -0.4915  0.1300 -2.6886
 9341SOL    HW239657   0.053   3.264  15.206  0.5989  0.5601 -0.1271
 9342SOL     OW39658   4.529   3.228   8.721 -0.4478 -0.1114 -0.1264
 9342SOL    HW139659   4.497   3.138   8.728  0.9720 -0.7048 -1.2746
 9342SOL    HW239660   4.486   3.259   8.642  3.5395  2.2440 -1.3844
 9343SOL     OW39661   3.634   1.433   4.405 -0.9335 -0.1529  0.2835
 9343SOL    HW139662   3.607   1.348   4.370 -2.5593  0.2873  0.4658
 9343SOL    HW239663   3.724   1.442   4.375 -0.2257 -3.9511  1.2536
 9344SOL     OW39664   1.158   2.675   6.120  0.2419  0.0906 -0.5414
 9344SOL    HW139665   1.203   2.598   6.085  0.0593  0.7119 -2.1761
 9344SOL    HW239666   1.077   2.673   6.068 -0.3158  0.1217  0.3403
 9345SOL     OW39667   0.562   4.071   2.517 -0.4257  0.2341  0.0625
 9345SOL    HW139668   0.588   3.980   2.504  0.5767  0.6933 -1.1335
 9345SOL    HW239669   0.647   4.115   2.506 -0.0040 -1.0054 -1.5336
 9346SOL     OW39670   2.820   4.405   4.891  0.7544 -0.5348 -0.0123
 9346SOL    HW139671   2.844   4.461   4.816 -1.7631  0.5120 -0.0373
 9346SOL    HW239672   2.725   4.411   4.880  0.4132 -2.5064  2.0068
 9347SOL     OW39673   2.849   1.455   9.932  0.0511  0.1915 -0.0758
 9347SOL    HW139674   2.874   1.405   9.853 -0.1461  1.2547 -0.8010
 9347SOL    HW239675   2.819   1.535   9.889 -0.1926 -0.3564 -0.9261
 9348SOL     OW39676   3.208   3.927   3.127  0.7295 -0.0701  0.0597
 9348SOL    HW139677   3.261   3.989   3.177 -1.7303  1.1333  1.1601
 9348SOL    HW239678   3.198   3.969   3.042  3.0279  1.6343  0.6383
 9349SOL     OW39679   1.934   0.878   1.700 -0.1427 -0.2864 -0.3080
 9349SOL    HW139680   1.960   0.966   1.674  1.5640 -0.3328  1.2188
 9349SOL    HW239681   1.967   0.872   1.790 -2.1810  2.4125  0.6226
 9350SOL     OW39682   1.483   2.617  10.225  0.0123  0.3301 -0.6124
 9350SOL    HW139683   1.554   2.617  10.161 -0.6944  0.7155 -1.3814
 9350SOL    HW239684   1.479   2.527  10.256 -1.1448  1.0910  1.4570
 9351SOL     OW39685   4.388   4.231   8.256  0.5188  0.0083  0.5449
 9351SOL    HW139686   4.438   4.248   8.336 -0.0056  1.7011  0.5069
 9351SOL    HW239687   4.331   4.307   8.246 -0.1052 -0.5410 -0.1026
 9352SOL     OW39688   0.240   3.632   7.110  0.2353  0.2887 -0.0710
 9352SOL    HW139689   0.259   3.692   7.182  2.1593 -0.0386 -0.3067
 9352SOL    HW239690   0.276   3.674   7.032  1.3410 -0.3758  0.0944
 9353SOL     OW39691   2.874   0.015  17.520  0.5420  0.3367 -0.1271
 9353SOL    HW139692   2.850   4.685  17.580  1.9382 -0.9911 -1.1630
 9353SOL    HW239693   2.856   0.098  17.565 -0.2257 -0.0626  0.3065
 9354SOL     OW39694   3.400   0.532   3.723  0.7229 -0.1320  1.0230
 9354SOL    HW139695   3.481   0.506   3.680  0.5444 -0.1492  0.6976
 9354SOL    HW239696   3.436   0.581   3.797 -1.2474 -0.7566  2.4190
 9355SOL     OW39697   3.857   4.341  15.472  0.2099 -0.0132 -0.5122
 9355SOL    HW139698   3.946   4.312  15.494 -0.0887 -0.9616 -0.5738
 9355SOL    HW239699   3.796   4.291  15.526 -0.6578  1.2963 -0.2828
 9356SOL     OW39700   1.682   1.110   6.051  0.8789 -0.0275  0.2844
 9356SOL    HW139701   1.691   1.058   6.131  0.7820 -1.1924 -0.4705
 9356SOL    HW239702   1.664   1.045   5.984  0.0270  0.8153 -0.3022
 9357SOL     OW39703   0.754   4.506   0.975  0.1338 -0.5165 -0.1445
 9357SOL    HW139704   0.780   4.414   0.982  0.3289 -0.5137 -0.8621
 9357SOL    HW239705   0.772   4.535   1.064 -0.8548 -0.2452 -0.0323
 9358SOL     OW39706   0.463   2.921  11.503  0.4522  0.6476 -0.3736
 9358SOL    HW139707   0.474   2.841  11.452  1.2347  0.5044  0.0156
 9358SOL    HW239708   0.518   2.982  11.454  2.0756  0.4815  1.2391
 9359SOL     OW39709   0.220   3.679  13.916 -0.4034  0.2042  0.0076
 9359SOL    HW139710   0.194   3.771  13.908 -2.2892 -0.4145 -0.9507
 9359SOL    HW239711   0.224   3.642  13.828  1.9315 -0.0114  0.2077
 9360SOL     OW39712   4.516   3.256   1.428  0.1129 -0.8833  0.0455
 9360SOL    HW139713   4.591   3.290   1.381 -1.0035  1.6397  0.0759
 9360SOL    HW239714   4.446   3.259   1.362  0.6025 -0.8960 -0.4677
 9361SOL     OW39715   0.612   1.616   5.060 -0.4017 -0.0250  0.1523
 9361SOL    HW139716   0.611   1.557   5.135 -0.3819  1.5118  1.3816
 9361SOL    HW239717   0.685   1.672   5.087 -1.3435  1.0345  0.5180
 9362SOL     OW39718   0.946   2.620   5.441 -0.0313 -0.0838 -0.3298
 9362SOL    HW139719   0.949   2.632   5.536 -0.6561 -1.8054 -0.0973
 9362SOL    HW239720   0.985   2.533   5.436  1.9759  0.6993  1.4427
 9363SOL     OW39721   1.721   3.748   4.169 -0.9546 -0.1732  0.4065
 9363SOL    HW139722   1.697   3.667   4.215  0.7475 -1.3812 -0.8215
 9363SOL    HW239723   1.761   3.804   4.236  0.2563  2.0022 -2.1326
 9364SOL     OW39724   3.659   0.683   7.266  0.1878  0.3789  0.2450
 9364SOL    HW139725   3.578   0.717   7.304 -0.0505  3.8553 -3.3313
 9364SOL    HW239726   3.676   0.759   7.210 -1.8757 -1.3636 -2.7693
 9365SOL     OW39727   3.390   3.173  12.027 -0.4421 -0.5420 -0.4231
 9365SOL    HW139728   3.377   3.078  12.027 -1.1396 -0.4421  1.1709
 9365SOL    HW239729   3.465   3.182  11.969  0.0798  2.0739  0.6594
 9366SOL     OW39730   4.010   2.471  12.696  0.6340  0.2215 -0.0037
 9366SOL    HW139731   3.952   2.502  12.627 -1.9002 -0.9695  1.6152
 9366SOL    HW239732   3.962   2.466  12.778  1.3188 -0.4299  0.3623
 9367SOL     OW39733   4.167   3.676   5.320 -0.3875 -0.3182  0.5022
 9367SOL    HW139734   4.234   3.672   5.387  1.4096  2.0537 -1.1424
 9367SOL    HW239735   4.152   3.589   5.281  2.1269 -0.7726  0.5267
 9368SOL     OW39736   0.950   1.036   8.409 -0.2605  0.7594 -0.3007
 9368SOL    HW139737   0.988   1.099   8.471  2.6289  0.1394 -1.4046
 9368SOL    HW239738   0.998   1.049   8.328  1.2194  1.3100  0.6536
 9369SOL     OW39739   2.677   2.159  17.622 -0.4505  0.0204  0.0273
 9369SOL    HW139740   2.669   2.179  17.715  0.2482 -0.0391  0.0952
 9369SOL    HW239741   2.617   2.226  17.589  1.3923  1.8112  0.3356
 9370SOL     OW39742   1.423   0.227  14.152  0.2512 -0.4100  0.2137
 9370SOL    HW139743   1.436   0.319  14.130  1.9559 -0.4342  1.1067
 9370SOL    HW239744   1.504   0.185  14.121 -1.1028 -0.7376 -2.7836
 9371SOL     OW39745   3.374   3.910   3.494  0.4318  0.1982  0.3386
 9371SOL    HW139746   3.279   3.907   3.499  0.5832 -0.3654  2.6380
 9371SOL    HW239747   3.395   3.997   3.527 -0.2895  0.6896 -0.5095
 9372SOL     OW39748   0.335   2.178   4.673  0.3227  0.3141 -0.1785
 9372SOL    HW139749   0.410   2.132   4.710 -0.6835 -2.2467 -1.3493
 9372SOL    HW239750   0.360   2.184   4.581  1.3569  0.9621  0.1355
 9373SOL     OW39751   2.864   2.543  16.766 -0.3106  0.2862  0.0560
 9373SOL    HW139752   2.806   2.508  16.833  1.4317 -0.6967  1.0365
 9373SOL    HW239753   2.944   2.570  16.810 -0.3940  1.4789 -0.5248
 9374SOL     OW39754   0.869   2.373   2.021 -0.1799  0.0796 -0.4501
 9374SOL    HW139755   0.921   2.374   2.101  0.3310  0.2785 -0.7833
 9374SOL    HW239756   0.887   2.284   1.992  1.3009 -0.2727  1.5741
 9375SOL     OW39757   4.236   2.920   4.031 -0.0168  0.2516 -0.4624
 9375SOL    HW139758   4.207   2.862   3.961  2.0780  1.2408 -2.1401
 9375SOL    HW239759   4.177   2.995   4.032 -0.7325 -0.3284  0.4949
 9376SOL     OW39760   3.554   4.593   4.214  0.0805  0.1167 -0.0401
 9376SOL    HW139761   3.617   4.526   4.186  0.6390  0.7951 -0.4152
 9376SOL    HW239762   3.538   4.640   4.133  2.6301  3.0509  1.1669
 9377SOL     OW39763   1.439   0.941   5.164 -0.7172 -0.9036  0.0005
 9377SOL    HW139764   1.349   0.972   5.167 -0.8500 -1.4660  1.5719
 9377SOL    HW239765   1.470   0.999   5.093  0.4696 -1.1015  0.3515
 9378SOL     OW39766   4.100   1.286   8.202  0.1552  0.0658  0.2987
 9378SOL    HW139767   4.073   1.267   8.291 -0.6115  0.2499  0.1010
 9378SOL    HW239768   4.179   1.339   8.212 -0.7481  1.4486  0.0018
 9379SOL     OW39769   2.038   0.174   2.084 -0.5985  0.0467  0.3034
 9379SOL    HW139770   2.062   0.192   1.993  0.0184  2.7295  0.9978
 9379SOL    HW239771   2.064   0.082   2.087  1.4824  0.7055  2.0604
 9380SOL     OW39772   1.933   2.111   3.626 -0.5597 -0.0803  0.0276
 9380SOL    HW139773   1.864   2.118   3.691 -2.0889  0.8027 -1.7103
 9380SOL    HW239774   2.008   2.129   3.684  0.3458  0.5841 -1.3445
 9381SOL     OW39775   2.532   1.470   2.658  0.0708 -0.2902  0.8053
 9381SOL    HW139776   2.588   1.547   2.650  1.4298 -1.4173 -0.5890
 9381SOL    HW239777   2.592   1.409   2.615  0.3511 -0.1844  1.0455
 9382SOL     OW39778   1.830   0.041   4.544  0.6139  0.0601 -0.0750
 9382SOL    HW139779   1.819   0.069   4.635 -1.3302 -1.0556  0.0373
 9382SOL    HW239780   1.778   0.099   4.490 -0.5914  0.9506  2.0315
 9383SOL     OW39781   4.450   1.615   0.279 -0.1362  0.5671  0.5297
 9383SOL    HW139782   4.498   1.618   0.196 -1.0329 -1.1566 -0.0595
 9383SOL    HW239783   4.429   1.707   0.293 -2.2711 -0.0533  1.3463
 9384SOL     OW39784   2.718   2.719   8.508  0.3090 -0.6780 -0.3211
 9384SOL    HW139785   2.682   2.767   8.583  1.2596 -0.2406 -0.1415
 9384SOL    HW239786   2.793   2.676   8.550  0.3238 -0.8339 -0.5084
 9385SOL     OW39787   1.444   3.705   1.980 -0.1480 -0.0106  0.1158
 9385SOL    HW139788   1.369   3.646   1.979 -0.9642  1.0195  0.1286
 9385SOL    HW239789   1.402   3.784   1.945  0.9085 -0.9852 -3.3490
 9386SOL     OW39790   3.803   1.951  10.790  0.4548  0.1539  0.2828
 9386SOL    HW139791   3.830   1.978  10.878  0.9520 -0.5142  0.3428
 9386SOL    HW239792   3.793   1.856  10.800 -0.3563  0.0828 -1.2479
 9387SOL     OW39793   0.655   2.734   7.488  0.6162 -0.2505  0.0526
 9387SOL    HW139794   0.586   2.743   7.422 -1.2931 -2.2377  1.7745
 9387SOL    HW239795   0.669   2.828   7.492 -2.6877  0.3493 -1.8343
 9388SOL     OW39796   0.378   2.798   5.576  0.2896 -0.2150  0.3584
 9388SOL    HW139797   0.468   2.822   5.599 -0.3795  1.8504  0.8151
 9388SOL    HW239798   0.393   2.733   5.507  1.0522  1.5748 -1.1675
 9389SOL     OW39799   2.002   0.372   4.187  0.3725  0.1464  0.3528
 9389SOL    HW139800   1.942   0.298   4.197  0.5577 -0.0992 -0.3432
 9389SOL    HW239801   2.034   0.380   4.277 -1.6550 -2.0416  1.2778
 9390SOL     OW39802   0.347   2.035   7.916 -0.7905  0.0266  0.2670
 9390SOL    HW139803   0.422   1.976   7.916 -0.2328  0.7353  0.3819
 9390SOL    HW239804   0.270   1.978   7.910 -0.5258 -0.2660 -0.3778
 9391SOL     OW39805   2.251   2.002   2.218 -0.3032 -0.3754  0.1725
 9391SOL    HW139806   2.177   2.057   2.242 -0.5016 -1.4802  2.0717
 9391SOL    HW239807   2.291   1.987   2.304 -0.5129  1.8000  0.6533
 9392SOL     OW39808   4.386   1.956   6.278  0.0708 -0.6079  0.2480
 9392SOL    HW139809   4.346   1.883   6.325 -0.0689 -1.4674 -1.2268
 9392SOL    HW239810   4.475   1.925   6.292  1.4453  3.2603  0.1752
 9393SOL     OW39811   0.625   2.043   8.034 -0.0178 -0.0862 -0.3101
 9393SOL    HW139812   0.660   2.023   7.947  1.1614 -1.0200  0.3803
 9393SOL    HW239813   0.703   2.032   8.089 -0.0513 -1.2052 -0.4712
 9394SOL     OW39814   2.101   1.701   9.196  0.8795 -0.0040 -0.6711
 9394SOL    HW139815   2.098   1.759   9.119  1.1563 -0.3451 -0.9397
 9394SOL    HW239816   2.066   1.618   9.162  1.7390 -1.1152  1.1816
 9395SOL     OW39817   1.997   1.541   2.988  0.5246  0.3252 -0.5360
 9395SOL    HW139818   1.959   1.614   2.938  2.0009  1.6384  0.2810
 9395SOL    HW239819   2.056   1.587   3.047 -0.1425  0.4379  0.0470
 9396SOL     OW39820   0.494   4.435   5.165  0.6584  0.3443  0.9261
 9396SOL    HW139821   0.483   4.528   5.185 -0.1798  0.4304  0.0737
 9396SOL    HW239822   0.588   4.420   5.150  0.5148  0.9838 -0.5973
 9397SOL     OW39823   4.497   0.891   3.558 -0.4726  0.8149  0.6551
 9397SOL    HW139824   4.503   0.802   3.593  0.5541  0.3749 -0.6464
 9397SOL    HW239825   4.449   0.932   3.631  0.9283 -1.0464  2.6281
 9398SOL     OW39826   0.419   4.061   0.237 -0.7238  0.0356  0.3411
 9398SOL    HW139827   0.324   4.074   0.247 -0.9841 -0.8501 -1.0616
 9398SOL    HW239828   0.425   4.105   0.153 -2.1261 -2.4305 -1.0473
 9399SOL     OW39829   2.013   2.301  12.125 -0.6648  0.2730 -0.1036
 9399SOL    HW139830   1.940   2.353  12.158  0.2411  1.2150  0.4015
 9399SOL    HW239831   1.984   2.256  12.046  0.8867  3.8476 -2.7263
 9400SOL     OW39832   2.916   3.556  13.732  0.3753  0.6003  0.0194
 9400SOL    HW139833   2.956   3.476  13.767 -1.2508 -1.2628 -2.4351
 9400SOL    HW239834   2.948   3.617  13.799 -0.1089 -2.2686  2.8668
 9401SOL     OW39835   1.940   2.275   9.075 -0.4237  0.3320 -0.1030
 9401SOL    HW139836   1.971   2.215   9.007 -2.1281  0.2389 -0.8102
 9401SOL    HW239837   2.026   2.289   9.115 -1.2949  0.9582  1.5435
 9402SOL     OW39838   3.090   0.887   2.621 -0.2110 -0.2489  0.1825
 9402SOL    HW139839   3.008   0.914   2.581 -0.3150  0.9364  1.1505
 9402SOL    HW239840   3.141   0.963   2.650 -2.1559  0.5570  1.4787
 9403SOL     OW39841   1.803   0.794   7.596 -0.4820  0.1214 -0.8467
 9403SOL    HW139842   1.897   0.806   7.582  0.3552  0.2111  4.7721
 9403SOL    HW239843   1.765   0.823   7.513 -2.1168  3.3465  1.0069
 9404SOL     OW39844   4.463   4.393   9.395  0.1796 -0.2549  0.1720
 9404SOL    HW139845   4.458   4.373   9.302  1.0822 -1.0813  0.3089
 9404SOL    HW239846   4.373   4.378   9.424 -0.1616  0.8598 -0.3336
 9405SOL     OW39847   0.901   3.424   3.460 -0.2362 -0.1797  0.4347
 9405SOL    HW139848   0.975   3.404   3.403 -0.9919 -0.4850 -0.4489
 9405SOL    HW239849   0.836   3.374   3.410  0.5480 -0.3625 -0.4011
 9406SOL     OW39850   3.928   0.354   4.979 -0.3015  0.1869 -0.0963
 9406SOL    HW139851   3.963   0.421   4.920 -1.6820  1.3410  0.3762
 9406SOL    HW239852   3.920   0.279   4.921  1.0643 -0.5420  0.6534
 9407SOL     OW39853   1.891   0.112   1.124  0.8213 -0.1764  0.4344
 9407SOL    HW139854   1.835   0.183   1.157  0.2138  0.3231 -1.6971
 9407SOL    HW239855   1.865   0.037   1.177 -2.5734  0.0276 -0.9149
 9408SOL     OW39856   0.549   1.694   3.453 -0.2814 -0.1952 -0.1650
 9408SOL    HW139857   0.562   1.612   3.501  0.7834 -0.5134 -1.0196
 9408SOL    HW239858   0.475   1.666   3.398 -0.4254 -0.8870  0.3753
 9409SOL     OW39859   1.593   3.589   5.942 -0.3288  0.4335  0.2561
 9409SOL    HW139860   1.653   3.593   6.017  0.1757  1.1142 -0.1885
 9409SOL    HW239861   1.610   3.503   5.904 -0.3619  1.5522 -2.2303
 9410SOL     OW39862   2.111   2.136   7.247  0.2550  0.4906  0.0351
 9410SOL    HW139863   2.158   2.203   7.297  1.3956 -2.1691  2.5741
 9410SOL    HW239864   2.159   2.057   7.274 -4.6006 -2.0965  1.0126
 9411SOL     OW39865   0.625   3.803  17.454 -0.2854  0.7474 -0.3158
 9411SOL    HW139866   0.568   3.750  17.399 -1.2642  1.0696  0.3931
 9411SOL    HW239867   0.602   3.893  17.432  0.3417  0.8424 -0.5841
 9412SOL     OW39868   1.127   1.922   7.150 -0.4151  0.2289 -0.6606
 9412SOL    HW139869   1.136   1.953   7.240 -2.0224  2.9169 -1.4407
 9412SOL    HW239870   1.036   1.899   7.137 -0.8300  1.4121  0.1612
 9413SOL     OW39871   3.394   0.453  12.583 -0.9272 -0.0878 -0.1920
 9413SOL    HW139872   3.429   0.404  12.657  0.3502  0.4010 -0.4712
 9413SOL    HW239873   3.311   0.481  12.620 -2.6841 -0.4888 -3.7776
 9414SOL     OW39874   2.065   1.651   2.305  0.1492  0.3148  0.9049
 9414SOL    HW139875   2.114   1.571   2.321  1.0472  0.1253 -2.6807
 9414SOL    HW239876   2.133   1.703   2.262  1.4332 -1.3684  0.9208
 9415SOL     OW39877   2.502   2.007   6.459 -0.1553  0.7035  0.2148
 9415SOL    HW139878   2.484   1.918   6.487  0.5069  0.0697 -1.3956
 9415SOL    HW239879   2.412   2.039   6.451 -0.5912 -0.9592 -1.3810
 9416SOL     OW39880   2.148   2.389   3.622  0.3269 -0.5897 -0.1633
 9416SOL    HW139881   2.174   2.360   3.710 -2.7819 -1.3720  0.5099
 9416SOL    HW239882   2.169   2.482   3.618  1.7453 -0.9616 -1.2439
 9417SOL     OW39883   0.411   2.681   9.186 -0.0342  0.7111  0.1089
 9417SOL    HW139884   0.334   2.638   9.149  0.6481 -1.2943  0.9876
 9417SOL    HW239885   0.417   2.761   9.135  1.2620  0.8624  0.5081
 9418SOL     OW39886   0.423   4.395   5.646 -0.1068  0.3167 -0.5477
 9418SOL    HW139887   0.482   4.377   5.719 -1.5218  0.2385  0.5831
 9418SOL    HW239888   0.482   4.397   5.571 -2.7712 -1.1856 -2.6981
 9419SOL     OW39889   0.281   2.583   4.406  0.5433 -0.0635 -0.5905
 9419SOL    HW139890   0.323   2.633   4.336 -1.4930  1.7736 -0.5062
 9419SOL    HW239891   0.212   2.649   4.409  0.3340 -0.2831 -0.6080
 9420SOL     OW39892   2.789   1.377  16.043 -0.1670 -0.0843  0.3924
 9420SOL    HW139893   2.877   1.340  16.037 -0.7827 -1.2972 -1.1724
 9420SOL    HW239894   2.801   1.467  16.073  1.4597  0.5472 -2.1050
 9421SOL     OW39895   1.256   3.788  15.021 -0.1925  0.0578  0.1561
 9421SOL    HW139896   1.255   3.694  15.003  1.2752 -0.6104  3.6296
 9421SOL    HW239897   1.343   3.790  15.061  1.0322  0.3635 -2.4921
 9422SOL     OW39898   1.842   4.628   9.068  0.1756 -0.5517 -0.1465
 9422SOL    HW139899   1.836   4.566   9.140 -0.3557  0.0384  0.3187
 9422SOL    HW239900   1.801   4.707   9.103  0.5170 -0.3161 -0.2731
 9423SOL     OW39901   4.325   3.767   1.698 -0.4020 -0.1769  0.1430
 9423SOL    HW139902   4.290   3.743   1.783 -0.9463 -2.8768 -0.8523
 9423SOL    HW239903   4.241   3.782   1.653  0.0945 -0.5051 -0.8944
 9424SOL     OW39904   1.650   0.626   6.080  0.3127 -0.0445  0.1618
 9424SOL    HW139905   1.636   0.582   6.164  0.2018 -1.2584 -0.4878
 9424SOL    HW239906   1.742   0.600   6.074  0.3847  0.1061  0.5784
 9425SOL     OW39907   1.898   0.746  10.378 -0.2899 -0.1204 -0.5439
 9425SOL    HW139908   1.916   0.804  10.304 -0.5616  2.1447  1.1992
 9425SOL    HW239909   1.977   0.692  10.374  1.5053  2.6176 -2.3027
 9426SOL     OW39910   0.957   0.029   2.361  0.3463 -0.2971  0.5425
 9426SOL    HW139911   0.956   0.075   2.277 -0.8073  0.1919  0.8259
 9426SOL    HW239912   1.036   0.066   2.400 -0.0237 -0.1388  1.1404
 9427SOL     OW39913   3.824   2.334   7.327  0.1835  0.3020 -0.6988
 9427SOL    HW139914   3.894   2.274   7.301 -0.6431 -0.7884 -0.4163
 9427SOL    HW239915   3.807   2.319   7.420 -0.6992  2.2772 -0.5419
 9428SOL     OW39916   2.597   3.615  17.585  0.1722  0.0138  0.0454
 9428SOL    HW139917   2.571   3.594  17.675 -2.3586 -1.5471 -1.0629
 9428SOL    HW239918   2.514   3.632  17.542  0.7323 -0.1272 -1.0940
 9429SOL     OW39919   4.089   4.271   4.997 -0.6180  0.1213  0.4874
 9429SOL    HW139920   4.180   4.254   4.972 -0.7706 -1.0565  0.7369
 9429SOL    HW239921   4.043   4.231   4.924  1.0090 -2.4213  0.8608
 9430SOL     OW39922   2.569   4.278   7.597  0.5173 -0.0566 -0.1389
 9430SOL    HW139923   2.657   4.283   7.560  0.2846  1.4872 -0.4798
 9430SOL    HW239924   2.555   4.363   7.640 -1.7145 -0.2889 -0.4258
 9431SOL     OW39925   1.525   3.963  16.735 -0.4807 -0.5497 -0.0344
 9431SOL    HW139926   1.579   3.968  16.656  1.0920  0.8566  1.1392
 9431SOL    HW239927   1.454   4.017  16.702 -0.9321 -0.3171  1.2965
 9432SOL     OW39928   3.758   2.869   7.259 -0.4220  0.0900 -0.2717
 9432SOL    HW139929   3.786   2.778   7.268  1.1705  0.5069 -1.0077
 9432SOL    HW239930   3.710   2.893   7.338 -0.3428 -0.9025  0.0740
 9433SOL     OW39931   3.922   0.991   5.298  0.8256  0.0514  0.4494
 9433SOL    HW139932   4.014   0.972   5.282  0.7568 -0.1109  0.2444
 9433SOL    HW239933   3.911   0.959   5.388 -3.7095 -0.3108 -0.2459
 9434SOL     OW39934   0.442   1.049   8.411 -0.0018  0.3931  0.1089
 9434SOL    HW139935   0.512   1.113   8.422  0.0004  0.1651  1.3580
 9434SOL    HW239936   0.379   1.089   8.470 -1.6439 -0.1188 -1.3033
 9435SOL     OW39937   1.334   4.061   1.844 -0.3520 -0.1706 -0.0588
 9435SOL    HW139938   1.272   3.999   1.882  0.5288 -1.1649 -0.2518
 9435SOL    HW239939   1.318   4.061   1.750 -1.5516  0.5847  0.1539
 9436SOL     OW39940   0.852   1.539   4.164 -0.5647  0.6288 -0.0597
 9436SOL    HW139941   0.796   1.597   4.214 -1.4074 -3.2654  3.5402
 9436SOL    HW239942   0.879   1.479   4.234  3.8798  1.5405 -0.9820
 9437SOL     OW39943   2.253   0.578  15.573 -0.0704 -0.0635 -0.2477
 9437SOL    HW139944   2.207   0.659  15.595  0.8764  0.3374  0.2440
 9437SOL    HW239945   2.340   0.600  15.541 -0.1766 -1.1493 -1.2523
 9438SOL     OW39946   4.479   4.065  15.192 -0.0256 -0.1668 -0.3291
 9438SOL    HW139947   4.384   4.074  15.184  0.1116  1.0854 -0.4639
 9438SOL    HW239948   4.515   4.154  15.189 -1.7555  0.4857 -1.5100
 9439SOL     OW39949   3.228   3.949   9.749  0.2408 -0.1106  0.2856
 9439SOL    HW139950   3.282   3.960   9.827  0.6748  0.6790 -0.1260
 9439SOL    HW239951   3.270   3.868   9.721 -2.3060 -1.4246  0.2949
 9440SOL     OW39952   2.769   1.781  10.900 -0.5371  0.1369 -0.1526
 9440SOL    HW139953   2.865   1.783  10.904 -0.5442  0.6163 -0.2469
 9440SOL    HW239954   2.752   1.762  10.808 -0.5652  0.8100 -0.2833
 9441SOL     OW39955   0.919   2.501   7.715 -0.0352  0.3034 -0.1937
 9441SOL    HW139956   0.825   2.486   7.709 -0.2862  1.5989  0.4873
 9441SOL    HW239957   0.938   2.508   7.809  1.6770  0.0204 -0.5062
 9442SOL     OW39958   4.710   2.339   7.206 -0.1338 -0.1297  0.5889
 9442SOL    HW139959   4.636   2.360   7.263  0.4972  0.2134  1.2848
 9442SOL    HW239960   4.685   2.376   7.121  3.4810  1.8452  0.3824
 9443SOL     OW39961   0.108   1.815  16.511 -0.4935 -0.0364  0.0260
 9443SOL    HW139962   0.203   1.801  16.501 -0.6126 -1.7830  1.4367
 9443SOL    HW239963   0.094   1.909  16.501  0.3729  0.5919  4.5330
 9444SOL     OW39964   1.986   1.853  10.998  0.0352  0.0269 -0.2114
 9444SOL    HW139965   2.072   1.842  11.040  0.0978  0.7932 -0.1362
 9444SOL    HW239966   2.012   1.898  10.918 -2.6287  1.3145 -0.3328
 9445SOL     OW39967   4.226   1.418   5.551 -0.7699  0.3068 -0.3468
 9445SOL    HW139968   4.266   1.368   5.480  2.1431  0.4977  1.1673
 9445SOL    HW239969   4.301   1.475   5.566  0.1130 -0.9092 -0.1048
 9446SOL     OW39970   3.647   1.545   4.775 -0.5324  0.2627 -0.0953
 9446SOL    HW139971   3.552   1.546   4.783 -0.6192  0.8873 -1.1781
 9446SOL    HW239972   3.662   1.553   4.681 -0.3073 -0.4448 -0.1134
 9447SOL     OW39973   4.265   2.862   1.617  0.5656 -0.3435 -0.1421
 9447SOL    HW139974   4.217   2.921   1.675 -0.4480 -0.5117 -0.8231
 9447SOL    HW239975   4.348   2.861   1.665 -1.1507  0.3529  2.7885
 9448SOL     OW39976   2.611   2.072   0.578  0.2796  0.5148  0.3798
 9448SOL    HW139977   2.707   2.070   0.581  0.2587  0.9940  1.2847
 9448SOL    HW239978   2.591   2.019   0.655 -2.3630 -1.5898 -1.7595
 9449SOL     OW39979   2.163   4.662   3.667  0.0419  0.4242 -0.0612
 9449SOL    HW139980   2.164   4.689   3.576  0.6013 -0.2762 -0.2678
 9449SOL    HW239981   2.098   4.592   3.666  1.4194 -0.8828  0.6780
 9450SOL     OW39982   2.377   4.014   8.854 -0.1495 -0.4889  0.0779
 9450SOL    HW139983   2.324   4.031   8.777 -1.0763  1.0132  1.0361
 9450SOL    HW239984   2.304   4.009   8.915 -0.7686  0.2982 -0.5959
 9451SOL     OW39985   2.518   3.061  12.916  0.1071 -0.3632  0.5778
 9451SOL    HW139986   2.548   3.052  12.826 -1.7555 -0.8547  0.0147
 9451SOL    HW239987   2.594   3.113  12.943 -0.0617  0.4468 -0.4882
 9452SOL     OW39988   3.531   0.965   3.677  0.0942 -0.1344 -0.0557
 9452SOL    HW139989   3.572   1.050   3.694 -0.0186 -0.0853 -0.0319
 9452SOL    HW239990   3.460   0.965   3.740 -0.5936  0.4570 -0.8308
 9453SOL     OW39991   2.838   3.787   3.130 -0.2350  0.3624  0.3203
 9453SOL    HW139992   2.835   3.878   3.102 -2.7791 -0.2566 -1.4002
 9453SOL    HW239993   2.848   3.736   3.049  1.5083 -1.6041  1.7715
 9454SOL     OW39994   0.523   3.800  11.829 -0.6266  0.1541  0.4659
 9454SOL    HW139995   0.547   3.708  11.842 -1.9961 -0.2808 -0.0224
 9454SOL    HW239996   0.458   3.787  11.760 -0.3706  0.6789  0.1338
 9455SOL     OW39997   0.837   1.234  10.542 -0.0561 -0.1076 -0.1130
 9455SOL    HW139998   0.814   1.165  10.480  0.2505 -0.1289 -0.2019
 9455SOL    HW239999   0.860   1.179  10.618  1.8781 -1.4387 -1.6728
 9456SOL     OW40000   4.166   0.938   2.902  0.5051 -0.2308 -0.6877
 9456SOL    HW140001   4.168   0.882   2.980  0.4759  0.8617  0.0905
 9456SOL    HW240002   4.097   0.997   2.934 -0.7581 -1.2669 -1.4936
 9457SOL     OW40003   1.563   3.563   8.031 -0.1056  0.8082 -0.0283
 9457SOL    HW140004   1.603   3.648   8.047  0.4771  0.5205  0.0343
 9457SOL    HW240005   1.512   3.578   7.952 -2.3387 -0.8643  1.0932
 9458SOL     OW40006   3.177   0.773   2.248 -0.3085 -0.3929 -0.4269
 9458SOL    HW140007   3.238   0.713   2.204  0.5506 -0.3542  0.7211
 9458SOL    HW240008   3.114   0.787   2.177 -0.6551 -0.8579 -0.2056
 9459SOL     OW40009   3.011   3.745   4.520 -0.5987 -0.6353  0.5885
 9459SOL    HW140010   3.075   3.674   4.518 -2.0759 -1.9148 -1.8443
 9459SOL    HW240011   3.067   3.818   4.493  0.1006 -1.6078 -0.5573
 9460SOL     OW40012   3.393   4.530  16.877  0.4931 -1.1544  0.6581
 9460SOL    HW140013   3.480   4.569  16.877 -0.9364  1.9873 -0.1888
 9460SOL    HW240014   3.389   4.458  16.814  1.6928 -0.1650 -0.5280
 9461SOL     OW40015   0.261   0.841  10.230  0.2299 -0.1562  0.4034
 9461SOL    HW140016   0.211   0.877  10.303  1.5322 -0.2497  1.3521
 9461SOL    HW240017   0.206   0.875  10.160  0.7460  0.7201  0.4174
 9462SOL     OW40018   0.841   1.791   6.087  0.1742  0.6692  0.1372
 9462SOL    HW140019   0.755   1.832   6.097 -0.8562 -1.2118 -1.1897
 9462SOL    HW240020   0.824   1.743   6.006 -0.0633  0.2745  0.4162
 9463SOL     OW40021   1.182   4.433   7.968  0.6002  0.7370 -0.1521
 9463SOL    HW140022   1.248   4.376   7.928 -1.4361 -1.5423 -0.2367
 9463SOL    HW240023   1.198   4.404   8.057 -4.0215 -0.1368  0.3961
 9464SOL     OW40024   2.570   4.143   2.126 -0.1109 -0.1159 -0.4761
 9464SOL    HW140025   2.510   4.075   2.096 -1.1478  1.3189 -1.6678
 9464SOL    HW240026   2.622   4.094   2.189 -0.8170 -1.5315 -0.9808
 9465SOL     OW40027   1.676   3.840   7.694 -0.8807 -0.0354  0.1035
 9465SOL    HW140028   1.687   3.826   7.788  1.4571  1.9836  0.1233
 9465SOL    HW240029   1.666   3.753   7.655  1.6897 -0.5267  0.5430
 9466SOL     OW40030   1.553   1.302   6.948 -0.3230 -0.2762  0.1794
 9466SOL    HW140031   1.627   1.251   6.915  0.1580  0.1022  0.6603
 9466SOL    HW240032   1.599   1.385   6.958  0.3186 -0.6394  0.2312
 9467SOL     OW40033   1.162   3.864  11.965 -0.4194 -0.0727 -0.0142
 9467SOL    HW140034   1.109   3.931  12.008  0.5629  1.2799 -0.9200
 9467SOL    HW240035   1.244   3.868  12.015 -0.0307  1.3544 -0.7576
 9468SOL     OW40036   3.492   1.843   7.743 -0.1680  0.0972 -0.0637
 9468SOL    HW140037   3.420   1.872   7.799 -1.8674 -1.8751 -1.2440
 9468SOL    HW240038   3.556   1.912   7.724  1.4339 -0.9540  1.4666
 9469SOL     OW40039   0.855   2.151  12.598 -0.1017  0.7593  0.0992
 9469SOL    HW140040   0.789   2.204  12.644  1.7691  2.1000  1.2314
 9469SOL    HW240041   0.879   2.209  12.525  0.3836  0.9995  0.4548
 9470SOL     OW40042   0.336   3.089   5.418  0.1158 -0.4511 -0.2170
 9470SOL    HW140043   0.382   3.012   5.450 -0.8968 -0.7278  0.5923
 9470SOL    HW240044   0.275   3.042   5.361 -1.6140  1.9346 -0.3588
 9471SOL     OW40045   0.985   2.359   6.267 -0.4371 -0.1592 -0.0173
 9471SOL    HW140046   0.951   2.308   6.341  0.6380 -0.3056  0.3720
 9471SOL    HW240047   1.023   2.436   6.309  0.0104 -0.8760  0.9059
 9472SOL     OW40048   0.790   1.138   3.583 -0.6837 -0.7390 -0.4178
 9472SOL    HW140049   0.765   1.046   3.578  0.6300 -1.1323  0.1843
 9472SOL    HW240050   0.711   1.177   3.620 -1.0476 -0.8034 -1.1270
 9473SOL     OW40051   3.160   3.418  15.217  0.6228  0.2839  0.0378
 9473SOL    HW140052   3.217   3.395  15.143 -0.4268 -0.6003 -0.4873
 9473SOL    HW240053   3.164   3.513  15.209  1.6576  0.2037 -0.4543
 9474SOL     OW40054   3.627   3.371  12.163  0.1577 -0.1559 -0.0727
 9474SOL    HW140055   3.719   3.382  12.190 -0.1913 -0.5111  1.2980
 9474SOL    HW240056   3.650   3.289  12.120  0.6124  0.1651 -0.4453
 9475SOL     OW40057   2.870   0.651   5.111 -0.2864 -0.1690  0.0792
 9475SOL    HW140058   2.930   0.712   5.069 -1.1979 -0.3929 -1.5442
 9475SOL    HW240059   2.829   0.703   5.181 -1.2191 -1.2861  0.3600
 9476SOL     OW40060   2.541   2.637   9.135  0.0550  0.0008 -0.0568
 9476SOL    HW140061   2.450   2.661   9.155  0.6083  1.0158  1.2318
 9476SOL    HW240062   2.543   2.659   9.042  0.6000 -1.7475 -0.4533
 9477SOL     OW40063   0.032   3.092   7.308 -0.2208  0.0474  0.1124
 9477SOL    HW140064   0.037   3.104   7.402 -0.8393 -1.4075  0.3337
 9477SOL    HW240065   4.715   3.166   7.287 -0.2832  0.5233  2.0267
 9478SOL     OW40066   2.947   2.786   1.194 -0.3688 -0.3287 -0.0665
 9478SOL    HW140067   2.989   2.702   1.209 -1.0833 -0.5676  0.6140
 9478SOL    HW240068   2.855   2.764   1.210 -0.8008  2.1549  0.8881
 9479SOL     OW40069   1.622   3.372   8.662  0.0975  0.4800  0.3551
 9479SOL    HW140070   1.548   3.369   8.602  0.4487 -0.4166 -0.0377
 9479SOL    HW240071   1.595   3.444   8.719  1.9598  0.7864  0.8580
 9480SOL     OW40072   1.222   4.529   3.587  0.5744  0.4031 -0.1123
 9480SOL    HW140073   1.316   4.542   3.605  0.2890  0.7208  1.1304
 9480SOL    HW240074   1.211   4.437   3.566  1.1209  0.4829 -0.7362
 9481SOL     OW40075   2.261   2.162   5.825 -0.5477 -0.1197  0.1318
 9481SOL    HW140076   2.176   2.194   5.796 -1.2356  0.2645  2.5852
 9481SOL    HW240077   2.316   2.240   5.815  1.6365 -1.9606 -2.2116
 9482SOL     OW40078   1.042   0.918  13.517  0.1882 -0.1739  0.1414
 9482SOL    HW140079   1.099   0.985  13.556 -1.0567  0.6271  0.5639
 9482SOL    HW240080   1.109   0.874  13.464 -1.1545 -1.0858 -0.7798
 9483SOL     OW40081   3.133   1.157   1.469  0.0831  0.2881  0.3855
 9483SOL    HW140082   3.044   1.177   1.499  0.5230  0.4075  1.5903
 9483SOL    HW240083   3.174   1.244   1.472  0.9259 -0.1158  0.4287
 9484SOL     OW40084   0.573   2.712   7.114  0.1619 -0.3273 -0.0363
 9484SOL    HW140085   0.531   2.790   7.079  0.7422  0.3511  0.7910
 9484SOL    HW240086   0.505   2.657   7.152 -1.1209  1.3096  0.0402
 9485SOL     OW40087   0.548   2.545  13.237  0.0324 -0.3080  0.3926
 9485SOL    HW140088   0.537   2.639  13.230  2.6995 -0.0769 -0.8716
 9485SOL    HW240089   0.499   2.512  13.162  0.0387 -0.5428  0.4916
 9486SOL     OW40090   0.364   2.016   7.072 -0.6094  0.7052  0.0802
 9486SOL    HW140091   0.443   2.012   7.127 -0.9336  1.0131  0.5604
 9486SOL    HW240092   0.319   2.092   7.108  0.2223  1.3836 -0.3131
 9487SOL     OW40093   2.534   2.711  13.701  0.1883 -0.2237  0.0641
 9487SOL    HW140094   2.540   2.693  13.607 -0.4385 -1.8716  0.3461
 9487SOL    HW240095   2.569   2.631  13.739  2.1472  1.2039  1.2661
 9488SOL     OW40096   3.272   4.605   5.159 -0.4463  0.3455  0.1434
 9488SOL    HW140097   3.297   4.607   5.251 -0.1615 -3.1239  0.1256
 9488SOL    HW240098   3.352   4.570   5.120 -0.2652 -0.3190  1.1140
 9489SOL     OW40099   0.818   0.658   4.312  0.1852  0.3217 -0.7774
 9489SOL    HW140100   0.877   0.608   4.369  0.3714  0.9672 -0.4032
 9489SOL    HW240101   0.772   0.713   4.375  2.6049  1.7166 -0.2201
 9490SOL     OW40102   2.595   3.612   5.552 -0.2792  0.6214  0.5497
 9490SOL    HW140103   2.674   3.653   5.588 -1.1410  2.3585  0.4558
 9490SOL    HW240104   2.555   3.586   5.635 -1.5171 -0.1116 -0.2797
 9491SOL     OW40105   0.470   4.240   1.438 -0.1569 -0.4170  0.4350
 9491SOL    HW140106   0.420   4.236   1.520  0.0041  2.5870  0.6882
 9491SOL    HW240107   0.412   4.264   1.366  1.4292  1.7794 -0.1236
 9492SOL     OW40108   2.920   0.301   7.426  0.3541  0.0875  0.5995
 9492SOL    HW140109   2.911   0.339   7.339  2.1131 -0.3064  0.2477
 9492SOL    HW240110   2.984   0.231   7.414 -4.1592 -3.6792 -1.1383
 9493SOL     OW40111   4.682   4.640   2.296 -0.4467  0.6811  0.3061
 9493SOL    HW140112   4.609   4.701   2.283  0.1420  1.3242 -0.0204
 9493SOL    HW240113   0.009   4.683   2.245  0.0945 -1.3510 -0.6697
 9494SOL     OW40114   3.113   2.414   1.774  0.5842 -0.1056 -0.2468
 9494SOL    HW140115   3.055   2.484   1.802  0.8675 -0.5122  1.3461
 9494SOL    HW240116   3.060   2.349   1.819 -2.8329  1.7761 -1.5665
 9495SOL     OW40117   4.018   0.982   5.933  0.5384  0.2510 -0.2773
 9495SOL    HW140118   3.966   0.994   5.854 -2.6221  0.6280  1.8444
 9495SOL    HW240119   4.055   1.068   5.954  0.9838  0.2206 -0.9548
 9496SOL     OW40120   0.904   3.733  11.557 -0.3762  0.1563  0.5046
 9496SOL    HW140121   0.924   3.790  11.483 -0.4674 -0.2941  0.1315
 9496SOL    HW240122   0.971   3.771  11.614 -1.0515 -0.4241  1.6828
 9497SOL     OW40123   1.676   2.476   4.666  0.0373  0.3424 -0.3172
 9497SOL    HW140124   1.611   2.477   4.596  0.4406 -1.9884 -0.7375
 9497SOL    HW240125   1.662   2.562   4.706  0.5544  0.8146 -1.1625
 9498SOL     OW40126   1.806   2.360   4.881  0.1157 -0.2375 -0.3332
 9498SOL    HW140127   1.732   2.333   4.936  1.1322  0.0179  1.1333
 9498SOL    HW240128   1.764   2.407   4.808 -1.5178 -0.4501  0.4684
 9499SOL     OW40129   2.987   3.962  14.190  0.2429  0.0194 -0.0804
 9499SOL    HW140130   3.029   3.994  14.271  1.7136  0.5911 -1.0691
 9499SOL    HW240131   2.892   3.970  14.200  0.1551  0.7434 -1.5931
 9500SOL     OW40132   1.400   4.286   8.003  0.3868  0.0221  0.0443
 9500SOL    HW140133   1.458   4.349   8.045 -1.1050  0.5212  1.3327
 9500SOL    HW240134   1.454   4.208   8.014  0.8405  0.4444  0.7621
 9501SOL     OW40135   0.057   4.725   4.860  0.3108 -0.0432 -0.6820
 9501SOL    HW140136   0.041   0.001   4.952  3.0274 -1.9891  0.1659
 9501SOL    HW240137   0.004   0.055   4.823  0.7706  1.2943  1.2334
 9502SOL     OW40138   2.253   2.141  12.822 -0.5924  0.5584  0.3133
 9502SOL    HW140139   2.335   2.098  12.845 -0.0386  1.9023  0.8802
 9502SOL    HW240140   2.186   2.087  12.864  0.4619  0.5373  1.9618
 9503SOL     OW40141   1.535   2.002   6.181  0.2518  0.4261  0.1916
 9503SOL    HW140142   1.630   2.001   6.172  0.3506 -0.0525  1.3153
 9503SOL    HW240143   1.515   2.095   6.192  1.1035  0.7444 -1.0301
 9504SOL     OW40144   2.773   2.851   8.900 -0.6664 -0.1626 -0.3061
 9504SOL    HW140145   2.842   2.791   8.926  0.1414  1.4367  1.2454
 9504SOL    HW240146   2.809   2.935   8.928 -0.6361 -1.1056  2.4893
 9505SOL     OW40147   0.293   4.701  11.623 -0.5525  0.1546  0.4893
 9505SOL    HW140148   0.303   4.664  11.711 -1.8183  1.0979  1.0237
 9505SOL    HW240149   0.356   0.032  11.628 -0.9412  0.3814  2.3191
 9506SOL     OW40150   1.136   1.987   8.163 -0.3281 -0.6577  0.2664
 9506SOL    HW140151   1.199   2.026   8.102  0.2860 -1.4079  0.4259
 9506SOL    HW240152   1.187   1.993   8.244 -2.2087 -1.3723  1.5101
 9507SOL     OW40153   1.559   0.185  10.727  0.4576 -0.3937  0.3931
 9507SOL    HW140154   1.503   0.164  10.652  0.0828  1.5275  0.1198
 9507SOL    HW240155   1.604   0.264  10.696  0.7143 -0.5735  0.3156
 9508SOL     OW40156   0.232   2.583   7.595 -1.0665  0.2411 -0.2226
 9508SOL    HW140157   0.223   2.648   7.526  0.9835  0.2191 -0.4950
 9508SOL    HW240158   0.278   2.624   7.668 -1.5141 -1.5727  1.0953
 9509SOL     OW40159   3.225   3.698  14.391  0.1469  0.3457 -0.3054
 9509SOL    HW140160   3.200   3.687  14.483 -2.0486  2.0083 -0.6982
 9509SOL    HW240161   3.173   3.774  14.365 -0.0573 -0.3028 -1.7727
 9510SOL     OW40162   0.552   3.091   4.560 -0.0338 -0.1220  0.5550
 9510SOL    HW140163   0.458   3.102   4.544  0.0030  0.3219  0.6435
 9510SOL    HW240164   0.557   3.003   4.525 -0.1845  1.6906 -4.0243
 9511SOL     OW40165   1.838   1.564   9.305  0.2316  0.1888 -0.1286
 9511SOL    HW140166   1.860   1.519   9.223 -0.7562 -1.5056  0.5587
 9511SOL    HW240167   1.903   1.522   9.361  1.5258  1.6086 -0.5488
 9512SOL     OW40168   0.263   3.882   2.368 -0.0738 -0.2711  0.2510
 9512SOL    HW140169   0.217   3.864   2.286 -0.2436 -0.0318  0.2918
 9512SOL    HW240170   0.195   3.942   2.401 -0.2118 -0.3290  0.0718
 9513SOL     OW40171   3.105   1.876  17.171 -0.1334  0.2610 -0.7381
 9513SOL    HW140172   3.170   1.939  17.203  0.3097 -0.8891  0.5946
 9513SOL    HW240173   3.157   1.840  17.100  1.2736 -0.1033  0.4964
 9514SOL     OW40174   0.631   2.221   4.984  0.4017 -0.3892 -0.2407
 9514SOL    HW140175   0.619   2.246   4.892 -2.7635  0.3559  0.3808
 9514SOL    HW240176   0.720   2.185   4.983  0.8763  0.7469  0.1241
 9515SOL     OW40177   4.107   0.255  17.444 -0.1582 -0.0666  0.3782
 9515SOL    HW140178   4.036   0.312  17.416 -0.1656 -1.2921 -2.1633
 9515SOL    HW240179   4.179   0.311  17.413 -1.1644  1.2734  0.4877
 9516SOL     OW40180   3.603   1.827   5.585  0.3908 -0.2337  0.1489
 9516SOL    HW140181   3.620   1.733   5.591  0.8038 -0.1061  0.8897
 9516SOL    HW240182   3.688   1.869   5.596  0.1061  1.2057 -2.8639
 9517SOL     OW40183   1.308   2.211  11.058  0.1081 -0.7247  0.6518
 9517SOL    HW140184   1.394   2.212  11.017 -1.3095 -0.2182 -2.2904
 9517SOL    HW240185   1.272   2.128  11.027  1.8504 -1.2540  0.0468
 9518SOL     OW40186   0.792   0.368   6.683 -0.0040  1.5321 -0.4659
 9518SOL    HW140187   0.806   0.274   6.686 -1.4084  1.3295 -0.5373
 9518SOL    HW240188   0.733   0.370   6.759  2.6097 -0.2987  1.5961
 9519SOL     OW40189   3.450   4.618   8.181  0.6263  0.1280  0.3941
 9519SOL    HW140190   3.535   4.575   8.171  1.2249  1.0629  1.4072
 9519SOL    HW240191   3.389   4.553   8.147  1.7685 -2.0179  2.4315
 9520SOL     OW40192   0.645   3.945  15.933  0.0003 -0.2094 -0.1825
 9520SOL    HW140193   0.705   4.018  15.919  0.5474 -1.2784 -3.3203
 9520SOL    HW240194   0.623   3.913  15.846  1.3687  0.1562 -0.6625
 9521SOL     OW40195   1.030   3.450   3.830  0.1237 -0.0135 -0.1582
 9521SOL    HW140196   1.005   3.475   3.919  1.0817  1.8809 -0.4262
 9521SOL    HW240197   0.944   3.425   3.797 -0.2126  0.3393  0.4415
 9522SOL     OW40198   4.420   0.383   3.791 -0.3794 -0.0536  0.3900
 9522SOL    HW140199   4.371   0.309   3.757 -2.2918  1.4266 -0.0513
 9522SOL    HW240200   4.456   0.343   3.870  0.1430  1.5640  0.9934
 9523SOL     OW40201   4.267   1.148   2.268  0.1682 -0.3588  0.1325
 9523SOL    HW140202   4.258   1.143   2.363 -2.7904  1.9142 -0.0255
 9523SOL    HW240203   4.299   1.059   2.249 -0.5902 -0.2716 -1.5634
 9524SOL     OW40204   0.023   1.494   4.619 -0.4635  0.4808 -0.7911
 9524SOL    HW140205   4.721   1.578   4.607  1.1791  1.6667  1.7062
 9524SOL    HW240206   0.068   1.508   4.703 -1.5678 -1.0775  0.0729
 9525SOL     OW40207   4.263   0.727   5.550  0.0435 -0.7278 -0.4212
 9525SOL    HW140208   4.259   0.673   5.629 -3.3499  0.3878  0.1669
 9525SOL    HW240209   4.188   0.782   5.568  1.5684  0.9149  0.9052
 9526SOL     OW40210   3.358   3.545  12.536 -0.2634  0.0015 -0.3238
 9526SOL    HW140211   3.397   3.632  12.535  0.8374 -0.4941 -1.7765
 9526SOL    HW240212   3.416   3.501  12.599  0.9963  0.7589 -0.9640
 9527SOL     OW40213   2.349   3.307   2.290 -0.7194 -0.4346 -0.0862
 9527SOL    HW140214   2.423   3.359   2.261 -0.2510 -0.3818  1.2021
 9527SOL    HW240215   2.309   3.281   2.207  1.4760 -0.5594 -1.0805
 9528SOL     OW40216   4.225   2.282   3.216 -0.2923 -0.0981  0.2159
 9528SOL    HW140217   4.260   2.258   3.130 -1.5122  0.9217 -0.5587
 9528SOL    HW240218   4.139   2.241   3.207 -0.1471 -0.2313 -0.5645
 9529SOL     OW40219   4.039   3.777   5.807 -0.0639  0.3996  0.0939
 9529SOL    HW140220   4.003   3.817   5.728 -3.9944 -1.5389  0.9238
 9529SOL    HW240221   4.021   3.836   5.880 -1.1986 -1.3330  1.2152
 9530SOL     OW40222   1.108   0.418   5.776  0.6151  0.4481 -0.1950
 9530SOL    HW140223   1.046   0.467   5.830  2.9765  1.8913  1.1712
 9530SOL    HW240224   1.135   0.351   5.838  1.0533  1.2892  0.5224
 9531SOL     OW40225   0.567   1.838   1.634 -0.2929  0.1998 -0.0010
 9531SOL    HW140226   0.549   1.866   1.724 -1.6140  0.0410 -0.2192
 9531SOL    HW240227   0.649   1.788   1.637 -0.0862  0.4569 -1.3931
 9532SOL     OW40228   2.437   2.253  17.349 -0.1336 -0.0610 -0.0802
 9532SOL    HW140229   2.438   2.295  17.263 -0.0252 -0.8971 -0.4865
 9532SOL    HW240230   2.471   2.316  17.412  0.7112 -0.6326  0.0247
 9533SOL     OW40231   3.453   0.779   5.663  0.3311 -0.0641 -0.4631
 9533SOL    HW140232   3.472   0.715   5.595  0.1273  0.0304 -0.6098
 9533SOL    HW240233   3.367   0.746   5.690  0.1381  0.7463 -0.0782
 9534SOL     OW40234   0.634   3.916   7.002 -0.4722  0.0850 -0.0346
 9534SOL    HW140235   0.673   3.987   7.052 -0.3969 -0.3773  0.5650
 9534SOL    HW240236   0.547   3.953   6.987 -1.0123  0.1829  3.2285
 9535SOL     OW40237   4.311   3.402   3.442  0.5354 -0.0595  0.1560
 9535SOL    HW140238   4.219   3.403   3.468  0.3163  1.4960 -0.7032
 9535SOL    HW240239   4.304   3.348   3.363  0.7984 -0.7219  0.5756
 9536SOL     OW40240   0.944   3.243  14.217 -0.2957 -0.2690 -0.0234
 9536SOL    HW140241   1.003   3.270  14.287 -0.0483 -1.0516  0.0637
 9536SOL    HW240242   0.999   3.173  14.184 -1.7775 -1.5003  0.1312
 9537SOL     OW40243   3.132   1.795   3.899  0.2374  0.0881 -0.2661
 9537SOL    HW140244   3.186   1.724   3.863 -1.0583 -0.2933 -1.4645
 9537SOL    HW240245   3.051   1.752   3.873 -0.0915  0.6645 -0.1762
 9538SOL     OW40246   2.105   3.935   4.876  0.6917  0.1271  0.0337
 9538SOL    HW140247   2.182   3.881   4.894 -1.7874 -2.8700  1.8301
 9538SOL    HW240248   2.036   3.885   4.921  0.1628  1.7275  1.0225
 9539SOL     OW40249   1.141   3.314   2.167  0.4250 -0.7293 -0.1334
 9539SOL    HW140250   1.072   3.267   2.121 -0.7510  1.6182 -0.7850
 9539SOL    HW240251   1.176   3.240   2.215  0.9002 -1.1746 -1.1648
 9540SOL     OW40252   2.096   4.439   6.005 -0.2080 -0.4609 -0.3748
 9540SOL    HW140253   2.146   4.477   6.077 -0.6247  2.6105 -1.6982
 9540SOL    HW240254   2.144   4.356   6.000  0.6705 -0.0725  1.6562
 9541SOL     OW40255   3.871   2.437   6.800  0.8090  0.1956  0.1562
 9541SOL    HW140256   3.842   2.460   6.888 -1.8565  1.8089 -1.1596
 9541SOL    HW240257   3.945   2.497   6.786  0.7623 -0.0338 -1.1225
 9542SOL     OW40258   4.166   1.254   7.761  0.1895  0.3006  0.5793
 9542SOL    HW140259   4.150   1.160   7.748  0.0320  0.2925  0.8408
 9542SOL    HW240260   4.080   1.294   7.772 -0.2753 -0.4100 -0.4352
 9543SOL     OW40261   1.116   4.087   5.657  0.1172 -0.1400 -0.5864
 9543SOL    HW140262   1.162   4.098   5.741  2.2529  0.9647 -1.8958
 9543SOL    HW240263   1.035   4.137   5.651 -0.7767 -1.3853  1.0284
 9544SOL     OW40264   0.937   2.181  15.400  0.4927  0.4942  0.5097
 9544SOL    HW140265   0.926   2.103  15.454 -0.0726 -0.7010 -1.3462
 9544SOL    HW240266   0.953   2.145  15.313 -1.0875 -0.9465  0.8333
 9545SOL     OW40267   4.195   0.163   1.581  0.1039  0.1854 -0.3548
 9545SOL    HW140268   4.225   0.072   1.586  0.9093  0.5175  0.8132
 9545SOL    HW240269   4.261   0.205   1.526  0.2865  1.8552  1.1720
 9546SOL     OW40270   3.270   4.359   1.754 -0.2042 -0.1935  0.1816
 9546SOL    HW140271   3.181   4.376   1.787 -0.0505 -1.6993  1.3433
 9546SOL    HW240272   3.248   4.282   1.702  2.0335 -0.9320  0.3605
 9547SOL     OW40273   3.940   0.178  17.128  0.0497  0.3285 -0.2481
 9547SOL    HW140274   3.930   0.194  17.221 -1.6149 -0.7427 -0.2320
 9547SOL    HW240275   4.021   0.226  17.114  0.1268 -0.0142 -0.9745
 9548SOL     OW40276   4.271   4.346  11.974 -0.0316  0.0520 -0.4206
 9548SOL    HW140277   4.199   4.406  11.995  0.3670  0.2325  0.4238
 9548SOL    HW240278   4.266   4.269  12.031  2.1381  0.4579  0.3086
 9549SOL     OW40279   0.007   3.074   3.671  0.5903 -0.3201 -0.3475
 9549SOL    HW140280   0.008   3.169   3.680  3.1884 -0.6000  2.3400
 9549SOL    HW240281   0.015   3.071   3.575 -0.6453  1.8415 -0.5108
 9550SOL     OW40282   2.651   0.713   3.608 -0.1371 -0.0210  0.4249
 9550SOL    HW140283   2.578   0.651   3.609 -0.4612  0.3423 -0.1315
 9550SOL    HW240284   2.622   0.780   3.671  0.3515  0.1603  0.4554
 9551SOL     OW40285   1.750   0.118  12.101  0.6188 -0.4177  0.4487
 9551SOL    HW140286   1.804   0.195  12.118 -0.8756  0.3752  1.6012
 9551SOL    HW240287   1.737   0.085  12.190  1.8138  2.6694  1.7835
 9552SOL     OW40288   4.390   3.759   3.964 -0.7814  0.2313 -0.0770
 9552SOL    HW140289   4.377   3.830   3.901  2.0288  0.7529 -0.0721
 9552SOL    HW240290   4.404   3.688   3.902  2.4414 -1.1308  2.1810
 9553SOL     OW40291   2.659   3.156  10.590  0.4400  0.3387 -0.2324
 9553SOL    HW140292   2.628   3.237  10.630 -1.0360 -0.6037  0.5372
 9553SOL    HW240293   2.728   3.175  10.526  0.5417 -0.5736 -0.3931
 9554SOL     OW40294   2.938   0.567   8.070 -0.4614  0.1648 -0.3740
 9554SOL    HW140295   2.877   0.639   8.083 -1.9074 -1.2643  0.8511
 9554SOL    HW240296   3.022   0.602   8.099  0.1964 -0.6007 -1.3324
 9555SOL     OW40297   2.644   3.143   6.286  0.0299 -0.2057 -0.4519
 9555SOL    HW140298   2.639   3.049   6.304  2.5719 -0.2288  0.1013
 9555SOL    HW240299   2.732   3.159   6.318  1.1308 -2.6421 -2.2744
 9556SOL     OW40300   3.978   1.100  10.521 -0.5817  0.1617  0.2068
 9556SOL    HW140301   3.946   1.064  10.438  1.7184 -2.1966  0.3299
 9556SOL    HW240302   3.918   1.175  10.523 -1.6747 -0.7493  1.7730
 9557SOL     OW40303   1.431   1.074   2.796 -0.5773 -0.1280  0.3383
 9557SOL    HW140304   1.448   1.155   2.844 -1.1441 -0.4597  1.0938
 9557SOL    HW240305   1.391   1.116   2.720  1.5453 -0.5094 -1.0110
 9558SOL     OW40306   2.671   4.439   9.823 -0.1260 -0.5177  0.8468
 9558SOL    HW140307   2.595   4.412   9.875 -0.5009 -0.1567  0.4818
 9558SOL    HW240308   2.748   4.441   9.881 -0.1241  2.4070  0.7607
 9559SOL     OW40309   3.794   4.710   7.177  0.3923  0.1900 -0.1865
 9559SOL    HW140310   3.781   4.711   7.082 -0.8363 -3.1780 -0.0261
 9559SOL    HW240311   3.887   4.732   7.191  0.0897  1.1881  0.3053
 9560SOL     OW40312   2.614   1.374   4.005 -0.2352 -0.0698  0.0673
 9560SOL    HW140313   2.638   1.307   3.941  0.4549 -0.6055  0.8899
 9560SOL    HW240314   2.703   1.405   4.020 -0.2908 -0.0076  0.2586
 9561SOL     OW40315   2.607   0.288   8.087  0.0626  0.2530  0.4175
 9561SOL    HW140316   2.607   0.381   8.106 -2.3404 -0.5063  4.1834
 9561SOL    HW240317   2.700   0.273   8.068  0.0461  1.9133 -0.8977
 9562SOL     OW40318   1.310   0.788  13.320  0.0299 -0.0669  0.1433
 9562SOL    HW140319   1.314   0.711  13.376 -2.0329  0.1429  0.5998
 9562SOL    HW240320   1.329   0.854  13.386  0.1904  0.1641 -0.1337
 9563SOL     OW40321   1.169   1.313   1.299  0.2832  0.9821 -0.4448
 9563SOL    HW140322   1.083   1.297   1.337  1.1466 -1.6637  0.3954
 9563SOL    HW240323   1.154   1.350   1.212  0.4784 -0.5242 -1.1226
 9564SOL     OW40324   3.039   3.035   3.089  0.2527 -0.6742 -0.5841
 9564SOL    HW140325   3.060   3.128   3.081  0.6524 -0.3420  4.2307
 9564SOL    HW240326   2.945   3.034   3.108  0.6738  0.5451  1.5623
 9565SOL     OW40327   0.744   1.973   4.761  0.0898  0.1259 -0.6561
 9565SOL    HW140328   0.666   1.918   4.771  0.0631  0.2722 -0.0412
 9565SOL    HW240329   0.782   1.931   4.684 -0.6559 -3.4756  0.9124
 9566SOL     OW40330   0.142   3.021  14.250  0.4000 -0.4083 -0.5088
 9566SOL    HW140331   0.165   3.112  14.228  0.1204  0.1663  1.5371
 9566SOL    HW240332   0.079   3.033  14.321  0.1087 -1.0831 -0.6571
 9567SOL     OW40333   4.184   2.141  15.942  0.3220  0.8240 -0.1237
 9567SOL    HW140334   4.109   2.116  15.887  1.5178 -0.1769 -1.3217
 9567SOL    HW240335   4.191   2.234  15.922  2.5346  0.9541  1.2923
 9568SOL     OW40336   2.262   1.915   5.380  0.1408 -0.2327 -0.5316
 9568SOL    HW140337   2.272   1.917   5.475 -1.7181  1.5316 -0.3731
 9568SOL    HW240338   2.244   2.004   5.349 -1.9959 -0.5750 -0.2951
 9569SOL     OW40339   2.352   0.018   5.113 -0.3831 -0.3887  0.1909
 9569SOL    HW140340   2.278   0.061   5.157 -1.5182 -0.2179 -1.8968
 9569SOL    HW240341   2.305   4.705   5.050 -1.6782  0.5960  0.3148
 9570SOL     OW40342   2.553   0.288   7.760  0.1576  0.0881 -0.0048
 9570SOL    HW140343   2.624   0.325   7.812 -0.0313 -0.9621  1.0041
 9570SOL    HW240344   2.593   0.259   7.678 -0.0207  0.9377 -0.3930
 9571SOL     OW40345   1.207   1.426   9.776 -0.5535  0.2772 -0.3754
 9571SOL    HW140346   1.237   1.516   9.785  2.1536 -0.7290  0.6067
 9571SOL    HW240347   1.159   1.419   9.694 -1.1529 -3.4862  0.2563
   4.74071   4.74071  17.76030
